<event>
 5    1  0.7220939E+001  0.1490397E+01  0.7818608E-02  0.3481648E+00
         11   -1    0    0    0    0  0.00000000000E+00  0.00000000000E+00  0.39999999674E+01  0.40000000000E+01  0.51100000000E-03 0. -1.
    9000002   -1    0    0    0    0 -0.00000000000E+00 -0.00000000000E+00  0.00000000000E+00  0.93800000000E+00  0.93800000000E+00 0. -1.
         11    1    1    2    0    0  0.52703048235E-01 -0.33978854857E+00  0.27783699566E+00  0.44207185650E+00  0.51100000000E-03 0. -1.
    9000002    1    1    2    0    0 -0.58033723502E+00  0.76842222377E+00  0.96138073447E+00  0.16526829511E+01  0.93800000000E+00 0. -1.
         22    1    1    2    0    0  0.52763418678E+00 -0.42863367520E+00  0.27607822372E+01  0.28432451924E+01  0.00000000000E+00 0. -1.
</event>
<event>
 5    1  0.7220939E+001  0.1599674E+01  0.7818608E-02  0.3353717E+00
         11   -1    0    0    0    0  0.00000000000E+00  0.00000000000E+00  0.39999999674E+01  0.40000000000E+01  0.51100000000E-03 0. -1.
    9000002   -1    0    0    0    0 -0.00000000000E+00 -0.00000000000E+00  0.00000000000E+00  0.93800000000E+00  0.93800000000E+00 0. -1.
         11    1    1    2    0    0  0.13708855991E-01  0.31443429937E-01  0.30068127390E+00  0.30263197388E+00  0.51100000000E-03 0. -1.
    9000002    1    1    2    0    0 -0.18123765521E+00 -0.39265050967E+00  0.12670407836E+00  0.10406341499E+01  0.93800000000E+00 0. -1.
         22    1    1    2    0    0  0.16752879922E+00  0.36120707973E+00  0.35726146151E+01  0.35947338762E+01  0.00000000000E+00 0. -1.
</event>
<event>
 5    1  0.7220939E+001  0.1598892E+01  0.7818608E-02  0.3354567E+00
         11   -1    0    0    0    0  0.00000000000E+00  0.00000000000E+00  0.39999999674E+01  0.40000000000E+01  0.51100000000E-03 0.  1.
    9000002   -1    0    0    0    0 -0.00000000000E+00 -0.00000000000E+00  0.00000000000E+00  0.93800000000E+00  0.93800000000E+00 0.  1.
         11    1    1    2    0    0  0.51963568729E-01  0.29050764958E-01  0.89684747764E+00  0.89882134970E+00  0.51100000000E-03 0.  1.
    9000002    1    1    2    0    0 -0.34507135269E+00 -0.89815511957E-01  0.85946721525E-01  0.10071603167E+01  0.93800000000E+00 0.  1.
         22    1    1    2    0    0  0.29310778396E+00  0.60764747000E-01  0.30172057682E+01  0.30320183336E+01  0.00000000000E+00 0.  1.
</event>
<event>
 5    1  0.7220939E+001  0.1599675E+01  0.7818608E-02  0.3353716E+00
         11   -1    0    0    0    0  0.00000000000E+00  0.00000000000E+00  0.39999999674E+01  0.40000000000E+01  0.51100000000E-03 0.  1.
    9000002   -1    0    0    0    0 -0.00000000000E+00 -0.00000000000E+00  0.00000000000E+00  0.93800000000E+00  0.93800000000E+00 0.  1.
         11    1    1    2    0    0 -0.10591256031E+00  0.11003610001E+00  0.12449002540E+01  0.12542337570E+01  0.51100000000E-03 0.  1.
    9000002    1    1    2    0    0  0.32610287349E+00 -0.33596221922E+00  0.14929810035E+00  0.10589370234E+01  0.93800000000E+00 0.  1.
         22    1    1    2    0    0 -0.22019031317E+00  0.22592611922E+00  0.26058016130E+01  0.26248292196E+01  0.00000000000E+00 0. -1.
</event>
<event>
 5    1  0.7220939E+001  0.1490288E+01  0.7818608E-02  0.3481786E+00
         11   -1    0    0    0    0  0.00000000000E+00  0.00000000000E+00  0.39999999674E+01  0.40000000000E+01  0.51100000000E-03 0. -1.
    9000002   -1    0    0    0    0 -0.00000000000E+00 -0.00000000000E+00  0.00000000000E+00  0.93800000000E+00  0.93800000000E+00 0. -1.
         11    1    1    2    0    0 -0.22814338158E+00  0.36874970919E+00  0.92584384121E+00  0.10223565083E+01  0.51100000000E-03 0. -1.
    9000002    1    1    2    0    0  0.87356279147E-01  0.16863376486E+00  0.18649699504E+00  0.97503517645E+00  0.93800000000E+00 0. -1.
         22    1    1    2    0    0  0.14078710244E+00 -0.53738347405E+00  0.28876591311E+01  0.29406083153E+01  0.00000000000E+00 0. -1.
</event>
<event>
 5    1  0.7220939E+001  0.1599666E+01  0.7818608E-02  0.3353726E+00
         11   -1    0    0    0    0  0.00000000000E+00  0.00000000000E+00  0.39999999674E+01  0.40000000000E+01  0.51100000000E-03 0.  1.
    9000002   -1    0    0    0    0 -0.00000000000E+00 -0.00000000000E+00  0.00000000000E+00  0.93800000000E+00  0.93800000000E+00 0.  1.
         11    1    1    2    0    0 -0.83359953178E-01  0.22354689544E+00  0.14455828007E+01  0.14651388982E+01  0.51100000000E-03 0.  1.
    9000002    1    1    2    0    0  0.20533118498E+00 -0.57710706154E+00  0.26251068599E+00  0.11506386558E+01  0.93800000000E+00 0.  1.
         22    1    1    2    0    0 -0.12197123180E+00  0.35356016609E+00  0.22919064807E+01  0.23222224460E+01  0.00000000000E+00 0.  1.
</event>
<event>
 5    1  0.7220939E+001  0.1599675E+01  0.7818608E-02  0.3353716E+00
         11   -1    0    0    0    0  0.00000000000E+00  0.00000000000E+00  0.39999999674E+01  0.40000000000E+01  0.51100000000E-03 0. -1.
    9000002   -1    0    0    0    0 -0.00000000000E+00 -0.00000000000E+00  0.00000000000E+00  0.93800000000E+00  0.93800000000E+00 0. -1.
         11    1    1    2    0    0 -0.29574817818E-03  0.60735888863E-01  0.46314023320E+00  0.46710606118E+00  0.51100000000E-03 0.  1.
    9000002    1    1    2    0    0 -0.44539225423E-02 -0.50679032890E+00  0.17603725499E+00  0.10805967750E+01  0.93800000000E+00 0. -1.
         22    1    1    2    0    0  0.47496707205E-02  0.44605444004E+00  0.33608224792E+01  0.33902971639E+01  0.00000000000E+00 0. -1.
</event>
<event>
 5    1  0.7220939E+001  0.1573765E+01  0.7818608E-02  0.3382339E+00
         11   -1    0    0    0    0  0.00000000000E+00  0.00000000000E+00  0.39999999674E+01  0.40000000000E+01  0.51100000000E-03 0.  1.
    9000002   -1    0    0    0    0 -0.00000000000E+00 -0.00000000000E+00  0.00000000000E+00  0.93800000000E+00  0.93800000000E+00 0. -1.
         11    1    1    2    0    0  0.14413392367E+00 -0.92852121195E-01  0.54816510449E+00  0.57435298142E+00  0.51100000000E-03 0.  1.
    9000002    1    1    2    0    0 -0.57969805094E+00 -0.22093622210E+00  0.29656696663E+00  0.11630385248E+01  0.93800000000E+00 0. -1.
         22    1    1    2    0    0  0.43556412727E+00  0.31378834330E+00  0.31552678962E+01  0.32006084938E+01  0.00000000000E+00 0.  1.
</event>
<event>
 5    1  0.7220939E+001  0.1599674E+01  0.7818608E-02  0.3353717E+00
         11   -1    0    0    0    0  0.00000000000E+00  0.00000000000E+00  0.39999999674E+01  0.40000000000E+01  0.51100000000E-03 0. -1.
    9000002   -1    0    0    0    0 -0.00000000000E+00 -0.00000000000E+00  0.00000000000E+00  0.93800000000E+00  0.93800000000E+00 0. -1.
         11    1    1    2    0    0 -0.87895161820E-01 -0.18273257611E-01  0.94466606929E+00  0.94892239672E+00  0.51100000000E-03 0. -1.
    9000002    1    1    2    0    0  0.37048687162E+00  0.77000211176E-01  0.96327651492E-01  0.10160278397E+01  0.93800000000E+00 0. -1.
         22    1    1    2    0    0 -0.28259170980E+00 -0.58726953564E-01  0.29590062466E+01  0.29730497636E+01  0.00000000000E+00 0. -1.
</event>
<event>
 5    1  0.7220939E+001  0.1594276E+01  0.7818608E-02  0.3359599E+00
         11   -1    0    0    0    0  0.00000000000E+00  0.00000000000E+00  0.39999999674E+01  0.40000000000E+01  0.51100000000E-03 0.  1.
    9000002   -1    0    0    0    0 -0.00000000000E+00 -0.00000000000E+00  0.00000000000E+00  0.93800000000E+00  0.93800000000E+00 0.  1.
         11    1    1    2    0    0  0.78892335353E-01 -0.93692115805E-01  0.80662402344E+00  0.81587057151E+00  0.51100000000E-03 0.  1.
    9000002    1    1    2    0    0 -0.51726034445E+00  0.13336107039E+00  0.20154399105E+00  0.10980926279E+01  0.93800000000E+00 0.  1.
         22    1    1    2    0    0  0.43836800910E+00 -0.39668954588E-01  0.29918319529E+01  0.30240368006E+01  0.00000000000E+00 0. -1.
</event>
<event>
 5    1  0.7220939E+001  0.1599675E+01  0.7818608E-02  0.3353717E+00
         11   -1    0    0    0    0  0.00000000000E+00  0.00000000000E+00  0.39999999674E+01  0.40000000000E+01  0.51100000000E-03 0.  1.
    9000002   -1    0    0    0    0 -0.00000000000E+00 -0.00000000000E+00  0.00000000000E+00  0.93800000000E+00  0.93800000000E+00 0. -1.
         11    1    1    2    0    0 -0.23075068002E-01 -0.10102144641E+00  0.10438872100E+01  0.10490179025E+01  0.51100000000E-03 0.  1.
    9000002    1    1    2    0    0  0.83949264765E-01  0.37197986917E+00  0.97859861039E-01  0.10172694110E+01  0.93800000000E+00 0. -1.
         22    1    1    2    0    0 -0.60874196763E-01 -0.27095842276E+00  0.28582528963E+01  0.28717126866E+01  0.00000000000E+00 0.  1.
</event>
<event>
 5    1  0.7220939E+001  0.1552405E+01  0.7818608E-02  0.3406698E+00
         11   -1    0    0    0    0  0.00000000000E+00  0.00000000000E+00  0.39999999674E+01  0.40000000000E+01  0.51100000000E-03 0. -1.
    9000002   -1    0    0    0    0 -0.00000000000E+00 -0.00000000000E+00  0.00000000000E+00  0.93800000000E+00  0.93800000000E+00 0.  1.
         11    1    1    2    0    0  0.12989145588E+00 -0.55616312184E-01  0.38543393596E+00  0.41051741084E+00  0.51100000000E-03 0. -1.
    9000002    1    1    2    0    0  0.57799471104E-01 -0.24284151726E+00  0.78427214576E-01  0.97381086939E+00  0.93800000000E+00 0.  1.
         22    1    1    2    0    0 -0.18769092698E+00  0.29845782944E+00  0.35361388168E+01  0.35536717198E+01  0.00000000000E+00 0. -1.
</event>
<event>
 5    1  0.7220939E+001  0.1599542E+01  0.7818608E-02  0.3353861E+00
         11   -1    0    0    0    0  0.00000000000E+00  0.00000000000E+00  0.39999999674E+01  0.40000000000E+01  0.51100000000E-03 0. -1.
    9000002   -1    0    0    0    0 -0.00000000000E+00 -0.00000000000E+00  0.00000000000E+00  0.93800000000E+00  0.93800000000E+00 0. -1.
         11    1    1    2    0    0  0.19704578875E+00  0.16424040733E+00  0.11463834882E+01  0.11747328707E+01  0.51100000000E-03 0. -1.
    9000002    1    1    2    0    0 -0.58205708283E+00 -0.53779683544E+00  0.46161475638E+00  0.13118491023E+01  0.93800000000E+00 0. -1.
         22    1    1    2    0    0  0.38501129408E+00  0.37355642810E+00  0.23920017228E+01  0.24514180270E+01  0.00000000000E+00 0. -1.
</event>
<event>
 5    1  0.7220939E+001  0.1599253E+01  0.7818608E-02  0.3354174E+00
         11   -1    0    0    0    0  0.00000000000E+00  0.00000000000E+00  0.39999999674E+01  0.40000000000E+01  0.51100000000E-03 0. -1.
    9000002   -1    0    0    0    0 -0.00000000000E+00 -0.00000000000E+00  0.00000000000E+00  0.93800000000E+00  0.93800000000E+00 0.  1.
         11    1    1    2    0    0 -0.96064121706E-01 -0.30907942466E-01  0.12700333526E+01  0.12740363394E+01  0.51100000000E-03 0. -1.
    9000002    1    1    2    0    0  0.32304534837E+00  0.16144792268E+00  0.87903434335E-01  0.10089572551E+01  0.93800000000E+00 0.  1.
         22    1    1    2    0    0 -0.22698122666E+00 -0.13053998021E+00  0.26420631804E+01  0.26550064055E+01  0.00000000000E+00 0. -1.
</event>
<event>
 5    1  0.7220939E+001  0.1512426E+01  0.7818608E-02  0.3454266E+00
         11   -1    0    0    0    0  0.00000000000E+00  0.00000000000E+00  0.39999999674E+01  0.40000000000E+01  0.51100000000E-03 0.  1.
    9000002   -1    0    0    0    0 -0.00000000000E+00 -0.00000000000E+00  0.00000000000E+00  0.93800000000E+00  0.93800000000E+00 0. -1.
         11    1    1    2    0    0  0.20677461656E+00  0.15399021771E+00  0.31155806875E+00  0.40439760203E+00  0.51100000000E-03 0.  1.
    9000002    1    1    2    0    0 -0.64900717456E+00  0.72984008578E-02  0.39564459887E+00  0.12073285501E+01  0.93800000000E+00 0. -1.
         22    1    1    2    0    0  0.44223255800E+00 -0.16128861856E+00  0.32927972997E+01  0.33262738479E+01  0.00000000000E+00 0.  1.
</event>
<event>
 5    1  0.7220939E+001  0.1599675E+01  0.7818608E-02  0.3353716E+00
         11   -1    0    0    0    0  0.00000000000E+00  0.00000000000E+00  0.39999999674E+01  0.40000000000E+01  0.51100000000E-03 0. -1.
    9000002   -1    0    0    0    0 -0.00000000000E+00 -0.00000000000E+00  0.00000000000E+00  0.93800000000E+00  0.93800000000E+00 0. -1.
         11    1    1    2    0    0 -0.90440626425E-02  0.65153409093E-01  0.55366897230E+00  0.55756286981E+00  0.51100000000E-03 0. -1.
    9000002    1    1    2    0    0  0.55919928034E-01 -0.45777179311E+00  0.14469397217E+00  0.10552072775E+01  0.93800000000E+00 0. -1.
         22    1    1    2    0    0 -0.46875865391E-01  0.39261838402E+00  0.33016370229E+01  0.33252298527E+01  0.00000000000E+00 0. -1.
</event>
<event>
 5    1  0.7765639E+001  0.1599466E+01  0.7818608E-02  0.3353944E+00
         11   -1    0    0    0    0  0.00000000000E+00  0.00000000000E+00  0.39999999674E+01  0.40000000000E+01  0.51100000000E-03 0.  1.
    9000002   -1    0    0    0    0 -0.00000000000E+00 -0.00000000000E+00  0.00000000000E+00  0.93800000000E+00  0.93800000000E+00 0. -1.
         11    1    1    2    0    0 -0.55738203171E-01  0.85444317792E-01  0.12678550838E+01  0.12719529289E+01  0.51100000000E-03 0.  1.
    9000002    1    1    2    0    0  0.15418485394E+00 -0.31144211148E+00  0.81124915238E-01  0.10035907582E+01  0.93800000000E+00 0. -1.
         22    1    1    2    0    0 -0.98446650772E-01  0.22599779369E+00  0.26510199683E+01  0.26624563129E+01  0.00000000000E+00 0.  1.
</event>
<event>
 5    1  0.7220939E+001  0.1589690E+01  0.7818608E-02  0.3364630E+00
         11   -1    0    0    0    0  0.00000000000E+00  0.00000000000E+00  0.39999999674E+01  0.40000000000E+01  0.51100000000E-03 0.  1.
    9000002   -1    0    0    0    0 -0.00000000000E+00 -0.00000000000E+00  0.00000000000E+00  0.93800000000E+00  0.93800000000E+00 0. -1.
         11    1    1    2    0    0  0.32445539118E-01 -0.11674730566E-01  0.34331438770E+00  0.34504208767E+00  0.51100000000E-03 0.  1.
    9000002    1    1    2    0    0  0.35401624698E+00 -0.14476135448E+00  0.10671098612E+00  0.10185846000E+01  0.93800000000E+00 0. -1.
         22    1    1    2    0    0 -0.38646178610E+00  0.15643608505E+00  0.35499745935E+01  0.35743733123E+01  0.00000000000E+00 0.  1.
</event>
<event>
 5    1  0.7220939E+001  0.1599655E+01  0.7818608E-02  0.3353738E+00
         11   -1    0    0    0    0  0.00000000000E+00  0.00000000000E+00  0.39999999674E+01  0.40000000000E+01  0.51100000000E-03 0.  1.
    9000002   -1    0    0    0    0 -0.00000000000E+00 -0.00000000000E+00  0.00000000000E+00  0.93800000000E+00  0.93800000000E+00 0.  1.
         11    1    1    2    0    0 -0.10163431401E-01 -0.44488984229E-01  0.41415562870E+00  0.41666258646E+00  0.51100000000E-03 0.  1.
    9000002    1    1    2    0    0  0.12090486188E+00  0.39712016703E+00  0.11648420176E+00  0.10323444105E+01  0.93800000000E+00 0.  1.
         22    1    1    2    0    0 -0.11074143048E+00 -0.35263118280E+00  0.34693601369E+01  0.34889930030E+01  0.00000000000E+00 0.  1.
</event>
<event>
 5    1  0.7220939E+001  0.1599675E+01  0.7818608E-02  0.3353716E+00
         11   -1    0    0    0    0  0.00000000000E+00  0.00000000000E+00  0.39999999674E+01  0.40000000000E+01  0.51100000000E-03 0. -1.
    9000002   -1    0    0    0    0 -0.00000000000E+00 -0.00000000000E+00  0.00000000000E+00  0.93800000000E+00  0.93800000000E+00 0. -1.
         11    1    1    2    0    0 -0.21660531791E-01  0.20422586922E+00  0.13559598827E+01  0.13714243868E+01  0.51100000000E-03 0. -1.
    9000002    1    1    2    0    0  0.64835874814E-01 -0.56943821888E+00  0.22789828883E+00  0.11226064341E+01  0.93800000000E+00 0. -1.
         22    1    1    2    0    0 -0.43175343024E-01  0.36521234966E+00  0.24161417959E+01  0.24439691791E+01  0.00000000000E+00 0. -1.
</event>
<event>
 5    1  0.7220939E+001  0.1515191E+01  0.7818608E-02  0.3450889E+00
         11   -1    0    0    0    0  0.00000000000E+00  0.00000000000E+00  0.39999999674E+01  0.40000000000E+01  0.51100000000E-03 0.  1.
    9000002   -1    0    0    0    0 -0.00000000000E+00 -0.00000000000E+00  0.00000000000E+00  0.93800000000E+00  0.93800000000E+00 0.  1.
         11    1    1    2    0    0  0.25613234923E+00  0.33879575323E+00  0.12983264149E+01  0.13660300449E+01  0.51100000000E-03 0.  1.
    9000002    1    1    2    0    0 -0.36832286729E+00 -0.94989871981E-01  0.17030897580E+00  0.10264180228E+01  0.93800000000E+00 0.  1.
         22    1    1    2    0    0  0.11219051806E+00 -0.24380588125E+00  0.25313645766E+01  0.25455519323E+01  0.00000000000E+00 0.  1.
</event>
<event>
 5    1  0.7220939E+001  0.1599676E+01  0.7818608E-02  0.3353715E+00
         11   -1    0    0    0    0  0.00000000000E+00  0.00000000000E+00  0.39999999674E+01  0.40000000000E+01  0.51100000000E-03 0.  1.
    9000002   -1    0    0    0    0 -0.00000000000E+00 -0.00000000000E+00  0.00000000000E+00  0.93800000000E+00  0.93800000000E+00 0.  1.
         11    1    1    2    0    0  0.66828727827E-01  0.48319539115E-01  0.76612805911E+00  0.77055390519E+00  0.51100000000E-03 0.  1.
    9000002    1    1    2    0    0 -0.34015646714E+00 -0.24122645410E+00  0.11756011553E+00  0.10332284380E+01  0.93800000000E+00 0.  1.
         22    1    1    2    0    0  0.27332773931E+00  0.19290691498E+00  0.31163117927E+01  0.31342176568E+01  0.00000000000E+00 0.  1.
</event>
<event>
 5    1  0.7220939E+001  0.1599677E+01  0.7818608E-02  0.3353714E+00
         11   -1    0    0    0    0  0.00000000000E+00  0.00000000000E+00  0.39999999674E+01  0.40000000000E+01  0.51100000000E-03 0. -1.
    9000002   -1    0    0    0    0 -0.00000000000E+00 -0.00000000000E+00  0.00000000000E+00  0.93800000000E+00  0.93800000000E+00 0. -1.
         11    1    1    2    0    0 -0.95699667664E-01 -0.12205795646E+00  0.12533334573E+01  0.12628941315E+01  0.51100000000E-03 0. -1.
    9000002    1    1    2    0    0  0.29355684405E+00  0.37597241888E+00  0.15517477148E+00  0.10636983079E+01  0.93800000000E+00 0. -1.
         22    1    1    2    0    0 -0.19785717639E+00 -0.25391446243E+00  0.25914917386E+01  0.26114075606E+01  0.00000000000E+00 0. -1.
</event>
<event>
 5    1  0.7220939E+001  0.1599531E+01  0.7818608E-02  0.3353873E+00
         11   -1    0    0    0    0  0.00000000000E+00  0.00000000000E+00  0.39999999674E+01  0.40000000000E+01  0.51100000000E-03 0. -1.
    9000002   -1    0    0    0    0 -0.00000000000E+00 -0.00000000000E+00  0.00000000000E+00  0.93800000000E+00  0.93800000000E+00 0.  1.
         11    1    1    2    0    0  0.23300804909E-01  0.72557315556E-01  0.61912922075E+00  0.62380184727E+00  0.51100000000E-03 0. -1.
    9000002    1    1    2    0    0 -0.81443101376E-01 -0.43478053560E+00  0.13287093598E+00  0.10455456846E+01  0.93800000000E+00 0.  1.
         22    1    1    2    0    0  0.58142296467E-01  0.36222322004E+00  0.32479998106E+01  0.32686524682E+01  0.00000000000E+00 0. -1.
</event>
<event>
 5    1  0.7220939E+001  0.1599669E+01  0.7818608E-02  0.3353723E+00
         11   -1    0    0    0    0  0.00000000000E+00  0.00000000000E+00  0.39999999674E+01  0.40000000000E+01  0.51100000000E-03 0.  1.
    9000002   -1    0    0    0    0 -0.00000000000E+00 -0.00000000000E+00  0.00000000000E+00  0.93800000000E+00  0.93800000000E+00 0.  1.
         11    1    1    2    0    0  0.34516653568E-01  0.21305329890E+00  0.99031453753E+00  0.10135611732E+01  0.51100000000E-03 0.  1.
    9000002    1    1    2    0    0 -0.13334685859E+00 -0.76067570169E+00  0.43535814101E+00  0.12906547249E+01  0.93800000000E+00 0.  1.
         22    1    1    2    0    0  0.98830205021E-01  0.54762240280E+00  0.25743272888E+01  0.26337841019E+01  0.00000000000E+00 0.  1.
</event>
<event>
 5    1  0.7220939E+001  0.1599676E+01  0.7818608E-02  0.3353715E+00
         11   -1    0    0    0    0  0.00000000000E+00  0.00000000000E+00  0.39999999674E+01  0.40000000000E+01  0.51100000000E-03 0. -1.
    9000002   -1    0    0    0    0 -0.00000000000E+00 -0.00000000000E+00  0.00000000000E+00  0.93800000000E+00  0.93800000000E+00 0. -1.
         11    1    1    2    0    0  0.13527265529E-01 -0.35028689845E-01  0.38893078217E+00  0.39073956859E+00  0.51100000000E-03 0. -1.
    9000002    1    1    2    0    0 -0.13929216550E+00  0.34968629991E+00  0.95289209994E-01  0.10151880857E+01  0.93800000000E+00 0. -1.
         22    1    1    2    0    0  0.12576489997E+00 -0.31465761006E+00  0.35157799752E+01  0.35320723458E+01  0.00000000000E+00 0. -1.
</event>
<event>
 5    1  0.7220939E+001  0.1599610E+01  0.7818608E-02  0.3353786E+00
         11   -1    0    0    0    0  0.00000000000E+00  0.00000000000E+00  0.39999999674E+01  0.40000000000E+01  0.51100000000E-03 0. -1.
    9000002   -1    0    0    0    0 -0.00000000000E+00 -0.00000000000E+00  0.00000000000E+00  0.93800000000E+00  0.93800000000E+00 0. -1.
         11    1    1    2    0    0  0.29121075354E-01  0.10580148286E+00  0.11634225929E+01  0.11685864887E+01  0.51100000000E-03 0. -1.
    9000002    1    1    2    0    0 -0.12378865665E+00 -0.34020120424E+00  0.88050292906E-01  0.10092855617E+01  0.93800000000E+00 0. -1.
         22    1    1    2    0    0  0.94667581298E-01  0.23439972137E+00  0.27485270815E+01  0.27601279496E+01  0.00000000000E+00 0. -1.
</event>
<event>
 5    1  0.7220939E+001  0.1597535E+01  0.7818608E-02  0.3356043E+00
         11   -1    0    0    0    0  0.00000000000E+00  0.00000000000E+00  0.39999999674E+01  0.40000000000E+01  0.51100000000E-03 0. -1.
    9000002   -1    0    0    0    0 -0.00000000000E+00 -0.00000000000E+00  0.00000000000E+00  0.93800000000E+00  0.93800000000E+00 0.  1.
         11    1    1    2    0    0 -0.16919541303E-01 -0.68800269240E-01  0.38436097198E+00  0.39083675086E+00  0.51100000000E-03 0. -1.
    9000002    1    1    2    0    0  0.35544316520E-01  0.38634602774E+00  0.10314865579E+00  0.10202991212E+01  0.93800000000E+00 0.  1.
         22    1    1    2    0    0 -0.18624775216E-01 -0.31754575850E+00  0.35124903396E+01  0.35268641279E+01  0.00000000000E+00 0. -1.
</event>
<event>
 5    1  0.7220939E+001  0.1589978E+01  0.7818608E-02  0.3364314E+00
         11   -1    0    0    0    0  0.00000000000E+00  0.00000000000E+00  0.39999999674E+01  0.40000000000E+01  0.51100000000E-03 0.  1.
    9000002   -1    0    0    0    0 -0.00000000000E+00 -0.00000000000E+00  0.00000000000E+00  0.93800000000E+00  0.93800000000E+00 0. -1.
         11    1    1    2    0    0 -0.46687096868E-01 -0.42644249450E-01  0.29336172125E+00  0.30009927964E+00  0.51100000000E-03 0.  1.
    9000002    1    1    2    0    0  0.37837984252E+00 -0.23299622353E+00  0.14238786084E+00  0.10476530190E+01  0.93800000000E+00 0. -1.
         22    1    1    2    0    0 -0.33169274565E+00  0.27564047298E+00  0.35642503853E+01  0.35902477013E+01  0.00000000000E+00 0.  1.
</event>
<event>
 5    1  0.7220939E+001  0.1545713E+01  0.7818608E-02  0.3414478E+00
         11   -1    0    0    0    0  0.00000000000E+00  0.00000000000E+00  0.39999999674E+01  0.40000000000E+01  0.51100000000E-03 0. -1.
    9000002   -1    0    0    0    0 -0.00000000000E+00 -0.00000000000E+00  0.00000000000E+00  0.93800000000E+00  0.93800000000E+00 0.  1.
         11    1    1    2    0    0 -0.37684392970E-01 -0.21608817975E+00  0.27287566888E+00  0.35010799290E+00  0.51100000000E-03 0. -1.
    9000002    1    1    2    0    0 -0.30791588476E+00  0.78141838701E+00  0.60620534007E+00  0.13974103914E+01  0.93800000000E+00 0.  1.
         22    1    1    2    0    0  0.34560027773E+00 -0.56533020726E+00  0.31209189584E+01  0.31904816157E+01  0.00000000000E+00 0. -1.
</event>
<event>
 5    1  0.7220939E+001  0.1599654E+01  0.7818608E-02  0.3353739E+00
         11   -1    0    0    0    0  0.00000000000E+00  0.00000000000E+00  0.39999999674E+01  0.40000000000E+01  0.51100000000E-03 0. -1.
    9000002   -1    0    0    0    0 -0.00000000000E+00 -0.00000000000E+00  0.00000000000E+00  0.93800000000E+00  0.93800000000E+00 0. -1.
         11    1    1    2    0    0  0.67890991727E-02  0.63127776555E-02  0.76301091706E-01  0.76863910555E-01  0.51100000000E-03 0. -1.
    9000002    1    1    2    0    0 -0.29978017442E+00 -0.26043159572E+00  0.10634633879E+00  0.10241319802E+01  0.93800000000E+00 0. -1.
         22    1    1    2    0    0  0.29299107525E+00  0.25411881807E+00  0.38173525369E+01  0.38370041093E+01  0.00000000000E+00 0. -1.
</event>
<event>
 5    1  0.7220939E+001  0.1599668E+01  0.7818608E-02  0.3353723E+00
         11   -1    0    0    0    0  0.00000000000E+00  0.00000000000E+00  0.39999999674E+01  0.40000000000E+01  0.51100000000E-03 0.  1.
    9000002   -1    0    0    0    0 -0.00000000000E+00 -0.00000000000E+00  0.00000000000E+00  0.93800000000E+00  0.93800000000E+00 0. -1.
         11    1    1    2    0    0 -0.40421530040E-01  0.97866813773E-01  0.10186734024E+01  0.10241618892E+01  0.51100000000E-03 0.  1.
    9000002    1    1    2    0    0  0.14269744729E+00 -0.37570672149E+00  0.10898094565E+00  0.10262743047E+01  0.93800000000E+00 0. -1.
         22    1    1    2    0    0 -0.10227591725E+00  0.27783990772E+00  0.28723456193E+01  0.28875638061E+01  0.00000000000E+00 0.  1.
</event>
<event>
 5    1  0.7220939E+001  0.1599676E+01  0.7818608E-02  0.3353715E+00
         11   -1    0    0    0    0  0.00000000000E+00  0.00000000000E+00  0.39999999674E+01  0.40000000000E+01  0.51100000000E-03 0. -1.
    9000002   -1    0    0    0    0 -0.00000000000E+00 -0.00000000000E+00  0.00000000000E+00  0.93800000000E+00  0.93800000000E+00 0.  1.
         11    1    1    2    0    0  0.14010287289E-01  0.86954043339E-01  0.89362705266E+00  0.89795705030E+00  0.51100000000E-03 0. -1.
    9000002    1    1    2    0    0 -0.56709184916E-01 -0.37820901509E+00  0.98438374867E-01  0.10177387211E+01  0.93800000000E+00 0.  1.
         22    1    1    2    0    0  0.42698897627E-01  0.29125497175E+00  0.30079345398E+01  0.30223042286E+01  0.00000000000E+00 0. -1.
</event>
<event>
 5    1  0.7220939E+001  0.1599534E+01  0.7818608E-02  0.3353869E+00
         11   -1    0    0    0    0  0.00000000000E+00  0.00000000000E+00  0.39999999674E+01  0.40000000000E+01  0.51100000000E-03 0. -1.
    9000002   -1    0    0    0    0 -0.00000000000E+00 -0.00000000000E+00  0.00000000000E+00  0.93800000000E+00  0.93800000000E+00 0.  1.
         11    1    1    2    0    0  0.25307384265E+00 -0.40386123102E-01  0.11625775946E+01  0.11904891152E+01  0.51100000000E-03 0. -1.
    9000002    1    1    2    0    0 -0.76703558296E+00  0.83427690487E-01  0.43461963040E+00  0.12899775146E+01  0.93800000000E+00 0.  1.
         22    1    1    2    0    0  0.51396174030E+00 -0.43041567385E-01  0.24028027423E+01  0.24575333702E+01  0.00000000000E+00 0. -1.
</event>
<event>
 5    1  0.7220939E+001  0.1557890E+01  0.7818608E-02  0.3400375E+00
         11   -1    0    0    0    0  0.00000000000E+00  0.00000000000E+00  0.39999999674E+01  0.40000000000E+01  0.51100000000E-03 0.  1.
    9000002   -1    0    0    0    0 -0.00000000000E+00 -0.00000000000E+00  0.00000000000E+00  0.93800000000E+00  0.93800000000E+00 0. -1.
         11    1    1    2    0    0  0.57726731114E-01  0.14666057056E+00  0.65714967301E+00  0.67578669142E+00  0.51100000000E-03 0.  1.
    9000002    1    1    2    0    0  0.18087215094E+00  0.88545698841E-01  0.58861789419E-01  0.96117833206E+00  0.93800000000E+00 0. -1.
         22    1    1    2    0    0 -0.23859888205E+00 -0.23520626941E+00  0.32839885049E+01  0.33010349765E+01  0.00000000000E+00 0.  1.
</event>
<event>
 5    1  0.7220939E+001  0.1599649E+01  0.7818608E-02  0.3353745E+00
         11   -1    0    0    0    0  0.00000000000E+00  0.00000000000E+00  0.39999999674E+01  0.40000000000E+01  0.51100000000E-03 0. -1.
    9000002   -1    0    0    0    0 -0.00000000000E+00 -0.00000000000E+00  0.00000000000E+00  0.93800000000E+00  0.93800000000E+00 0.  1.
         11    1    1    2    0    0  0.19882941872E-01 -0.12147655293E-01  0.21904938413E+00  0.22028570248E+00  0.51100000000E-03 0. -1.
    9000002    1    1    2    0    0 -0.40116991377E+00  0.20386310520E+00  0.13755733234E+00  0.10494110182E+01  0.93800000000E+00 0.  1.
         22    1    1    2    0    0  0.38128697190E+00 -0.19171544991E+00  0.36433932509E+01  0.36683032793E+01  0.00000000000E+00 0. -1.
</event>
<event>
 5    1  0.7220939E+001  0.1599656E+01  0.7818608E-02  0.3353736E+00
         11   -1    0    0    0    0  0.00000000000E+00  0.00000000000E+00  0.39999999674E+01  0.40000000000E+01  0.51100000000E-03 0. -1.
    9000002   -1    0    0    0    0 -0.00000000000E+00 -0.00000000000E+00  0.00000000000E+00  0.93800000000E+00  0.93800000000E+00 0. -1.
         11    1    1    2    0    0 -0.31116534986E-01 -0.93327023424E-02  0.31237893483E+00  0.31406400323E+00  0.51100000000E-03 0. -1.
    9000002    1    1    2    0    0  0.35307154152E+00  0.10996386924E+00  0.91916979960E-01  0.10124447131E+01  0.93800000000E+00 0. -1.
         22    1    1    2    0    0 -0.32195500653E+00 -0.10063116690E+00  0.35957040526E+01  0.36114912836E+01  0.00000000000E+00 0. -1.
</event>
<event>
 5    1  0.7220939E+001  0.1599676E+01  0.7818608E-02  0.3353715E+00
         11   -1    0    0    0    0  0.00000000000E+00  0.00000000000E+00  0.39999999674E+01  0.40000000000E+01  0.51100000000E-03 0.  1.
    9000002   -1    0    0    0    0 -0.00000000000E+00 -0.00000000000E+00  0.00000000000E+00  0.93800000000E+00  0.93800000000E+00 0.  1.
         11    1    1    2    0    0  0.14057796823E+00  0.56207369145E-01  0.14075508606E+01  0.14156698485E+01  0.51100000000E-03 0.  1.
    9000002    1    1    2    0    0 -0.38729212364E+00 -0.15744693966E+00  0.11817732181E+00  0.10337284978E+01  0.93800000000E+00 0.  1.
         22    1    1    2    0    0  0.24671415542E+00  0.10123957052E+00  0.24742717849E+01  0.24886016537E+01  0.00000000000E+00 0.  1.
</event>
<event>
 5    1  0.7220939E+001  0.1599672E+01  0.7818608E-02  0.3353719E+00
         11   -1    0    0    0    0  0.00000000000E+00  0.00000000000E+00  0.39999999674E+01  0.40000000000E+01  0.51100000000E-03 0. -1.
    9000002   -1    0    0    0    0 -0.00000000000E+00 -0.00000000000E+00  0.00000000000E+00  0.93800000000E+00  0.93800000000E+00 0.  1.
         11    1    1    2    0    0  0.67443214329E-01  0.82214335719E-01  0.11407536779E+01  0.11456993493E+01  0.51100000000E-03 0. -1.
    9000002    1    1    2    0    0 -0.23425473994E+00 -0.28903369806E+00  0.93046970309E-01  0.10133693801E+01  0.93800000000E+00 0.  1.
         22    1    1    2    0    0  0.16681152561E+00  0.20681936234E+00  0.27661993191E+01  0.27789312706E+01  0.00000000000E+00 0. -1.
</event>
<event>
 5    1  0.7220939E+001  0.1599606E+01  0.7818608E-02  0.3353792E+00
         11   -1    0    0    0    0  0.00000000000E+00  0.00000000000E+00  0.39999999674E+01  0.40000000000E+01  0.51100000000E-03 0. -1.
    9000002   -1    0    0    0    0 -0.00000000000E+00 -0.00000000000E+00  0.00000000000E+00  0.93800000000E+00  0.93800000000E+00 0. -1.
         11    1    1    2    0    0  0.13444341555E-02 -0.27597356368E-02  0.24857926437E-01  0.25051971414E-01  0.51100000000E-03 0.  1.
    9000002    1    1    2    0    0 -0.43837528069E+00  0.43646082359E+00  0.26814862049E+00  0.11551703857E+01  0.93800000000E+00 0. -1.
         22    1    1    2    0    0  0.43703084654E+00 -0.43370108795E+00  0.37069934204E+01  0.37577776429E+01  0.00000000000E+00 0. -1.
</event>
<event>
 5    1  0.7220939E+001  0.1599676E+01  0.7818608E-02  0.3353715E+00
         11   -1    0    0    0    0  0.00000000000E+00  0.00000000000E+00  0.39999999674E+01  0.40000000000E+01  0.51100000000E-03 0.  1.
    9000002   -1    0    0    0    0 -0.00000000000E+00 -0.00000000000E+00  0.00000000000E+00  0.93800000000E+00  0.93800000000E+00 0. -1.
         11    1    1    2    0    0  0.41035907436E-01 -0.17914874537E-01  0.44006440488E+00  0.44233678345E+00  0.51100000000E-03 0.  1.
    9000002    1    1    2    0    0 -0.35667920571E+00  0.15767704024E+00  0.10245350698E+00  0.10209910998E+01  0.93800000000E+00 0. -1.
         22    1    1    2    0    0  0.31564329828E+00 -0.13976216570E+00  0.34574820555E+01  0.34746721167E+01  0.00000000000E+00 0.  1.
</event>
<event>
 5    1  0.7220939E+001  0.1591511E+01  0.7818608E-02  0.3362629E+00
         11   -1    0    0    0    0  0.00000000000E+00  0.00000000000E+00  0.39999999674E+01  0.40000000000E+01  0.51100000000E-03 0.  1.
    9000002   -1    0    0    0    0 -0.00000000000E+00 -0.00000000000E+00  0.00000000000E+00  0.93800000000E+00  0.93800000000E+00 0.  1.
         11    1    1    2    0    0  0.50700012435E-01 -0.32560697743E-01  0.31078916983E+00  0.31657678295E+00  0.51100000000E-03 0.  1.
    9000002    1    1    2    0    0 -0.27108040144E+00 -0.23528248649E+00  0.93117717049E-01  0.10086413345E+01  0.93800000000E+00 0.  1.
         22    1    1    2    0    0  0.22038038900E+00  0.26784318423E+00  0.35960930805E+01  0.36127818825E+01  0.00000000000E+00 0.  1.
</event>
<event>
 5    1  0.7220939E+001  0.1599677E+01  0.7818608E-02  0.3353714E+00
         11   -1    0    0    0    0  0.00000000000E+00  0.00000000000E+00  0.39999999674E+01  0.40000000000E+01  0.51100000000E-03 0.  1.
    9000002   -1    0    0    0    0 -0.00000000000E+00 -0.00000000000E+00  0.00000000000E+00  0.93800000000E+00  0.93800000000E+00 0.  1.
         11    1    1    2    0    0  0.23293683117E-02 -0.10028084305E+00  0.63455303300E+00  0.64243247603E+00  0.51100000000E-03 0. -1.
    9000002    1    1    2    0    0 -0.15319802988E-01  0.59348212887E+00  0.24557864589E+00  0.11369294635E+01  0.93800000000E+00 0. -1.
         22    1    1    2    0    0  0.12990434676E-01 -0.49320128582E+00  0.31198682885E+01  0.31586380605E+01  0.00000000000E+00 0.  1.
</event>
<event>
 5    1  0.7220939E+001  0.1599677E+01  0.7818608E-02  0.3353714E+00
         11   -1    0    0    0    0  0.00000000000E+00  0.00000000000E+00  0.39999999674E+01  0.40000000000E+01  0.51100000000E-03 0. -1.
    9000002   -1    0    0    0    0 -0.00000000000E+00 -0.00000000000E+00  0.00000000000E+00  0.93800000000E+00  0.93800000000E+00 0. -1.
         11    1    1    2    0    0  0.37442467504E+00 -0.19124072524E+00  0.14292917396E+01  0.14898462975E+01  0.51100000000E-03 0. -1.
    9000002    1    1    2    0    0 -0.85661041726E+00  0.43704740479E+00  0.72870162194E+00  0.15282806990E+01  0.93800000000E+00 0. -1.
         22    1    1    2    0    0  0.48218574222E+00 -0.24580667955E+00  0.18420066058E+01  0.19198730035E+01  0.00000000000E+00 0.  1.
</event>
<event>
 5    1  0.7220939E+001  0.1599472E+01  0.7818608E-02  0.3353936E+00
         11   -1    0    0    0    0  0.00000000000E+00  0.00000000000E+00  0.39999999674E+01  0.40000000000E+01  0.51100000000E-03 0. -1.
    9000002   -1    0    0    0    0 -0.00000000000E+00 -0.00000000000E+00  0.00000000000E+00  0.93800000000E+00  0.93800000000E+00 0. -1.
         11    1    1    2    0    0 -0.13218621876E+00  0.88141450082E-04  0.14675846130E+01  0.14735257248E+01  0.51100000000E-03 0. -1.
    9000002    1    1    2    0    0  0.36459306376E+00 -0.42892702659E-01  0.90705290352E-01  0.10113551976E+01  0.93800000000E+00 0. -1.
         22    1    1    2    0    0 -0.23240684500E+00  0.42804561208E-01  0.24417100640E+01  0.24531190776E+01  0.00000000000E+00 0.  1.
</event>
<event>
 5    1  0.7220939E+001  0.1557004E+01  0.7818608E-02  0.3401394E+00
         11   -1    0    0    0    0  0.00000000000E+00  0.00000000000E+00  0.39999999674E+01  0.40000000000E+01  0.51100000000E-03 0.  1.
    9000002   -1    0    0    0    0 -0.00000000000E+00 -0.00000000000E+00  0.00000000000E+00  0.93800000000E+00  0.93800000000E+00 0. -1.
         11    1    1    2    0    0 -0.67763500281E-01  0.10308622037E+00  0.36062850398E+00  0.38114543131E+00  0.51100000000E-03 0.  1.
    9000002    1    1    2    0    0 -0.24474125834E+00  0.10820677779E+00  0.81260607789E-01  0.97880247071E+00  0.93800000000E+00 0. -1.
         22    1    1    2    0    0  0.31250475862E+00 -0.21129299815E+00  0.35581108556E+01  0.35780520980E+01  0.00000000000E+00 0.  1.
</event>
<event>
 5    1  0.7220939E+001  0.1591180E+01  0.7818608E-02  0.3362992E+00
         11   -1    0    0    0    0  0.00000000000E+00  0.00000000000E+00  0.39999999674E+01  0.40000000000E+01  0.51100000000E-03 0. -1.
    9000002   -1    0    0    0    0 -0.00000000000E+00 -0.00000000000E+00  0.00000000000E+00  0.93800000000E+00  0.93800000000E+00 0.  1.
         11    1    1    2    0    0 -0.17507718281E-01  0.22018187382E-01  0.72516804055E+00  0.72571362736E+00  0.51100000000E-03 0. -1.
    9000002    1    1    2    0    0  0.25241701445E+00  0.31757277837E+00  0.11821745372E+00  0.10287789778E+01  0.93800000000E+00 0.  1.
         22    1    1    2    0    0 -0.23490929617E+00 -0.33959096575E+00  0.31566144731E+01  0.31835073949E+01  0.00000000000E+00 0. -1.
</event>
<event>
 5    1  0.7220939E+001  0.1599674E+01  0.7818608E-02  0.3353718E+00
         11   -1    0    0    0    0  0.00000000000E+00  0.00000000000E+00  0.39999999674E+01  0.40000000000E+01  0.51100000000E-03 0.  1.
    9000002   -1    0    0    0    0 -0.00000000000E+00 -0.00000000000E+00  0.00000000000E+00  0.93800000000E+00  0.93800000000E+00 0. -1.
         11    1    1    2    0    0 -0.13880234938E-02 -0.44546104663E-01  0.33608333919E+00  0.33902588995E+00  0.51100000000E-03 0. -1.
    9000002    1    1    2    0    0  0.34355209825E-02  0.50300345959E+00  0.17330026429E+00  0.10783789987E+01  0.93800000000E+00 0. -1.
         22    1    1    2    0    0 -0.20474974887E-02 -0.45845735493E+00  0.34906163639E+01  0.35205951114E+01  0.00000000000E+00 0.  1.
</event>
<event>
 5    1  0.7220939E+001  0.1597905E+01  0.7818608E-02  0.3355641E+00
         11   -1    0    0    0    0  0.00000000000E+00  0.00000000000E+00  0.39999999674E+01  0.40000000000E+01  0.51100000000E-03 0.  1.
    9000002   -1    0    0    0    0 -0.00000000000E+00 -0.00000000000E+00  0.00000000000E+00  0.93800000000E+00  0.93800000000E+00 0. -1.
         11    1    1    2    0    0 -0.57326266221E-02 -0.46765149308E-01  0.21735654560E+00  0.22240497124E+00  0.51100000000E-03 0.  1.
    9000002    1    1    2    0    0 -0.81952738084E-01  0.45291485153E+00  0.14564979251E+00  0.10549435890E+01  0.93800000000E+00 0. -1.
         22    1    1    2    0    0  0.87685364706E-01 -0.40614970222E+00  0.36369936293E+01  0.36606514397E+01  0.00000000000E+00 0.  1.
</event>
<event>
 5    1  0.7220939E+001  0.1599038E+01  0.7818608E-02  0.3354409E+00
         11   -1    0    0    0    0  0.00000000000E+00  0.00000000000E+00  0.39999999674E+01  0.40000000000E+01  0.51100000000E-03 0. -1.
    9000002   -1    0    0    0    0 -0.00000000000E+00 -0.00000000000E+00  0.00000000000E+00  0.93800000000E+00  0.93800000000E+00 0. -1.
         11    1    1    2    0    0 -0.25780191138E-02  0.13132807002E-01  0.55227434027E-01  0.56828227075E-01  0.51100000000E-03 0. -1.
    9000002    1    1    2    0    0 -0.19495763339E-01 -0.44800345949E+00  0.13709528496E+00  0.10486783595E+01  0.93800000000E+00 0. -1.
         22    1    1    2    0    0  0.22073782452E-01  0.43487065249E+00  0.38076772484E+01  0.38324934134E+01  0.00000000000E+00 0. -1.
</event>
<event>
 5    1  0.7220939E+001  0.1599677E+01  0.7818608E-02  0.3353714E+00
         11   -1    0    0    0    0  0.00000000000E+00  0.00000000000E+00  0.39999999674E+01  0.40000000000E+01  0.51100000000E-03 0.  1.
    9000002   -1    0    0    0    0 -0.00000000000E+00 -0.00000000000E+00  0.00000000000E+00  0.93800000000E+00  0.93800000000E+00 0.  1.
         11    1    1    2    0    0 -0.78699281046E-01 -0.47381360331E-01  0.78298625678E+00  0.78835671468E+00  0.51100000000E-03 0.  1.
    9000002    1    1    2    0    0  0.38824076038E+00  0.23191543729E+00  0.13894991925E+00  0.10505554427E+01  0.93800000000E+00 0.  1.
         22    1    1    2    0    0 -0.30954147934E+00 -0.18453407696E+00  0.30780637913E+01  0.30990878426E+01  0.00000000000E+00 0.  1.
</event>
<event>
 5    1  0.7220939E+001  0.1599650E+01  0.7818608E-02  0.3353743E+00
         11   -1    0    0    0    0  0.00000000000E+00  0.00000000000E+00  0.39999999674E+01  0.40000000000E+01  0.51100000000E-03 0. -1.
    9000002   -1    0    0    0    0 -0.00000000000E+00 -0.00000000000E+00  0.00000000000E+00  0.93800000000E+00  0.93800000000E+00 0.  1.
         11    1    1    2    0    0 -0.16747452479E+00  0.24383302817E-01  0.80431075324E+00  0.82192354317E+00  0.51100000000E-03 0. -1.
    9000002    1    1    2    0    0  0.75178611860E+00 -0.13051905854E+00  0.42378928141E+00  0.12812723941E+01  0.93800000000E+00 0.  1.
         22    1    1    2    0    0 -0.58431159381E+00  0.10613575572E+00  0.27718999327E+01  0.28348040628E+01  0.00000000000E+00 0. -1.
</event>
<event>
 5    1  0.7220939E+001  0.1503557E+01  0.7818608E-02  0.3465187E+00
         11   -1    0    0    0    0  0.00000000000E+00  0.00000000000E+00  0.39999999674E+01  0.40000000000E+01  0.51100000000E-03 0.  1.
    9000002   -1    0    0    0    0 -0.00000000000E+00 -0.00000000000E+00  0.00000000000E+00  0.93800000000E+00  0.93800000000E+00 0. -1.
         11    1    1    2    0    0  0.10609319423E-01 -0.30031793328E+00  0.85183581670E+00  0.90328729563E+00  0.51100000000E-03 0.  1.
    9000002    1    1    2    0    0  0.11713468902E+00 -0.34211199461E-01  0.83923837391E-01  0.94962000401E+00  0.93800000000E+00 0. -1.
         22    1    1    2    0    0 -0.12774400845E+00  0.33452913274E+00  0.30642403133E+01  0.30850927004E+01  0.00000000000E+00 0.  1.
</event>
<event>
 5    1  0.7220939E+001  0.1579073E+01  0.7818608E-02  0.3376395E+00
         11   -1    0    0    0    0  0.00000000000E+00  0.00000000000E+00  0.39999999674E+01  0.40000000000E+01  0.51100000000E-03 0.  1.
    9000002   -1    0    0    0    0 -0.00000000000E+00 -0.00000000000E+00  0.00000000000E+00  0.93800000000E+00  0.93800000000E+00 0.  1.
         11    1    1    2    0    0  0.96737501148E-02  0.59317168043E-01  0.11213356601E+00  0.12722541261E+00  0.51100000000E-03 0.  1.
    9000002    1    1    2    0    0 -0.56546085101E+00  0.17390771213E-01  0.24176519376E+00  0.11217588073E+01  0.93800000000E+00 0.  1.
         22    1    1    2    0    0  0.55578710089E+00 -0.76707939257E-01  0.36461012076E+01  0.36890157800E+01  0.00000000000E+00 0.  1.
</event>
<event>
 5    1  0.7220939E+001  0.1599677E+01  0.7818608E-02  0.3353714E+00
         11   -1    0    0    0    0  0.00000000000E+00  0.00000000000E+00  0.39999999674E+01  0.40000000000E+01  0.51100000000E-03 0.  1.
    9000002   -1    0    0    0    0 -0.00000000000E+00 -0.00000000000E+00  0.00000000000E+00  0.93800000000E+00  0.93800000000E+00 0. -1.
         11    1    1    2    0    0 -0.31210957039E-02 -0.13133807637E+00  0.12142179208E+01  0.12213045697E+01  0.51100000000E-03 0.  1.
    9000002    1    1    2    0    0  0.82043644579E-02  0.41844704662E+00  0.11844173358E+00  0.10339427869E+01  0.93800000000E+00 0. -1.
         22    1    1    2    0    0 -0.50832687540E-02 -0.28710897025E+00  0.26673403130E+01  0.26827526434E+01  0.00000000000E+00 0.  1.
</event>
<event>
 5    1  0.7220939E+001  0.1599660E+01  0.7818608E-02  0.3353733E+00
         11   -1    0    0    0    0  0.00000000000E+00  0.00000000000E+00  0.39999999674E+01  0.40000000000E+01  0.51100000000E-03 0. -1.
    9000002   -1    0    0    0    0 -0.00000000000E+00 -0.00000000000E+00  0.00000000000E+00  0.93800000000E+00  0.93800000000E+00 0. -1.
         11    1    1    2    0    0  0.43270093778E-01 -0.17369770221E+00  0.11502383456E+01  0.11640840630E+01  0.51100000000E-03 0. -1.
    9000002    1    1    2    0    0 -0.13413443636E+00  0.55659533439E+00  0.22741897673E+00  0.11222093407E+01  0.93800000000E+00 0. -1.
         22    1    1    2    0    0  0.90864342584E-01 -0.38289763218E+00  0.26223426450E+01  0.26517065964E+01  0.00000000000E+00 0. -1.
</event>
<event>
 5    1  0.7220939E+001  0.1599623E+01  0.7818608E-02  0.3353772E+00
         11   -1    0    0    0    0  0.00000000000E+00  0.00000000000E+00  0.39999999674E+01  0.40000000000E+01  0.51100000000E-03 0.  1.
    9000002   -1    0    0    0    0 -0.00000000000E+00 -0.00000000000E+00  0.00000000000E+00  0.93800000000E+00  0.93800000000E+00 0. -1.
         11    1    1    2    0    0 -0.10104818634E+00 -0.28640626118E-01  0.10648846026E+01  0.10700516340E+01  0.51100000000E-03 0.  1.
    9000002    1    1    2    0    0  0.36031318684E+00  0.13195913113E+00  0.99157233163E-01  0.10182902149E+01  0.93800000000E+00 0. -1.
         22    1    1    2    0    0 -0.25926500050E+00 -0.10331850501E+00  0.28359581316E+01  0.28496581511E+01  0.00000000000E+00 0. -1.
</event>
<event>
 5    1  0.7220939E+001  0.1597632E+01  0.7818608E-02  0.3355938E+00
         11   -1    0    0    0    0  0.00000000000E+00  0.00000000000E+00  0.39999999674E+01  0.40000000000E+01  0.51100000000E-03 0. -1.
    9000002   -1    0    0    0    0 -0.00000000000E+00 -0.00000000000E+00  0.00000000000E+00  0.93800000000E+00  0.93800000000E+00 0.  1.
         11    1    1    2    0    0 -0.87224866302E-01  0.13403772839E+00  0.99399237731E+00  0.10067747500E+01  0.51100000000E-03 0. -1.
    9000002    1    1    2    0    0  0.38181162793E+00 -0.33712862202E+00  0.17974028385E+00  0.10823984463E+01  0.93800000000E+00 0.  1.
         22    1    1    2    0    0 -0.29458676163E+00  0.20309089363E+00  0.28262673062E+01  0.28488268037E+01  0.00000000000E+00 0. -1.
</event>
<event>
 5    1  0.7220939E+001  0.1596717E+01  0.7818608E-02  0.3356934E+00
         11   -1    0    0    0    0  0.00000000000E+00  0.00000000000E+00  0.39999999674E+01  0.40000000000E+01  0.51100000000E-03 0.  1.
    9000002   -1    0    0    0    0 -0.00000000000E+00 -0.00000000000E+00  0.00000000000E+00  0.93800000000E+00  0.93800000000E+00 0. -1.
         11    1    1    2    0    0  0.82093499991E-01 -0.15359224947E+00  0.13643206711E+01  0.13753912449E+01  0.51100000000E-03 0.  1.
    9000002    1    1    2    0    0 -0.29105802309E+00  0.26899148951E+00  0.10835835760E+00  0.10240394172E+01  0.93800000000E+00 0. -1.
         22    1    1    2    0    0  0.20896452310E+00 -0.11539924004E+00  0.25273209386E+01  0.25385693379E+01  0.00000000000E+00 0.  1.
</event>
<event>
 5    1  0.7220939E+001  0.1491445E+01  0.7818608E-02  0.3480326E+00
         11   -1    0    0    0    0  0.00000000000E+00  0.00000000000E+00  0.39999999674E+01  0.40000000000E+01  0.51100000000E-03 0.  1.
    9000002   -1    0    0    0    0 -0.00000000000E+00 -0.00000000000E+00  0.00000000000E+00  0.93800000000E+00  0.93800000000E+00 0.  1.
         11    1    1    2    0    0  0.13044851313E+00  0.76103755730E-03  0.76789108343E-01  0.15137444315E+00  0.51100000000E-03 0.  1.
    9000002    1    1    2    0    0  0.10612921501E+00  0.36020490047E+00  0.18942231319E+00  0.10279765529E+01  0.93800000000E+00 0.  1.
         22    1    1    2    0    0 -0.23657772814E+00 -0.36096593803E+00  0.37337885458E+01  0.37586490039E+01  0.00000000000E+00 0.  1.
</event>
<event>
 5    1  0.7220939E+001  0.1598195E+01  0.7818608E-02  0.3355325E+00
         11   -1    0    0    0    0  0.00000000000E+00  0.00000000000E+00  0.39999999674E+01  0.40000000000E+01  0.51100000000E-03 0.  1.
    9000002   -1    0    0    0    0 -0.00000000000E+00 -0.00000000000E+00  0.00000000000E+00  0.93800000000E+00  0.93800000000E+00 0. -1.
         11    1    1    2    0    0 -0.14861825003E-01 -0.17684715292E+00  0.14763594017E+01  0.14869879399E+01  0.51100000000E-03 0.  1.
    9000002    1    1    2    0    0  0.14712912098E+00  0.41635945401E+00  0.13355275974E+00  0.10453145521E+01  0.93800000000E+00 0. -1.
         22    1    1    2    0    0 -0.13226729598E+00 -0.23951230108E+00  0.23900878060E+01  0.24056975080E+01  0.00000000000E+00 0.  1.
</event>
<event>
 5    1  0.7220939E+001  0.1569578E+01  0.7818608E-02  0.3387059E+00
         11   -1    0    0    0    0  0.00000000000E+00  0.00000000000E+00  0.39999999674E+01  0.40000000000E+01  0.51100000000E-03 0. -1.
    9000002   -1    0    0    0    0 -0.00000000000E+00 -0.00000000000E+00  0.00000000000E+00  0.93800000000E+00  0.93800000000E+00 0.  1.
         11    1    1    2    0    0  0.31296548525E-01  0.71871658669E-01  0.15566086003E+00  0.17428589655E+00  0.51100000000E-03 0. -1.
    9000002    1    1    2    0    0  0.34915101936E+00 -0.40462192976E-01  0.10751949150E+00  0.10074463085E+01  0.93800000000E+00 0.  1.
         22    1    1    2    0    0 -0.38044756788E+00 -0.31409465694E-01  0.37368196158E+01  0.37562677950E+01  0.00000000000E+00 0. -1.
</event>
<event>
 5    1  0.7220939E+001  0.1599677E+01  0.7818608E-02  0.3353714E+00
         11   -1    0    0    0    0  0.00000000000E+00  0.00000000000E+00  0.39999999674E+01  0.40000000000E+01  0.51100000000E-03 0.  1.
    9000002   -1    0    0    0    0 -0.00000000000E+00 -0.00000000000E+00  0.00000000000E+00  0.93800000000E+00  0.93800000000E+00 0.  1.
         11    1    1    2    0    0 -0.10722504586E-01 -0.13229971718E+00  0.13772526362E+01  0.13836340818E+01  0.51100000000E-03 0.  1.
    9000002    1    1    2    0    0  0.29108134204E-01  0.37577247243E+00  0.95542924422E-01  0.10153938570E+01  0.93800000000E+00 0.  1.
         22    1    1    2    0    0 -0.18385629618E-01 -0.24347275525E+00  0.25272044067E+01  0.25389720612E+01  0.00000000000E+00 0.  1.
</event>
<event>
 5    1  0.7220939E+001  0.1586557E+01  0.7818608E-02  0.3368084E+00
         11   -1    0    0    0    0  0.00000000000E+00  0.00000000000E+00  0.39999999674E+01  0.40000000000E+01  0.51100000000E-03 0.  1.
    9000002   -1    0    0    0    0 -0.00000000000E+00 -0.00000000000E+00  0.00000000000E+00  0.93800000000E+00  0.93800000000E+00 0.  1.
         11    1    1    2    0    0 -0.63876551944E-01 -0.91985037273E-01  0.13346873681E+01  0.13393775020E+01  0.51100000000E-03 0.  1.
    9000002    1    1    2    0    0  0.24612426272E+00 -0.10929343340E+00  0.58433202383E-01  0.97764034615E+00  0.93800000000E+00 0.  1.
         22    1    1    2    0    0 -0.18224771078E+00  0.20127847067E+00  0.26068793968E+01  0.26209821519E+01  0.00000000000E+00 0.  1.
</event>
<event>
 5    1  0.7220939E+001  0.1599353E+01  0.7818608E-02  0.3354066E+00
         11   -1    0    0    0    0  0.00000000000E+00  0.00000000000E+00  0.39999999674E+01  0.40000000000E+01  0.51100000000E-03 0. -1.
    9000002   -1    0    0    0    0 -0.00000000000E+00 -0.00000000000E+00  0.00000000000E+00  0.93800000000E+00  0.93800000000E+00 0. -1.
         11    1    1    2    0    0  0.18514100665E-01  0.44446641297E-01  0.51035884625E+00  0.51262529094E+00  0.51100000000E-03 0. -1.
    9000002    1    1    2    0    0 -0.45525696844E-01 -0.39617712539E+00  0.10752059436E+00  0.10249066211E+01  0.93800000000E+00 0. -1.
         22    1    1    2    0    0  0.27011596179E-01  0.35173048409E+00  0.33821205268E+01  0.34004680880E+01  0.00000000000E+00 0. -1.
</event>
<event>
 5    1  0.7220939E+001  0.1595818E+01  0.7818608E-02  0.3357915E+00
         11   -1    0    0    0    0  0.00000000000E+00  0.00000000000E+00  0.39999999674E+01  0.40000000000E+01  0.51100000000E-03 0. -1.
    9000002   -1    0    0    0    0 -0.00000000000E+00 -0.00000000000E+00  0.00000000000E+00  0.93800000000E+00  0.93800000000E+00 0. -1.
         11    1    1    2    0    0 -0.50856730189E-01  0.25090621426E-01  0.56469323666E+00  0.56753383947E+00  0.51100000000E-03 0. -1.
    9000002    1    1    2    0    0  0.23014120446E-01 -0.32863582183E+00  0.75687971896E-01  0.99704755264E+00  0.93800000000E+00 0. -1.
         22    1    1    2    0    0  0.27842609743E-01  0.30354520040E+00  0.33596187588E+01  0.33734186079E+01  0.00000000000E+00 0. -1.
</event>
<event>
 5    1  0.7220939E+001  0.1471946E+01  0.7818608E-02  0.3505265E+00
         11   -1    0    0    0    0  0.00000000000E+00  0.00000000000E+00  0.39999999674E+01  0.40000000000E+01  0.51100000000E-03 0.  1.
    9000002   -1    0    0    0    0 -0.00000000000E+00 -0.00000000000E+00  0.00000000000E+00  0.93800000000E+00  0.93800000000E+00 0. -1.
         11    1    1    2    0    0  0.40035495364E+00  0.14262913503E+00  0.10345316784E+01  0.11184289042E+01  0.51100000000E-03 0.  1.
    9000002    1    1    2    0    0 -0.12900695571E+00 -0.91125822153E-01  0.11772106276E+00  0.95846176695E+00  0.93800000000E+00 0. -1.
         22    1    1    2    0    0 -0.27134799792E+00 -0.51503312873E-01  0.28477472262E+01  0.28611093288E+01  0.00000000000E+00 0.  1.
</event>
<event>
 5    1  0.7220939E+001  0.1599675E+01  0.7818608E-02  0.3353716E+00
         11   -1    0    0    0    0  0.00000000000E+00  0.00000000000E+00  0.39999999674E+01  0.40000000000E+01  0.51100000000E-03 0.  1.
    9000002   -1    0    0    0    0 -0.00000000000E+00 -0.00000000000E+00  0.00000000000E+00  0.93800000000E+00  0.93800000000E+00 0. -1.
         11    1    1    2    0    0  0.15218163396E+00  0.59738742405E-01  0.12232540301E+01  0.12341307266E+01  0.51100000000E-03 0.  1.
    9000002    1    1    2    0    0 -0.47664217940E+00 -0.19079813362E+00  0.18085851550E+00  0.10845024194E+01  0.93800000000E+00 0. -1.
         22    1    1    2    0    0  0.32446054544E+00  0.13105939121E+00  0.25958874218E+01  0.26193668540E+01  0.00000000000E+00 0.  1.
</event>
<event>
 5    1  0.7220939E+001  0.1547799E+01  0.7818608E-02  0.3412046E+00
         11   -1    0    0    0    0  0.00000000000E+00  0.00000000000E+00  0.39999999674E+01  0.40000000000E+01  0.51100000000E-03 0. -1.
    9000002   -1    0    0    0    0 -0.00000000000E+00 -0.00000000000E+00  0.00000000000E+00  0.93800000000E+00  0.93800000000E+00 0.  1.
         11    1    1    2    0    0 -0.81109988266E-01  0.57363631477E-01  0.23842409575E+00  0.25829387714E+00  0.51100000000E-03 0. -1.
    9000002    1    1    2    0    0 -0.47601130382E+00  0.28809875951E+00  0.26517841820E+00  0.11223864085E+01  0.93800000000E+00 0.  1.
         22    1    1    2    0    0  0.55712129209E+00 -0.34546239099E+00  0.34963974534E+01  0.35573197143E+01  0.00000000000E+00 0. -1.
</event>
<event>
 5    1  0.7220939E+001  0.1598382E+01  0.7818608E-02  0.3355122E+00
         11   -1    0    0    0    0  0.00000000000E+00  0.00000000000E+00  0.39999999674E+01  0.40000000000E+01  0.51100000000E-03 0. -1.
    9000002   -1    0    0    0    0 -0.00000000000E+00 -0.00000000000E+00  0.00000000000E+00  0.93800000000E+00  0.93800000000E+00 0.  1.
         11    1    1    2    0    0 -0.39420589541E-01  0.91139482197E-01  0.61005228598E+00  0.61808125747E+00  0.51100000000E-03 0. -1.
    9000002    1    1    2    0    0  0.26709847634E+00 -0.37568667951E+00  0.14568058897E+00  0.10552482699E+01  0.93800000000E+00 0.  1.
         22    1    1    2    0    0 -0.22767788679E+00  0.28454719732E+00  0.32442670924E+01  0.32646704726E+01  0.00000000000E+00 0.  1.
</event>
<event>
 5    1  0.7220939E+001  0.1599672E+01  0.7818608E-02  0.3353720E+00
         11   -1    0    0    0    0  0.00000000000E+00  0.00000000000E+00  0.39999999674E+01  0.40000000000E+01  0.51100000000E-03 0.  1.
    9000002   -1    0    0    0    0 -0.00000000000E+00 -0.00000000000E+00  0.00000000000E+00  0.93800000000E+00  0.93800000000E+00 0. -1.
         11    1    1    2    0    0 -0.59583263815E-02  0.48240249611E-01  0.32358987535E+00  0.32722055541E+00  0.51100000000E-03 0.  1.
    9000002    1    1    2    0    0  0.86504809670E-01 -0.56219402555E+00  0.22429565609E+00  0.11196864498E+01  0.93800000000E+00 0. -1.
         22    1    1    2    0    0 -0.80546483288E-01  0.51395377594E+00  0.34521144359E+01  0.34910929948E+01  0.00000000000E+00 0.  1.
</event>
<event>
 5    1  0.7220939E+001  0.1521219E+01  0.7818608E-02  0.3443574E+00
         11   -1    0    0    0    0  0.00000000000E+00  0.00000000000E+00  0.39999999674E+01  0.40000000000E+01  0.51100000000E-03 0.  1.
    9000002   -1    0    0    0    0 -0.00000000000E+00 -0.00000000000E+00  0.00000000000E+00  0.93800000000E+00  0.93800000000E+00 0.  1.
         11    1    1    2    0    0 -0.32558364749E+00 -0.13551807449E+00  0.11667896928E+01  0.12189209607E+01  0.51100000000E-03 0.  1.
    9000002    1    1    2    0    0  0.54885053792E-01  0.33049940051E+00  0.14063422999E+00  0.10059146134E+01  0.93800000000E+00 0.  1.
         22    1    1    2    0    0  0.27069859370E+00 -0.19498132603E+00  0.26925760446E+01  0.27131644259E+01  0.00000000000E+00 0.  1.
</event>
<event>
 5    1  0.7220939E+001  0.1599674E+01  0.7818608E-02  0.3353717E+00
         11   -1    0    0    0    0  0.00000000000E+00  0.00000000000E+00  0.39999999674E+01  0.40000000000E+01  0.51100000000E-03 0. -1.
    9000002   -1    0    0    0    0 -0.00000000000E+00 -0.00000000000E+00  0.00000000000E+00  0.93800000000E+00  0.93800000000E+00 0. -1.
         11    1    1    2    0    0 -0.10370522234E+00 -0.48271875054E-01  0.11491112493E+01  0.11547908345E+01  0.51100000000E-03 0. -1.
    9000002    1    1    2    0    0  0.35223071164E+00  0.17003616741E+00  0.10307369649E+00  0.10214925156E+01  0.93800000000E+00 0. -1.
         22    1    1    2    0    0 -0.24852548930E+00 -0.12176429236E+00  0.27478150215E+01  0.27617166499E+01  0.00000000000E+00 0. -1.
</event>
<event>
 5    1  0.7220939E+001  0.1599489E+01  0.7818608E-02  0.3353918E+00
         11   -1    0    0    0    0  0.00000000000E+00  0.00000000000E+00  0.39999999674E+01  0.40000000000E+01  0.51100000000E-03 0. -1.
    9000002   -1    0    0    0    0 -0.00000000000E+00 -0.00000000000E+00  0.00000000000E+00  0.93800000000E+00  0.93800000000E+00 0. -1.
         11    1    1    2    0    0 -0.19099769490E-01 -0.76805146614E-01  0.10107562109E+01  0.10138501915E+01  0.51100000000E-03 0. -1.
    9000002    1    1    2    0    0  0.10081304844E+00  0.34650583681E+00  0.87579132793E-01  0.10088328257E+01  0.93800000000E+00 0. -1.
         22    1    1    2    0    0 -0.81713278955E-01 -0.26970069019E+00  0.29016646237E+01  0.29153169829E+01  0.00000000000E+00 0. -1.
</event>
<event>
 5    1  0.7220939E+001  0.1555036E+01  0.7818608E-02  0.3403659E+00
         11   -1    0    0    0    0  0.00000000000E+00  0.00000000000E+00  0.39999999674E+01  0.40000000000E+01  0.51100000000E-03 0.  1.
    9000002   -1    0    0    0    0 -0.00000000000E+00 -0.00000000000E+00  0.00000000000E+00  0.93800000000E+00  0.93800000000E+00 0. -1.
         11    1    1    2    0    0  0.11464410489E+00  0.12501393966E+00  0.84476230250E+00  0.86162367931E+00  0.51100000000E-03 0.  1.
    9000002    1    1    2    0    0 -0.71637067851E-02  0.23627324225E+00  0.71802860092E-01  0.96998763622E+00  0.93800000000E+00 0. -1.
         22    1    1    2    0    0 -0.10748039810E+00 -0.36128718191E+00  0.30834348048E+01  0.31063886845E+01  0.00000000000E+00 0.  1.
</event>
<event>
 5    1  0.7220939E+001  0.1507189E+01  0.7818608E-02  0.3460697E+00
         11   -1    0    0    0    0  0.00000000000E+00  0.00000000000E+00  0.39999999674E+01  0.40000000000E+01  0.51100000000E-03 0. -1.
    9000002   -1    0    0    0    0 -0.00000000000E+00 -0.00000000000E+00  0.00000000000E+00  0.93800000000E+00  0.93800000000E+00 0.  1.
         11    1    1    2    0    0 -0.40248405068E+00  0.21994196007E-01  0.12733784602E+01  0.13356534430E+01  0.51100000000E-03 0. -1.
    9000002    1    1    2    0    0  0.18385544281E+00 -0.22280838526E+00  0.13143312463E+00  0.99023485429E+00  0.93800000000E+00 0.  1.
         22    1    1    2    0    0  0.21862860787E+00  0.20081418925E+00  0.25951883825E+01  0.26121117027E+01  0.00000000000E+00 0. -1.
</event>
<event>
 5    1  0.7220939E+001  0.1580533E+01  0.7818608E-02  0.3374767E+00
         11   -1    0    0    0    0  0.00000000000E+00  0.00000000000E+00  0.39999999674E+01  0.40000000000E+01  0.51100000000E-03 0.  1.
    9000002   -1    0    0    0    0 -0.00000000000E+00 -0.00000000000E+00  0.00000000000E+00  0.93800000000E+00  0.93800000000E+00 0.  1.
         11    1    1    2    0    0  0.38852911362E-01  0.79725601824E-01  0.76966062169E+00  0.77475380219E+00  0.51100000000E-03 0.  1.
    9000002    1    1    2    0    0 -0.79035189849E-01  0.25693981324E+00  0.62979696114E-01  0.97779091374E+00  0.93800000000E+00 0.  1.
         22    1    1    2    0    0  0.40182278488E-01 -0.33666541506E+00  0.31673596496E+01  0.31854552841E+01  0.00000000000E+00 0.  1.
</event>
<event>
 5    1  0.7220939E+001  0.1539584E+01  0.7818608E-02  0.3421665E+00
         11   -1    0    0    0    0  0.00000000000E+00  0.00000000000E+00  0.39999999674E+01  0.40000000000E+01  0.51100000000E-03 0.  1.
    9000002   -1    0    0    0    0 -0.00000000000E+00 -0.00000000000E+00  0.00000000000E+00  0.93800000000E+00  0.93800000000E+00 0.  1.
         11    1    1    2    0    0  0.30047236476E+00  0.16946742376E+00  0.62956005155E+00  0.71787810200E+00  0.51100000000E-03 0.  1.
    9000002    1    1    2    0    0 -0.55928096406E+00 -0.31662683002E+00  0.35666923019E+00  0.11916814532E+01  0.93800000000E+00 0.  1.
         22    1    1    2    0    0  0.25880859930E+00  0.14715940625E+00  0.30137706856E+01  0.30284404447E+01  0.00000000000E+00 0.  1.
</event>
<event>
 5    1  0.7220939E+001  0.1598509E+01  0.7818608E-02  0.3354983E+00
         11   -1    0    0    0    0  0.00000000000E+00  0.00000000000E+00  0.39999999674E+01  0.40000000000E+01  0.51100000000E-03 0.  1.
    9000002   -1    0    0    0    0 -0.00000000000E+00 -0.00000000000E+00  0.00000000000E+00  0.93800000000E+00  0.93800000000E+00 0.  1.
         11    1    1    2    0    0 -0.11019849346E+00 -0.16882109298E-01  0.95272606892E+00  0.95922673915E+00  0.51100000000E-03 0.  1.
    9000002    1    1    2    0    0  0.41564358341E+00 -0.71583839613E-01  0.12132012886E+00  0.10355898842E+01  0.93800000000E+00 0.  1.
         22    1    1    2    0    0 -0.30544508995E+00  0.88465948910E-01  0.29259537696E+01  0.29431833767E+01  0.00000000000E+00 0.  1.
</event>
<event>
 5    1  0.7220939E+001  0.1599619E+01  0.7818608E-02  0.3353777E+00
         11   -1    0    0    0    0  0.00000000000E+00  0.00000000000E+00  0.39999999674E+01  0.40000000000E+01  0.51100000000E-03 0. -1.
    9000002   -1    0    0    0    0 -0.00000000000E+00 -0.00000000000E+00  0.00000000000E+00  0.93800000000E+00  0.93800000000E+00 0. -1.
         11    1    1    2    0    0 -0.56805395780E-01  0.17853626456E-01  0.56364459292E+00  0.56678134516E+00  0.51100000000E-03 0. -1.
    9000002    1    1    2    0    0  0.40087320999E+00 -0.79469862787E-01  0.11283082090E+00  0.10293636790E+01  0.93800000000E+00 0. -1.
         22    1    1    2    0    0 -0.34406781421E+00  0.61616236332E-01  0.33235245535E+01  0.33418549758E+01  0.00000000000E+00 0. -1.
</event>
<event>
 5    1  0.7220939E+001  0.1598941E+01  0.7818608E-02  0.3354514E+00
         11   -1    0    0    0    0  0.00000000000E+00  0.00000000000E+00  0.39999999674E+01  0.40000000000E+01  0.51100000000E-03 0. -1.
    9000002   -1    0    0    0    0 -0.00000000000E+00 -0.00000000000E+00  0.00000000000E+00  0.93800000000E+00  0.93800000000E+00 0. -1.
         11    1    1    2    0    0 -0.98640383841E-01 -0.13009994635E+00  0.13309838590E+01  0.13409601841E+01  0.51100000000E-03 0. -1.
    9000002    1    1    2    0    0  0.20335701273E+00  0.34792458195E+00  0.11020197462E+00  0.10268369221E+01  0.93800000000E+00 0. -1.
         22    1    1    2    0    0 -0.10471662889E+00 -0.21782463560E+00  0.25588141338E+01  0.25702028938E+01  0.00000000000E+00 0. -1.
</event>
<event>
 5    1  0.7220939E+001  0.1590818E+01  0.7818608E-02  0.3363390E+00
         11   -1    0    0    0    0  0.00000000000E+00  0.00000000000E+00  0.39999999674E+01  0.40000000000E+01  0.51100000000E-03 0. -1.
    9000002   -1    0    0    0    0 -0.00000000000E+00 -0.00000000000E+00  0.00000000000E+00  0.93800000000E+00  0.93800000000E+00 0.  1.
         11    1    1    2    0    0 -0.64002837117E-02  0.10567316023E+00  0.14277961284E+01  0.14317156931E+01  0.51100000000E-03 0. -1.
    9000002    1    1    2    0    0 -0.28011482271E+00 -0.27672461662E+00  0.11187095450E+00  0.10234255898E+01  0.93800000000E+00 0.  1.
         22    1    1    2    0    0  0.28651510642E+00  0.17105145639E+00  0.24603328844E+01  0.24828587171E+01  0.00000000000E+00 0.  1.
</event>
<event>
 5    1  0.7220939E+001  0.1599598E+01  0.7818608E-02  0.3353799E+00
         11   -1    0    0    0    0  0.00000000000E+00  0.00000000000E+00  0.39999999674E+01  0.40000000000E+01  0.51100000000E-03 0. -1.
    9000002   -1    0    0    0    0 -0.00000000000E+00 -0.00000000000E+00  0.00000000000E+00  0.93800000000E+00  0.93800000000E+00 0.  1.
         11    1    1    2    0    0 -0.13340709896E+00  0.60779928123E-01  0.84625642877E+00  0.85886079086E+00  0.51100000000E-03 0. -1.
    9000002    1    1    2    0    0  0.55315726967E+00 -0.28706821426E+00  0.27244486761E+00  0.11586463354E+01  0.93800000000E+00 0.  1.
         22    1    1    2    0    0 -0.41975017071E+00  0.22628828614E+00  0.28812986710E+01  0.29204928737E+01  0.00000000000E+00 0. -1.
</event>
<event>
 5    1  0.7220939E+001  0.1599233E+01  0.7818608E-02  0.3354196E+00
         11   -1    0    0    0    0  0.00000000000E+00  0.00000000000E+00  0.39999999674E+01  0.40000000000E+01  0.51100000000E-03 0.  1.
    9000002   -1    0    0    0    0 -0.00000000000E+00 -0.00000000000E+00  0.00000000000E+00  0.93800000000E+00  0.93800000000E+00 0.  1.
         11    1    1    2    0    0  0.18565356586E+00  0.89419087225E-02  0.12480094357E+01  0.12617745508E+01  0.51100000000E-03 0.  1.
    9000002    1    1    2    0    0 -0.50017025227E+00 -0.30381995284E-02  0.17166699611E+00  0.10767975991E+01  0.93800000000E+00 0.  1.
         22    1    1    2    0    0  0.31451668642E+00 -0.59037091941E-02  0.25803235356E+01  0.25994278501E+01  0.00000000000E+00 0. -1.
</event>
<event>
 5    1  0.7220939E+001  0.1468620E+01  0.7818608E-02  0.3509590E+00
         11   -1    0    0    0    0  0.00000000000E+00  0.00000000000E+00  0.39999999674E+01  0.40000000000E+01  0.51100000000E-03 0.  1.
    9000002   -1    0    0    0    0 -0.00000000000E+00 -0.00000000000E+00  0.00000000000E+00  0.93800000000E+00  0.93800000000E+00 0. -1.
         11    1    1    2    0    0  0.15331674724E+00 -0.23885777734E+00  0.35434223678E+00  0.45400192144E+00  0.51100000000E-03 0.  1.
    9000002    1    1    2    0    0 -0.17372430801E+00 -0.35992129268E+00  0.26883560420E+00  0.10544382648E+01  0.93800000000E+00 0. -1.
         22    1    1    2    0    0  0.20407560766E-01  0.59877907002E+00  0.33768221264E+01  0.34295598138E+01  0.00000000000E+00 0.  1.
</event>
<event>
 5    1  0.7220939E+001  0.1599675E+01  0.7818608E-02  0.3353717E+00
         11   -1    0    0    0    0  0.00000000000E+00  0.00000000000E+00  0.39999999674E+01  0.40000000000E+01  0.51100000000E-03 0. -1.
    9000002   -1    0    0    0    0 -0.00000000000E+00 -0.00000000000E+00  0.00000000000E+00  0.93800000000E+00  0.93800000000E+00 0. -1.
         11    1    1    2    0    0  0.17337834859E-02  0.20922253746E-01  0.22168621094E+00  0.22267865625E+00  0.51100000000E-03 0.  1.
    9000002    1    1    2    0    0 -0.40959038201E-01 -0.37648134958E+00  0.96482863207E-01  0.10161539216E+01  0.93800000000E+00 0. -1.
         22    1    1    2    0    0  0.39225254715E-01  0.35555909584E+00  0.36818308932E+01  0.36991674222E+01  0.00000000000E+00 0. -1.
</event>
<event>
 5    1  0.7220939E+001  0.1590330E+01  0.7818608E-02  0.3363926E+00
         11   -1    0    0    0    0  0.00000000000E+00  0.00000000000E+00  0.39999999674E+01  0.40000000000E+01  0.51100000000E-03 0.  1.
    9000002   -1    0    0    0    0 -0.00000000000E+00 -0.00000000000E+00  0.00000000000E+00  0.93800000000E+00  0.93800000000E+00 0.  1.
         11    1    1    2    0    0 -0.10134842349E+00 -0.94213539243E-01  0.12301387157E+01  0.12378970939E+01  0.51100000000E-03 0.  1.
    9000002    1    1    2    0    0  0.62142993325E+00  0.18567519303E+00  0.30661810976E+00  0.11808933502E+01  0.93800000000E+00 0.  1.
         22    1    1    2    0    0 -0.52008150977E+00 -0.91461653792E-01  0.24632431419E+01  0.25192095560E+01  0.00000000000E+00 0.  1.
</event>
<event>
 5    1  0.7220939E+001  0.1599676E+01  0.7818608E-02  0.3353715E+00
         11   -1    0    0    0    0  0.00000000000E+00  0.00000000000E+00  0.39999999674E+01  0.40000000000E+01  0.51100000000E-03 0.  1.
    9000002   -1    0    0    0    0 -0.00000000000E+00 -0.00000000000E+00  0.00000000000E+00  0.93800000000E+00  0.93800000000E+00 0. -1.
         11    1    1    2    0    0  0.10046678245E+00 -0.28249094357E-01  0.10961907539E+01  0.11011475904E+01  0.51100000000E-03 0.  1.
    9000002    1    1    2    0    0 -0.35794614085E+00  0.97834724390E-01  0.92549940255E-01  0.10129691824E+01  0.93800000000E+00 0. -1.
         22    1    1    2    0    0  0.25747935840E+00 -0.69585630033E-01  0.28112592732E+01  0.28238832272E+01  0.00000000000E+00 0.  1.
</event>
<event>
 5    1  0.7220939E+001  0.1574589E+01  0.7818608E-02  0.3381414E+00
         11   -1    0    0    0    0  0.00000000000E+00  0.00000000000E+00  0.39999999674E+01  0.40000000000E+01  0.51100000000E-03 0. -1.
    9000002   -1    0    0    0    0 -0.00000000000E+00 -0.00000000000E+00  0.00000000000E+00  0.93800000000E+00  0.93800000000E+00 0.  1.
         11    1    1    2    0    0  0.22250241707E+00 -0.25340404634E+00  0.13878474325E+01  0.14282302662E+01  0.51100000000E-03 0. -1.
    9000002    1    1    2    0    0 -0.54241525227E+00  0.18843702988E+00  0.25350812510E+00  0.11286421885E+01  0.93800000000E+00 0.  1.
         22    1    1    2    0    0  0.31991283520E+00  0.64967016459E-01  0.23586444097E+01  0.23811275453E+01  0.00000000000E+00 0. -1.
</event>
<event>
 5    1  0.7220939E+001  0.1599676E+01  0.7818608E-02  0.3353715E+00
         11   -1    0    0    0    0  0.00000000000E+00  0.00000000000E+00  0.39999999674E+01  0.40000000000E+01  0.51100000000E-03 0. -1.
    9000002   -1    0    0    0    0 -0.00000000000E+00 -0.00000000000E+00  0.00000000000E+00  0.93800000000E+00  0.93800000000E+00 0. -1.
         11    1    1    2    0    0  0.16212826263E+00  0.68980915323E-01  0.13951921193E+01  0.14062735335E+01  0.51100000000E-03 0. -1.
    9000002    1    1    2    0    0 -0.44908129098E+00 -0.18911325551E+00  0.16219906663E+00  0.10693878466E+01  0.93800000000E+00 0. -1.
         22    1    1    2    0    0  0.28695302835E+00  0.12013234018E+00  0.24426087815E+01  0.24623386199E+01  0.00000000000E+00 0. -1.
</event>
<event>
 5    1  0.7220939E+001  0.1599661E+01  0.7818608E-02  0.3353731E+00
         11   -1    0    0    0    0  0.00000000000E+00  0.00000000000E+00  0.39999999674E+01  0.40000000000E+01  0.51100000000E-03 0. -1.
    9000002   -1    0    0    0    0 -0.00000000000E+00 -0.00000000000E+00  0.00000000000E+00  0.93800000000E+00  0.93800000000E+00 0. -1.
         11    1    1    2    0    0 -0.16682128350E+00 -0.54409841349E-01  0.12958349696E+01  0.13076613862E+01  0.51100000000E-03 0. -1.
    9000002    1    1    2    0    0  0.49403605152E+00  0.17292355256E+00  0.18832624623E+00  0.10905434197E+01  0.93800000000E+00 0. -1.
         22    1    1    2    0    0 -0.32721476802E+00 -0.11851371121E+00  0.25158387516E+01  0.25397951941E+01  0.00000000000E+00 0. -1.
</event>
<event>
 5    1  0.7220939E+001  0.1599677E+01  0.7818608E-02  0.3353714E+00
         11   -1    0    0    0    0  0.00000000000E+00  0.00000000000E+00  0.39999999674E+01  0.40000000000E+01  0.51100000000E-03 0.  1.
    9000002   -1    0    0    0    0 -0.00000000000E+00 -0.00000000000E+00  0.00000000000E+00  0.93800000000E+00  0.93800000000E+00 0.  1.
         11    1    1    2    0    0  0.27428474860E-01 -0.98351229514E-01  0.10495358423E+01  0.10544908871E+01  0.51100000000E-03 0. -1.
    9000002    1    1    2    0    0 -0.10156530326E+00  0.36586196395E+00  0.97000205779E-01  0.10165744082E+01  0.93800000000E+00 0.  1.
         22    1    1    2    0    0  0.74136828400E-01 -0.26751073444E+00  0.28534639193E+01  0.28669347047E+01  0.00000000000E+00 0.  1.
</event>
<event>
 5    1  0.7220939E+001  0.1599673E+01  0.7818608E-02  0.3353719E+00
         11   -1    0    0    0    0  0.00000000000E+00  0.00000000000E+00  0.39999999674E+01  0.40000000000E+01  0.51100000000E-03 0.  1.
    9000002   -1    0    0    0    0 -0.00000000000E+00 -0.00000000000E+00  0.00000000000E+00  0.93800000000E+00  0.93800000000E+00 0.  1.
         11    1    1    2    0    0  0.73274718846E-01 -0.83637218498E-01  0.84266766320E+00  0.84997259984E+00  0.51100000000E-03 0. -1.
    9000002    1    1    2    0    0 -0.34149923285E+00  0.37715597090E+00  0.17747851873E+00  0.10817629024E+01  0.93800000000E+00 0.  1.
         22    1    1    2    0    0  0.26822451401E+00 -0.29351875240E+00  0.29798537854E+01  0.30062644978E+01  0.00000000000E+00 0.  1.
</event>
<event>
 5    1  0.7220939E+001  0.1599667E+01  0.7818608E-02  0.3353725E+00
         11   -1    0    0    0    0  0.00000000000E+00  0.00000000000E+00  0.39999999674E+01  0.40000000000E+01  0.51100000000E-03 0. -1.
    9000002   -1    0    0    0    0 -0.00000000000E+00 -0.00000000000E+00  0.00000000000E+00  0.93800000000E+00  0.93800000000E+00 0.  1.
         11    1    1    2    0    0  0.72438263605E-01 -0.56871163213E-01  0.99868524182E+00  0.10029227810E+01  0.51100000000E-03 0. -1.
    9000002    1    1    2    0    0 -0.29231746222E+00  0.21329494345E+00  0.87924468977E-01  0.10092169954E+01  0.93800000000E+00 0.  1.
         22    1    1    2    0    0  0.21987919861E+00 -0.15642378024E+00  0.29133902566E+01  0.29258602236E+01  0.00000000000E+00 0. -1.
</event>
<event>
 5    1  0.7220939E+001  0.1599666E+01  0.7818608E-02  0.3353726E+00
         11   -1    0    0    0    0  0.00000000000E+00  0.00000000000E+00  0.39999999674E+01  0.40000000000E+01  0.51100000000E-03 0.  1.
    9000002   -1    0    0    0    0 -0.00000000000E+00 -0.00000000000E+00  0.00000000000E+00  0.93800000000E+00  0.93800000000E+00 0.  1.
         11    1    1    2    0    0 -0.69517745061E-01 -0.63447330026E-01  0.90686272834E+00  0.91173381518E+00  0.51100000000E-03 0.  1.
    9000002    1    1    2    0    0  0.28509691486E+00  0.27827905569E+00  0.10704679093E+00  0.10247060550E+01  0.93800000000E+00 0. -1.
         22    1    1    2    0    0 -0.21557916980E+00 -0.21483172566E+00  0.29860904481E+01  0.30015601298E+01  0.00000000000E+00 0.  1.
</event>
<event>
 5    1  0.7220939E+001  0.1599656E+01  0.7818608E-02  0.3353737E+00
         11   -1    0    0    0    0  0.00000000000E+00  0.00000000000E+00  0.39999999674E+01  0.40000000000E+01  0.51100000000E-03 0. -1.
    9000002   -1    0    0    0    0 -0.00000000000E+00 -0.00000000000E+00  0.00000000000E+00  0.93800000000E+00  0.93800000000E+00 0.  1.
         11    1    1    2    0    0 -0.20368111736E+00 -0.79870690537E-01  0.14247005919E+01  0.14414011803E+01  0.51100000000E-03 0. -1.
    9000002    1    1    2    0    0  0.52594362915E+00  0.21539929298E+00  0.22392195679E+00  0.11193741998E+01  0.93800000000E+00 0.  1.
         22    1    1    2    0    0 -0.32226251179E+00 -0.13552860244E+00  0.23513774187E+01  0.23772246199E+01  0.00000000000E+00 0.  1.
</event>
<event>
 5    1  0.7220939E+001  0.1598864E+01  0.7818608E-02  0.3354597E+00
         11   -1    0    0    0    0  0.00000000000E+00  0.00000000000E+00  0.39999999674E+01  0.40000000000E+01  0.51100000000E-03 0.  1.
    9000002   -1    0    0    0    0 -0.00000000000E+00 -0.00000000000E+00  0.00000000000E+00  0.93800000000E+00  0.93800000000E+00 0. -1.
         11    1    1    2    0    0  0.67382730391E-01 -0.44411293155E-01  0.11944242849E+01  0.11971476220E+01  0.51100000000E-03 0.  1.
    9000002    1    1    2    0    0 -0.22345923139E+00  0.24978852035E+00  0.75846123030E-01  0.99896194491E+00  0.93800000000E+00 0. -1.
         22    1    1    2    0    0  0.15607650100E+00 -0.20537722719E+00  0.27297295594E+01  0.27418904331E+01  0.00000000000E+00 0.  1.
</event>
<event>
 5    1  0.7220939E+001  0.1599676E+01  0.7818608E-02  0.3353715E+00
         11   -1    0    0    0    0  0.00000000000E+00  0.00000000000E+00  0.39999999674E+01  0.40000000000E+01  0.51100000000E-03 0.  1.
    9000002   -1    0    0    0    0 -0.00000000000E+00 -0.00000000000E+00  0.00000000000E+00  0.93800000000E+00  0.93800000000E+00 0. -1.
         11    1    1    2    0    0 -0.11418836647E+00  0.14502993971E+00  0.77109121417E+00  0.79287741053E+00  0.51100000000E-03 0. -1.
    9000002    1    1    2    0    0  0.51514468477E+00 -0.65085455479E+00  0.51291054043E+00  0.13534795603E+01  0.93800000000E+00 0. -1.
         22    1    1    2    0    0 -0.40095631831E+00  0.50582461508E+00  0.27159982128E+01  0.27916430291E+01  0.00000000000E+00 0.  1.
</event>
<event>
 5    1  0.7220939E+001  0.1594312E+01  0.7818608E-02  0.3359560E+00
         11   -1    0    0    0    0  0.00000000000E+00  0.00000000000E+00  0.39999999674E+01  0.40000000000E+01  0.51100000000E-03 0.  1.
    9000002   -1    0    0    0    0 -0.00000000000E+00 -0.00000000000E+00  0.00000000000E+00  0.93800000000E+00  0.93800000000E+00 0.  1.
         11    1    1    2    0    0 -0.89285891158E-01 -0.10749661463E+00  0.13954274852E+01  0.14024070807E+01  0.51100000000E-03 0.  1.
    9000002    1    1    2    0    0  0.37672390118E+00  0.10158319585E+00  0.10700781166E+00  0.10215354694E+01  0.93800000000E+00 0.  1.
         22    1    1    2    0    0 -0.28743801002E+00  0.59134187776E-02  0.24975646705E+01  0.25140574499E+01  0.00000000000E+00 0.  1.
</event>
<event>
 5    1  0.7220939E+001  0.1599677E+01  0.7818608E-02  0.3353714E+00
         11   -1    0    0    0    0  0.00000000000E+00  0.00000000000E+00  0.39999999674E+01  0.40000000000E+01  0.51100000000E-03 0. -1.
    9000002   -1    0    0    0    0 -0.00000000000E+00 -0.00000000000E+00  0.00000000000E+00  0.93800000000E+00  0.93800000000E+00 0. -1.
         11    1    1    2    0    0 -0.64273697531E-01 -0.88115070005E-01  0.11950030854E+01  0.11999700034E+01  0.51100000000E-03 0. -1.
    9000002    1    1    2    0    0  0.20834083253E+00  0.28936029281E+00  0.85308221519E-01  0.10071031597E+01  0.93800000000E+00 0. -1.
         22    1    1    2    0    0 -0.14406713500E+00 -0.20124522281E+00  0.27196886604E+01  0.27309268370E+01  0.00000000000E+00 0. -1.
</event>
<event>
 5    1  0.7220939E+001  0.1599677E+01  0.7818608E-02  0.3353714E+00
         11   -1    0    0    0    0  0.00000000000E+00  0.00000000000E+00  0.39999999674E+01  0.40000000000E+01  0.51100000000E-03 0. -1.
    9000002   -1    0    0    0    0 -0.00000000000E+00 -0.00000000000E+00  0.00000000000E+00  0.93800000000E+00  0.93800000000E+00 0.  1.
         11    1    1    2    0    0 -0.81916800077E-01 -0.99546584683E-01  0.13664389075E+01  0.13725069886E+01  0.51100000000E-03 0.  1.
    9000002    1    1    2    0    0  0.23403749988E+00  0.28538922181E+00  0.91535655664E-01  0.10121478822E+01  0.93800000000E+00 0.  1.
         22    1    1    2    0    0 -0.15212069981E+00 -0.18584263713E+00  0.25420254042E+01  0.25533451291E+01  0.00000000000E+00 0. -1.
</event>
<event>
 5    1  0.7220939E+001  0.1589833E+01  0.7818608E-02  0.3364473E+00
         11   -1    0    0    0    0  0.00000000000E+00  0.00000000000E+00  0.39999999674E+01  0.40000000000E+01  0.51100000000E-03 0.  1.
    9000002   -1    0    0    0    0 -0.00000000000E+00 -0.00000000000E+00  0.00000000000E+00  0.93800000000E+00  0.93800000000E+00 0.  1.
         11    1    1    2    0    0  0.23588378293E-01  0.10021360275E+00  0.42784260899E+00  0.44005537942E+00  0.51100000000E-03 0.  1.
    9000002    1    1    2    0    0 -0.31309078467E+00 -0.23378383762E+00  0.11104897305E+00  0.10221822717E+01  0.93800000000E+00 0.  1.
         22    1    1    2    0    0  0.28950240638E+00  0.13357023487E+00  0.34611083853E+01  0.34757623489E+01  0.00000000000E+00 0.  1.
</event>
<event>
 5    1  0.7220939E+001  0.1599677E+01  0.7818608E-02  0.3353714E+00
         11   -1    0    0    0    0  0.00000000000E+00  0.00000000000E+00  0.39999999674E+01  0.40000000000E+01  0.51100000000E-03 0.  1.
    9000002   -1    0    0    0    0 -0.00000000000E+00 -0.00000000000E+00  0.00000000000E+00  0.93800000000E+00  0.93800000000E+00 0.  1.
         11    1    1    2    0    0 -0.21407359086E+00 -0.11460818582E+00  0.14474267027E+01  0.14676535216E+01  0.51100000000E-03 0.  1.
    9000002    1    1    2    0    0  0.55066927306E+00  0.29438264825E+00  0.27349592204E+00  0.11595437945E+01  0.93800000000E+00 0.  1.
         22    1    1    2    0    0 -0.33659568220E+00 -0.17977446243E+00  0.22790773426E+01  0.23108026840E+01  0.00000000000E+00 0.  1.
</event>
<event>
 5    1  0.7220939E+001  0.1599677E+01  0.7818608E-02  0.3353714E+00
         11   -1    0    0    0    0  0.00000000000E+00  0.00000000000E+00  0.39999999674E+01  0.40000000000E+01  0.51100000000E-03 0.  1.
    9000002   -1    0    0    0    0 -0.00000000000E+00 -0.00000000000E+00  0.00000000000E+00  0.93800000000E+00  0.93800000000E+00 0.  1.
         11    1    1    2    0    0 -0.12651344749E+00  0.12037055221E+00  0.12823282069E+01  0.12941640597E+01  0.51100000000E-03 0.  1.
    9000002    1    1    2    0    0  0.37786909333E+00 -0.35785183839E+00  0.18606089609E+00  0.10887174321E+01  0.93800000000E+00 0.  1.
         22    1    1    2    0    0 -0.25135564584E+00  0.23748128618E+00  0.25316108644E+01  0.25551185082E+01  0.00000000000E+00 0. -1.
</event>
<event>
 5    1  0.7220939E+001  0.1598294E+01  0.7818608E-02  0.3355217E+00
         11   -1    0    0    0    0  0.00000000000E+00  0.00000000000E+00  0.39999999674E+01  0.40000000000E+01  0.51100000000E-03 0.  1.
    9000002   -1    0    0    0    0 -0.00000000000E+00 -0.00000000000E+00  0.00000000000E+00  0.93800000000E+00  0.93800000000E+00 0. -1.
         11    1    1    2    0    0 -0.69627628079E-02 -0.51605903230E-01  0.29741216111E+00  0.30193692058E+00  0.51100000000E-03 0.  1.
    9000002    1    1    2    0    0  0.10551897327E+00  0.36335574372E+00  0.97440819692E-01  0.10161202505E+01  0.93800000000E+00 0. -1.
         22    1    1    2    0    0 -0.98556210466E-01 -0.31174984049E+00  0.36051469866E+01  0.36199428289E+01  0.00000000000E+00 0.  1.
</event>
<event>
 5    1  0.7220939E+001  0.1584431E+01  0.7818608E-02  0.3370437E+00
         11   -1    0    0    0    0  0.00000000000E+00  0.00000000000E+00  0.39999999674E+01  0.40000000000E+01  0.51100000000E-03 0.  1.
    9000002   -1    0    0    0    0 -0.00000000000E+00 -0.00000000000E+00  0.00000000000E+00  0.93800000000E+00  0.93800000000E+00 0.  1.
         11    1    1    2    0    0 -0.10306060731E+00  0.12896588662E-01  0.70929674103E+00  0.71686117118E+00  0.51100000000E-03 0.  1.
    9000002    1    1    2    0    0  0.88403494911E-02 -0.36454711534E+00  0.10180164216E+00  0.10115237641E+01  0.93800000000E+00 0.  1.
         22    1    1    2    0    0  0.94220257823E-01  0.35165052668E+00  0.31889015842E+01  0.32096150647E+01  0.00000000000E+00 0.  1.
</event>
<event>
 5    1  0.7220939E+001  0.1599677E+01  0.7818608E-02  0.3353714E+00
         11   -1    0    0    0    0  0.00000000000E+00  0.00000000000E+00  0.39999999674E+01  0.40000000000E+01  0.51100000000E-03 0. -1.
    9000002   -1    0    0    0    0 -0.00000000000E+00 -0.00000000000E+00  0.00000000000E+00  0.93800000000E+00  0.93800000000E+00 0. -1.
         11    1    1    2    0    0 -0.51854303780E-01  0.10293070564E-01  0.57237846969E+00  0.57481491787E+00  0.51100000000E-03 0.  1.
    9000002    1    1    2    0    0  0.35487670710E+00 -0.70486574767E-01  0.87890432484E-01  0.10091950072E+01  0.93800000000E+00 0. -1.
         22    1    1    2    0    0 -0.30302240332E+00  0.60193504203E-01  0.33397310652E+01  0.33539900749E+01  0.00000000000E+00 0. -1.
</event>
<event>
 5    1  0.7220939E+001  0.1599544E+01  0.7818608E-02  0.3353859E+00
         11   -1    0    0    0    0  0.00000000000E+00  0.00000000000E+00  0.39999999674E+01  0.40000000000E+01  0.51100000000E-03 0. -1.
    9000002   -1    0    0    0    0 -0.00000000000E+00 -0.00000000000E+00  0.00000000000E+00  0.93800000000E+00  0.93800000000E+00 0. -1.
         11    1    1    2    0    0 -0.67698997432E-01 -0.12409937226E+00  0.92841577882E+00  0.93911656781E+00  0.51100000000E-03 0. -1.
    9000002    1    1    2    0    0  0.24466533254E+00  0.54078837002E+00  0.24560463842E+00  0.11368723871E+01  0.93800000000E+00 0. -1.
         22    1    1    2    0    0 -0.17696633510E+00 -0.41668899777E+00  0.28259795501E+01  0.28620110451E+01  0.00000000000E+00 0. -1.
</event>
<event>
 5    1  0.7220939E+001  0.1599677E+01  0.7818608E-02  0.3353714E+00
         11   -1    0    0    0    0  0.00000000000E+00  0.00000000000E+00  0.39999999674E+01  0.40000000000E+01  0.51100000000E-03 0. -1.
    9000002   -1    0    0    0    0 -0.00000000000E+00 -0.00000000000E+00  0.00000000000E+00  0.93800000000E+00  0.93800000000E+00 0. -1.
         11    1    1    2    0    0 -0.10189411062E+00  0.73553228946E-01  0.99444531195E+00  0.10023543420E+01  0.51100000000E-03 0. -1.
    9000002    1    1    2    0    0  0.39545005367E+00 -0.28479608199E+00  0.16223527697E+00  0.10694175229E+01  0.93800000000E+00 0. -1.
         22    1    1    2    0    0 -0.29355594305E+00  0.21124285304E+00  0.28433193784E+01  0.28662281351E+01  0.00000000000E+00 0. -1.
</event>
<event>
 5    1  0.7220939E+001  0.1599674E+01  0.7818608E-02  0.3353717E+00
         11   -1    0    0    0    0  0.00000000000E+00  0.00000000000E+00  0.39999999674E+01  0.40000000000E+01  0.51100000000E-03 0. -1.
    9000002   -1    0    0    0    0 -0.00000000000E+00 -0.00000000000E+00  0.00000000000E+00  0.93800000000E+00  0.93800000000E+00 0.  1.
         11    1    1    2    0    0  0.93614497033E-01 -0.15956145664E+00  0.11379925800E+01  0.11529314402E+01  0.51100000000E-03 0. -1.
    9000002    1    1    2    0    0 -0.30193433650E+00  0.52608174175E+00  0.25706801604E+00  0.11462348396E+01  0.93800000000E+00 0.  1.
         22    1    1    2    0    0  0.20831983947E+00 -0.36652028511E+00  0.26049393713E+01  0.26388337203E+01  0.00000000000E+00 0.  1.
</event>
<event>
 5    1  0.7220939E+001  0.1598697E+01  0.7818608E-02  0.3354779E+00
         11   -1    0    0    0    0  0.00000000000E+00  0.00000000000E+00  0.39999999674E+01  0.40000000000E+01  0.51100000000E-03 0.  1.
    9000002   -1    0    0    0    0 -0.00000000000E+00 -0.00000000000E+00  0.00000000000E+00  0.93800000000E+00  0.93800000000E+00 0. -1.
         11    1    1    2    0    0  0.20593244886E-02  0.46058853406E-02  0.98386912522E-02  0.11068692953E-01  0.51100000000E-03 0.  1.
    9000002    1    1    2    0    0  0.28316565100E+00 -0.64771500781E+00  0.35891432264E+00  0.12281616377E+01  0.93800000000E+00 0. -1.
         22    1    1    2    0    0 -0.28522497549E+00  0.64310912247E+00  0.36312469535E+01  0.36987696694E+01  0.00000000000E+00 0.  1.
</event>
<event>
 5    1  0.7220939E+001  0.1599669E+01  0.7818608E-02  0.3353723E+00
         11   -1    0    0    0    0  0.00000000000E+00  0.00000000000E+00  0.39999999674E+01  0.40000000000E+01  0.51100000000E-03 0.  1.
    9000002   -1    0    0    0    0 -0.00000000000E+00 -0.00000000000E+00  0.00000000000E+00  0.93800000000E+00  0.93800000000E+00 0. -1.
         11    1    1    2    0    0 -0.96615755747E-01 -0.76569962276E-01  0.13607327794E+01  0.13663057935E+01  0.51100000000E-03 0.  1.
    9000002    1    1    2    0    0  0.27789650640E+00  0.22965969683E+00  0.87255768855E-01  0.10086761690E+01  0.93800000000E+00 0. -1.
         22    1    1    2    0    0 -0.18128075066E+00 -0.15308973455E+00  0.25520114191E+01  0.25630180375E+01  0.00000000000E+00 0.  1.
</event>
<event>
 5    1  0.7220939E+001  0.1599675E+01  0.7818608E-02  0.3353717E+00
         11   -1    0    0    0    0  0.00000000000E+00  0.00000000000E+00  0.39999999674E+01  0.40000000000E+01  0.51100000000E-03 0. -1.
    9000002   -1    0    0    0    0 -0.00000000000E+00 -0.00000000000E+00  0.00000000000E+00  0.93800000000E+00  0.93800000000E+00 0.  1.
         11    1    1    2    0    0 -0.84936329732E-01  0.16784203088E+00  0.14269604431E+01  0.14393059073E+01  0.51100000000E-03 0. -1.
    9000002    1    1    2    0    0  0.22338089910E+00 -0.45221838171E+00  0.17428246951E+00  0.10791750877E+01  0.93800000000E+00 0.  1.
         22    1    1    2    0    0 -0.13844456937E+00  0.28437635083E+00  0.23987570547E+01  0.24195190049E+01  0.00000000000E+00 0. -1.
</event>
<event>
 5    1  0.7220939E+001  0.1552512E+01  0.7818608E-02  0.3406575E+00
         11   -1    0    0    0    0  0.00000000000E+00  0.00000000000E+00  0.39999999674E+01  0.40000000000E+01  0.51100000000E-03 0. -1.
    9000002   -1    0    0    0    0 -0.00000000000E+00 -0.00000000000E+00  0.00000000000E+00  0.93800000000E+00  0.93800000000E+00 0.  1.
         11    1    1    2    0    0 -0.24779011792E-01 -0.18629700669E+00  0.13914741414E+01  0.14041086573E+01  0.51100000000E-03 0. -1.
    9000002    1    1    2    0    0 -0.25338651157E+00 -0.10112775150E+00  0.86887396913E-01  0.98072675405E+00  0.93800000000E+00 0.  1.
         22    1    1    2    0    0  0.27816552336E+00  0.28742475820E+00  0.25216384291E+01  0.25531645887E+01  0.00000000000E+00 0.  1.
</event>
<event>
 5    1  0.7220939E+001  0.1576347E+01  0.7818608E-02  0.3379442E+00
         11   -1    0    0    0    0  0.00000000000E+00  0.00000000000E+00  0.39999999674E+01  0.40000000000E+01  0.51100000000E-03 0. -1.
    9000002   -1    0    0    0    0 -0.00000000000E+00 -0.00000000000E+00  0.00000000000E+00  0.93800000000E+00  0.93800000000E+00 0. -1.
         11    1    1    2    0    0  0.89529270281E-01  0.14143889414E+00  0.53847058333E+00  0.56388942289E+00  0.51100000000E-03 0. -1.
    9000002    1    1    2    0    0 -0.31375652558E+00 -0.12197211781E+01  0.19434312608E+01  0.24985859951E+01  0.93800000000E+00 0. -1.
         22    1    1    2    0    0  0.22422725530E+00  0.10782822839E+01  0.15180981232E+01  0.18755245820E+01  0.00000000000E+00 0. -1.
</event>
<event>
 5    1  0.7220939E+001  0.1581706E+01  0.7818608E-02  0.3373462E+00
         11   -1    0    0    0    0  0.00000000000E+00  0.00000000000E+00  0.39999999674E+01  0.40000000000E+01  0.51100000000E-03 0.  1.
    9000002   -1    0    0    0    0 -0.00000000000E+00 -0.00000000000E+00  0.00000000000E+00  0.93800000000E+00  0.93800000000E+00 0.  1.
         11    1    1    2    0    0 -0.10780079728E+00 -0.20529101441E+00  0.81037426163E+00  0.84289508097E+00  0.51100000000E-03 0.  1.
    9000002    1    1    2    0    0  0.64686541706E-01  0.51467768742E+00  0.20144701811E+00  0.10906431001E+01  0.93800000000E+00 0.  1.
         22    1    1    2    0    0  0.43114255578E-01 -0.30938667302E+00  0.29881786876E+01  0.30044618190E+01  0.00000000000E+00 0.  1.
</event>
<event>
 5    1  0.7220939E+001  0.1549495E+01  0.7818608E-02  0.3410072E+00
         11   -1    0    0    0    0  0.00000000000E+00  0.00000000000E+00  0.39999999674E+01  0.40000000000E+01  0.51100000000E-03 0.  1.
    9000002   -1    0    0    0    0 -0.00000000000E+00 -0.00000000000E+00  0.00000000000E+00  0.93800000000E+00  0.93800000000E+00 0.  1.
         11    1    1    2    0    0  0.36336588331E-01  0.24595743230E+00  0.95244116920E+00  0.98435758140E+00  0.51100000000E-03 0.  1.
    9000002    1    1    2    0    0 -0.52871278651E+00 -0.12730330167E+00  0.25275197984E+00  0.11133152763E+01  0.93800000000E+00 0.  1.
         22    1    1    2    0    0  0.49237619818E+00 -0.11865413064E+00  0.27948068183E+01  0.28403271423E+01  0.00000000000E+00 0.  1.
</event>
<event>
 5    1  0.7220939E+001  0.1599525E+01  0.7818608E-02  0.3353879E+00
         11   -1    0    0    0    0  0.00000000000E+00  0.00000000000E+00  0.39999999674E+01  0.40000000000E+01  0.51100000000E-03 0.  1.
    9000002   -1    0    0    0    0 -0.00000000000E+00 -0.00000000000E+00  0.00000000000E+00  0.93800000000E+00  0.93800000000E+00 0. -1.
         11    1    1    2    0    0  0.13337615808E+00 -0.13484193310E+00  0.82113499297E+00  0.84275410665E+00  0.51100000000E-03 0.  1.
    9000002    1    1    2    0    0 -0.61680657236E+00  0.57634409302E+00  0.53349872579E+00  0.13700685208E+01  0.93800000000E+00 0. -1.
         22    1    1    2    0    0  0.48343041428E+00 -0.44150215992E+00  0.26453662486E+01  0.27251773725E+01  0.00000000000E+00 0.  1.
</event>
<event>
 5    1  0.7220939E+001  0.1599674E+01  0.7818608E-02  0.3353717E+00
         11   -1    0    0    0    0  0.00000000000E+00  0.00000000000E+00  0.39999999674E+01  0.40000000000E+01  0.51100000000E-03 0. -1.
    9000002   -1    0    0    0    0 -0.00000000000E+00 -0.00000000000E+00  0.00000000000E+00  0.93800000000E+00  0.93800000000E+00 0.  1.
         11    1    1    2    0    0  0.71014748103E-01  0.74274668015E-01  0.90360590877E+00  0.90943043728E+00  0.51100000000E-03 0. -1.
    9000002    1    1    2    0    0 -0.30951427884E+00 -0.32205774692E+00  0.13544736009E+00  0.10477166929E+01  0.93800000000E+00 0.  1.
         22    1    1    2    0    0  0.23849953074E+00  0.24778307891E+00  0.29609466985E+01  0.29808528699E+01  0.00000000000E+00 0. -1.
</event>
<event>
 5    1  0.7220939E+001  0.1525501E+01  0.7818608E-02  0.3438415E+00
         11   -1    0    0    0    0  0.00000000000E+00  0.00000000000E+00  0.39999999674E+01  0.40000000000E+01  0.51100000000E-03 0.  1.
    9000002   -1    0    0    0    0 -0.00000000000E+00 -0.00000000000E+00  0.00000000000E+00  0.93800000000E+00  0.93800000000E+00 0. -1.
         11    1    1    2    0    0 -0.22559788446E+00  0.76544218525E-01  0.90891431238E+00  0.93961636386E+00  0.51100000000E-03 0.  1.
    9000002    1    1    2    0    0 -0.21096569722E+00 -0.15809361947E+00  0.10560318533E+00  0.98004905524E+00  0.93800000000E+00 0. -1.
         22    1    1    2    0    0  0.43656358169E+00  0.81549400949E-01  0.29854824697E+01  0.30183345809E+01  0.00000000000E+00 0.  1.
</event>
<event>
 5    1  0.7220939E+001  0.1572690E+01  0.7818608E-02  0.3383548E+00
         11   -1    0    0    0    0  0.00000000000E+00  0.00000000000E+00  0.39999999674E+01  0.40000000000E+01  0.51100000000E-03 0.  1.
    9000002   -1    0    0    0    0 -0.00000000000E+00 -0.00000000000E+00  0.00000000000E+00  0.93800000000E+00  0.93800000000E+00 0. -1.
         11    1    1    2    0    0  0.64133177689E-01 -0.89436039223E-01  0.14799774049E+01  0.14840637620E+01  0.51100000000E-03 0.  1.
    9000002    1    1    2    0    0 -0.72371322548E-01 -0.26195374740E+00  0.70274846023E-01  0.97910159232E+00  0.93800000000E+00 0. -1.
         22    1    1    2    0    0  0.82381448590E-02  0.35138978663E+00  0.24497477165E+01  0.24748346457E+01  0.00000000000E+00 0.  1.
</event>
<event>
 5    1  0.7220939E+001  0.1593079E+01  0.7818608E-02  0.3360909E+00
         11   -1    0    0    0    0  0.00000000000E+00  0.00000000000E+00  0.39999999674E+01  0.40000000000E+01  0.51100000000E-03 0. -1.
    9000002   -1    0    0    0    0 -0.00000000000E+00 -0.00000000000E+00  0.00000000000E+00  0.93800000000E+00  0.93800000000E+00 0. -1.
         11    1    1    2    0    0  0.12609085541E+00 -0.18893717479E+00  0.12608360598E+01  0.12811338692E+01  0.51100000000E-03 0. -1.
    9000002    1    1    2    0    0 -0.49052187948E+00  0.31288570505E+00  0.24174104743E+00  0.11299521727E+01  0.93800000000E+00 0. -1.
         22    1    1    2    0    0  0.36443102406E+00 -0.12394853026E+00  0.24974228601E+01  0.25269139581E+01  0.00000000000E+00 0. -1.
</event>
<event>
 5    1  0.7220939E+001  0.1569949E+01  0.7818608E-02  0.3386640E+00
         11   -1    0    0    0    0  0.00000000000E+00  0.00000000000E+00  0.39999999674E+01  0.40000000000E+01  0.51100000000E-03 0.  1.
    9000002   -1    0    0    0    0 -0.00000000000E+00 -0.00000000000E+00  0.00000000000E+00  0.93800000000E+00  0.93800000000E+00 0.  1.
         11    1    1    2    0    0  0.10485096908E+00  0.36988711105E-02  0.15226574044E+00  0.18491220673E+00  0.51100000000E-03 0.  1.
    9000002    1    1    2    0    0 -0.45556823738E+00 -0.10819390319E+00  0.17586131839E+00  0.10630237734E+01  0.93800000000E+00 0.  1.
         22    1    1    2    0    0  0.35071726830E+00  0.10449503208E+00  0.36718729085E+01  0.36900640198E+01  0.00000000000E+00 0.  1.
</event>
<event>
 5    1  0.7220939E+001  0.1599671E+01  0.7818608E-02  0.3353720E+00
         11   -1    0    0    0    0  0.00000000000E+00  0.00000000000E+00  0.39999999674E+01  0.40000000000E+01  0.51100000000E-03 0.  1.
    9000002   -1    0    0    0    0 -0.00000000000E+00 -0.00000000000E+00  0.00000000000E+00  0.93800000000E+00  0.93800000000E+00 0. -1.
         11    1    1    2    0    0 -0.10973332197E+00  0.73570507246E-01  0.72517738182E+00  0.73711363961E+00  0.51100000000E-03 0.  1.
    9000002    1    1    2    0    0  0.55942986888E+00 -0.38364094747E+00  0.32699383714E+00  0.12028761883E+01  0.93800000000E+00 0. -1.
         22    1    1    2    0    0 -0.44969654691E+00  0.31007044023E+00  0.29478287484E+01  0.29980101721E+01  0.00000000000E+00 0.  1.
</event>
<event>
 5    1  0.7220939E+001  0.1599584E+01  0.7818608E-02  0.3353815E+00
         11   -1    0    0    0    0  0.00000000000E+00  0.00000000000E+00  0.39999999674E+01  0.40000000000E+01  0.51100000000E-03 0. -1.
    9000002   -1    0    0    0    0 -0.00000000000E+00 -0.00000000000E+00  0.00000000000E+00  0.93800000000E+00  0.93800000000E+00 0.  1.
         11    1    1    2    0    0  0.60524133778E-01 -0.57500084769E-01  0.61250872820E+00  0.61817200985E+00  0.51100000000E-03 0. -1.
    9000002    1    1    2    0    0 -0.35938435874E+00  0.31160733990E+00  0.15435440296E+00  0.10629795545E+01  0.93800000000E+00 0.  1.
         22    1    1    2    0    0  0.29886022496E+00 -0.25410725513E+00  0.32331368362E+01  0.32568484356E+01  0.00000000000E+00 0. -1.
</event>
<event>
 5    1  0.7220939E+001  0.1586925E+01  0.7818608E-02  0.3367678E+00
         11   -1    0    0    0    0  0.00000000000E+00  0.00000000000E+00  0.39999999674E+01  0.40000000000E+01  0.51100000000E-03 0.  1.
    9000002   -1    0    0    0    0 -0.00000000000E+00 -0.00000000000E+00  0.00000000000E+00  0.93800000000E+00  0.93800000000E+00 0.  1.
         11    1    1    2    0    0 -0.50294487847E-01 -0.10822682151E+00  0.88231246896E+00  0.89034719880E+00  0.51100000000E-03 0.  1.
    9000002    1    1    2    0    0 -0.21122489517E+00  0.22524696189E+00  0.73759528472E-01  0.99027098222E+00  0.93800000000E+00 0.  1.
         22    1    1    2    0    0  0.26151938302E+00 -0.11702014038E+00  0.30439279699E+01  0.30573818190E+01  0.00000000000E+00 0.  1.
</event>
<event>
 5    1  0.7220939E+001  0.1599532E+01  0.7818608E-02  0.3353871E+00
         11   -1    0    0    0    0  0.00000000000E+00  0.00000000000E+00  0.39999999674E+01  0.40000000000E+01  0.51100000000E-03 0. -1.
    9000002   -1    0    0    0    0 -0.00000000000E+00 -0.00000000000E+00  0.00000000000E+00  0.93800000000E+00  0.93800000000E+00 0. -1.
         11    1    1    2    0    0  0.90241820972E-02 -0.13745338093E+00  0.14794643587E+01  0.14858633576E+01  0.51100000000E-03 0. -1.
    9000002    1    1    2    0    0  0.11545792237E-01  0.37401596620E+00  0.94264618431E-01  0.10142736645E+01  0.93800000000E+00 0. -1.
         22    1    1    2    0    0 -0.20569974334E-01 -0.23656258527E+00  0.24262709902E+01  0.24378629778E+01  0.00000000000E+00 0. -1.
</event>
<event>
 5    1  0.7220939E+001  0.1599677E+01  0.7818608E-02  0.3353714E+00
         11   -1    0    0    0    0  0.00000000000E+00  0.00000000000E+00  0.39999999674E+01  0.40000000000E+01  0.51100000000E-03 0.  1.
    9000002   -1    0    0    0    0 -0.00000000000E+00 -0.00000000000E+00  0.00000000000E+00  0.93800000000E+00  0.93800000000E+00 0.  1.
         11    1    1    2    0    0 -0.12500604082E+00  0.87104543909E-01  0.14733477799E+01  0.14812047980E+01  0.51100000000E-03 0.  1.
    9000002    1    1    2    0    0  0.33146068685E+00 -0.23020242248E+00  0.10990250243E+00  0.10270257554E+01  0.93800000000E+00 0.  1.
         22    1    1    2    0    0 -0.20645464604E+00  0.14309787857E+00  0.24167496850E+01  0.24297694466E+01  0.00000000000E+00 0.  1.
</event>
<event>
 5    1  0.7220939E+001  0.1599677E+01  0.7818608E-02  0.3353714E+00
         11   -1    0    0    0    0  0.00000000000E+00  0.00000000000E+00  0.39999999674E+01  0.40000000000E+01  0.51100000000E-03 0. -1.
    9000002   -1    0    0    0    0 -0.00000000000E+00 -0.00000000000E+00  0.00000000000E+00  0.93800000000E+00  0.93800000000E+00 0. -1.
         11    1    1    2    0    0  0.70402391231E-01  0.99194221283E-01  0.12627706534E+01  0.12686157710E+01  0.51100000000E-03 0. -1.
    9000002    1    1    2    0    0 -0.21845186164E+00 -0.30801025301E+00  0.95913881367E-01  0.10156943460E+01  0.93800000000E+00 0. -1.
         22    1    1    2    0    0  0.14804947040E+00  0.20881603173E+00  0.26413154326E+01  0.26536898831E+01  0.00000000000E+00 0. -1.
</event>
<event>
 5    1  0.7220939E+001  0.1566163E+01  0.7818608E-02  0.3390928E+00
         11   -1    0    0    0    0  0.00000000000E+00  0.00000000000E+00  0.39999999674E+01  0.40000000000E+01  0.51100000000E-03 0. -1.
    9000002   -1    0    0    0    0 -0.00000000000E+00 -0.00000000000E+00  0.00000000000E+00  0.93800000000E+00  0.93800000000E+00 0.  1.
         11    1    1    2    0    0 -0.14129031670E+00 -0.99743786793E-01  0.70993337966E+00  0.73069654527E+00  0.51100000000E-03 0. -1.
    9000002    1    1    2    0    0  0.25999720833E+00 -0.23467022608E+00  0.10975210957E+00  0.10072527929E+01  0.93800000000E+00 0.  1.
         22    1    1    2    0    0 -0.11870689162E+00  0.33441401288E+00  0.31803144781E+01  0.32000506618E+01  0.00000000000E+00 0. -1.
</event>
<event>
 5    1  0.7220939E+001  0.1599673E+01  0.7818608E-02  0.3353719E+00
         11   -1    0    0    0    0  0.00000000000E+00  0.00000000000E+00  0.39999999674E+01  0.40000000000E+01  0.51100000000E-03 0. -1.
    9000002   -1    0    0    0    0 -0.00000000000E+00 -0.00000000000E+00  0.00000000000E+00  0.93800000000E+00  0.93800000000E+00 0. -1.
         11    1    1    2    0    0  0.76522112786E-01  0.21156133217E+00  0.13616337868E+01  0.13800944393E+01  0.51100000000E-03 0. -1.
    9000002    1    1    2    0    0 -0.20337071911E+00 -0.58190229725E+00  0.26605891904E+00  0.11535169185E+01  0.93800000000E+00 0. -1.
         22    1    1    2    0    0  0.12684860633E+00  0.37034096508E+00  0.23723072615E+01  0.24043886421E+01  0.00000000000E+00 0.  1.
</event>
<event>
 5    1  0.7220939E+001  0.1528076E+01  0.7818608E-02  0.3435328E+00
         11   -1    0    0    0    0  0.00000000000E+00  0.00000000000E+00  0.39999999674E+01  0.40000000000E+01  0.51100000000E-03 0.  1.
    9000002   -1    0    0    0    0 -0.00000000000E+00 -0.00000000000E+00  0.00000000000E+00  0.93800000000E+00  0.93800000000E+00 0. -1.
         11    1    1    2    0    0 -0.22637120272E+00 -0.10841757434E+00  0.66625520912E+00  0.71196527770E+00  0.51100000000E-03 0.  1.
    9000002    1    1    2    0    0  0.24346796383E+00 -0.31778444392E+00  0.17031792723E+00  0.10339805600E+01  0.93800000000E+00 0. -1.
         22    1    1    2    0    0 -0.17096761112E-01  0.42620201827E+00  0.31634268310E+01  0.31920541623E+01  0.00000000000E+00 0.  1.
</event>
<event>
 5    1  0.7220939E+001  0.1593064E+01  0.7818608E-02  0.3360926E+00
         11   -1    0    0    0    0  0.00000000000E+00  0.00000000000E+00  0.39999999674E+01  0.40000000000E+01  0.51100000000E-03 0. -1.
    9000002   -1    0    0    0    0 -0.00000000000E+00 -0.00000000000E+00  0.00000000000E+00  0.93800000000E+00  0.93800000000E+00 0. -1.
         11    1    1    2    0    0 -0.75303727974E-02  0.72559806323E-01  0.11526227865E+01  0.11549290805E+01  0.51100000000E-03 0. -1.
    9000002    1    1    2    0    0 -0.17617130148E+00 -0.46273277649E+00  0.17364311968E+00  0.10747808534E+01  0.93800000000E+00 0. -1.
         22    1    1    2    0    0  0.18370167427E+00  0.39017297017E+00  0.26737340612E+01  0.27082900660E+01  0.00000000000E+00 0. -1.
</event>
<event>
 5    1  0.7220939E+001  0.1598348E+01  0.7818608E-02  0.3355158E+00
         11   -1    0    0    0    0  0.00000000000E+00  0.00000000000E+00  0.39999999674E+01  0.40000000000E+01  0.51100000000E-03 0.  1.
    9000002   -1    0    0    0    0 -0.00000000000E+00 -0.00000000000E+00  0.00000000000E+00  0.93800000000E+00  0.93800000000E+00 0.  1.
         11    1    1    2    0    0  0.19348653510E-01  0.12756365495E-02  0.16561462356E+00  0.16674670102E+00  0.51100000000E-03 0.  1.
    9000002    1    1    2    0    0 -0.22702936216E+00  0.31808170758E+00  0.10399062905E+00  0.10214579555E+01  0.93800000000E+00 0.  1.
         22    1    1    2    0    0  0.20768070865E+00 -0.31935734413E+00  0.37303947147E+01  0.37497953435E+01  0.00000000000E+00 0.  1.
</event>
<event>
 5    1  0.7220939E+001  0.1598946E+01  0.7818608E-02  0.3354508E+00
         11   -1    0    0    0    0  0.00000000000E+00  0.00000000000E+00  0.39999999674E+01  0.40000000000E+01  0.51100000000E-03 0.  1.
    9000002   -1    0    0    0    0 -0.00000000000E+00 -0.00000000000E+00  0.00000000000E+00  0.93800000000E+00  0.93800000000E+00 0. -1.
         11    1    1    2    0    0  0.13148367467E-02  0.13067156393E+00  0.99614473550E+00  0.10046797408E+01  0.51100000000E-03 0.  1.
    9000002    1    1    2    0    0 -0.96347914257E-01 -0.44404438788E+00  0.14094774963E+00  0.10517455049E+01  0.93800000000E+00 0. -1.
         22    1    1    2    0    0  0.95033077510E-01  0.31337282396E+00  0.28629074822E+01  0.28815747543E+01  0.00000000000E+00 0. -1.
</event>
<event>
 5    1  0.7220939E+001  0.1599677E+01  0.7818608E-02  0.3353714E+00
         11   -1    0    0    0    0  0.00000000000E+00  0.00000000000E+00  0.39999999674E+01  0.40000000000E+01  0.51100000000E-03 0.  1.
    9000002   -1    0    0    0    0 -0.00000000000E+00 -0.00000000000E+00  0.00000000000E+00  0.93800000000E+00  0.93800000000E+00 0.  1.
         11    1    1    2    0    0 -0.12678368419E+00 -0.28610351668E-01  0.13600065216E+01  0.13662030064E+01  0.51100000000E-03 0.  1.
    9000002    1    1    2    0    0  0.36345688383E+00  0.81475961156E-01  0.93265435909E-01  0.10135490517E+01  0.93800000000E+00 0.  1.
         22    1    1    2    0    0 -0.23667319963E+00 -0.52865609488E-01  0.25467280099E+01  0.25582479419E+01  0.00000000000E+00 0.  1.
</event>
<event>
 5    1  0.7220939E+001  0.1599541E+01  0.7818608E-02  0.3353862E+00
         11   -1    0    0    0    0  0.00000000000E+00  0.00000000000E+00  0.39999999674E+01  0.40000000000E+01  0.51100000000E-03 0.  1.
    9000002   -1    0    0    0    0 -0.00000000000E+00 -0.00000000000E+00  0.00000000000E+00  0.93800000000E+00  0.93800000000E+00 0. -1.
         11    1    1    2    0    0  0.55742912810E-01 -0.10987234699E+00  0.14387953823E+01  0.14440608083E+01  0.51100000000E-03 0.  1.
    9000002    1    1    2    0    0 -0.17766505354E+00  0.32438560938E+00  0.92038152028E-01  0.10124751435E+01  0.93800000000E+00 0. -1.
         22    1    1    2    0    0  0.12192214073E+00 -0.21451326239E+00  0.24691664331E+01  0.24814640482E+01  0.00000000000E+00 0.  1.
</event>
<event>
 5    1  0.7220939E+001  0.1553849E+01  0.7818608E-02  0.3405029E+00
         11   -1    0    0    0    0  0.00000000000E+00  0.00000000000E+00  0.39999999674E+01  0.40000000000E+01  0.51100000000E-03 0. -1.
    9000002   -1    0    0    0    0 -0.00000000000E+00 -0.00000000000E+00  0.00000000000E+00  0.93800000000E+00  0.93800000000E+00 0.  1.
         11    1    1    2    0    0 -0.74826885103E-01  0.18096974598E+00  0.90814145680E+00  0.92901575788E+00  0.51100000000E-03 0. -1.
    9000002    1    1    2    0    0  0.16596873980E+00  0.14446951381E+00  0.67525222240E-01  0.96582644334E+00  0.93800000000E+00 0.  1.
         22    1    1    2    0    0 -0.91141854701E-01 -0.32543925980E+00  0.30243332883E+01  0.30431577988E+01  0.00000000000E+00 0. -1.
</event>
<event>
 5    1  0.7220939E+001  0.1599674E+01  0.7818608E-02  0.3353717E+00
         11   -1    0    0    0    0  0.00000000000E+00  0.00000000000E+00  0.39999999674E+01  0.40000000000E+01  0.51100000000E-03 0.  1.
    9000002   -1    0    0    0    0 -0.00000000000E+00 -0.00000000000E+00  0.00000000000E+00  0.93800000000E+00  0.93800000000E+00 0. -1.
         11    1    1    2    0    0  0.25877779594E-01 -0.11660677944E+00  0.12275959749E+01  0.12333932622E+01  0.51100000000E-03 0.  1.
    9000002    1    1    2    0    0 -0.87875696145E-01  0.36844671325E+00  0.96524019395E-01  0.10161869930E+01  0.93800000000E+00 0. -1.
         22    1    1    2    0    0  0.61997916551E-01 -0.25183993381E+00  0.26758799731E+01  0.26884197448E+01  0.00000000000E+00 0.  1.
</event>
<event>
 5    1  0.7220939E+001  0.1540542E+01  0.7818608E-02  0.3420538E+00
         11   -1    0    0    0    0  0.00000000000E+00  0.00000000000E+00  0.39999999674E+01  0.40000000000E+01  0.51100000000E-03 0. -1.
    9000002   -1    0    0    0    0 -0.00000000000E+00 -0.00000000000E+00  0.00000000000E+00  0.93800000000E+00  0.93800000000E+00 0. -1.
         11    1    1    2    0    0 -0.51158963461E-01 -0.14430630218E+00  0.19872459262E+00  0.25086504983E+00  0.51100000000E-03 0. -1.
    9000002    1    1    2    0    0 -0.43188364069E+00  0.46141768855E+00  0.34443341042E+00  0.11823316525E+01  0.93800000000E+00 0. -1.
         22    1    1    2    0    0  0.48304260415E+00 -0.31711138638E+00  0.34568419643E+01  0.35048032976E+01  0.00000000000E+00 0. -1.
</event>
<event>
 5    1  0.7220939E+001  0.1599676E+01  0.7818608E-02  0.3353715E+00
         11   -1    0    0    0    0  0.00000000000E+00  0.00000000000E+00  0.39999999674E+01  0.40000000000E+01  0.51100000000E-03 0.  1.
    9000002   -1    0    0    0    0 -0.00000000000E+00 -0.00000000000E+00  0.00000000000E+00  0.93800000000E+00  0.93800000000E+00 0.  1.
         11    1    1    2    0    0  0.23576955615E-01  0.43390035303E-01  0.25147189402E+00  0.25627513067E+00  0.51100000000E-03 0. -1.
    9000002    1    1    2    0    0 -0.33992646360E+00 -0.62100438881E+00  0.35896789111E+00  0.12287792310E+01  0.93800000000E+00 0.  1.
         22    1    1    2    0    0  0.31634950798E+00  0.57761435351E+00  0.33895601822E+01  0.34529456384E+01  0.00000000000E+00 0.  1.
</event>
<event>
 5    1  0.7220939E+001  0.1599547E+01  0.7818608E-02  0.3353855E+00
         11   -1    0    0    0    0  0.00000000000E+00  0.00000000000E+00  0.39999999674E+01  0.40000000000E+01  0.51100000000E-03 0.  1.
    9000002   -1    0    0    0    0 -0.00000000000E+00 -0.00000000000E+00  0.00000000000E+00  0.93800000000E+00  0.93800000000E+00 0. -1.
         11    1    1    2    0    0  0.35538803634E-01  0.72388253734E-01  0.45610660242E+00  0.46318091470E+00  0.51100000000E-03 0.  1.
    9000002    1    1    2    0    0 -0.26640730161E+00 -0.64996375409E+00  0.35301772932E+00  0.12238836747E+01  0.93800000000E+00 0. -1.
         22    1    1    2    0    0  0.23086849798E+00  0.57757550035E+00  0.31908756356E+01  0.32509354106E+01  0.00000000000E+00 0.  1.
</event>
<event>
 5    1  0.7220939E+001  0.1599676E+01  0.7818608E-02  0.3353715E+00
         11   -1    0    0    0    0  0.00000000000E+00  0.00000000000E+00  0.39999999674E+01  0.40000000000E+01  0.51100000000E-03 0.  1.
    9000002   -1    0    0    0    0 -0.00000000000E+00 -0.00000000000E+00  0.00000000000E+00  0.93800000000E+00  0.93800000000E+00 0. -1.
         11    1    1    2    0    0 -0.61729980766E-01 -0.54230857669E-01  0.78900856339E+00  0.79327570912E+00  0.51100000000E-03 0.  1.
    9000002    1    1    2    0    0  0.30662328528E+00  0.27143345665E+00  0.11325390459E+00  0.10297399708E+01  0.93800000000E+00 0. -1.
         22    1    1    2    0    0 -0.24489330451E+00 -0.21720259898E+00  0.30977374994E+01  0.31149843201E+01  0.00000000000E+00 0.  1.
</event>
<event>
 5    1  0.7220939E+001  0.1599618E+01  0.7818608E-02  0.3353778E+00
         11   -1    0    0    0    0  0.00000000000E+00  0.00000000000E+00  0.39999999674E+01  0.40000000000E+01  0.51100000000E-03 0.  1.
    9000002   -1    0    0    0    0 -0.00000000000E+00 -0.00000000000E+00  0.00000000000E+00  0.93800000000E+00  0.93800000000E+00 0.  1.
         11    1    1    2    0    0  0.18839708728E-01 -0.87684903490E-01  0.86830316726E+00  0.87292280776E+00  0.51100000000E-03 0.  1.
    9000002    1    1    2    0    0 -0.71848692823E-01  0.42361692060E+00  0.12507150316E+00  0.10392787937E+01  0.93800000000E+00 0.  1.
         22    1    1    2    0    0  0.53008984095E-01 -0.33593201711E+00  0.30066252969E+01  0.30257983986E+01  0.00000000000E+00 0.  1.
</event>
<event>
 5    1  0.7220939E+001  0.1599042E+01  0.7818608E-02  0.3354404E+00
         11   -1    0    0    0    0  0.00000000000E+00  0.00000000000E+00  0.39999999674E+01  0.40000000000E+01  0.51100000000E-03 0.  1.
    9000002   -1    0    0    0    0 -0.00000000000E+00 -0.00000000000E+00  0.00000000000E+00  0.93800000000E+00  0.93800000000E+00 0.  1.
         11    1    1    2    0    0 -0.83978672405E-01 -0.71273620820E-01  0.66752785881E+00  0.67655454315E+00  0.51100000000E-03 0.  1.
    9000002    1    1    2    0    0  0.48594184169E+00  0.27301323754E+00  0.21549194988E+00  0.11121854530E+01  0.93800000000E+00 0.  1.
         22    1    1    2    0    0 -0.40196316929E+00 -0.20173961672E+00  0.31169801587E+01  0.31492600039E+01  0.00000000000E+00 0.  1.
</event>
<event>
 5    1  0.7220939E+001  0.1599675E+01  0.7818608E-02  0.3353717E+00
         11   -1    0    0    0    0  0.00000000000E+00  0.00000000000E+00  0.39999999674E+01  0.40000000000E+01  0.51100000000E-03 0.  1.
    9000002   -1    0    0    0    0 -0.00000000000E+00 -0.00000000000E+00  0.00000000000E+00  0.93800000000E+00  0.93800000000E+00 0. -1.
         11    1    1    2    0    0  0.74625363724E-01 -0.32134934755E-01  0.88131768677E+00  0.88505521019E+00  0.51100000000E-03 0.  1.
    9000002    1    1    2    0    0 -0.33782494604E+00  0.14180114877E+00  0.90173745802E-01  0.10110433049E+01  0.93800000000E+00 0. -1.
         22    1    1    2    0    0  0.26319958231E+00 -0.10966621401E+00  0.30285085348E+01  0.30419014849E+01  0.00000000000E+00 0.  1.
</event>
<event>
 5    1  0.8943416E+001  0.1599024E+01  0.7818608E-02  0.3354423E+00
         11   -1    0    0    0    0  0.00000000000E+00  0.00000000000E+00  0.39999999674E+01  0.40000000000E+01  0.51100000000E-03 0. -1.
    9000002   -1    0    0    0    0 -0.00000000000E+00 -0.00000000000E+00  0.00000000000E+00  0.93800000000E+00  0.93800000000E+00 0.  1.
         11    1    1    2    0    0  0.69712768555E-01 -0.16390273838E-01  0.12477639684E+01  0.12498174639E+01  0.51100000000E-03 0. -1.
    9000002    1    1    2    0    0 -0.30853298528E+00  0.68734618456E-01  0.67274262800E-01  0.99211233095E+00  0.93800000000E+00 0.  1.
         22    1    1    2    0    0  0.23882021673E+00 -0.52344344618E-01  0.26849617362E+01  0.26960702051E+01  0.00000000000E+00 0. -1.
</event>
<event>
 5    1  0.7220939E+001  0.1599663E+01  0.7818608E-02  0.3353729E+00
         11   -1    0    0    0    0  0.00000000000E+00  0.00000000000E+00  0.39999999674E+01  0.40000000000E+01  0.51100000000E-03 0. -1.
    9000002   -1    0    0    0    0 -0.00000000000E+00 -0.00000000000E+00  0.00000000000E+00  0.93800000000E+00  0.93800000000E+00 0.  1.
         11    1    1    2    0    0  0.33898686721E-01  0.44678668596E-01  0.37339430908E+00  0.37758293865E+00  0.51100000000E-03 0. -1.
    9000002    1    1    2    0    0 -0.31693941999E+00 -0.45359032099E+00  0.21163728841E+00  0.11094273825E+01  0.93800000000E+00 0.  1.
         22    1    1    2    0    0  0.28304073327E+00  0.40891165239E+00  0.34149683699E+01  0.34509896788E+01  0.00000000000E+00 0. -1.
</event>
<event>
 5    1  0.7220939E+001  0.1547224E+01  0.7818608E-02  0.3412715E+00
         11   -1    0    0    0    0  0.00000000000E+00  0.00000000000E+00  0.39999999674E+01  0.40000000000E+01  0.51100000000E-03 0.  1.
    9000002   -1    0    0    0    0 -0.00000000000E+00 -0.00000000000E+00  0.00000000000E+00  0.93800000000E+00  0.93800000000E+00 0.  1.
         11    1    1    2    0    0  0.71772460165E-01 -0.12896653925E+00  0.23952475833E+00  0.28134680603E+00  0.51100000000E-03 0.  1.
    9000002    1    1    2    0    0 -0.40358228451E+00 -0.24008069588E-01  0.15547577194E+00  0.10331852513E+01  0.93800000000E+00 0.  1.
         22    1    1    2    0    0  0.33180982434E+00  0.15297460884E+00  0.36049994371E+01  0.36234679427E+01  0.00000000000E+00 0.  1.
</event>
<event>
 5    1  0.7220939E+001  0.1599673E+01  0.7818608E-02  0.3353719E+00
         11   -1    0    0    0    0  0.00000000000E+00  0.00000000000E+00  0.39999999674E+01  0.40000000000E+01  0.51100000000E-03 0.  1.
    9000002   -1    0    0    0    0 -0.00000000000E+00 -0.00000000000E+00  0.00000000000E+00  0.93800000000E+00  0.93800000000E+00 0. -1.
         11    1    1    2    0    0  0.19268705895E-01  0.18995400728E+00  0.14535523412E+01  0.14660383616E+01  0.51100000000E-03 0.  1.
    9000002    1    1    2    0    0 -0.44478747751E-01 -0.50105572962E+00  0.17330896790E+00  0.10783854606E+01  0.93800000000E+00 0. -1.
         22    1    1    2    0    0  0.25210041856E-01  0.31110172234E+00  0.23731386582E+01  0.23935761778E+01  0.00000000000E+00 0.  1.
</event>
<event>
 5    1  0.7220939E+001  0.1599675E+01  0.7818608E-02  0.3353716E+00
         11   -1    0    0    0    0  0.00000000000E+00  0.00000000000E+00  0.39999999674E+01  0.40000000000E+01  0.51100000000E-03 0. -1.
    9000002   -1    0    0    0    0 -0.00000000000E+00 -0.00000000000E+00  0.00000000000E+00  0.93800000000E+00  0.93800000000E+00 0.  1.
         11    1    1    2    0    0 -0.59236895263E-01  0.23228242691E+00  0.10724301747E+01  0.10988952982E+01  0.51100000000E-03 0. -1.
    9000002    1    1    2    0    0  0.19988101379E+00 -0.76381177940E+00  0.45757699752E+00  0.13086563960E+01  0.93800000000E+00 0.  1.
         22    1    1    2    0    0 -0.14064411853E+00  0.53152935250E+00  0.24699927951E+01  0.25304483058E+01  0.00000000000E+00 0. -1.
</event>
<event>
 5    1  0.7220939E+001  0.1531234E+01  0.7818608E-02  0.3431557E+00
         11   -1    0    0    0    0  0.00000000000E+00  0.00000000000E+00  0.39999999674E+01  0.40000000000E+01  0.51100000000E-03 0. -1.
    9000002   -1    0    0    0    0 -0.00000000000E+00 -0.00000000000E+00  0.00000000000E+00  0.93800000000E+00  0.93800000000E+00 0. -1.
         11    1    1    2    0    0  0.85465332579E-01 -0.21094003301E+00  0.74768371223E+00  0.78155691748E+00  0.51100000000E-03 0. -1.
    9000002    1    1    2    0    0  0.33622132124E-01 -0.10252666479E+00  0.59491432038E-01  0.94605781813E+00  0.93800000000E+00 0. -1.
         22    1    1    2    0    0 -0.11908746470E+00  0.31346669780E+00  0.31928248231E+01  0.32103852644E+01  0.00000000000E+00 0. -1.
</event>
<event>
 5    1  0.7220939E+001  0.1599676E+01  0.7818608E-02  0.3353715E+00
         11   -1    0    0    0    0  0.00000000000E+00  0.00000000000E+00  0.39999999674E+01  0.40000000000E+01  0.51100000000E-03 0. -1.
    9000002   -1    0    0    0    0 -0.00000000000E+00 -0.00000000000E+00  0.00000000000E+00  0.93800000000E+00  0.93800000000E+00 0. -1.
         11    1    1    2    0    0  0.33605588527E-01  0.35665538051E-01  0.48826416253E+00  0.49071735216E+00  0.51100000000E-03 0.  1.
    9000002    1    1    2    0    0 -0.26658621855E+00 -0.28792650207E+00  0.10375595509E+00  0.10220465649E+01  0.93800000000E+00 0. -1.
         22    1    1    2    0    0  0.23298063002E+00  0.25226096402E+00  0.34079798497E+01  0.34252360830E+01  0.00000000000E+00 0. -1.
</event>
<event>
 5    1  0.7220939E+001  0.1598502E+01  0.7818608E-02  0.3354991E+00
         11   -1    0    0    0    0  0.00000000000E+00  0.00000000000E+00  0.39999999674E+01  0.40000000000E+01  0.51100000000E-03 0. -1.
    9000002   -1    0    0    0    0 -0.00000000000E+00 -0.00000000000E+00  0.00000000000E+00  0.93800000000E+00  0.93800000000E+00 0.  1.
         11    1    1    2    0    0 -0.58918607246E-02  0.16848690328E-01  0.11297915256E+00  0.11438156505E+00  0.51100000000E-03 0. -1.
    9000002    1    1    2    0    0  0.33680659073E+00 -0.12316215694E+00  0.87267570075E-01  0.10080015998E+01  0.93800000000E+00 0.  1.
         22    1    1    2    0    0 -0.33091473001E+00  0.10631346661E+00  0.37997532447E+01  0.38156168351E+01  0.00000000000E+00 0. -1.
</event>
<event>
 5    1  0.7220939E+001  0.1560291E+01  0.7818608E-02  0.3397623E+00
         11   -1    0    0    0    0  0.00000000000E+00  0.00000000000E+00  0.39999999674E+01  0.40000000000E+01  0.51100000000E-03 0.  1.
    9000002   -1    0    0    0    0 -0.00000000000E+00 -0.00000000000E+00  0.00000000000E+00  0.93800000000E+00  0.93800000000E+00 0. -1.
         11    1    1    2    0    0  0.11992659429E+00  0.74366172106E-01  0.80797919666E+00  0.82020933848E+00  0.51100000000E-03 0.  1.
    9000002    1    1    2    0    0  0.25945211641E+00  0.52817447655E-01  0.77562914701E-01  0.97773467220E+00  0.93800000000E+00 0. -1.
         22    1    1    2    0    0 -0.37937871070E+00 -0.12718361976E+00  0.31144578560E+01  0.31400559893E+01  0.00000000000E+00 0.  1.
</event>
<event>
 5    1  0.7220939E+001  0.1592834E+01  0.7818608E-02  0.3361178E+00
         11   -1    0    0    0    0  0.00000000000E+00  0.00000000000E+00  0.39999999674E+01  0.40000000000E+01  0.51100000000E-03 0. -1.
    9000002   -1    0    0    0    0 -0.00000000000E+00 -0.00000000000E+00  0.00000000000E+00  0.93800000000E+00  0.93800000000E+00 0.  1.
         11    1    1    2    0    0  0.14864018702E-01  0.59740076900E-01  0.61228836090E+00  0.61537558763E+00  0.51100000000E-03 0. -1.
    9000002    1    1    2    0    0  0.32279189960E+00 -0.18429993338E+00  0.98474627968E-01  0.10137565429E+01  0.93800000000E+00 0.  1.
         22    1    1    2    0    0 -0.33765591830E+00  0.12455985648E+00  0.32892369785E+01  0.33088678695E+01  0.00000000000E+00 0. -1.
</event>
<event>
 5    1  0.7220939E+001  0.1588810E+01  0.7818608E-02  0.3365599E+00
         11   -1    0    0    0    0  0.00000000000E+00  0.00000000000E+00  0.39999999674E+01  0.40000000000E+01  0.51100000000E-03 0. -1.
    9000002   -1    0    0    0    0 -0.00000000000E+00 -0.00000000000E+00  0.00000000000E+00  0.93800000000E+00  0.93800000000E+00 0. -1.
         11    1    1    2    0    0  0.10738225513E+00 -0.24793815566E-01  0.71617687277E+00  0.72460696672E+00  0.51100000000E-03 0. -1.
    9000002    1    1    2    0    0 -0.22130759334E+00 -0.24892881126E+00  0.82966231203E-01  0.99883432033E+00  0.93800000000E+00 0. -1.
         22    1    1    2    0    0  0.11392533821E+00  0.27372262683E+00  0.32008568634E+01  0.32145587130E+01  0.00000000000E+00 0. -1.
</event>
<event>
 5    1  0.7220939E+001  0.1550560E+01  0.7818608E-02  0.3408836E+00
         11   -1    0    0    0    0  0.00000000000E+00  0.00000000000E+00  0.39999999674E+01  0.40000000000E+01  0.51100000000E-03 0. -1.
    9000002   -1    0    0    0    0 -0.00000000000E+00 -0.00000000000E+00  0.00000000000E+00  0.93800000000E+00  0.93800000000E+00 0. -1.
         11    1    1    2    0    0  0.39143849690E+00 -0.15150274753E+00  0.88667736801E+00  0.98100672548E+00  0.51100000000E-03 0. -1.
    9000002    1    1    2    0    0  0.39338564022E+00 -0.16197310035E+00  0.38300651194E+00  0.10988746677E+01  0.93800000000E+00 0. -1.
         22    1    1    2    0    0 -0.78482413712E+00  0.31347584787E+00  0.27303160874E+01  0.28581186068E+01  0.00000000000E+00 0. -1.
</event>
<event>
 5    1  0.7220939E+001  0.1555003E+01  0.7818608E-02  0.3403698E+00
         11   -1    0    0    0    0  0.00000000000E+00  0.00000000000E+00  0.39999999674E+01  0.40000000000E+01  0.51100000000E-03 0.  1.
    9000002   -1    0    0    0    0 -0.00000000000E+00 -0.00000000000E+00  0.00000000000E+00  0.93800000000E+00  0.93800000000E+00 0.  1.
         11    1    1    2    0    0 -0.95041357282E-02 -0.25084518086E+00  0.50396407005E+00  0.56302191643E+00  0.51100000000E-03 0.  1.
    9000002    1    1    2    0    0  0.12567194174E+00  0.52697913755E+00  0.24551980795E+00  0.11106864654E+01  0.93800000000E+00 0.  1.
         22    1    1    2    0    0 -0.11616780601E+00 -0.27613395669E+00  0.32505160894E+01  0.32642916182E+01  0.00000000000E+00 0.  1.
</event>
<event>
 5    1  0.7220939E+001  0.1594852E+01  0.7818608E-02  0.3358970E+00
         11   -1    0    0    0    0  0.00000000000E+00  0.00000000000E+00  0.39999999674E+01  0.40000000000E+01  0.51100000000E-03 0. -1.
    9000002   -1    0    0    0    0 -0.00000000000E+00 -0.00000000000E+00  0.00000000000E+00  0.93800000000E+00  0.93800000000E+00 0. -1.
         11    1    1    2    0    0  0.10338922994E-01  0.18974872683E-01  0.10558692945E+01  0.10560905109E+01  0.51100000000E-03 0. -1.
    9000002    1    1    2    0    0 -0.28143039576E+00  0.61680257352E-01  0.59078745495E-01  0.98302686635E+00  0.93800000000E+00 0. -1.
         22    1    1    2    0    0  0.27109147276E+00 -0.80655130035E-01  0.28850519274E+01  0.28988826227E+01  0.00000000000E+00 0. -1.
</event>
<event>
 5    1  0.7220939E+001  0.1599159E+01  0.7818608E-02  0.3354276E+00
         11   -1    0    0    0    0  0.00000000000E+00  0.00000000000E+00  0.39999999674E+01  0.40000000000E+01  0.51100000000E-03 0.  1.
    9000002   -1    0    0    0    0 -0.00000000000E+00 -0.00000000000E+00  0.00000000000E+00  0.93800000000E+00  0.93800000000E+00 0. -1.
         11    1    1    2    0    0 -0.14682592217E+00  0.32444411702E-02  0.86950231295E+00  0.88181795807E+00  0.51100000000E-03 0.  1.
    9000002    1    1    2    0    0  0.54258253185E+00 -0.39359106704E-01  0.20466456580E+00  0.11034838139E+01  0.93800000000E+00 0. -1.
         22    1    1    2    0    0 -0.39575660968E+00  0.36114665533E-01  0.29258330886E+01  0.29526982280E+01  0.00000000000E+00 0.  1.
</event>
<event>
 5    1  0.7220939E+001  0.1599003E+01  0.7818608E-02  0.3354446E+00
         11   -1    0    0    0    0  0.00000000000E+00  0.00000000000E+00  0.39999999674E+01  0.40000000000E+01  0.51100000000E-03 0. -1.
    9000002   -1    0    0    0    0 -0.00000000000E+00 -0.00000000000E+00  0.00000000000E+00  0.93800000000E+00  0.93800000000E+00 0. -1.
         11    1    1    2    0    0 -0.88842990257E-01 -0.26499788374E-01  0.12207165449E+01  0.12242321919E+01  0.51100000000E-03 0. -1.
    9000002    1    1    2    0    0  0.34021031371E+00  0.99878054069E-02  0.78131999551E-01  0.10008953108E+01  0.93800000000E+00 0. -1.
         22    1    1    2    0    0 -0.25136732345E+00  0.16511982967E-01  0.27011514229E+01  0.27128724973E+01  0.00000000000E+00 0.  1.
</event>
<event>
 5    1  0.7220939E+001  0.1599608E+01  0.7818608E-02  0.3353789E+00
         11   -1    0    0    0    0  0.00000000000E+00  0.00000000000E+00  0.39999999674E+01  0.40000000000E+01  0.51100000000E-03 0. -1.
    9000002   -1    0    0    0    0 -0.00000000000E+00 -0.00000000000E+00  0.00000000000E+00  0.93800000000E+00  0.93800000000E+00 0.  1.
         11    1    1    2    0    0  0.25373176252E-01  0.13963611011E+00  0.13554001345E+01  0.13628102681E+01  0.51100000000E-03 0. -1.
    9000002    1    1    2    0    0 -0.53320673716E-01 -0.38262703622E+00  0.10055336833E+00  0.10194123420E+01  0.93800000000E+00 0.  1.
         22    1    1    2    0    0  0.27947497464E-01  0.24299092611E+00  0.25440464646E+01  0.25557773899E+01  0.00000000000E+00 0. -1.
</event>
<event>
 5    1  0.7220939E+001  0.1599526E+01  0.7818608E-02  0.3353878E+00
         11   -1    0    0    0    0  0.00000000000E+00  0.00000000000E+00  0.39999999674E+01  0.40000000000E+01  0.51100000000E-03 0.  1.
    9000002   -1    0    0    0    0 -0.00000000000E+00 -0.00000000000E+00  0.00000000000E+00  0.93800000000E+00  0.93800000000E+00 0. -1.
         11    1    1    2    0    0  0.29704173226E-02  0.51091982223E-03  0.17912741042E-01  0.18171731640E-01  0.51100000000E-03 0.  1.
    9000002    1    1    2    0    0 -0.25553069664E+00 -0.27071066535E+00  0.93279493441E-01  0.10134718867E+01  0.93800000000E+00 0. -1.
         22    1    1    2    0    0  0.25256027931E+00  0.27019974553E+00  0.38888077329E+01  0.39063563816E+01  0.00000000000E+00 0.  1.
</event>
<event>
 5    1  0.7220939E+001  0.1599504E+01  0.7818608E-02  0.3353902E+00
         11   -1    0    0    0    0  0.00000000000E+00  0.00000000000E+00  0.39999999674E+01  0.40000000000E+01  0.51100000000E-03 0.  1.
    9000002   -1    0    0    0    0 -0.00000000000E+00 -0.00000000000E+00  0.00000000000E+00  0.93800000000E+00  0.93800000000E+00 0.  1.
         11    1    1    2    0    0  0.11018941775E+00  0.23870108171E-01  0.85569625558E+00  0.86309201872E+00  0.51100000000E-03 0.  1.
    9000002    1    1    2    0    0 -0.43777702423E+00 -0.10362086804E+00  0.13760414963E+00  0.10493640499E+01  0.93800000000E+00 0.  1.
         22    1    1    2    0    0  0.32758760647E+00  0.79750759874E-01  0.30066995622E+01  0.30255439314E+01  0.00000000000E+00 0.  1.
</event>
<event>
 5    1  0.7220939E+001  0.1596233E+01  0.7818608E-02  0.3357462E+00
         11   -1    0    0    0    0  0.00000000000E+00  0.00000000000E+00  0.39999999674E+01  0.40000000000E+01  0.51100000000E-03 0.  1.
    9000002   -1    0    0    0    0 -0.00000000000E+00 -0.00000000000E+00  0.00000000000E+00  0.93800000000E+00  0.93800000000E+00 0.  1.
         11    1    1    2    0    0  0.11088435078E+00  0.79220929597E-01  0.86537576519E+00  0.87604039349E+00  0.51100000000E-03 0.  1.
    9000002    1    1    2    0    0 -0.23566218888E+00 -0.40495336764E+00  0.15254116706E+00  0.10595455181E+01  0.93800000000E+00 0.  1.
         22    1    1    2    0    0  0.12477783810E+00  0.32573243804E+00  0.29820830351E+01  0.30024140884E+01  0.00000000000E+00 0.  1.
</event>
<event>
 5    1  0.7220939E+001  0.1599677E+01  0.7818608E-02  0.3353714E+00
         11   -1    0    0    0    0  0.00000000000E+00  0.00000000000E+00  0.39999999674E+01  0.40000000000E+01  0.51100000000E-03 0. -1.
    9000002   -1    0    0    0    0 -0.00000000000E+00 -0.00000000000E+00  0.00000000000E+00  0.93800000000E+00  0.93800000000E+00 0.  1.
         11    1    1    2    0    0 -0.14199244084E+00 -0.14389628265E-02  0.11984418934E+01  0.12068252387E+01  0.51100000000E-03 0. -1.
    9000002    1    1    2    0    0  0.45770685536E+00  0.33429259218E-02  0.14245759272E+00  0.10533968418E+01  0.93800000000E+00 0.  1.
         22    1    1    2    0    0 -0.31571441452E+00 -0.19039630953E-02  0.26591004813E+01  0.26777779195E+01  0.00000000000E+00 0. -1.
</event>
<event>
 5    1  0.7220939E+001  0.1599674E+01  0.7818608E-02  0.3353717E+00
         11   -1    0    0    0    0  0.00000000000E+00  0.00000000000E+00  0.39999999674E+01  0.40000000000E+01  0.51100000000E-03 0.  1.
    9000002   -1    0    0    0    0 -0.00000000000E+00 -0.00000000000E+00  0.00000000000E+00  0.93800000000E+00  0.93800000000E+00 0.  1.
         11    1    1    2    0    0 -0.78022425761E-01  0.28298076960E-01  0.72060385530E+00  0.72536780841E+00  0.51100000000E-03 0.  1.
    9000002    1    1    2    0    0  0.42560232593E+00 -0.15374678575E+00  0.13913432386E+00  0.10507034663E+01  0.93800000000E+00 0.  1.
         22    1    1    2    0    0 -0.34757990017E+00  0.12544870879E+00  0.31402617882E+01  0.31619287253E+01  0.00000000000E+00 0.  1.
</event>
<event>
 5    1  0.7220939E+001  0.1571573E+01  0.7818608E-02  0.3384807E+00
         11   -1    0    0    0    0  0.00000000000E+00  0.00000000000E+00  0.39999999674E+01  0.40000000000E+01  0.51100000000E-03 0. -1.
    9000002   -1    0    0    0    0 -0.00000000000E+00 -0.00000000000E+00  0.00000000000E+00  0.93800000000E+00  0.93800000000E+00 0.  1.
         11    1    1    2    0    0 -0.12272231484E+00 -0.30363323400E+00  0.13343501759E+01  0.13739521682E+01  0.51100000000E-03 0. -1.
    9000002    1    1    2    0    0 -0.66664480707E-01  0.50255477743E+00  0.20207694580E+00  0.10852117532E+01  0.93800000000E+00 0.  1.
         22    1    1    2    0    0  0.18938679555E+00 -0.19892154343E+00  0.24635728457E+01  0.24788360786E+01  0.00000000000E+00 0. -1.
</event>
<event>
 5    1  0.7220939E+001  0.1569611E+01  0.7818608E-02  0.3387022E+00
         11   -1    0    0    0    0  0.00000000000E+00  0.00000000000E+00  0.39999999674E+01  0.40000000000E+01  0.51100000000E-03 0.  1.
    9000002   -1    0    0    0    0 -0.00000000000E+00 -0.00000000000E+00  0.00000000000E+00  0.93800000000E+00  0.93800000000E+00 0.  1.
         11    1    1    2    0    0 -0.60747905676E-01  0.75410738908E-01  0.51524381266E+00  0.52426475677E+00  0.51100000000E-03 0.  1.
    9000002    1    1    2    0    0 -0.36936908567E+00  0.10615744567E+00  0.12461039241E+00  0.10213102734E+01  0.93800000000E+00 0.  1.
         22    1    1    2    0    0  0.43011699134E+00 -0.18156818458E+00  0.33601457623E+01  0.33924249698E+01  0.00000000000E+00 0.  1.
</event>
<event>
 5    1  0.7220939E+001  0.1595985E+01  0.7818608E-02  0.3357733E+00
         11   -1    0    0    0    0  0.00000000000E+00  0.00000000000E+00  0.39999999674E+01  0.40000000000E+01  0.51100000000E-03 0. -1.
    9000002   -1    0    0    0    0 -0.00000000000E+00 -0.00000000000E+00  0.00000000000E+00  0.93800000000E+00  0.93800000000E+00 0. -1.
         11    1    1    2    0    0 -0.12161004819E+00 -0.79907280566E-01  0.64460480911E+00  0.66082508908E+00  0.51100000000E-03 0. -1.
    9000002    1    1    2    0    0  0.69194215720E+00  0.13537467443E+00  0.35993540173E+00  0.12273987717E+01  0.93800000000E+00 0. -1.
         22    1    1    2    0    0 -0.57033210901E+00 -0.55467393863E-01  0.29954597565E+01  0.30497761392E+01  0.00000000000E+00 0. -1.
</event>
<event>
 5    1  0.7220939E+001  0.1599196E+01  0.7818608E-02  0.3354237E+00
         11   -1    0    0    0    0  0.00000000000E+00  0.00000000000E+00  0.39999999674E+01  0.40000000000E+01  0.51100000000E-03 0.  1.
    9000002   -1    0    0    0    0 -0.00000000000E+00 -0.00000000000E+00  0.00000000000E+00  0.93800000000E+00  0.93800000000E+00 0.  1.
         11    1    1    2    0    0 -0.73821355297E-02 -0.12166569271E-01  0.26241566287E+00  0.26280175527E+00  0.51100000000E-03 0.  1.
    9000002    1    1    2    0    0  0.30623762196E+00  0.16002113667E+00  0.80398226721E-01  0.10028440159E+01  0.93800000000E+00 0.  1.
         22    1    1    2    0    0 -0.29885548643E+00 -0.14785456739E+00  0.36571860778E+01  0.36723542289E+01  0.00000000000E+00 0.  1.
</event>
<event>
 5    1  0.7220939E+001  0.1599671E+01  0.7818608E-02  0.3353721E+00
         11   -1    0    0    0    0  0.00000000000E+00  0.00000000000E+00  0.39999999674E+01  0.40000000000E+01  0.51100000000E-03 0. -1.
    9000002   -1    0    0    0    0 -0.00000000000E+00 -0.00000000000E+00  0.00000000000E+00  0.93800000000E+00  0.93800000000E+00 0. -1.
         11    1    1    2    0    0  0.10410925288E+00  0.48741291375E-01  0.12350418318E+01  0.12403801988E+01  0.51100000000E-03 0. -1.
    9000002    1    1    2    0    0 -0.32940868623E+00 -0.14557263784E+00  0.87070160583E-01  0.10085269894E+01  0.93800000000E+00 0. -1.
         22    1    1    2    0    0  0.22529943335E+00  0.96831346466E-01  0.26778879750E+01  0.26890928119E+01  0.00000000000E+00 0. -1.
</event>
<event>
 5    1  0.7220939E+001  0.1599573E+01  0.7818608E-02  0.3353827E+00
         11   -1    0    0    0    0  0.00000000000E+00  0.00000000000E+00  0.39999999674E+01  0.40000000000E+01  0.51100000000E-03 0. -1.
    9000002   -1    0    0    0    0 -0.00000000000E+00 -0.00000000000E+00  0.00000000000E+00  0.93800000000E+00  0.93800000000E+00 0. -1.
         11    1    1    2    0    0 -0.15427756384E-01 -0.53145665272E-01  0.53954878119E+00  0.54237959567E+00  0.51100000000E-03 0. -1.
    9000002    1    1    2    0    0  0.76170337100E-01  0.43165511512E+00  0.13035852227E+00  0.10435350512E+01  0.93800000000E+00 0. -1.
         22    1    1    2    0    0 -0.60742580716E-01 -0.37850944985E+00  0.33300926639E+01  0.33520853532E+01  0.00000000000E+00 0. -1.
</event>
<event>
 5    1  0.7220939E+001  0.1590631E+01  0.7818608E-02  0.3363595E+00
         11   -1    0    0    0    0  0.00000000000E+00  0.00000000000E+00  0.39999999674E+01  0.40000000000E+01  0.51100000000E-03 0. -1.
    9000002   -1    0    0    0    0 -0.00000000000E+00 -0.00000000000E+00  0.00000000000E+00  0.93800000000E+00  0.93800000000E+00 0. -1.
         11    1    1    2    0    0 -0.40479755157E-01 -0.19286421972E+00  0.13897597372E+01  0.14036622123E+01  0.51100000000E-03 0. -1.
    9000002    1    1    2    0    0 -0.14594612872E+00  0.37457546634E+00  0.11661080707E+00  0.10271558464E+01  0.93800000000E+00 0. -1.
         22    1    1    2    0    0  0.18642588388E+00 -0.18171124662E+00  0.24936294231E+01  0.25071819413E+01  0.00000000000E+00 0. -1.
</event>
<event>
 5    1  0.7220939E+001  0.1599469E+01  0.7818608E-02  0.3353940E+00
         11   -1    0    0    0    0  0.00000000000E+00  0.00000000000E+00  0.39999999674E+01  0.40000000000E+01  0.51100000000E-03 0. -1.
    9000002   -1    0    0    0    0 -0.00000000000E+00 -0.00000000000E+00  0.00000000000E+00  0.93800000000E+00  0.93800000000E+00 0. -1.
         11    1    1    2    0    0 -0.10756795730E-01 -0.27349043232E-02  0.12945131237E+00  0.12992725561E+00  0.51100000000E-03 0. -1.
    9000002    1    1    2    0    0  0.38906510199E+00 -0.92400940417E-01  0.10803352770E+00  0.10253900870E+01  0.93800000000E+00 0. -1.
         22    1    1    2    0    0 -0.37830830626E+00  0.95135844740E-01  0.37625151273E+01  0.37826826574E+01  0.00000000000E+00 0. -1.
</event>
<event>
 5    1  0.7220939E+001  0.1599545E+01  0.7818608E-02  0.3353857E+00
         11   -1    0    0    0    0  0.00000000000E+00  0.00000000000E+00  0.39999999674E+01  0.40000000000E+01  0.51100000000E-03 0.  1.
    9000002   -1    0    0    0    0 -0.00000000000E+00 -0.00000000000E+00  0.00000000000E+00  0.93800000000E+00  0.93800000000E+00 0.  1.
         11    1    1    2    0    0  0.13887293090E-01 -0.17981279011E+00  0.95581238170E+00  0.97267829549E+00  0.51100000000E-03 0.  1.
    9000002    1    1    2    0    0 -0.69324613696E-01  0.65076594372E+00  0.30269491799E+00  0.11831189412E+01  0.93800000000E+00 0. -1.
         22    1    1    2    0    0  0.55437320606E-01 -0.47095315362E+00  0.27414926677E+01  0.27822027633E+01  0.00000000000E+00 0.  1.
</event>
<event>
 5    1  0.7220939E+001  0.1599669E+01  0.7818608E-02  0.3353723E+00
         11   -1    0    0    0    0  0.00000000000E+00  0.00000000000E+00  0.39999999674E+01  0.40000000000E+01  0.51100000000E-03 0.  1.
    9000002   -1    0    0    0    0 -0.00000000000E+00 -0.00000000000E+00  0.00000000000E+00  0.93800000000E+00  0.93800000000E+00 0. -1.
         11    1    1    2    0    0 -0.39937603182E-01  0.21981734243E-02  0.35727632692E+00  0.35950866333E+00  0.51100000000E-03 0.  1.
    9000002    1    1    2    0    0  0.44927478840E+00 -0.35078717566E-01  0.13794757476E+00  0.10497389606E+01  0.93800000000E+00 0. -1.
         22    1    1    2    0    0 -0.40933718522E+00  0.32880544142E-01  0.35047760657E+01  0.35287523761E+01  0.00000000000E+00 0.  1.
</event>
<event>
 5    1  0.7220939E+001  0.1506467E+01  0.7818608E-02  0.3461588E+00
         11   -1    0    0    0    0  0.00000000000E+00  0.00000000000E+00  0.39999999674E+01  0.40000000000E+01  0.51100000000E-03 0.  1.
    9000002   -1    0    0    0    0 -0.00000000000E+00 -0.00000000000E+00  0.00000000000E+00  0.93800000000E+00  0.93800000000E+00 0.  1.
         11    1    1    2    0    0  0.17979741924E+00 -0.25471352214E-01  0.27036835802E+00  0.32569189718E+00  0.51100000000E-03 0.  1.
    9000002    1    1    2    0    0  0.17446705856E+00  0.46828212772E-01  0.94507360877E-01  0.95989961834E+00  0.93800000000E+00 0.  1.
         22    1    1    2    0    0 -0.35426447780E+00 -0.21356860558E-01  0.36351242485E+01  0.36524084845E+01  0.00000000000E+00 0.  1.
</event>
<event>
 5    1  0.7220939E+001  0.1599204E+01  0.7818608E-02  0.3354227E+00
         11   -1    0    0    0    0  0.00000000000E+00  0.00000000000E+00  0.39999999674E+01  0.40000000000E+01  0.51100000000E-03 0. -1.
    9000002   -1    0    0    0    0 -0.00000000000E+00 -0.00000000000E+00  0.00000000000E+00  0.93800000000E+00  0.93800000000E+00 0.  1.
         11    1    1    2    0    0 -0.74187691033E-01  0.42698454456E-01  0.95242805047E+00  0.95626692088E+00  0.51100000000E-03 0. -1.
    9000002    1    1    2    0    0  0.37451063826E+00 -0.22929298209E+00  0.13116743099E+00  0.10439743219E+01  0.93800000000E+00 0.  1.
         22    1    1    2    0    0 -0.30032294723E+00  0.18659452764E+00  0.29164044859E+01  0.29377587572E+01  0.00000000000E+00 0. -1.
</event>
<event>
 5    1  0.7220939E+001  0.1593392E+01  0.7818608E-02  0.3360567E+00
         11   -1    0    0    0    0  0.00000000000E+00  0.00000000000E+00  0.39999999674E+01  0.40000000000E+01  0.51100000000E-03 0.  1.
    9000002   -1    0    0    0    0 -0.00000000000E+00 -0.00000000000E+00  0.00000000000E+00  0.93800000000E+00  0.93800000000E+00 0. -1.
         11    1    1    2    0    0  0.22037047367E-01 -0.20017087464E-01  0.17622890757E+00  0.17872661870E+00  0.51100000000E-03 0.  1.
    9000002    1    1    2    0    0  0.36663055193E+00  0.23910618289E+00  0.13528858812E+00  0.10439045600E+01  0.93800000000E+00 0. -1.
         22    1    1    2    0    0 -0.38866759930E+00 -0.21908909542E+00  0.36884824717E+01  0.37153688213E+01  0.00000000000E+00 0.  1.
</event>
<event>
 5    1  0.7220939E+001  0.1599670E+01  0.7818608E-02  0.3353722E+00
         11   -1    0    0    0    0  0.00000000000E+00  0.00000000000E+00  0.39999999674E+01  0.40000000000E+01  0.51100000000E-03 0. -1.
    9000002   -1    0    0    0    0 -0.00000000000E+00 -0.00000000000E+00  0.00000000000E+00  0.93800000000E+00  0.93800000000E+00 0.  1.
         11    1    1    2    0    0  0.60424323959E-01  0.59694384748E-01  0.92311327874E+00  0.92701289366E+00  0.51100000000E-03 0. -1.
    9000002    1    1    2    0    0 -0.25929916398E+00 -0.26361867831E+00  0.91891670956E-01  0.10124321919E+01  0.93800000000E+00 0.  1.
         22    1    1    2    0    0  0.19887484002E+00  0.20392429356E+00  0.29849950177E+01  0.29985549144E+01  0.00000000000E+00 0.  1.
</event>
<event>
 5    1  0.7220939E+001  0.1599600E+01  0.7818608E-02  0.3353798E+00
         11   -1    0    0    0    0  0.00000000000E+00  0.00000000000E+00  0.39999999674E+01  0.40000000000E+01  0.51100000000E-03 0.  1.
    9000002   -1    0    0    0    0 -0.00000000000E+00 -0.00000000000E+00  0.00000000000E+00  0.93800000000E+00  0.93800000000E+00 0. -1.
         11    1    1    2    0    0  0.12356489147E+00 -0.14499856351E-01  0.10541687191E+01  0.10614850341E+01  0.51100000000E-03 0.  1.
    9000002    1    1    2    0    0 -0.41983519148E+00  0.52791918565E-01  0.12120860960E+00  0.10361390359E+01  0.93800000000E+00 0. -1.
         22    1    1    2    0    0  0.29627030001E+00 -0.38292062214E-01  0.28246226387E+01  0.28403759300E+01  0.00000000000E+00 0.  1.
</event>
<event>
 5    1  0.7220939E+001  0.1599677E+01  0.7818608E-02  0.3353714E+00
         11   -1    0    0    0    0  0.00000000000E+00  0.00000000000E+00  0.39999999674E+01  0.40000000000E+01  0.51100000000E-03 0.  1.
    9000002   -1    0    0    0    0 -0.00000000000E+00 -0.00000000000E+00  0.00000000000E+00  0.93800000000E+00  0.93800000000E+00 0. -1.
         11    1    1    2    0    0 -0.12807666662E+00 -0.36267702073E-01  0.12724304721E+01  0.12793742792E+01  0.51100000000E-03 0. -1.
    9000002    1    1    2    0    0  0.39100829765E+00  0.11063084357E+00  0.11147304150E+00  0.10282980654E+01  0.93800000000E+00 0. -1.
         22    1    1    2    0    0 -0.26293163103E+00 -0.74363141500E-01  0.26160964537E+01  0.26303276554E+01  0.00000000000E+00 0.  1.
</event>
<event>
 5    1  0.7220939E+001  0.1599644E+01  0.7818608E-02  0.3353750E+00
         11   -1    0    0    0    0  0.00000000000E+00  0.00000000000E+00  0.39999999674E+01  0.40000000000E+01  0.51100000000E-03 0.  1.
    9000002   -1    0    0    0    0 -0.00000000000E+00 -0.00000000000E+00  0.00000000000E+00  0.93800000000E+00  0.93800000000E+00 0.  1.
         11    1    1    2    0    0  0.17291830520E-01  0.81100838066E-01  0.91364349097E+00  0.91739906423E+00  0.51100000000E-03 0.  1.
    9000002    1    1    2    0    0 -0.75555229436E-01 -0.37151345578E+00  0.96724656314E-01  0.10163318846E+01  0.93800000000E+00 0.  1.
         22    1    1    2    0    0  0.58263398916E-01  0.29041261772E+00  0.29896318201E+01  0.30042690512E+01  0.00000000000E+00 0.  1.
</event>
<event>
 5    1  0.7220939E+001  0.1599661E+01  0.7818608E-02  0.3353731E+00
         11   -1    0    0    0    0  0.00000000000E+00  0.00000000000E+00  0.39999999674E+01  0.40000000000E+01  0.51100000000E-03 0. -1.
    9000002   -1    0    0    0    0 -0.00000000000E+00 -0.00000000000E+00  0.00000000000E+00  0.93800000000E+00  0.93800000000E+00 0.  1.
         11    1    1    2    0    0 -0.14602424633E+00 -0.50894129888E-02  0.12878633819E+01  0.12961255086E+01  0.51100000000E-03 0. -1.
    9000002    1    1    2    0    0  0.43320635909E+00  0.31211560916E-02  0.12717293273E+00  0.10410064582E+01  0.93800000000E+00 0.  1.
         22    1    1    2    0    0 -0.28718211276E+00  0.19682568972E-02  0.25849636528E+01  0.26008680332E+01  0.00000000000E+00 0.  1.
</event>
<event>
 5    1  0.7220939E+001  0.1599395E+01  0.7818608E-02  0.3354020E+00
         11   -1    0    0    0    0  0.00000000000E+00  0.00000000000E+00  0.39999999674E+01  0.40000000000E+01  0.51100000000E-03 0.  1.
    9000002   -1    0    0    0    0 -0.00000000000E+00 -0.00000000000E+00  0.00000000000E+00  0.93800000000E+00  0.93800000000E+00 0.  1.
         11    1    1    2    0    0  0.10073086077E+00 -0.25364927792E-01  0.49812071255E+00  0.50883650741E+00  0.51100000000E-03 0.  1.
    9000002    1    1    2    0    0 -0.71025442146E+00  0.28168158626E+00  0.42539543919E+00  0.12824239310E+01  0.93800000000E+00 0.  1.
         22    1    1    2    0    0  0.60952356069E+00 -0.25631665846E+00  0.30764838156E+01  0.31467395615E+01  0.00000000000E+00 0.  1.
</event>
<event>
 5    1  0.7220939E+001  0.1599676E+01  0.7818608E-02  0.3353715E+00
         11   -1    0    0    0    0  0.00000000000E+00  0.00000000000E+00  0.39999999674E+01  0.40000000000E+01  0.51100000000E-03 0. -1.
    9000002   -1    0    0    0    0 -0.00000000000E+00 -0.00000000000E+00  0.00000000000E+00  0.93800000000E+00  0.93800000000E+00 0.  1.
         11    1    1    2    0    0  0.12353275924E-01 -0.32485425400E-01  0.26375779236E+00  0.26603823116E+00  0.51100000000E-03 0. -1.
    9000002    1    1    2    0    0 -0.17768588757E+00  0.46653506049E+00  0.17058870508E+00  0.10761838800E+01  0.93800000000E+00 0.  1.
         22    1    1    2    0    0  0.16533261165E+00 -0.43404963509E+00  0.35656534699E+01  0.35957778888E+01  0.00000000000E+00 0. -1.
</event>
<event>
 5    1  0.7220939E+001  0.1504831E+01  0.7818608E-02  0.3463609E+00
         11   -1    0    0    0    0  0.00000000000E+00  0.00000000000E+00  0.39999999674E+01  0.40000000000E+01  0.51100000000E-03 0. -1.
    9000002   -1    0    0    0    0 -0.00000000000E+00 -0.00000000000E+00  0.00000000000E+00  0.93800000000E+00  0.93800000000E+00 0. -1.
         11    1    1    2    0    0  0.21632420479E+00 -0.54391703334E+00  0.12756611438E+01  0.14035503253E+01  0.51100000000E-03 0. -1.
    9000002    1    1    2    0    0 -0.67905286968E+00  0.47616014437E+00  0.65524654400E+00  0.14131642921E+01  0.93800000000E+00 0. -1.
         22    1    1    2    0    0  0.46272866489E+00  0.67756888972E-01  0.20690922795E+01  0.21212853826E+01  0.00000000000E+00 0. -1.
</event>
<event>
 5    1  0.7220939E+001  0.1599639E+01  0.7818608E-02  0.3353756E+00
         11   -1    0    0    0    0  0.00000000000E+00  0.00000000000E+00  0.39999999674E+01  0.40000000000E+01  0.51100000000E-03 0. -1.
    9000002   -1    0    0    0    0 -0.00000000000E+00 -0.00000000000E+00  0.00000000000E+00  0.93800000000E+00  0.93800000000E+00 0. -1.
         11    1    1    2    0    0  0.13999042208E+00 -0.23308172323E-01  0.11981354232E+01  0.12065112277E+01  0.51100000000E-03 0. -1.
    9000002    1    1    2    0    0 -0.44543238479E+00  0.96569333202E-01  0.14124523001E+00  0.10523924461E+01  0.93800000000E+00 0. -1.
         22    1    1    2    0    0  0.30544196272E+00 -0.73261160879E-01  0.26606193142E+01  0.26790963262E+01  0.00000000000E+00 0. -1.
</event>
<event>
 5    1  0.7220939E+001  0.1559647E+01  0.7818608E-02  0.3398361E+00
         11   -1    0    0    0    0  0.00000000000E+00  0.00000000000E+00  0.39999999674E+01  0.40000000000E+01  0.51100000000E-03 0. -1.
    9000002   -1    0    0    0    0 -0.00000000000E+00 -0.00000000000E+00  0.00000000000E+00  0.93800000000E+00  0.93800000000E+00 0. -1.
         11    1    1    2    0    0  0.64244780255E-03 -0.48624243621E-01  0.25483053526E-01  0.54903341837E-01  0.51100000000E-03 0. -1.
    9000002    1    1    2    0    0 -0.37842559211E+00  0.72272304915E-02  0.12995844328E+00  0.10197996659E+01  0.93800000000E+00 0. -1.
         22    1    1    2    0    0  0.37778314430E+00  0.41397013129E-01  0.38445584706E+01  0.38632969922E+01  0.00000000000E+00 0. -1.
</event>
<event>
 5    1  0.7220939E+001  0.1597133E+01  0.7818608E-02  0.3356481E+00
         11   -1    0    0    0    0  0.00000000000E+00  0.00000000000E+00  0.39999999674E+01  0.40000000000E+01  0.51100000000E-03 0.  1.
    9000002   -1    0    0    0    0 -0.00000000000E+00 -0.00000000000E+00  0.00000000000E+00  0.93800000000E+00  0.93800000000E+00 0. -1.
         11    1    1    2    0    0 -0.23442083636E-01  0.45015376350E-01  0.33391811271E+00  0.33775358253E+00  0.51100000000E-03 0.  1.
    9000002    1    1    2    0    0 -0.84679924329E-01 -0.35525844427E+00  0.91657079840E-01  0.10107543085E+01  0.93800000000E+00 0. -1.
         22    1    1    2    0    0  0.10812200796E+00  0.31024306792E+00  0.35744247748E+01  0.35894921090E+01  0.00000000000E+00 0.  1.
</event>
<event>
 5    1  0.7220939E+001  0.1599673E+01  0.7818608E-02  0.3353718E+00
         11   -1    0    0    0    0  0.00000000000E+00  0.00000000000E+00  0.39999999674E+01  0.40000000000E+01  0.51100000000E-03 0.  1.
    9000002   -1    0    0    0    0 -0.00000000000E+00 -0.00000000000E+00  0.00000000000E+00  0.93800000000E+00  0.93800000000E+00 0. -1.
         11    1    1    2    0    0 -0.24280079199E-01 -0.12547457413E+00  0.12095499188E+01  0.12162831324E+01  0.51100000000E-03 0.  1.
    9000002    1    1    2    0    0  0.84615262236E-01  0.40136279058E+00  0.11364296847E+00  0.10300536668E+01  0.93800000000E+00 0. -1.
         22    1    1    2    0    0 -0.60335183037E-01 -0.27588821646E+00  0.26768070801E+01  0.26916632008E+01  0.00000000000E+00 0.  1.
</event>
<event>
 5    1  0.7220939E+001  0.1599121E+01  0.7818608E-02  0.3354318E+00
         11   -1    0    0    0    0  0.00000000000E+00  0.00000000000E+00  0.39999999674E+01  0.40000000000E+01  0.51100000000E-03 0. -1.
    9000002   -1    0    0    0    0 -0.00000000000E+00 -0.00000000000E+00  0.00000000000E+00  0.93800000000E+00  0.93800000000E+00 0. -1.
         11    1    1    2    0    0 -0.10601417860E-02  0.15008774244E-02  0.43314580427E-01  0.43356551203E-01  0.51100000000E-03 0. -1.
    9000002    1    1    2    0    0  0.33326076053E+00  0.34035097949E+00  0.15522029068E+00  0.10634090758E+01  0.93800000000E+00 0. -1.
         22    1    1    2    0    0 -0.33220061875E+00 -0.34185185692E+00  0.38014650963E+01  0.38312343730E+01  0.00000000000E+00 0. -1.
</event>
<event>
 5    1  0.7220939E+001  0.1583201E+01  0.7818608E-02  0.3371801E+00
         11   -1    0    0    0    0  0.00000000000E+00  0.00000000000E+00  0.39999999674E+01  0.40000000000E+01  0.51100000000E-03 0. -1.
    9000002   -1    0    0    0    0 -0.00000000000E+00 -0.00000000000E+00  0.00000000000E+00  0.93800000000E+00  0.93800000000E+00 0.  1.
         11    1    1    2    0    0  0.32300622827E-01  0.69267933547E-01  0.11065084043E+01  0.11091449349E+01  0.51100000000E-03 0. -1.
    9000002    1    1    2    0    0  0.23896025227E+00  0.98632865700E-01  0.57171362421E-01  0.97465019830E+00  0.93800000000E+00 0.  1.
         22    1    1    2    0    0 -0.27126087510E+00 -0.16790079925E+00  0.28363202007E+01  0.28542048668E+01  0.00000000000E+00 0. -1.
</event>
<event>
 5    1  0.7220939E+001  0.1593704E+01  0.7818608E-02  0.3360226E+00
         11   -1    0    0    0    0  0.00000000000E+00  0.00000000000E+00  0.39999999674E+01  0.40000000000E+01  0.51100000000E-03 0. -1.
    9000002   -1    0    0    0    0 -0.00000000000E+00 -0.00000000000E+00  0.00000000000E+00  0.93800000000E+00  0.93800000000E+00 0.  1.
         11    1    1    2    0    0 -0.20669663438E-01  0.15325586568E-01  0.75656570557E+00  0.75700332665E+00  0.51100000000E-03 0. -1.
    9000002    1    1    2    0    0 -0.27343665488E+00 -0.10120019898E+00  0.61336243320E-01  0.98418251318E+00  0.93800000000E+00 0.  1.
         22    1    1    2    0    0  0.29410631832E+00  0.85874612408E-01  0.31820980185E+01  0.31968141602E+01  0.00000000000E+00 0. -1.
</event>
<event>
 5    1  0.7220939E+001  0.1599596E+01  0.7818608E-02  0.3353802E+00
         11   -1    0    0    0    0  0.00000000000E+00  0.00000000000E+00  0.39999999674E+01  0.40000000000E+01  0.51100000000E-03 0. -1.
    9000002   -1    0    0    0    0 -0.00000000000E+00 -0.00000000000E+00  0.00000000000E+00  0.93800000000E+00  0.93800000000E+00 0.  1.
         11    1    1    2    0    0 -0.49947431607E-01 -0.51642294054E-03  0.52163949757E+00  0.52402580009E+00  0.51100000000E-03 0. -1.
    9000002    1    1    2    0    0  0.37873507752E+00  0.58637905947E-01  0.98931436663E-01  0.10180913967E+01  0.93800000000E+00 0.  1.
         22    1    1    2    0    0 -0.32878764591E+00 -0.58121483006E-01  0.33794290331E+01  0.33958828032E+01  0.00000000000E+00 0. -1.
</event>
<event>
 5    1  0.7220939E+001  0.1599675E+01  0.7818608E-02  0.3353716E+00
         11   -1    0    0    0    0  0.00000000000E+00  0.00000000000E+00  0.39999999674E+01  0.40000000000E+01  0.51100000000E-03 0. -1.
    9000002   -1    0    0    0    0 -0.00000000000E+00 -0.00000000000E+00  0.00000000000E+00  0.93800000000E+00  0.93800000000E+00 0.  1.
         11    1    1    2    0    0  0.17121532391E+00  0.11663015080E+00  0.12356824019E+01  0.12529279862E+01  0.51100000000E-03 0. -1.
    9000002    1    1    2    0    0 -0.51549149709E+00 -0.35659563816E+00  0.27574802626E+00  0.11613668269E+01  0.93800000000E+00 0.  1.
         22    1    1    2    0    0  0.34427617319E+00  0.23996548736E+00  0.24885695392E+01  0.25237051868E+01  0.00000000000E+00 0. -1.
</event>
<event>
 5    1  0.7220939E+001  0.1564482E+01  0.7818608E-02  0.3392839E+00
         11   -1    0    0    0    0  0.00000000000E+00  0.00000000000E+00  0.39999999674E+01  0.40000000000E+01  0.51100000000E-03 0. -1.
    9000002   -1    0    0    0    0 -0.00000000000E+00 -0.00000000000E+00  0.00000000000E+00  0.93800000000E+00  0.93800000000E+00 0.  1.
         11    1    1    2    0    0 -0.26666781872E+00  0.23021429102E+00  0.88379560382E+00  0.95142276396E+00  0.51100000000E-03 0. -1.
    9000002    1    1    2    0    0  0.46607850002E+00 -0.43755407802E+00  0.32521426089E+00  0.11808010225E+01  0.93800000000E+00 0.  1.
         22    1    1    2    0    0 -0.19941068130E+00  0.20733978700E+00  0.27909901027E+01  0.28057762135E+01  0.00000000000E+00 0. -1.
</event>
<event>
 5    1  0.7220939E+001  0.1598513E+01  0.7818608E-02  0.3354978E+00
         11   -1    0    0    0    0  0.00000000000E+00  0.00000000000E+00  0.39999999674E+01  0.40000000000E+01  0.51100000000E-03 0. -1.
    9000002   -1    0    0    0    0 -0.00000000000E+00 -0.00000000000E+00  0.00000000000E+00  0.93800000000E+00  0.93800000000E+00 0.  1.
         11    1    1    2    0    0  0.68891551724E-01 -0.87155126302E-02  0.40168969874E+00  0.40764798694E+00  0.51100000000E-03 0. -1.
    9000002    1    1    2    0    0 -0.55117672135E+00  0.30004995022E+00  0.27764156094E+00  0.11622196811E+01  0.93800000000E+00 0.  1.
         22    1    1    2    0    0  0.48228516963E+00 -0.29133443759E+00  0.33206687077E+01  0.33681323320E+01  0.00000000000E+00 0. -1.
</event>
<event>
 5    1  0.7220939E+001  0.1599676E+01  0.7818608E-02  0.3353715E+00
         11   -1    0    0    0    0  0.00000000000E+00  0.00000000000E+00  0.39999999674E+01  0.40000000000E+01  0.51100000000E-03 0. -1.
    9000002   -1    0    0    0    0 -0.00000000000E+00 -0.00000000000E+00  0.00000000000E+00  0.93800000000E+00  0.93800000000E+00 0.  1.
         11    1    1    2    0    0 -0.19335701279E-01  0.26094495319E+00  0.11660870896E+01  0.11950838881E+01  0.51100000000E-03 0. -1.
    9000002    1    1    2    0    0  0.61029083949E-01 -0.79051013989E+00  0.46195386739E+00  0.13122028067E+01  0.93800000000E+00 0.  1.
         22    1    1    2    0    0 -0.41693382670E-01  0.52956518670E+00  0.23719590104E+01  0.24307133052E+01  0.00000000000E+00 0. -1.
</event>
<event>
 5    1  0.7220939E+001  0.1599657E+01  0.7818608E-02  0.3353736E+00
         11   -1    0    0    0    0  0.00000000000E+00  0.00000000000E+00  0.39999999674E+01  0.40000000000E+01  0.51100000000E-03 0. -1.
    9000002   -1    0    0    0    0 -0.00000000000E+00 -0.00000000000E+00  0.00000000000E+00  0.93800000000E+00  0.93800000000E+00 0.  1.
         11    1    1    2    0    0 -0.31414247720E-01 -0.22018877092E-01  0.45169697221E+00  0.45332339641E+00  0.51100000000E-03 0. -1.
    9000002    1    1    2    0    0  0.27808039182E+00  0.22007551376E+00  0.84384317734E-01  0.10063432064E+01  0.93800000000E+00 0.  1.
         22    1    1    2    0    0 -0.24666614410E+00 -0.19805663667E+00  0.34639186774E+01  0.34783333972E+01  0.00000000000E+00 0. -1.
</event>
<event>
 5    1  0.7220939E+001  0.1599677E+01  0.7818608E-02  0.3353715E+00
         11   -1    0    0    0    0  0.00000000000E+00  0.00000000000E+00  0.39999999674E+01  0.40000000000E+01  0.51100000000E-03 0. -1.
    9000002   -1    0    0    0    0 -0.00000000000E+00 -0.00000000000E+00  0.00000000000E+00  0.93800000000E+00  0.93800000000E+00 0. -1.
         11    1    1    2    0    0 -0.42850007583E-01  0.18326327634E+00  0.11029542855E+01  0.11188967640E+01  0.51100000000E-03 0. -1.
    9000002    1    1    2    0    0  0.14626465273E+00 -0.61886690755E+00  0.28441030395E+00  0.11683847050E+01  0.93800000000E+00 0. -1.
         22    1    1    2    0    0 -0.10341464514E+00  0.43560363120E+00  0.26126353779E+01  0.26507185310E+01  0.00000000000E+00 0. -1.
</event>
<event>
 5    1  0.7220939E+001  0.1599675E+01  0.7818608E-02  0.3353716E+00
         11   -1    0    0    0    0  0.00000000000E+00  0.00000000000E+00  0.39999999674E+01  0.40000000000E+01  0.51100000000E-03 0.  1.
    9000002   -1    0    0    0    0 -0.00000000000E+00 -0.00000000000E+00  0.00000000000E+00  0.93800000000E+00  0.93800000000E+00 0.  1.
         11    1    1    2    0    0 -0.69955148425E-01  0.12544329382E+00  0.14140844609E+01  0.14213602170E+01  0.51100000000E-03 0.  1.
    9000002    1    1    2    0    0  0.19004013390E+00 -0.34172313558E+00  0.10301184114E+00  0.10214427998E+01  0.93800000000E+00 0.  1.
         22    1    1    2    0    0 -0.12008498547E+00  0.21627984177E+00  0.24829036653E+01  0.24951969832E+01  0.00000000000E+00 0.  1.
</event>
<event>
 5    1  0.7220939E+001  0.1598982E+01  0.7818608E-02  0.3354469E+00
         11   -1    0    0    0    0  0.00000000000E+00  0.00000000000E+00  0.39999999674E+01  0.40000000000E+01  0.51100000000E-03 0.  1.
    9000002   -1    0    0    0    0 -0.00000000000E+00 -0.00000000000E+00  0.00000000000E+00  0.93800000000E+00  0.93800000000E+00 0.  1.
         11    1    1    2    0    0  0.29715066970E+00 -0.60908857864E-01  0.13445445878E+01  0.13783355249E+01  0.51100000000E-03 0.  1.
    9000002    1    1    2    0    0 -0.84287360585E+00  0.14376641643E+00  0.55038255008E+00  0.13834267777E+01  0.93800000000E+00 0.  1.
         22    1    1    2    0    0  0.54572293615E+00 -0.82857558564E-01  0.21050728295E+01  0.21762376974E+01  0.00000000000E+00 0.  1.
</event>
<event>
 5    1  0.7220939E+001  0.1518716E+01  0.7818608E-02  0.3446604E+00
         11   -1    0    0    0    0  0.00000000000E+00  0.00000000000E+00  0.39999999674E+01  0.40000000000E+01  0.51100000000E-03 0. -1.
    9000002   -1    0    0    0    0 -0.00000000000E+00 -0.00000000000E+00  0.00000000000E+00  0.93800000000E+00  0.93800000000E+00 0. -1.
         11    1    1    2    0    0  0.16961950560E+00 -0.15139041328E+00  0.13148529480E+00  0.26263754070E+00  0.51100000000E-03 0. -1.
    9000002    1    1    2    0    0 -0.11349781108E+01 -0.62890089272E-01  0.14725409182E+01  0.20833509620E+01  0.93800000000E+00 0. -1.
         22    1    1    2    0    0  0.96535860517E+00  0.21428050256E+00  0.23959737544E+01  0.25920114973E+01  0.00000000000E+00 0. -1.
</event>
<event>
 5    1  0.7220939E+001  0.1499321E+01  0.7818608E-02  0.3470451E+00
         11   -1    0    0    0    0  0.00000000000E+00  0.00000000000E+00  0.39999999674E+01  0.40000000000E+01  0.51100000000E-03 0. -1.
    9000002   -1    0    0    0    0 -0.00000000000E+00 -0.00000000000E+00  0.00000000000E+00  0.93800000000E+00  0.93800000000E+00 0. -1.
         11    1    1    2    0    0  0.29463237608E+00  0.44316299943E+00  0.55125058193E+00  0.76621090197E+00  0.51100000000E-03 0. -1.
    9000002    1    1    2    0    0 -0.10231161795E+00 -0.65808269293E+00  0.57953626105E+00  0.12881175318E+01  0.93800000000E+00 0. -1.
         22    1    1    2    0    0 -0.19232075813E+00  0.21491969350E+00  0.28692131244E+01  0.28836715662E+01  0.00000000000E+00 0. -1.
</event>
<event>
 5    1  0.7220939E+001  0.1598920E+01  0.7818608E-02  0.3354537E+00
         11   -1    0    0    0    0  0.00000000000E+00  0.00000000000E+00  0.39999999674E+01  0.40000000000E+01  0.51100000000E-03 0.  1.
    9000002   -1    0    0    0    0 -0.00000000000E+00 -0.00000000000E+00  0.00000000000E+00  0.93800000000E+00  0.93800000000E+00 0. -1.
         11    1    1    2    0    0  0.81871166484E-02 -0.26429904458E-01  0.25493417834E+00  0.25643179432E+00  0.51100000000E-03 0.  1.
    9000002    1    1    2    0    0 -0.31954794941E+00  0.24637909800E+00  0.11050259532E+00  0.10270678534E+01  0.93800000000E+00 0. -1.
         22    1    1    2    0    0  0.31136083276E+00 -0.21994919354E+00  0.36345631937E+01  0.36545003523E+01  0.00000000000E+00 0.  1.
</event>
<event>
 5    1  0.7220939E+001  0.1599645E+01  0.7818608E-02  0.3353748E+00
         11   -1    0    0    0    0  0.00000000000E+00  0.00000000000E+00  0.39999999674E+01  0.40000000000E+01  0.51100000000E-03 0. -1.
    9000002   -1    0    0    0    0 -0.00000000000E+00 -0.00000000000E+00  0.00000000000E+00  0.93800000000E+00  0.93800000000E+00 0.  1.
         11    1    1    2    0    0  0.85681399333E-03  0.76750936103E-02  0.87830314237E-01  0.88170666393E-01  0.51100000000E-03 0. -1.
    9000002    1    1    2    0    0 -0.47284061306E-01 -0.42499717007E+00  0.12382432743E+00  0.10382845665E+01  0.93800000000E+00 0.  1.
         22    1    1    2    0    0  0.46427247312E-01  0.41732207646E+00  0.37883453257E+01  0.38115447671E+01  0.00000000000E+00 0. -1.
</event>
<event>
 5    1  0.7220939E+001  0.1599668E+01  0.7818608E-02  0.3353724E+00
         11   -1    0    0    0    0  0.00000000000E+00  0.00000000000E+00  0.39999999674E+01  0.40000000000E+01  0.51100000000E-03 0.  1.
    9000002   -1    0    0    0    0 -0.00000000000E+00 -0.00000000000E+00  0.00000000000E+00  0.93800000000E+00  0.93800000000E+00 0.  1.
         11    1    1    2    0    0  0.11442361390E+00 -0.71973924946E-01  0.12000920719E+01  0.12076813535E+01  0.51100000000E-03 0.  1.
    9000002    1    1    2    0    0 -0.35997851783E+00  0.23744939258E+00  0.12597290289E+00  0.10400384222E+01  0.93800000000E+00 0.  1.
         22    1    1    2    0    0  0.24555490393E+00 -0.16547546764E+00  0.26739349925E+01  0.26902802244E+01  0.00000000000E+00 0.  1.
</event>
<event>
 5    1  0.7220939E+001  0.1642614E+01  0.7818608E-02  0.3308372E+00
         11   -1    0    0    0    0  0.00000000000E+00  0.00000000000E+00  0.39999999674E+01  0.40000000000E+01  0.51100000000E-03 0.  1.
    9000002   -1    0    0    0    0 -0.00000000000E+00 -0.00000000000E+00  0.00000000000E+00  0.93800000000E+00  0.93800000000E+00 0. -1.
         11    1    1    2    0    0  0.45836155073E+00  0.15424933727E+00  0.24887774059E+00  0.54390124114E+00  0.51100000000E-03 0.  1.
    9000002    1    1    2    0    0 -0.44240264958E+00  0.15477104469E+00  0.56140731945E+00  0.11894100886E+01  0.93800000000E+00 0. -1.
         22    1    1    2    0    0 -0.15958901152E-01 -0.30902038196E+00  0.31897149073E+01  0.32046886702E+01  0.00000000000E+00 0. -1.
</event>
<event>
 5    1  0.7220939E+001  0.1599675E+01  0.7818608E-02  0.3353716E+00
         11   -1    0    0    0    0  0.00000000000E+00  0.00000000000E+00  0.39999999674E+01  0.40000000000E+01  0.51100000000E-03 0.  1.
    9000002   -1    0    0    0    0 -0.00000000000E+00 -0.00000000000E+00  0.00000000000E+00  0.93800000000E+00  0.93800000000E+00 0. -1.
         11    1    1    2    0    0  0.13218751427E+00  0.37737685557E-01  0.14669578953E+01  0.14733850140E+01  0.51100000000E-03 0.  1.
    9000002    1    1    2    0    0 -0.35467674977E+00 -0.10410024641E+00  0.91819989093E-01  0.10123770881E+01  0.93800000000E+00 0. -1.
         22    1    1    2    0    0  0.22248923549E+00  0.66362560849E-01  0.24412220830E+01  0.24522378979E+01  0.00000000000E+00 0.  1.
</event>
<event>
 5    1  0.7220939E+001  0.1599639E+01  0.7818608E-02  0.3353755E+00
         11   -1    0    0    0    0  0.00000000000E+00  0.00000000000E+00  0.39999999674E+01  0.40000000000E+01  0.51100000000E-03 0.  1.
    9000002   -1    0    0    0    0 -0.00000000000E+00 -0.00000000000E+00  0.00000000000E+00  0.93800000000E+00  0.93800000000E+00 0. -1.
         11    1    1    2    0    0  0.28201063329E-01  0.10282609272E+00  0.98300358054E+00  0.98876933902E+00  0.51100000000E-03 0.  1.
    9000002    1    1    2    0    0 -0.13484905689E+00 -0.41397880449E+00  0.12850857994E+00  0.10420754166E+01  0.93800000000E+00 0. -1.
         22    1    1    2    0    0  0.10664799356E+00  0.31115271177E+00  0.28884878069E+01  0.29071552444E+01  0.00000000000E+00 0. -1.
</event>
<event>
 5    1  0.7220939E+001  0.1559360E+01  0.7818608E-02  0.3398689E+00
         11   -1    0    0    0    0  0.00000000000E+00  0.00000000000E+00  0.39999999674E+01  0.40000000000E+01  0.51100000000E-03 0. -1.
    9000002   -1    0    0    0    0 -0.00000000000E+00 -0.00000000000E+00  0.00000000000E+00  0.93800000000E+00  0.93800000000E+00 0. -1.
         11    1    1    2    0    0  0.13671530384E+00  0.12939838544E+00  0.42015007955E+00  0.46039262258E+00  0.51100000000E-03 0. -1.
    9000002    1    1    2    0    0 -0.25810519824E-01 -0.46598632908E+00  0.18449749966E+00  0.10638104950E+01  0.93800000000E+00 0. -1.
         22    1    1    2    0    0 -0.11090478402E+00  0.33658794364E+00  0.33953523882E+01  0.34137968825E+01  0.00000000000E+00 0. -1.
</event>
<event>
 5    1  0.7220939E+001  0.1599676E+01  0.7818608E-02  0.3353715E+00
         11   -1    0    0    0    0  0.00000000000E+00  0.00000000000E+00  0.39999999674E+01  0.40000000000E+01  0.51100000000E-03 0. -1.
    9000002   -1    0    0    0    0 -0.00000000000E+00 -0.00000000000E+00  0.00000000000E+00  0.93800000000E+00  0.93800000000E+00 0. -1.
         11    1    1    2    0    0 -0.77677745450E-01  0.93766277456E-01  0.88650456750E+00  0.89482766846E+00  0.51100000000E-03 0. -1.
    9000002    1    1    2    0    0  0.33077270268E+00 -0.40217879346E+00  0.18628798449E+00  0.10889010864E+01  0.93800000000E+00 0. -1.
         22    1    1    2    0    0 -0.25309495723E+00  0.30841251600E+00  0.29272074154E+01  0.29542712452E+01  0.00000000000E+00 0. -1.
</event>
<event>
 5    1  0.7220939E+001  0.1599303E+01  0.7818608E-02  0.3354120E+00
         11   -1    0    0    0    0  0.00000000000E+00  0.00000000000E+00  0.39999999674E+01  0.40000000000E+01  0.51100000000E-03 0. -1.
    9000002   -1    0    0    0    0 -0.00000000000E+00 -0.00000000000E+00  0.00000000000E+00  0.93800000000E+00  0.93800000000E+00 0. -1.
         11    1    1    2    0    0 -0.10106896904E+00  0.33318899680E-01  0.13255965017E+01  0.13298614334E+01  0.51100000000E-03 0. -1.
    9000002    1    1    2    0    0  0.33951875360E+00 -0.47549993047E-01  0.79046074019E-01  0.10018114931E+01  0.93800000000E+00 0. -1.
         22    1    1    2    0    0 -0.23844978456E+00  0.14231093367E-01  0.25953573917E+01  0.26063270735E+01  0.00000000000E+00 0. -1.
</event>
<event>
 5    1  0.7220939E+001  0.1451427E+01  0.7818608E-02  0.3532294E+00
         11   -1    0    0    0    0  0.00000000000E+00  0.00000000000E+00  0.39999999674E+01  0.40000000000E+01  0.51100000000E-03 0. -1.
    9000002   -1    0    0    0    0 -0.00000000000E+00 -0.00000000000E+00  0.00000000000E+00  0.93800000000E+00  0.93800000000E+00 0. -1.
         11    1    1    2    0    0 -0.24647317744E+00 -0.31344812291E+00  0.99421213545E+00  0.10711940928E+01  0.51100000000E-03 0. -1.
    9000002    1    1    2    0    0 -0.64556692833E-01  0.89578406718E-02  0.11943275440E+00  0.94781643387E+00  0.93800000000E+00 0. -1.
         22    1    1    2    0    0  0.31102987027E+00  0.30449028224E+00  0.28863550775E+01  0.29189894734E+01  0.00000000000E+00 0. -1.
</event>
<event>
 5    1  0.7220939E+001  0.1599475E+01  0.7818608E-02  0.3353934E+00
         11   -1    0    0    0    0  0.00000000000E+00  0.00000000000E+00  0.39999999674E+01  0.40000000000E+01  0.51100000000E-03 0.  1.
    9000002   -1    0    0    0    0 -0.00000000000E+00 -0.00000000000E+00  0.00000000000E+00  0.93800000000E+00  0.93800000000E+00 0.  1.
         11    1    1    2    0    0 -0.75781523953E-02  0.14223680633E-01  0.19061948292E+00  0.19130026104E+00  0.51100000000E-03 0.  1.
    9000002    1    1    2    0    0  0.22916122338E+00 -0.41667184867E+00  0.15436214847E+00  0.10629214311E+01  0.93800000000E+00 0.  1.
         22    1    1    2    0    0 -0.22158307098E+00  0.40244816804E+00  0.36550183360E+01  0.36837783079E+01  0.00000000000E+00 0.  1.
</event>
<event>
 5    1  0.7220939E+001  0.1593122E+01  0.7818608E-02  0.3360862E+00
         11   -1    0    0    0    0  0.00000000000E+00  0.00000000000E+00  0.39999999674E+01  0.40000000000E+01  0.51100000000E-03 0.  1.
    9000002   -1    0    0    0    0 -0.00000000000E+00 -0.00000000000E+00  0.00000000000E+00  0.93800000000E+00  0.93800000000E+00 0.  1.
         11    1    1    2    0    0 -0.44701960729E-01 -0.20331016352E-01  0.39188822102E+00  0.39495348386E+00  0.51100000000E-03 0.  1.
    9000002    1    1    2    0    0 -0.12561389219E+00  0.32117345026E+00  0.84979796947E-01  0.10029939187E+01  0.93800000000E+00 0.  1.
         22    1    1    2    0    0  0.17031585292E+00 -0.30084243391E+00  0.35231319494E+01  0.35400525974E+01  0.00000000000E+00 0.  1.
</event>
<event>
 5    1  0.7220939E+001  0.1592396E+01  0.7818608E-02  0.3361658E+00
         11   -1    0    0    0    0  0.00000000000E+00  0.00000000000E+00  0.39999999674E+01  0.40000000000E+01  0.51100000000E-03 0. -1.
    9000002   -1    0    0    0    0 -0.00000000000E+00 -0.00000000000E+00  0.00000000000E+00  0.93800000000E+00  0.93800000000E+00 0. -1.
         11    1    1    2    0    0  0.19296271203E+00 -0.27717014989E+00  0.14077804699E+01  0.14477237349E+01  0.51100000000E-03 0. -1.
    9000002    1    1    2    0    0 -0.67443619417E+00  0.53731823175E+00  0.57091201597E+00  0.13961946828E+01  0.93800000000E+00 0. -1.
         22    1    1    2    0    0  0.48147348215E+00 -0.26014808185E+00  0.20213074815E+01  0.20940815823E+01  0.00000000000E+00 0. -1.
</event>
<event>
 5    1  0.7220939E+001  0.1599637E+01  0.7818608E-02  0.3353757E+00
         11   -1    0    0    0    0  0.00000000000E+00  0.00000000000E+00  0.39999999674E+01  0.40000000000E+01  0.51100000000E-03 0.  1.
    9000002   -1    0    0    0    0 -0.00000000000E+00 -0.00000000000E+00  0.00000000000E+00  0.93800000000E+00  0.93800000000E+00 0.  1.
         11    1    1    2    0    0 -0.10729080152E+00 -0.65416678146E-01  0.14080499623E+01  0.14136462130E+01  0.51100000000E-03 0.  1.
    9000002    1    1    2    0    0  0.31669878303E+00  0.17379059011E+00  0.87645154908E-01  0.10089732214E+01  0.93800000000E+00 0.  1.
         22    1    1    2    0    0 -0.20940798151E+00 -0.10837391196E+00  0.25043048501E+01  0.25153805656E+01  0.00000000000E+00 0.  1.
</event>
<event>
 5    1  0.7220939E+001  0.1498922E+01  0.7818608E-02  0.3470948E+00
         11   -1    0    0    0    0  0.00000000000E+00  0.00000000000E+00  0.39999999674E+01  0.40000000000E+01  0.51100000000E-03 0. -1.
    9000002   -1    0    0    0    0 -0.00000000000E+00 -0.00000000000E+00  0.00000000000E+00  0.93800000000E+00  0.93800000000E+00 0. -1.
         11    1    1    2    0    0 -0.10385129024E+00 -0.49496516922E-01 -0.24257979730E-01  0.11757425897E+00  0.51100000000E-03 0. -1.
    9000002    1    1    2    0    0 -0.29313667355E+00 -0.12874386055E+00  0.25135578326E+00  0.10225105480E+01  0.93800000000E+00 0. -1.
         22    1    1    2    0    0  0.39698796378E+00  0.17824037747E+00  0.37729021638E+01  0.37979151930E+01  0.00000000000E+00 0. -1.
</event>
<event>
 5    1  0.7220939E+001  0.1599095E+01  0.7818608E-02  0.3354346E+00
         11   -1    0    0    0    0  0.00000000000E+00  0.00000000000E+00  0.39999999674E+01  0.40000000000E+01  0.51100000000E-03 0. -1.
    9000002   -1    0    0    0    0 -0.00000000000E+00 -0.00000000000E+00  0.00000000000E+00  0.93800000000E+00  0.93800000000E+00 0. -1.
         11    1    1    2    0    0  0.15342315655E+00  0.12744224513E-01  0.11570422012E+01  0.11672394771E+01  0.51100000000E-03 0. -1.
    9000002    1    1    2    0    0 -0.51929766716E+00  0.44910347696E-01  0.18720179068E+00  0.10893004714E+01  0.93800000000E+00 0. -1.
         22    1    1    2    0    0  0.36587451062E+00 -0.57654572209E-01  0.26557559754E+01  0.26814600516E+01  0.00000000000E+00 0. -1.
</event>
<event>
 5    1  0.7220939E+001  0.1598746E+01  0.7818608E-02  0.3354726E+00
         11   -1    0    0    0    0  0.00000000000E+00  0.00000000000E+00  0.39999999674E+01  0.40000000000E+01  0.51100000000E-03 0.  1.
    9000002   -1    0    0    0    0 -0.00000000000E+00 -0.00000000000E+00  0.00000000000E+00  0.93800000000E+00  0.93800000000E+00 0.  1.
         11    1    1    2    0    0  0.69637762069E-01 -0.11126932095E+00  0.12205111333E+01  0.12275495783E+01  0.51100000000E-03 0.  1.
    9000002    1    1    2    0    0 -0.31398107115E+00  0.29767132639E+00  0.12761451351E+00  0.10408274572E+01  0.93800000000E+00 0.  1.
         22    1    1    2    0    0  0.24434330908E+00 -0.18640200544E+00  0.26518743206E+01  0.26696229645E+01  0.00000000000E+00 0.  1.
</event>
<event>
 5    1  0.7220939E+001  0.1599621E+01  0.7818608E-02  0.3353774E+00
         11   -1    0    0    0    0  0.00000000000E+00  0.00000000000E+00  0.39999999674E+01  0.40000000000E+01  0.51100000000E-03 0.  1.
    9000002   -1    0    0    0    0 -0.00000000000E+00 -0.00000000000E+00  0.00000000000E+00  0.93800000000E+00  0.93800000000E+00 0. -1.
         11    1    1    2    0    0  0.17221305068E-01 -0.93265244770E-02  0.22655366048E+00  0.22739916359E+00  0.51100000000E-03 0.  1.
    9000002    1    1    2    0    0 -0.33836917954E+00  0.10188206286E+00  0.83805209985E-01  0.10058533539E+01  0.93800000000E+00 0. -1.
         22    1    1    2    0    0  0.32114787447E+00 -0.92555538385E-01  0.36896410969E+01  0.37047474825E+01  0.00000000000E+00 0.  1.
</event>
<event>
 5    1  0.7220939E+001  0.1599666E+01  0.7818608E-02  0.3353726E+00
         11   -1    0    0    0    0  0.00000000000E+00  0.00000000000E+00  0.39999999674E+01  0.40000000000E+01  0.51100000000E-03 0. -1.
    9000002   -1    0    0    0    0 -0.00000000000E+00 -0.00000000000E+00  0.00000000000E+00  0.93800000000E+00  0.93800000000E+00 0.  1.
         11    1    1    2    0    0 -0.10357030283E+00 -0.56885853977E-01  0.12382488333E+01  0.12438742872E+01  0.51100000000E-03 0. -1.
    9000002    1    1    2    0    0  0.32870453970E+00  0.19071036357E+00  0.97178805711E-01  0.10167127606E+01  0.93800000000E+00 0.  1.
         22    1    1    2    0    0 -0.22513423687E+00 -0.13382450959E+00  0.26645723283E+01  0.26774129523E+01  0.00000000000E+00 0. -1.
</event>
<event>
 5    1  0.7220939E+001  0.1593013E+01  0.7818608E-02  0.3360982E+00
         11   -1    0    0    0    0  0.00000000000E+00  0.00000000000E+00  0.39999999674E+01  0.40000000000E+01  0.51100000000E-03 0.  1.
    9000002   -1    0    0    0    0 -0.00000000000E+00 -0.00000000000E+00  0.00000000000E+00  0.93800000000E+00  0.93800000000E+00 0. -1.
         11    1    1    2    0    0  0.10816235394E-01 -0.11355562325E-01  0.10202746738E+01  0.10203953209E+01  0.51100000000E-03 0.  1.
    9000002    1    1    2    0    0  0.27357778462E+00  0.14842251682E+00  0.69960460096E-01  0.99076360133E+00  0.93800000000E+00 0. -1.
         22    1    1    2    0    0 -0.28439402001E+00 -0.13706695449E+00  0.29097648335E+01  0.29268410778E+01  0.00000000000E+00 0.  1.
</event>
<event>
 5    1  0.7220939E+001  0.1599368E+01  0.7818608E-02  0.3354050E+00
         11   -1    0    0    0    0  0.00000000000E+00  0.00000000000E+00  0.39999999674E+01  0.40000000000E+01  0.51100000000E-03 0.  1.
    9000002   -1    0    0    0    0 -0.00000000000E+00 -0.00000000000E+00  0.00000000000E+00  0.93800000000E+00  0.93800000000E+00 0.  1.
         11    1    1    2    0    0 -0.13230055978E-01 -0.30126833858E-03  0.13713973086E+00  0.13777769067E+00  0.51100000000E-03 0.  1.
    9000002    1    1    2    0    0  0.33341397417E+00 -0.20840113612E+00  0.10444373323E+00  0.10224228113E+01  0.93800000000E+00 0.  1.
         22    1    1    2    0    0 -0.32018391820E+00  0.20870240446E+00  0.37584165033E+01  0.37777994980E+01  0.00000000000E+00 0.  1.
</event>
<event>
 5    1  0.7220939E+001  0.1599580E+01  0.7818608E-02  0.3353819E+00
         11   -1    0    0    0    0  0.00000000000E+00  0.00000000000E+00  0.39999999674E+01  0.40000000000E+01  0.51100000000E-03 0.  1.
    9000002   -1    0    0    0    0 -0.00000000000E+00 -0.00000000000E+00  0.00000000000E+00  0.93800000000E+00  0.93800000000E+00 0.  1.
         11    1    1    2    0    0 -0.32204261115E-01 -0.77282594777E-01  0.49856521521E+00  0.50554648533E+00  0.51100000000E-03 0.  1.
    9000002    1    1    2    0    0  0.29275307604E+00  0.59713853954E+00  0.31334525291E+00  0.11917667752E+01  0.93800000000E+00 0.  1.
         22    1    1    2    0    0 -0.26054881492E+00 -0.51985594476E+00  0.31880894992E+01  0.32406867395E+01  0.00000000000E+00 0.  1.
</event>
<event>
 5    1  0.7220939E+001  0.1583090E+01  0.7818608E-02  0.3371924E+00
         11   -1    0    0    0    0  0.00000000000E+00  0.00000000000E+00  0.39999999674E+01  0.40000000000E+01  0.51100000000E-03 0.  1.
    9000002   -1    0    0    0    0 -0.00000000000E+00 -0.00000000000E+00  0.00000000000E+00  0.93800000000E+00  0.93800000000E+00 0.  1.
         11    1    1    2    0    0  0.17793687198E+00  0.84926280743E-02  0.39691427040E+00  0.43505730003E+00  0.51100000000E-03 0.  1.
    9000002    1    1    2    0    0 -0.74865495766E+00 -0.49735546172E+00  0.64408755524E+00  0.14500136136E+01  0.93800000000E+00 0.  1.
         22    1    1    2    0    0  0.57071808568E+00  0.48886283365E+00  0.29589981417E+01  0.30529290863E+01  0.00000000000E+00 0.  1.
</event>
<event>
 5    1  0.7220939E+001  0.1593364E+01  0.7818608E-02  0.3360597E+00
         11   -1    0    0    0    0  0.00000000000E+00  0.00000000000E+00  0.39999999674E+01  0.40000000000E+01  0.51100000000E-03 0. -1.
    9000002   -1    0    0    0    0 -0.00000000000E+00 -0.00000000000E+00  0.00000000000E+00  0.93800000000E+00  0.93800000000E+00 0. -1.
         11    1    1    2    0    0 -0.12622414799E+00  0.13510207278E+00  0.12763448817E+01  0.12896672531E+01  0.51100000000E-03 0. -1.
    9000002    1    1    2    0    0  0.39760260115E+00 -0.13742086093E+00  0.12504857120E+00  0.10355932921E+01  0.93800000000E+00 0. -1.
         22    1    1    2    0    0 -0.27137845316E+00  0.23187881563E-02  0.25986065145E+01  0.26127394548E+01  0.00000000000E+00 0. -1.
</event>
<event>
 5    1  0.7220939E+001  0.1599135E+01  0.7818608E-02  0.3354303E+00
         11   -1    0    0    0    0  0.00000000000E+00  0.00000000000E+00  0.39999999674E+01  0.40000000000E+01  0.51100000000E-03 0. -1.
    9000002   -1    0    0    0    0 -0.00000000000E+00 -0.00000000000E+00  0.00000000000E+00  0.93800000000E+00  0.93800000000E+00 0.  1.
         11    1    1    2    0    0 -0.45316917144E-01  0.45004404242E-01  0.53223246017E+00  0.53605099772E+00  0.51100000000E-03 0. -1.
    9000002    1    1    2    0    0  0.42549065112E+00 -0.22565457747E+00  0.15879394469E+00  0.10663122429E+01  0.93800000000E+00 0.  1.
         22    1    1    2    0    0 -0.38017373397E+00  0.18065017322E+00  0.33089735625E+01  0.33356367594E+01  0.00000000000E+00 0. -1.
</event>
<event>
 5    1  0.7220939E+001  0.1599605E+01  0.7818608E-02  0.3353792E+00
         11   -1    0    0    0    0  0.00000000000E+00  0.00000000000E+00  0.39999999674E+01  0.40000000000E+01  0.51100000000E-03 0.  1.
    9000002   -1    0    0    0    0 -0.00000000000E+00 -0.00000000000E+00  0.00000000000E+00  0.93800000000E+00  0.93800000000E+00 0. -1.
         11    1    1    2    0    0  0.83564839795E-01 -0.14363338915E+00  0.13940149443E+01  0.14038844536E+01  0.51100000000E-03 0.  1.
    9000002    1    1    2    0    0 -0.24653955878E+00  0.37535479586E+00  0.13701651542E+00  0.10489473306E+01  0.93800000000E+00 0. -1.
         22    1    1    2    0    0  0.16297471898E+00 -0.23172140671E+00  0.24689685076E+01  0.24851682158E+01  0.00000000000E+00 0.  1.
</event>
<event>
 5    1  0.7220939E+001  0.1552329E+01  0.7818608E-02  0.3406787E+00
         11   -1    0    0    0    0  0.00000000000E+00  0.00000000000E+00  0.39999999674E+01  0.40000000000E+01  0.51100000000E-03 0.  1.
    9000002   -1    0    0    0    0 -0.00000000000E+00 -0.00000000000E+00  0.00000000000E+00  0.93800000000E+00  0.93800000000E+00 0.  1.
         11    1    1    2    0    0  0.31866327598E+00  0.13382373621E+00  0.14235263532E+01  0.14648831405E+01  0.51100000000E-03 0.  1.
    9000002    1    1    2    0    0 -0.19911890393E+00 -0.55464038507E+00  0.28988332337E+00  0.11450548615E+01  0.93800000000E+00 0.  1.
         22    1    1    2    0    0 -0.11954437205E+00  0.42081664886E+00  0.22865902908E+01  0.23280619981E+01  0.00000000000E+00 0.  1.
</event>
<event>
 5    1  0.9887944E+001  0.1598443E+01  0.7818608E-02  0.3355055E+00
         11   -1    0    0    0    0  0.00000000000E+00  0.00000000000E+00  0.39999999674E+01  0.40000000000E+01  0.51100000000E-03 0.  1.
    9000002   -1    0    0    0    0 -0.00000000000E+00 -0.00000000000E+00  0.00000000000E+00  0.93800000000E+00  0.93800000000E+00 0.  1.
         11    1    1    2    0    0 -0.67513335810E-01  0.87851401156E-01  0.14880340934E+01  0.14921533579E+01  0.51100000000E-03 0.  1.
    9000002    1    1    2    0    0  0.27695583770E+00 -0.18773715180E+00  0.75924043837E-01  0.99877837113E+00  0.93800000000E+00 0.  1.
         22    1    1    2    0    0 -0.20944250189E+00  0.99885750640E-01  0.24360418301E+01  0.24470682709E+01  0.00000000000E+00 0.  1.
</event>
<event>
 5    1  0.7220939E+001  0.1599675E+01  0.7818608E-02  0.3353716E+00
         11   -1    0    0    0    0  0.00000000000E+00  0.00000000000E+00  0.39999999674E+01  0.40000000000E+01  0.51100000000E-03 0. -1.
    9000002   -1    0    0    0    0 -0.00000000000E+00 -0.00000000000E+00  0.00000000000E+00  0.93800000000E+00  0.93800000000E+00 0. -1.
         11    1    1    2    0    0  0.14895257139E+00  0.40725074807E-01  0.10052642636E+01  0.10170555054E+01  0.51100000000E-03 0.  1.
    9000002    1    1    2    0    0 -0.56227747933E+00 -0.15484577669E+00  0.23647856249E+00  0.11295571207E+01  0.93800000000E+00 0. -1.
         22    1    1    2    0    0  0.41332490794E+00  0.11412070188E+00  0.27582571413E+01  0.27913873739E+01  0.00000000000E+00 0. -1.
</event>
<event>
 5    1  0.7220939E+001  0.1599676E+01  0.7818608E-02  0.3353715E+00
         11   -1    0    0    0    0  0.00000000000E+00  0.00000000000E+00  0.39999999674E+01  0.40000000000E+01  0.51100000000E-03 0. -1.
    9000002   -1    0    0    0    0 -0.00000000000E+00 -0.00000000000E+00  0.00000000000E+00  0.93800000000E+00  0.93800000000E+00 0. -1.
         11    1    1    2    0    0  0.13313874963E+00  0.20702492911E-01  0.13773416148E+01  0.13839164371E+01  0.51100000000E-03 0. -1.
    9000002    1    1    2    0    0 -0.37953994702E+00 -0.56792416165E-01  0.99139339816E-01  0.10183067115E+01  0.93800000000E+00 0. -1.
         22    1    1    2    0    0  0.24640119740E+00  0.36089923254E-01  0.25235190127E+01  0.25357768514E+01  0.00000000000E+00 0. -1.
</event>
<event>
 5    1  0.7220939E+001  0.1599672E+01  0.7818608E-02  0.3353719E+00
         11   -1    0    0    0    0  0.00000000000E+00  0.00000000000E+00  0.39999999674E+01  0.40000000000E+01  0.51100000000E-03 0.  1.
    9000002   -1    0    0    0    0 -0.00000000000E+00 -0.00000000000E+00  0.00000000000E+00  0.93800000000E+00  0.93800000000E+00 0. -1.
         11    1    1    2    0    0  0.59136319263E-01 -0.11578448147E-01  0.63056274779E+00  0.63343571476E+00  0.51100000000E-03 0.  1.
    9000002    1    1    2    0    0 -0.35491802490E+00  0.71131400549E-01  0.87976918211E-01  0.10092623141E+01  0.93800000000E+00 0. -1.
         22    1    1    2    0    0  0.29578170563E+00 -0.59552952402E-01  0.32814603014E+01  0.32953019711E+01  0.00000000000E+00 0.  1.
</event>
<event>
 5    1  0.7220939E+001  0.1599675E+01  0.7818608E-02  0.3353716E+00
         11   -1    0    0    0    0  0.00000000000E+00  0.00000000000E+00  0.39999999674E+01  0.40000000000E+01  0.51100000000E-03 0. -1.
    9000002   -1    0    0    0    0 -0.00000000000E+00 -0.00000000000E+00  0.00000000000E+00  0.93800000000E+00  0.93800000000E+00 0. -1.
         11    1    1    2    0    0 -0.18336319138E+00 -0.16561205965E-01  0.14073674518E+01  0.14193589183E+01  0.51100000000E-03 0. -1.
    9000002    1    1    2    0    0  0.50294105435E+00  0.44722496782E-01  0.17467458154E+00  0.10794929436E+01  0.93800000000E+00 0. -1.
         22    1    1    2    0    0 -0.31957786297E+00 -0.28161290816E-01  0.24179579340E+01  0.24391481381E+01  0.00000000000E+00 0. -1.
</event>
<event>
 5    1  0.7220939E+001  0.1564077E+01  0.7818608E-02  0.3393301E+00
         11   -1    0    0    0    0  0.00000000000E+00  0.00000000000E+00  0.39999999674E+01  0.40000000000E+01  0.51100000000E-03 0. -1.
    9000002   -1    0    0    0    0 -0.00000000000E+00 -0.00000000000E+00  0.00000000000E+00  0.93800000000E+00  0.93800000000E+00 0. -1.
         11    1    1    2    0    0  0.34591344018E-01  0.12194053461E+00  0.46928984766E+00  0.48610624076E+00  0.51100000000E-03 0. -1.
    9000002    1    1    2    0    0 -0.53313206136E-01  0.19244536772E+00  0.53566155550E-01  0.96051592935E+00  0.93800000000E+00 0. -1.
         22    1    1    2    0    0  0.18721862118E-01 -0.31438590233E+00  0.34771439641E+01  0.34913778299E+01  0.00000000000E+00 0. -1.
</event>
<event>
 5    1  0.7220939E+001  0.1599364E+01  0.7818608E-02  0.3354053E+00
         11   -1    0    0    0    0  0.00000000000E+00  0.00000000000E+00  0.39999999674E+01  0.40000000000E+01  0.51100000000E-03 0.  1.
    9000002   -1    0    0    0    0 -0.00000000000E+00 -0.00000000000E+00  0.00000000000E+00  0.93800000000E+00  0.93800000000E+00 0.  1.
         11    1    1    2    0    0 -0.14317489852E-04  0.66284014845E-01  0.45475207403E+00  0.45955770125E+00  0.51100000000E-03 0.  1.
    9000002    1    1    2    0    0 -0.38176190494E-01 -0.45185416430E+00  0.14000277654E+00  0.10512251827E+01  0.93800000000E+00 0.  1.
         22    1    1    2    0    0  0.38190507983E-01  0.38557014945E+00  0.34052451168E+01  0.34272171160E+01  0.00000000000E+00 0.  1.
</event>
<event>
 5    1  0.7220939E+001  0.1599676E+01  0.7818608E-02  0.3353715E+00
         11   -1    0    0    0    0  0.00000000000E+00  0.00000000000E+00  0.39999999674E+01  0.40000000000E+01  0.51100000000E-03 0. -1.
    9000002   -1    0    0    0    0 -0.00000000000E+00 -0.00000000000E+00  0.00000000000E+00  0.93800000000E+00  0.93800000000E+00 0.  1.
         11    1    1    2    0    0 -0.45234322291E-01 -0.74854197745E-01  0.79332118429E+00  0.79812784527E+00  0.51100000000E-03 0. -1.
    9000002    1    1    2    0    0  0.22462134761E+00  0.36515423291E+00  0.12444916615E+00  0.10388089134E+01  0.93800000000E+00 0.  1.
         22    1    1    2    0    0 -0.17938702532E+00 -0.29030003516E+00  0.30822296169E+01  0.31010632413E+01  0.00000000000E+00 0. -1.
</event>
<event>
 5    1  0.7220939E+001  0.1564476E+01  0.7818608E-02  0.3392846E+00
         11   -1    0    0    0    0  0.00000000000E+00  0.00000000000E+00  0.39999999674E+01  0.40000000000E+01  0.51100000000E-03 0.  1.
    9000002   -1    0    0    0    0 -0.00000000000E+00 -0.00000000000E+00  0.00000000000E+00  0.93800000000E+00  0.93800000000E+00 0. -1.
         11    1    1    2    0    0  0.13619314862E-01  0.28610739135E+00  0.13691699383E+01  0.13988100322E+01  0.51100000000E-03 0.  1.
    9000002    1    1    2    0    0  0.45403138136E+00 -0.44757337804E+00  0.32346633299E+00  0.11793815721E+01  0.93800000000E+00 0. -1.
         22    1    1    2    0    0 -0.46765069622E+00  0.16146598669E+00  0.23073636961E+01  0.23598083957E+01  0.00000000000E+00 0.  1.
</event>
<event>
 5    1  0.7220939E+001  0.1599676E+01  0.7818608E-02  0.3353715E+00
         11   -1    0    0    0    0  0.00000000000E+00  0.00000000000E+00  0.39999999674E+01  0.40000000000E+01  0.51100000000E-03 0.  1.
    9000002   -1    0    0    0    0 -0.00000000000E+00 -0.00000000000E+00  0.00000000000E+00  0.93800000000E+00  0.93800000000E+00 0.  1.
         11    1    1    2    0    0 -0.93396193598E-01 -0.12313143586E+00  0.14068795104E+01  0.14153425088E+01  0.51100000000E-03 0.  1.
    9000002    1    1    2    0    0  0.25626077837E+00  0.34141614753E+00  0.12336305766E+00  0.10379291962E+01  0.93800000000E+00 0.  1.
         22    1    1    2    0    0 -0.16286458477E+00 -0.21828471167E+00  0.24697573993E+01  0.24847282950E+01  0.00000000000E+00 0.  1.
</event>
<event>
 5    1  0.7220939E+001  0.1599252E+01  0.7818608E-02  0.3354176E+00
         11   -1    0    0    0    0  0.00000000000E+00  0.00000000000E+00  0.39999999674E+01  0.40000000000E+01  0.51100000000E-03 0.  1.
    9000002   -1    0    0    0    0 -0.00000000000E+00 -0.00000000000E+00  0.00000000000E+00  0.93800000000E+00  0.93800000000E+00 0. -1.
         11    1    1    2    0    0 -0.90670221272E-02  0.49909544281E-01  0.63058100703E+00  0.63261824274E+00  0.51100000000E-03 0.  1.
    9000002    1    1    2    0    0  0.16207997463E+00 -0.34837742776E+00  0.99737323644E-01  0.10185422348E+01  0.93800000000E+00 0. -1.
         22    1    1    2    0    0 -0.15301295250E+00  0.29846788348E+00  0.32696816367E+01  0.32868395225E+01  0.00000000000E+00 0.  1.
</event>
<event>
 5    1  0.7220939E+001  0.1599510E+01  0.7818608E-02  0.3353895E+00
         11   -1    0    0    0    0  0.00000000000E+00  0.00000000000E+00  0.39999999674E+01  0.40000000000E+01  0.51100000000E-03 0. -1.
    9000002   -1    0    0    0    0 -0.00000000000E+00 -0.00000000000E+00  0.00000000000E+00  0.93800000000E+00  0.93800000000E+00 0. -1.
         11    1    1    2    0    0 -0.55495715784E-01  0.64005207218E-02  0.62223879273E+00  0.62474164055E+00  0.51100000000E-03 0. -1.
    9000002    1    1    2    0    0  0.35194810602E+00 -0.11154598503E+00  0.91732990663E-01  0.10122099178E+01  0.93800000000E+00 0. -1.
         22    1    1    2    0    0 -0.29645239023E+00  0.10514546431E+00  0.32860281840E+01  0.33010484417E+01  0.00000000000E+00 0. -1.
</event>
<event>
 5    1  0.7220939E+001  0.1556348E+01  0.7818608E-02  0.3402148E+00
         11   -1    0    0    0    0  0.00000000000E+00  0.00000000000E+00  0.39999999674E+01  0.40000000000E+01  0.51100000000E-03 0. -1.
    9000002   -1    0    0    0    0 -0.00000000000E+00 -0.00000000000E+00  0.00000000000E+00  0.93800000000E+00  0.93800000000E+00 0. -1.
         11    1    1    2    0    0  0.10066347572E+00  0.28551123703E+00  0.96499804541E+00  0.10113709955E+01  0.51100000000E-03 0. -1.
    9000002    1    1    2    0    0 -0.43500874023E+00 -0.25670684417E+00  0.21512629811E+00  0.10868552489E+01  0.93800000000E+00 0. -1.
         22    1    1    2    0    0  0.33434526450E+00 -0.28804392863E-01  0.28198756238E+01  0.28397737556E+01  0.00000000000E+00 0. -1.
</event>
<event>
 5    1  0.7220939E+001  0.1595555E+01  0.7818608E-02  0.3358202E+00
         11   -1    0    0    0    0  0.00000000000E+00  0.00000000000E+00  0.39999999674E+01  0.40000000000E+01  0.51100000000E-03 0.  1.
    9000002   -1    0    0    0    0 -0.00000000000E+00 -0.00000000000E+00  0.00000000000E+00  0.93800000000E+00  0.93800000000E+00 0.  1.
         11    1    1    2    0    0  0.13453322986E+00  0.57456024092E-01  0.10226337072E+01  0.10330442125E+01  0.51100000000E-03 0.  1.
    9000002    1    1    2    0    0 -0.27971375660E+00 -0.33595225709E+00  0.13308609397E+00  0.10433885245E+01  0.93800000000E+00 0.  1.
         22    1    1    2    0    0  0.14518052674E+00  0.27849623300E+00  0.28442801662E+01  0.28615672630E+01  0.00000000000E+00 0.  1.
</event>
<event>
 5    1  0.7220939E+001  0.1451135E+01  0.7818608E-02  0.3532685E+00
         11   -1    0    0    0    0  0.00000000000E+00  0.00000000000E+00  0.39999999674E+01  0.40000000000E+01  0.51100000000E-03 0.  1.
    9000002   -1    0    0    0    0 -0.00000000000E+00 -0.00000000000E+00  0.00000000000E+00  0.93800000000E+00  0.93800000000E+00 0.  1.
         11    1    1    2    0    0 -0.14312637882E+00 -0.52484717090E+00  0.12176691790E+01  0.13336672012E+01  0.51100000000E-03 0.  1.
    9000002    1    1    2    0    0  0.23984051260E+00  0.27903604350E+00  0.22372149470E+00  0.10321239714E+01  0.93800000000E+00 0.  1.
         22    1    1    2    0    0 -0.96714133778E-01  0.24581112740E+00  0.25586092937E+01  0.25722088274E+01  0.00000000000E+00 0.  1.
</event>
<event>
 5    1  0.7220939E+001  0.1599563E+01  0.7818608E-02  0.3353837E+00
         11   -1    0    0    0    0  0.00000000000E+00  0.00000000000E+00  0.39999999674E+01  0.40000000000E+01  0.51100000000E-03 0.  1.
    9000002   -1    0    0    0    0 -0.00000000000E+00 -0.00000000000E+00  0.00000000000E+00  0.93800000000E+00  0.93800000000E+00 0. -1.
         11    1    1    2    0    0 -0.61099932366E-01  0.85888545557E-01  0.10372608224E+01  0.10426026658E+01  0.51100000000E-03 0.  1.
    9000002    1    1    2    0    0  0.18950427005E+00 -0.33698144788E+00  0.10074319683E+00  0.10195398748E+01  0.93800000000E+00 0. -1.
         22    1    1    2    0    0 -0.12840433768E+00  0.25109290232E+00  0.28619959482E+01  0.28758574594E+01  0.00000000000E+00 0.  1.
</event>
<event>
 5    1  0.1143585E+002  0.1598721E+01  0.7818608E-02  0.3354753E+00
         11   -1    0    0    0    0  0.00000000000E+00  0.00000000000E+00  0.39999999674E+01  0.40000000000E+01  0.51100000000E-03 0.  1.
    9000002   -1    0    0    0    0 -0.00000000000E+00 -0.00000000000E+00  0.00000000000E+00  0.93800000000E+00  0.93800000000E+00 0.  1.
         11    1    1    2    0    0 -0.18126890817E-01 -0.91261653930E-01  0.13937621240E+01  0.13968644862E+01  0.51100000000E-03 0.  1.
    9000002    1    1    2    0    0 -0.22815745432E-01  0.32530626420E+00  0.71884203825E-01  0.99566865097E+00  0.93800000000E+00 0.  1.
         22    1    1    2    0    0  0.40942636250E-01 -0.23404461027E+00  0.25343536396E+01  0.25454668628E+01  0.00000000000E+00 0.  1.
</event>
<event>
 5    1  0.7220939E+001  0.1599652E+01  0.7818608E-02  0.3353741E+00
         11   -1    0    0    0    0  0.00000000000E+00  0.00000000000E+00  0.39999999674E+01  0.40000000000E+01  0.51100000000E-03 0.  1.
    9000002   -1    0    0    0    0 -0.00000000000E+00 -0.00000000000E+00  0.00000000000E+00  0.93800000000E+00  0.93800000000E+00 0.  1.
         11    1    1    2    0    0  0.36129573459E-01  0.73796316048E-01  0.85799034300E+00  0.86191584980E+00  0.51100000000E-03 0.  1.
    9000002    1    1    2    0    0 -0.17118838124E+00 -0.31500679457E+00  0.86285890505E-01  0.10078809441E+01  0.93800000000E+00 0.  1.
         22    1    1    2    0    0  0.13505880779E+00  0.24121047852E+00  0.30557237339E+01  0.30682032061E+01  0.00000000000E+00 0.  1.
</event>
<event>
 5    1  0.7220939E+001  0.1569412E+01  0.7818608E-02  0.3387247E+00
         11   -1    0    0    0    0  0.00000000000E+00  0.00000000000E+00  0.39999999674E+01  0.40000000000E+01  0.51100000000E-03 0.  1.
    9000002   -1    0    0    0    0 -0.00000000000E+00 -0.00000000000E+00  0.00000000000E+00  0.93800000000E+00  0.93800000000E+00 0.  1.
         11    1    1    2    0    0  0.39688763711E+00 -0.45647373064E-01  0.10977542419E+01  0.11681901026E+01  0.51100000000E-03 0.  1.
    9000002    1    1    2    0    0 -0.66637179300E+00  0.28267132983E+00  0.41286750462E+00  0.12546943945E+01  0.93800000000E+00 0.  1.
         22    1    1    2    0    0  0.26948415589E+00 -0.23702395677E+00  0.24893782209E+01  0.25151155029E+01  0.00000000000E+00 0.  1.
</event>
<event>
 5    1  0.7220939E+001  0.1543257E+01  0.7818608E-02  0.3417350E+00
         11   -1    0    0    0    0  0.00000000000E+00  0.00000000000E+00  0.39999999674E+01  0.40000000000E+01  0.51100000000E-03 0. -1.
    9000002   -1    0    0    0    0 -0.00000000000E+00 -0.00000000000E+00  0.00000000000E+00  0.93800000000E+00  0.93800000000E+00 0. -1.
         11    1    1    2    0    0 -0.25933624551E+00 -0.19846473688E-01  0.14480500712E+01  0.14712234503E+01  0.51100000000E-03 0. -1.
    9000002    1    1    2    0    0 -0.33471772563E-01  0.18248393224E+00  0.66090243768E-01  0.95845326720E+00  0.93800000000E+00 0. -1.
         22    1    1    2    0    0  0.29280801808E+00 -0.16263745855E+00  0.24858596524E+01  0.25083232825E+01  0.00000000000E+00 0. -1.
</event>
<event>
 5    1  0.7220939E+001  0.1559484E+01  0.7818608E-02  0.3398547E+00
         11   -1    0    0    0    0  0.00000000000E+00  0.00000000000E+00  0.39999999674E+01  0.40000000000E+01  0.51100000000E-03 0.  1.
    9000002   -1    0    0    0    0 -0.00000000000E+00 -0.00000000000E+00  0.00000000000E+00  0.93800000000E+00  0.93800000000E+00 0. -1.
         11    1    1    2    0    0 -0.11423959035E+00 -0.90636475988E-01  0.34887610203E+00  0.37812755846E+00  0.51100000000E-03 0.  1.
    9000002    1    1    2    0    0 -0.17304707872E+00  0.40050452927E+00  0.16421525138E+00  0.10474539695E+01  0.93800000000E+00 0. -1.
         22    1    1    2    0    0  0.28728666907E+00 -0.30986805328E+00  0.34869086140E+01  0.35124184720E+01  0.00000000000E+00 0.  1.
</event>
<event>
 5    1  0.7220939E+001  0.1599657E+01  0.7818608E-02  0.3353736E+00
         11   -1    0    0    0    0  0.00000000000E+00  0.00000000000E+00  0.39999999674E+01  0.40000000000E+01  0.51100000000E-03 0.  1.
    9000002   -1    0    0    0    0 -0.00000000000E+00 -0.00000000000E+00  0.00000000000E+00  0.93800000000E+00  0.93800000000E+00 0.  1.
         11    1    1    2    0    0 -0.94917062854E-02  0.64393721754E-01  0.68535342546E+00  0.68843752280E+00  0.51100000000E-03 0.  1.
    9000002    1    1    2    0    0  0.36485657983E-01 -0.38191317881E+00  0.99095169681E-01  0.10182596585E+01  0.93800000000E+00 0.  1.
         22    1    1    2    0    0 -0.26993951698E-01  0.31751945705E+00  0.32155513722E+01  0.32313028187E+01  0.00000000000E+00 0.  1.
</event>
<event>
 5    1  0.7220939E+001  0.1598388E+01  0.7818608E-02  0.3355115E+00
         11   -1    0    0    0    0  0.00000000000E+00  0.00000000000E+00  0.39999999674E+01  0.40000000000E+01  0.51100000000E-03 0. -1.
    9000002   -1    0    0    0    0 -0.00000000000E+00 -0.00000000000E+00  0.00000000000E+00  0.93800000000E+00  0.93800000000E+00 0.  1.
         11    1    1    2    0    0 -0.18289134787E-01 -0.79457161370E-01  0.66054073631E+00  0.66555409877E+00  0.51100000000E-03 0. -1.
    9000002    1    1    2    0    0  0.23436598431E+00  0.32473085823E+00  0.10925813749E+00  0.10257479639E+01  0.93800000000E+00 0.  1.
         22    1    1    2    0    0 -0.21607684952E+00 -0.24527369686E+00  0.32302010936E+01  0.32466979373E+01  0.00000000000E+00 0. -1.
</event>
<event>
 5    1  0.7220939E+001  0.1599662E+01  0.7818608E-02  0.3353730E+00
         11   -1    0    0    0    0  0.00000000000E+00  0.00000000000E+00  0.39999999674E+01  0.40000000000E+01  0.51100000000E-03 0. -1.
    9000002   -1    0    0    0    0 -0.00000000000E+00 -0.00000000000E+00  0.00000000000E+00  0.93800000000E+00  0.93800000000E+00 0.  1.
         11    1    1    2    0    0  0.25230455258E-01 -0.66416880982E-01  0.58828463366E+00  0.59255957445E+00  0.51100000000E-03 0. -1.
    9000002    1    1    2    0    0 -0.18568752651E+00  0.44011577025E+00  0.15564832206E+00  0.10640733757E+01  0.93800000000E+00 0.  1.
         22    1    1    2    0    0  0.16045707125E+00 -0.37369888927E+00  0.32560670116E+01  0.32813670498E+01  0.00000000000E+00 0. -1.
</event>
<event>
 5    1  0.7220939E+001  0.1597827E+01  0.7818608E-02  0.3355726E+00
         11   -1    0    0    0    0  0.00000000000E+00  0.00000000000E+00  0.39999999674E+01  0.40000000000E+01  0.51100000000E-03 0. -1.
    9000002   -1    0    0    0    0 -0.00000000000E+00 -0.00000000000E+00  0.00000000000E+00  0.93800000000E+00  0.93800000000E+00 0.  1.
         11    1    1    2    0    0 -0.11718862395E+00 -0.83611711043E-01  0.97858220026E+00  0.98911449064E+00  0.51100000000E-03 0. -1.
    9000002    1    1    2    0    0  0.61190674502E+00  0.31172776457E+00  0.33790160007E+00  0.12106302306E+01  0.93800000000E+00 0.  1.
         22    1    1    2    0    0 -0.49471812107E+00 -0.22811605353E+00  0.26835161670E+01  0.27382552788E+01  0.00000000000E+00 0. -1.
</event>
<event>
 5    1  0.7220939E+001  0.1599676E+01  0.7818608E-02  0.3353715E+00
         11   -1    0    0    0    0  0.00000000000E+00  0.00000000000E+00  0.39999999674E+01  0.40000000000E+01  0.51100000000E-03 0. -1.
    9000002   -1    0    0    0    0 -0.00000000000E+00 -0.00000000000E+00  0.00000000000E+00  0.93800000000E+00  0.93800000000E+00 0. -1.
         11    1    1    2    0    0  0.45472129049E-02  0.49652399463E-01  0.44598524977E+00  0.44876401599E+00  0.51100000000E-03 0. -1.
    9000002    1    1    2    0    0 -0.37420986157E-01 -0.42745054974E+00  0.12467369204E+00  0.10389907758E+01  0.93800000000E+00 0. -1.
         22    1    1    2    0    0  0.32873773252E-01  0.37779815028E+00  0.34293410256E+01  0.34502452082E+01  0.00000000000E+00 0. -1.
</event>
<event>
 5    1  0.7220939E+001  0.1597823E+01  0.7818608E-02  0.3355730E+00
         11   -1    0    0    0    0  0.00000000000E+00  0.00000000000E+00  0.39999999674E+01  0.40000000000E+01  0.51100000000E-03 0.  1.
    9000002   -1    0    0    0    0 -0.00000000000E+00 -0.00000000000E+00  0.00000000000E+00  0.93800000000E+00  0.93800000000E+00 0. -1.
         11    1    1    2    0    0 -0.13695869710E-01 -0.62463430207E-01  0.58166671594E+00  0.58517150179E+00  0.51100000000E-03 0.  1.
    9000002    1    1    2    0    0 -0.14505533852E+00  0.34717585424E+00  0.96732226387E-01  0.10152700373E+01  0.93800000000E+00 0. -1.
         22    1    1    2    0    0  0.15875120823E+00 -0.28471242403E+00  0.33216010250E+01  0.33375584609E+01  0.00000000000E+00 0.  1.
</event>
<event>
 5    1  0.7220939E+001  0.1599642E+01  0.7818608E-02  0.3353752E+00
         11   -1    0    0    0    0  0.00000000000E+00  0.00000000000E+00  0.39999999674E+01  0.40000000000E+01  0.51100000000E-03 0.  1.
    9000002   -1    0    0    0    0 -0.00000000000E+00 -0.00000000000E+00  0.00000000000E+00  0.93800000000E+00  0.93800000000E+00 0. -1.
         11    1    1    2    0    0 -0.17323032075E-01  0.17801142892E-01  0.11762497560E+00  0.12022006544E+00  0.51100000000E-03 0.  1.
    9000002    1    1    2    0    0  0.47033566083E+00 -0.59216227624E+00  0.41539549300E+00  0.12744682071E+01  0.93800000000E+00 0. -1.
         22    1    1    2    0    0 -0.45301262875E+00  0.57436113335E+00  0.34669794988E+01  0.35433117275E+01  0.00000000000E+00 0.  1.
</event>
<event>
 5    1  0.7220939E+001  0.1599566E+01  0.7818608E-02  0.3353835E+00
         11   -1    0    0    0    0  0.00000000000E+00  0.00000000000E+00  0.39999999674E+01  0.40000000000E+01  0.51100000000E-03 0. -1.
    9000002   -1    0    0    0    0 -0.00000000000E+00 -0.00000000000E+00  0.00000000000E+00  0.93800000000E+00  0.93800000000E+00 0. -1.
         11    1    1    2    0    0 -0.46753299802E-01 -0.38506621163E-01  0.58559580668E+00  0.58872008700E+00  0.51100000000E-03 0. -1.
    9000002    1    1    2    0    0  0.30058158040E+00  0.31410508056E+00  0.12818570218E+00  0.10417710220E+01  0.93800000000E+00 0. -1.
         22    1    1    2    0    0 -0.25382828059E+00 -0.27559845939E+00  0.32862184585E+01  0.33075088910E+01  0.00000000000E+00 0. -1.
</event>
<event>
 5    1  0.7220939E+001  0.1573544E+01  0.7818608E-02  0.3382588E+00
         11   -1    0    0    0    0  0.00000000000E+00  0.00000000000E+00  0.39999999674E+01  0.40000000000E+01  0.51100000000E-03 0. -1.
    9000002   -1    0    0    0    0 -0.00000000000E+00 -0.00000000000E+00  0.00000000000E+00  0.93800000000E+00  0.93800000000E+00 0. -1.
         11    1    1    2    0    0 -0.32079648277E-01 -0.21726841300E+00  0.84196018421E+00  0.87013325419E+00  0.51100000000E-03 0. -1.
    9000002    1    1    2    0    0  0.56019303036E+00  0.36844269327E+00  0.34761789235E+00  0.12042626161E+01  0.93800000000E+00 0. -1.
         22    1    1    2    0    0 -0.52811338209E+00 -0.15117428027E+00  0.28104218908E+01  0.28636041297E+01  0.00000000000E+00 0. -1.
</event>
<event>
 5    1  0.7220939E+001  0.1599325E+01  0.7818608E-02  0.3354097E+00
         11   -1    0    0    0    0  0.00000000000E+00  0.00000000000E+00  0.39999999674E+01  0.40000000000E+01  0.51100000000E-03 0.  1.
    9000002   -1    0    0    0    0 -0.00000000000E+00 -0.00000000000E+00  0.00000000000E+00  0.93800000000E+00  0.93800000000E+00 0. -1.
         11    1    1    2    0    0 -0.14923530526E+00  0.36326098118E-01  0.73279474923E+00  0.74871834982E+00  0.51100000000E-03 0.  1.
    9000002    1    1    2    0    0  0.66024415183E+00 -0.15400183483E+00  0.32698289399E+00  0.12026640088E+01  0.93800000000E+00 0.  1.
         22    1    1    2    0    0 -0.51100884657E+00  0.11767573671E+00  0.29402223241E+01  0.29866176414E+01  0.00000000000E+00 0. -1.
</event>
<event>
 5    1  0.7220939E+001  0.1599676E+01  0.7818608E-02  0.3353715E+00
         11   -1    0    0    0    0  0.00000000000E+00  0.00000000000E+00  0.39999999674E+01  0.40000000000E+01  0.51100000000E-03 0.  1.
    9000002   -1    0    0    0    0 -0.00000000000E+00 -0.00000000000E+00  0.00000000000E+00  0.93800000000E+00  0.93800000000E+00 0.  1.
         11    1    1    2    0    0 -0.30325671873E+00 -0.93138209569E-01  0.12636269947E+01  0.13028402843E+01  0.51100000000E-03 0.  1.
    9000002    1    1    2    0    0  0.82675867952E+00  0.25585128309E+00  0.56513420798E+00  0.13957831014E+01  0.93800000000E+00 0.  1.
         22    1    1    2    0    0 -0.52350196080E+00 -0.16271307352E+00  0.21712387647E+01  0.22393766143E+01  0.00000000000E+00 0.  1.
</event>
<event>
 5    1  0.7220939E+001  0.1599546E+01  0.7818608E-02  0.3353856E+00
         11   -1    0    0    0    0  0.00000000000E+00  0.00000000000E+00  0.39999999674E+01  0.40000000000E+01  0.51100000000E-03 0.  1.
    9000002   -1    0    0    0    0 -0.00000000000E+00 -0.00000000000E+00  0.00000000000E+00  0.93800000000E+00  0.93800000000E+00 0. -1.
         11    1    1    2    0    0 -0.11390595069E+00  0.31775220872E+00  0.11615837183E+01  0.12096354936E+01  0.51100000000E-03 0.  1.
    9000002    1    1    2    0    0  0.32054617984E+00 -0.87232991208E+00  0.67011327804E+00  0.14807447904E+01  0.93800000000E+00 0. -1.
         22    1    1    2    0    0 -0.20664022915E+00  0.55457770336E+00  0.21683029710E+01  0.22476197159E+01  0.00000000000E+00 0.  1.
</event>
<event>
 5    1  0.7220939E+001  0.1603467E+01  0.7818608E-02  0.3349609E+00
         11   -1    0    0    0    0  0.00000000000E+00  0.00000000000E+00  0.39999999674E+01  0.40000000000E+01  0.51100000000E-03 0.  1.
    9000002   -1    0    0    0    0 -0.00000000000E+00 -0.00000000000E+00  0.00000000000E+00  0.93800000000E+00  0.93800000000E+00 0.  1.
         11    1    1    2    0    0 -0.64160138092E-01 -0.19746616896E-01 -0.11730256546E+00  0.13515400543E+00  0.51100000000E-03 0.  1.
    9000002    1    1    2    0    0 -0.30191934586E+00  0.52217285027E+00  0.67222918758E+00  0.13021351150E+01  0.93800000000E+00 0.  1.
         22    1    1    2    0    0  0.36607948395E+00 -0.50242623337E+00  0.34450733452E+01  0.35007108796E+01  0.00000000000E+00 0.  1.
</event>
<event>
 5    1  0.7220939E+001  0.1593694E+01  0.7818608E-02  0.3360237E+00
         11   -1    0    0    0    0  0.00000000000E+00  0.00000000000E+00  0.39999999674E+01  0.40000000000E+01  0.51100000000E-03 0.  1.
    9000002   -1    0    0    0    0 -0.00000000000E+00 -0.00000000000E+00  0.00000000000E+00  0.93800000000E+00  0.93800000000E+00 0.  1.
         11    1    1    2    0    0 -0.32939474825E-01  0.70989448806E-01  0.97913763331E+00  0.98226028980E+00  0.51100000000E-03 0.  1.
    9000002    1    1    2    0    0  0.44550215122E+00 -0.25738512567E+00  0.18714556760E+00  0.10860878110E+01  0.93800000000E+00 0.  1.
         22    1    1    2    0    0 -0.41256267639E+00  0.18639567686E+00  0.28337167665E+01  0.28696518992E+01  0.00000000000E+00 0.  1.
</event>
<event>
 5    1  0.7220939E+001  0.1599579E+01  0.7818608E-02  0.3353820E+00
         11   -1    0    0    0    0  0.00000000000E+00  0.00000000000E+00  0.39999999674E+01  0.40000000000E+01  0.51100000000E-03 0. -1.
    9000002   -1    0    0    0    0 -0.00000000000E+00 -0.00000000000E+00  0.00000000000E+00  0.93800000000E+00  0.93800000000E+00 0. -1.
         11    1    1    2    0    0  0.93916691790E-01 -0.13027684258E+00  0.10478390057E+01  0.10600751123E+01  0.51100000000E-03 0. -1.
    9000002    1    1    2    0    0 -0.32901924492E+00  0.50371920867E+00  0.25274451543E+00  0.11426768987E+01  0.93800000000E+00 0. -1.
         22    1    1    2    0    0  0.23510255313E+00 -0.37344236609E+00  0.26994164463E+01  0.27352479891E+01  0.00000000000E+00 0. -1.
</event>
<event>
 5    1  0.7220939E+001  0.1599663E+01  0.7818608E-02  0.3353729E+00
         11   -1    0    0    0    0  0.00000000000E+00  0.00000000000E+00  0.39999999674E+01  0.40000000000E+01  0.51100000000E-03 0.  1.
    9000002   -1    0    0    0    0 -0.00000000000E+00 -0.00000000000E+00  0.00000000000E+00  0.93800000000E+00  0.93800000000E+00 0. -1.
         11    1    1    2    0    0 -0.11266326677E+00 -0.52385627377E-01  0.31838378504E+00  0.34176857862E+00  0.51100000000E-03 0.  1.
    9000002    1    1    2    0    0  0.10352488255E+01  0.45744558052E+00  0.11338622775E+01  0.18564709139E+01  0.93800000000E+00 0. -1.
         22    1    1    2    0    0 -0.92258555873E+00 -0.40505995315E+00  0.25477539048E+01  0.27397605075E+01  0.00000000000E+00 0.  1.
</event>
<event>
 5    1  0.7220939E+001  0.1596695E+01  0.7818608E-02  0.3356959E+00
         11   -1    0    0    0    0  0.00000000000E+00  0.00000000000E+00  0.39999999674E+01  0.40000000000E+01  0.51100000000E-03 0.  1.
    9000002   -1    0    0    0    0 -0.00000000000E+00 -0.00000000000E+00  0.00000000000E+00  0.93800000000E+00  0.93800000000E+00 0. -1.
         11    1    1    2    0    0  0.47319224770E-01  0.95200204484E-01  0.52732030411E+00  0.53793043436E+00  0.51100000000E-03 0.  1.
    9000002    1    1    2    0    0 -0.97264720551E-01 -0.47100738780E+00  0.16049653440E+00  0.10662605323E+01  0.93800000000E+00 0. -1.
         22    1    1    2    0    0  0.49945495781E-01  0.37580718332E+00  0.33121831289E+01  0.33338090333E+01  0.00000000000E+00 0.  1.
</event>
<event>
 5    1  0.7220939E+001  0.1494226E+01  0.7818608E-02  0.3476826E+00
         11   -1    0    0    0    0  0.00000000000E+00  0.00000000000E+00  0.39999999674E+01  0.40000000000E+01  0.51100000000E-03 0.  1.
    9000002   -1    0    0    0    0 -0.00000000000E+00 -0.00000000000E+00  0.00000000000E+00  0.93800000000E+00  0.93800000000E+00 0.  1.
         11    1    1    2    0    0  0.12055723778E+00  0.24752045128E+00  0.72094042148E+00  0.77172260160E+00  0.51100000000E-03 0.  1.
    9000002    1    1    2    0    0 -0.10602066939E-01  0.18435376553E+00  0.10575801779E+00  0.96183547087E+00  0.93800000000E+00 0.  1.
         22    1    1    2    0    0 -0.10995517084E+00 -0.43187421681E+00  0.31733015281E+01  0.32044419275E+01  0.00000000000E+00 0.  1.
</event>
<event>
 5    1  0.7220939E+001  0.1599520E+01  0.7818608E-02  0.3353884E+00
         11   -1    0    0    0    0  0.00000000000E+00  0.00000000000E+00  0.39999999674E+01  0.40000000000E+01  0.51100000000E-03 0.  1.
    9000002   -1    0    0    0    0 -0.00000000000E+00 -0.00000000000E+00  0.00000000000E+00  0.93800000000E+00  0.93800000000E+00 0. -1.
         11    1    1    2    0    0 -0.55992250791E-01 -0.13730768313E-01  0.58767708233E+00  0.59049833223E+00  0.51100000000E-03 0.  1.
    9000002    1    1    2    0    0  0.38005795284E+00  0.20157139414E-01  0.97596784838E-01  0.10169658255E+01  0.93800000000E+00 0. -1.
         22    1    1    2    0    0 -0.32406570205E+00 -0.64263711009E-02  0.33147261002E+01  0.33305358423E+01  0.00000000000E+00 0.  1.
</event>
<event>
 5    1  0.7220939E+001  0.1599478E+01  0.7818608E-02  0.3353931E+00
         11   -1    0    0    0    0  0.00000000000E+00  0.00000000000E+00  0.39999999674E+01  0.40000000000E+01  0.51100000000E-03 0. -1.
    9000002   -1    0    0    0    0 -0.00000000000E+00 -0.00000000000E+00  0.00000000000E+00  0.93800000000E+00  0.93800000000E+00 0. -1.
         11    1    1    2    0    0 -0.20969628111E+00  0.96148560205E-01  0.13298626663E+01  0.13497229524E+01  0.51100000000E-03 0. -1.
    9000002    1    1    2    0    0  0.54880591208E+00 -0.25068363948E+00  0.25436489127E+00  0.11439299428E+01  0.93800000000E+00 0. -1.
         22    1    1    2    0    0 -0.33910963096E+00  0.15453507928E+00  0.24157724098E+01  0.24443471047E+01  0.00000000000E+00 0. -1.
</event>
<event>
 5    1  0.7220939E+001  0.1598171E+01  0.7818608E-02  0.3355351E+00
         11   -1    0    0    0    0  0.00000000000E+00  0.00000000000E+00  0.39999999674E+01  0.40000000000E+01  0.51100000000E-03 0.  1.
    9000002   -1    0    0    0    0 -0.00000000000E+00 -0.00000000000E+00  0.00000000000E+00  0.93800000000E+00  0.93800000000E+00 0. -1.
         11    1    1    2    0    0 -0.24725150302E+00  0.38541926977E-01  0.12694455316E+01  0.12938744161E+01  0.51100000000E-03 0.  1.
    9000002    1    1    2    0    0  0.59684847195E+00 -0.12746506026E+00  0.26197105743E+00  0.11493251389E+01  0.93800000000E+00 0. -1.
         22    1    1    2    0    0 -0.34959696893E+00  0.88923133284E-01  0.24685833783E+01  0.24948004449E+01  0.00000000000E+00 0.  1.
</event>
<event>
 5    1  0.7220939E+001  0.1500150E+01  0.7818608E-02  0.3469419E+00
         11   -1    0    0    0    0  0.00000000000E+00  0.00000000000E+00  0.39999999674E+01  0.40000000000E+01  0.51100000000E-03 0.  1.
    9000002   -1    0    0    0    0 -0.00000000000E+00 -0.00000000000E+00  0.00000000000E+00  0.93800000000E+00  0.93800000000E+00 0. -1.
         11    1    1    2    0    0  0.84660009414E-01  0.15523409469E+00  0.23638688023E+00  0.29520155761E+00  0.51100000000E-03 0.  1.
    9000002    1    1    2    0    0 -0.36075028078E-01  0.25179102563E+00  0.12351640668E+00  0.97969404967E+00  0.93800000000E+00 0. -1.
         22    1    1    2    0    0 -0.48584981337E-01 -0.40702512032E+00  0.36400966804E+01  0.36631043927E+01  0.00000000000E+00 0.  1.
</event>
<event>
 5    1  0.7220939E+001  0.1599677E+01  0.7818608E-02  0.3353714E+00
         11   -1    0    0    0    0  0.00000000000E+00  0.00000000000E+00  0.39999999674E+01  0.40000000000E+01  0.51100000000E-03 0.  1.
    9000002   -1    0    0    0    0 -0.00000000000E+00 -0.00000000000E+00  0.00000000000E+00  0.93800000000E+00  0.93800000000E+00 0. -1.
         11    1    1    2    0    0  0.83585068158E-01 -0.75554140362E-02  0.64138847456E+00  0.64685623156E+00  0.51100000000E-03 0.  1.
    9000002    1    1    2    0    0 -0.49970038194E+00  0.46485347341E-01  0.17246736305E+00  0.10777060594E+01  0.93800000000E+00 0. -1.
         22    1    1    2    0    0  0.41611531378E+00 -0.38929933305E-01  0.31861441298E+01  0.32134377090E+01  0.00000000000E+00 0.  1.
</event>
<event>
 5    1  0.7220939E+001  0.1598317E+01  0.7818608E-02  0.3355192E+00
         11   -1    0    0    0    0  0.00000000000E+00  0.00000000000E+00  0.39999999674E+01  0.40000000000E+01  0.51100000000E-03 0. -1.
    9000002   -1    0    0    0    0 -0.00000000000E+00 -0.00000000000E+00  0.00000000000E+00  0.93800000000E+00  0.93800000000E+00 0.  1.
         11    1    1    2    0    0 -0.56271810634E-02  0.26959376148E+00  0.10808465282E+01  0.11139757359E+01  0.51100000000E-03 0. -1.
    9000002    1    1    2    0    0 -0.37712279880E-01 -0.76530159462E+00  0.42941646353E+00  0.12850491220E+01  0.93800000000E+00 0.  1.
         22    1    1    2    0    0  0.43339460943E-01  0.49570783315E+00  0.24897369756E+01  0.25389751421E+01  0.00000000000E+00 0. -1.
</event>
<event>
 5    1  0.7220939E+001  0.1598897E+01  0.7818608E-02  0.3354562E+00
         11   -1    0    0    0    0  0.00000000000E+00  0.00000000000E+00  0.39999999674E+01  0.40000000000E+01  0.51100000000E-03 0.  1.
    9000002   -1    0    0    0    0 -0.00000000000E+00 -0.00000000000E+00  0.00000000000E+00  0.93800000000E+00  0.93800000000E+00 0. -1.
         11    1    1    2    0    0 -0.12038794081E+00 -0.17058321494E-01  0.69391441507E+00  0.70448684813E+00  0.51100000000E-03 0.  1.
    9000002    1    1    2    0    0  0.51690929433E+00  0.99223898880E-01  0.19123905931E+00  0.10924545659E+01  0.93800000000E+00 0. -1.
         22    1    1    2    0    0 -0.39652135352E+00 -0.82165577386E-01  0.31148464930E+01  0.31410585860E+01  0.00000000000E+00 0.  1.
</event>
<event>
 5    1  0.7220939E+001  0.1599676E+01  0.7818608E-02  0.3353715E+00
         11   -1    0    0    0    0  0.00000000000E+00  0.00000000000E+00  0.39999999674E+01  0.40000000000E+01  0.51100000000E-03 0. -1.
    9000002   -1    0    0    0    0 -0.00000000000E+00 -0.00000000000E+00  0.00000000000E+00  0.93800000000E+00  0.93800000000E+00 0.  1.
         11    1    1    2    0    0 -0.93908975216E-01 -0.29240671659E-01  0.10452945451E+01  0.10499118342E+01  0.51100000000E-03 0. -1.
    9000002    1    1    2    0    0  0.35490513709E+00  0.10960417439E+00  0.92738228137E-01  0.10131214687E+01  0.93800000000E+00 0.  1.
         22    1    1    2    0    0 -0.26099616187E+00 -0.80363502731E-01  0.28619671941E+01  0.28749666971E+01  0.00000000000E+00 0. -1.
</event>
<event>
 5    1  0.7220939E+001  0.1560333E+01  0.7818608E-02  0.3397575E+00
         11   -1    0    0    0    0  0.00000000000E+00  0.00000000000E+00  0.39999999674E+01  0.40000000000E+01  0.51100000000E-03 0.  1.
    9000002   -1    0    0    0    0 -0.00000000000E+00 -0.00000000000E+00  0.00000000000E+00  0.93800000000E+00  0.93800000000E+00 0.  1.
         11    1    1    2    0    0  0.13972617650E+00  0.15306523419E+00  0.11991548480E+01  0.12169326115E+01  0.51100000000E-03 0.  1.
    9000002    1    1    2    0    0 -0.43446090014E-01  0.86499528126E-01  0.35451795763E-01  0.94364747704E+00  0.93800000000E+00 0.  1.
         22    1    1    2    0    0 -0.96280086488E-01 -0.23956476232E+00  0.27653933235E+01  0.27774199114E+01  0.00000000000E+00 0.  1.
</event>
<event>
 5    1  0.7220939E+001  0.1599364E+01  0.7818608E-02  0.3354053E+00
         11   -1    0    0    0    0  0.00000000000E+00  0.00000000000E+00  0.39999999674E+01  0.40000000000E+01  0.51100000000E-03 0. -1.
    9000002   -1    0    0    0    0 -0.00000000000E+00 -0.00000000000E+00  0.00000000000E+00  0.93800000000E+00  0.93800000000E+00 0. -1.
         11    1    1    2    0    0  0.85351000264E-01 -0.13975167343E+00  0.68388829601E+00  0.70322029693E+00  0.51100000000E-03 0. -1.
    9000002    1    1    2    0    0 -0.35262303957E+00  0.72203009270E+00  0.47659448444E+00  0.13238794376E+01  0.93800000000E+00 0. -1.
         22    1    1    2    0    0  0.26727203930E+00 -0.58227841927E+00  0.28395171869E+01  0.29109002654E+01  0.00000000000E+00 0. -1.
</event>
<event>
 5    1  0.7220939E+001  0.1599677E+01  0.7818608E-02  0.3353714E+00
         11   -1    0    0    0    0  0.00000000000E+00  0.00000000000E+00  0.39999999674E+01  0.40000000000E+01  0.51100000000E-03 0. -1.
    9000002   -1    0    0    0    0 -0.00000000000E+00 -0.00000000000E+00  0.00000000000E+00  0.93800000000E+00  0.93800000000E+00 0. -1.
         11    1    1    2    0    0  0.92674037771E-01 -0.10791013108E+00  0.10524907133E+01  0.10620593375E+01  0.51100000000E-03 0.  1.
    9000002    1    1    2    0    0 -0.33435084751E+00  0.39048746058E+00  0.18134416914E+00  0.10848966097E+01  0.93800000000E+00 0. -1.
         22    1    1    2    0    0  0.24167680974E+00 -0.28257732950E+00  0.27661650849E+01  0.27910440528E+01  0.00000000000E+00 0. -1.
</event>
<event>
 5    1  0.7220939E+001  0.1567453E+01  0.7818608E-02  0.3389464E+00
         11   -1    0    0    0    0  0.00000000000E+00  0.00000000000E+00  0.39999999674E+01  0.40000000000E+01  0.51100000000E-03 0. -1.
    9000002   -1    0    0    0    0 -0.00000000000E+00 -0.00000000000E+00  0.00000000000E+00  0.93800000000E+00  0.93800000000E+00 0. -1.
         11    1    1    2    0    0 -0.73415108540E-01 -0.10841585693E+00  0.57127716500E+00  0.58609012666E+00  0.51100000000E-03 0. -1.
    9000002    1    1    2    0    0 -0.25897997435E+00  0.25918730871E-01  0.70197961761E-01  0.97596831996E+00  0.93800000000E+00 0. -1.
         22    1    1    2    0    0  0.33239508289E+00  0.82497126061E-01  0.33585248406E+01  0.33759415534E+01  0.00000000000E+00 0. -1.
</event>
<event>
 5    1  0.7220939E+001  0.1599668E+01  0.7818608E-02  0.3353723E+00
         11   -1    0    0    0    0  0.00000000000E+00  0.00000000000E+00  0.39999999674E+01  0.40000000000E+01  0.51100000000E-03 0.  1.
    9000002   -1    0    0    0    0 -0.00000000000E+00 -0.00000000000E+00  0.00000000000E+00  0.93800000000E+00  0.93800000000E+00 0. -1.
         11    1    1    2    0    0  0.11078979766E+00  0.25905309196E-01  0.11706401394E+01  0.11761564783E+01  0.51100000000E-03 0.  1.
    9000002    1    1    2    0    0 -0.36102692004E+00 -0.80206035197E-01  0.91922233198E-01  0.10124559951E+01  0.93800000000E+00 0. -1.
         22    1    1    2    0    0  0.25023712238E+00  0.54300726001E-01  0.27374375948E+01  0.27493875266E+01  0.00000000000E+00 0.  1.
</event>
<event>
 5    1  0.7220939E+001  0.1560509E+01  0.7818608E-02  0.3397373E+00
         11   -1    0    0    0    0  0.00000000000E+00  0.00000000000E+00  0.39999999674E+01  0.40000000000E+01  0.51100000000E-03 0. -1.
    9000002   -1    0    0    0    0 -0.00000000000E+00 -0.00000000000E+00  0.00000000000E+00  0.93800000000E+00  0.93800000000E+00 0.  1.
         11    1    1    2    0    0 -0.13630312595E+00 -0.21342694004E-01  0.13782792362E+01  0.13851671259E+01  0.51100000000E-03 0. -1.
    9000002    1    1    2    0    0 -0.50800622614E-01  0.52379707858E+00  0.22753304938E+00  0.10993449738E+01  0.93800000000E+00 0.  1.
         22    1    1    2    0    0  0.18710374857E+00 -0.50245438457E+00  0.23941876818E+01  0.24534879003E+01  0.00000000000E+00 0. -1.
</event>
<event>
 5    1  0.7220939E+001  0.1599667E+01  0.7818608E-02  0.3353725E+00
         11   -1    0    0    0    0  0.00000000000E+00  0.00000000000E+00  0.39999999674E+01  0.40000000000E+01  0.51100000000E-03 0. -1.
    9000002   -1    0    0    0    0 -0.00000000000E+00 -0.00000000000E+00  0.00000000000E+00  0.93800000000E+00  0.93800000000E+00 0. -1.
         11    1    1    2    0    0  0.33786981406E-01 -0.49995872512E-01  0.58682539297E+00  0.58991986772E+00  0.51100000000E-03 0. -1.
    9000002    1    1    2    0    0 -0.23875673370E+00  0.32083854663E+00  0.10789176435E+00  0.10253910394E+01  0.93800000000E+00 0. -1.
         22    1    1    2    0    0  0.20496975230E+00 -0.27084267412E+00  0.33052828100E+01  0.33226890929E+01  0.00000000000E+00 0. -1.
</event>
<event>
 5    1  0.7220939E+001  0.1599659E+01  0.7818608E-02  0.3353734E+00
         11   -1    0    0    0    0  0.00000000000E+00  0.00000000000E+00  0.39999999674E+01  0.40000000000E+01  0.51100000000E-03 0.  1.
    9000002   -1    0    0    0    0 -0.00000000000E+00 -0.00000000000E+00  0.00000000000E+00  0.93800000000E+00  0.93800000000E+00 0.  1.
         11    1    1    2    0    0  0.44127307878E-01 -0.50072728492E-01  0.53906487641E+00  0.54318109276E+00  0.51100000000E-03 0.  1.
    9000002    1    1    2    0    0 -0.29111003743E+00  0.35262875771E+00  0.14218146732E+00  0.10531626960E+01  0.93800000000E+00 0.  1.
         22    1    1    2    0    0  0.24698272955E+00 -0.30255602922E+00  0.33187536236E+01  0.33416562112E+01  0.00000000000E+00 0.  1.
</event>
<event>
 5    1  0.7220939E+001  0.1599677E+01  0.7818608E-02  0.3353714E+00
         11   -1    0    0    0    0  0.00000000000E+00  0.00000000000E+00  0.39999999674E+01  0.40000000000E+01  0.51100000000E-03 0. -1.
    9000002   -1    0    0    0    0 -0.00000000000E+00 -0.00000000000E+00  0.00000000000E+00  0.93800000000E+00  0.93800000000E+00 0. -1.
         11    1    1    2    0    0 -0.18187158266E+00 -0.22360290246E-01  0.11726394804E+01  0.11868701982E+01  0.51100000000E-03 0. -1.
    9000002    1    1    2    0    0  0.58203741650E+00  0.73633322459E-01  0.23946863568E+00  0.11319799680E+01  0.93800000000E+00 0. -1.
         22    1    1    2    0    0 -0.40016583385E+00 -0.51273032213E-01  0.25878918513E+01  0.26191498339E+01  0.00000000000E+00 0. -1.
</event>
<event>
 5    1  0.7220939E+001  0.1597215E+01  0.7818608E-02  0.3356392E+00
         11   -1    0    0    0    0  0.00000000000E+00  0.00000000000E+00  0.39999999674E+01  0.40000000000E+01  0.51100000000E-03 0. -1.
    9000002   -1    0    0    0    0 -0.00000000000E+00 -0.00000000000E+00  0.00000000000E+00  0.93800000000E+00  0.93800000000E+00 0.  1.
         11    1    1    2    0    0 -0.11908106592E-01 -0.56282255344E-02  0.28458218845E-01  0.31362577479E-01  0.51100000000E-03 0. -1.
    9000002    1    1    2    0    0  0.27206871144E+00  0.28829570987E+00  0.10798885420E+00  0.10240319295E+01  0.93800000000E+00 0.  1.
         22    1    1    2    0    0 -0.26016060484E+00 -0.28266748433E+00  0.38635528943E+01  0.38826054930E+01  0.00000000000E+00 0. -1.
</event>
<event>
 5    1  0.7220939E+001  0.1599669E+01  0.7818608E-02  0.3353722E+00
         11   -1    0    0    0    0  0.00000000000E+00  0.00000000000E+00  0.39999999674E+01  0.40000000000E+01  0.51100000000E-03 0.  1.
    9000002   -1    0    0    0    0 -0.00000000000E+00 -0.00000000000E+00  0.00000000000E+00  0.93800000000E+00  0.93800000000E+00 0.  1.
         11    1    1    2    0    0  0.12199525096E-01  0.32598866302E-01  0.37595522621E+00  0.37756338241E+00  0.51100000000E-03 0.  1.
    9000002    1    1    2    0    0 -0.12824965699E+00 -0.35832298941E+00  0.97469585544E-01  0.10169501755E+01  0.93800000000E+00 0.  1.
         22    1    1    2    0    0  0.11605013189E+00  0.32572412311E+00  0.35265751556E+01  0.35434864421E+01  0.00000000000E+00 0.  1.
</event>
<event>
 5    1  0.7220939E+001  0.1599673E+01  0.7818608E-02  0.3353719E+00
         11   -1    0    0    0    0  0.00000000000E+00  0.00000000000E+00  0.39999999674E+01  0.40000000000E+01  0.51100000000E-03 0.  1.
    9000002   -1    0    0    0    0 -0.00000000000E+00 -0.00000000000E+00  0.00000000000E+00  0.93800000000E+00  0.93800000000E+00 0.  1.
         11    1    1    2    0    0 -0.74446901661E-01  0.37143186494E-01  0.72876353016E+00  0.73349744476E+00  0.51100000000E-03 0.  1.
    9000002    1    1    2    0    0  0.38924620143E+00 -0.18908178251E+00  0.12687500754E+00  0.10407717297E+01  0.93800000000E+00 0.  1.
         22    1    1    2    0    0 -0.31479929977E+00  0.15193859601E+00  0.31443614297E+01  0.31637308255E+01  0.00000000000E+00 0.  1.
</event>
<event>
 5    1  0.7220939E+001  0.1599653E+01  0.7818608E-02  0.3353741E+00
         11   -1    0    0    0    0  0.00000000000E+00  0.00000000000E+00  0.39999999674E+01  0.40000000000E+01  0.51100000000E-03 0. -1.
    9000002   -1    0    0    0    0 -0.00000000000E+00 -0.00000000000E+00  0.00000000000E+00  0.93800000000E+00  0.93800000000E+00 0. -1.
         11    1    1    2    0    0 -0.33510572592E-01  0.20083571980E-01  0.36811317562E+00  0.37018087406E+00  0.51100000000E-03 0. -1.
    9000002    1    1    2    0    0  0.37608222909E+00 -0.18326353301E+00  0.11836329408E+00  0.10338651919E+01  0.93800000000E+00 0. -1.
         22    1    1    2    0    0 -0.34257165650E+00  0.16317996103E+00  0.35135234977E+01  0.35339539341E+01  0.00000000000E+00 0. -1.
</event>
<event>
 5    1  0.7220939E+001  0.1541619E+01  0.7818608E-02  0.3419273E+00
         11   -1    0    0    0    0  0.00000000000E+00  0.00000000000E+00  0.39999999674E+01  0.40000000000E+01  0.51100000000E-03 0.  1.
    9000002   -1    0    0    0    0 -0.00000000000E+00 -0.00000000000E+00  0.00000000000E+00  0.93800000000E+00  0.93800000000E+00 0.  1.
         11    1    1    2    0    0  0.15551100899E+00 -0.13488802043E+00  0.67833072312E+00  0.70888030233E+00  0.51100000000E-03 0.  1.
    9000002    1    1    2    0    0 -0.11515219763E+00 -0.22585745397E+00  0.88545548752E-01  0.97568229067E+00  0.93800000000E+00 0.  1.
         22    1    1    2    0    0 -0.40358811359E-01  0.36074547440E+00  0.32331236955E+01  0.32534374070E+01  0.00000000000E+00 0.  1.
</event>
<event>
 5    1  0.7220939E+001  0.1599500E+01  0.7818608E-02  0.3353906E+00
         11   -1    0    0    0    0  0.00000000000E+00  0.00000000000E+00  0.39999999674E+01  0.40000000000E+01  0.51100000000E-03 0.  1.
    9000002   -1    0    0    0    0 -0.00000000000E+00 -0.00000000000E+00  0.00000000000E+00  0.93800000000E+00  0.93800000000E+00 0. -1.
         11    1    1    2    0    0 -0.11896852052E+00  0.28618313012E-01  0.11513142202E+01  0.11577984330E+01  0.51100000000E-03 0.  1.
    9000002    1    1    2    0    0  0.41928314660E+00 -0.14127871423E+00  0.13296096025E+00  0.10456006164E+01  0.93800000000E+00 0. -1.
         22    1    1    2    0    0 -0.30031462608E+00  0.11266040122E+00  0.27157247869E+01  0.27346009506E+01  0.00000000000E+00 0.  1.
</event>
<event>
 5    1  0.7220939E+001  0.1599258E+01  0.7818608E-02  0.3354169E+00
         11   -1    0    0    0    0  0.00000000000E+00  0.00000000000E+00  0.39999999674E+01  0.40000000000E+01  0.51100000000E-03 0. -1.
    9000002   -1    0    0    0    0 -0.00000000000E+00 -0.00000000000E+00  0.00000000000E+00  0.93800000000E+00  0.93800000000E+00 0.  1.
         11    1    1    2    0    0 -0.13842996522E+00 -0.37964867198E-01  0.11551033621E+01  0.11639880690E+01  0.51100000000E-03 0. -1.
    9000002    1    1    2    0    0  0.39255371380E+00  0.10727901421E+00  0.11215609731E+00  0.10286059475E+01  0.93800000000E+00 0.  1.
         22    1    1    2    0    0 -0.25412374858E+00 -0.69314147015E-01  0.27327405079E+01  0.27454059835E+01  0.00000000000E+00 0. -1.
</event>
<event>
 5    1  0.7220939E+001  0.1599602E+01  0.7818608E-02  0.3353795E+00
         11   -1    0    0    0    0  0.00000000000E+00  0.00000000000E+00  0.39999999674E+01  0.40000000000E+01  0.51100000000E-03 0.  1.
    9000002   -1    0    0    0    0 -0.00000000000E+00 -0.00000000000E+00  0.00000000000E+00  0.93800000000E+00  0.93800000000E+00 0.  1.
         11    1    1    2    0    0  0.11179978903E-01  0.14639564097E+00  0.11040266524E+01  0.11137467333E+01  0.51100000000E-03 0.  1.
    9000002    1    1    2    0    0 -0.63797150446E-01 -0.48715009991E+00  0.16507054832E+00  0.10716704634E+01  0.93800000000E+00 0.  1.
         22    1    1    2    0    0  0.52617171542E-01  0.34075445894E+00  0.27309027667E+01  0.27525828033E+01  0.00000000000E+00 0.  1.
</event>
<event>
 5    1  0.7220939E+001  0.1596457E+01  0.7818608E-02  0.3357218E+00
         11   -1    0    0    0    0  0.00000000000E+00  0.00000000000E+00  0.39999999674E+01  0.40000000000E+01  0.51100000000E-03 0.  1.
    9000002   -1    0    0    0    0 -0.00000000000E+00 -0.00000000000E+00  0.00000000000E+00  0.93800000000E+00  0.93800000000E+00 0.  1.
         11    1    1    2    0    0 -0.79952229512E-01 -0.18512527274E+00  0.11638247825E+01  0.11811655731E+01  0.51100000000E-03 0.  1.
    9000002    1    1    2    0    0  0.37648540367E+00  0.43211716131E+00  0.23101527300E+00  0.11232446557E+01  0.93800000000E+00 0.  1.
         22    1    1    2    0    0 -0.29653317415E+00 -0.24699188857E+00  0.26051599119E+01  0.26335897712E+01  0.00000000000E+00 0.  1.
</event>
<event>
 5    1  0.7220939E+001  0.1570965E+01  0.7818608E-02  0.3385493E+00
         11   -1    0    0    0    0  0.00000000000E+00  0.00000000000E+00  0.39999999674E+01  0.40000000000E+01  0.51100000000E-03 0. -1.
    9000002   -1    0    0    0    0 -0.00000000000E+00 -0.00000000000E+00  0.00000000000E+00  0.93800000000E+00  0.93800000000E+00 0. -1.
         11    1    1    2    0    0 -0.67800251846E-01  0.83786496262E-02  0.17272426271E+00  0.18574446955E+00  0.51100000000E-03 0. -1.
    9000002    1    1    2    0    0 -0.38541342950E+00 -0.16995303124E+00  0.14468698753E+00  0.10383669240E+01  0.93800000000E+00 0. -1.
         22    1    1    2    0    0  0.45321368134E+00  0.16157438161E+00  0.36825887171E+01  0.37138886065E+01  0.00000000000E+00 0. -1.
</event>
<event>
 5    1  0.7220939E+001  0.1548475E+01  0.7818608E-02  0.3411258E+00
         11   -1    0    0    0    0  0.00000000000E+00  0.00000000000E+00  0.39999999674E+01  0.40000000000E+01  0.51100000000E-03 0.  1.
    9000002   -1    0    0    0    0 -0.00000000000E+00 -0.00000000000E+00  0.00000000000E+00  0.93800000000E+00  0.93800000000E+00 0. -1.
         11    1    1    2    0    0  0.91468222280E-01  0.19337416038E+00  0.11279200785E+01  0.11480261174E+01  0.51100000000E-03 0.  1.
    9000002    1    1    2    0    0  0.86001164221E-01  0.82809140314E-01  0.47902233812E-01  0.94677989943E+00  0.93800000000E+00 0. -1.
         22    1    1    2    0    0 -0.17746938650E+00 -0.27618330070E+00  0.28241776551E+01  0.28431939832E+01  0.00000000000E+00 0. -1.
</event>
<event>
 5    1  0.7220939E+001  0.1598905E+01  0.7818608E-02  0.3354552E+00
         11   -1    0    0    0    0  0.00000000000E+00  0.00000000000E+00  0.39999999674E+01  0.40000000000E+01  0.51100000000E-03 0. -1.
    9000002   -1    0    0    0    0 -0.00000000000E+00 -0.00000000000E+00  0.00000000000E+00  0.93800000000E+00  0.93800000000E+00 0. -1.
         11    1    1    2    0    0 -0.10722062125E+00 -0.58830165255E-01  0.96502733248E+00  0.97274624827E+00  0.51100000000E-03 0. -1.
    9000002    1    1    2    0    0  0.31967664268E+00  0.27019919625E+00  0.11911699908E+00  0.10340375337E+01  0.93800000000E+00 0. -1.
         22    1    1    2    0    0 -0.21245602143E+00 -0.21136903099E+00  0.29158556358E+01  0.29312162181E+01  0.00000000000E+00 0. -1.
</event>
<event>
 5    1  0.7220939E+001  0.1599653E+01  0.7818608E-02  0.3353740E+00
         11   -1    0    0    0    0  0.00000000000E+00  0.00000000000E+00  0.39999999674E+01  0.40000000000E+01  0.51100000000E-03 0.  1.
    9000002   -1    0    0    0    0 -0.00000000000E+00 -0.00000000000E+00  0.00000000000E+00  0.93800000000E+00  0.93800000000E+00 0. -1.
         11    1    1    2    0    0  0.11572699388E+00  0.86046328881E-01  0.14578990063E+01  0.14650141575E+01  0.51100000000E-03 0.  1.
    9000002    1    1    2    0    0 -0.32411934092E+00 -0.22716038105E+00  0.10563018322E+00  0.10235511328E+01  0.93800000000E+00 0. -1.
         22    1    1    2    0    0  0.20839234704E+00  0.14111405217E+00  0.24364707778E+01  0.24494347097E+01  0.00000000000E+00 0.  1.
</event>
<event>
 5    1  0.7220939E+001  0.1599200E+01  0.7818608E-02  0.3354232E+00
         11   -1    0    0    0    0  0.00000000000E+00  0.00000000000E+00  0.39999999674E+01  0.40000000000E+01  0.51100000000E-03 0. -1.
    9000002   -1    0    0    0    0 -0.00000000000E+00 -0.00000000000E+00  0.00000000000E+00  0.93800000000E+00  0.93800000000E+00 0.  1.
         11    1    1    2    0    0 -0.91781136534E-02  0.36579271989E-03  0.25171974368E+00  0.25188779656E+00  0.51100000000E-03 0. -1.
    9000002    1    1    2    0    0  0.34279259711E+00 -0.26339743095E-01  0.79583712082E-01  0.10021866662E+01  0.93800000000E+00 0.  1.
         22    1    1    2    0    0 -0.33361448346E+00  0.25973950375E-01  0.36686965116E+01  0.36839255372E+01  0.00000000000E+00 0. -1.
</event>
<event>
 5    1  0.7220939E+001  0.1598702E+01  0.7818608E-02  0.3354773E+00
         11   -1    0    0    0    0  0.00000000000E+00  0.00000000000E+00  0.39999999674E+01  0.40000000000E+01  0.51100000000E-03 0. -1.
    9000002   -1    0    0    0    0 -0.00000000000E+00 -0.00000000000E+00  0.00000000000E+00  0.93800000000E+00  0.93800000000E+00 0.  1.
         11    1    1    2    0    0 -0.71088591874E-01  0.41932394542E-01  0.45004161417E+00  0.45754740652E+00  0.51100000000E-03 0. -1.
    9000002    1    1    2    0    0  0.47644426284E+00 -0.19139546542E+00  0.18177477201E+00  0.10846738807E+01  0.93800000000E+00 0.  1.
         22    1    1    2    0    0 -0.40535567097E+00  0.14946307087E+00  0.33681835812E+01  0.33957787128E+01  0.00000000000E+00 0. -1.
</event>
<event>
 5    1  0.7220939E+001  0.1599675E+01  0.7818608E-02  0.3353716E+00
         11   -1    0    0    0    0  0.00000000000E+00  0.00000000000E+00  0.39999999674E+01  0.40000000000E+01  0.51100000000E-03 0.  1.
    9000002   -1    0    0    0    0 -0.00000000000E+00 -0.00000000000E+00  0.00000000000E+00  0.93800000000E+00  0.93800000000E+00 0.  1.
         11    1    1    2    0    0  0.15743123594E-01  0.93773321219E-02  0.18769180611E+00  0.18858487612E+00  0.51100000000E-03 0.  1.
    9000002    1    1    2    0    0 -0.31658733121E+00 -0.20150579277E+00  0.94705561639E-01  0.10147143767E+01  0.93800000000E+00 0.  1.
         22    1    1    2    0    0  0.30084420761E+00  0.19212846065E+00  0.37176025996E+01  0.37347007472E+01  0.00000000000E+00 0.  1.
</event>
<event>
 5    1  0.7220939E+001  0.1599146E+01  0.7818608E-02  0.3354291E+00
         11   -1    0    0    0    0  0.00000000000E+00  0.00000000000E+00  0.39999999674E+01  0.40000000000E+01  0.51100000000E-03 0.  1.
    9000002   -1    0    0    0    0 -0.00000000000E+00 -0.00000000000E+00  0.00000000000E+00  0.93800000000E+00  0.93800000000E+00 0. -1.
         11    1    1    2    0    0 -0.15984748824E-01 -0.21084291432E-01  0.37192630676E+00  0.37286659588E+00  0.51100000000E-03 0.  1.
    9000002    1    1    2    0    0  0.25144883998E+00  0.36697656018E+00  0.13476538244E+00  0.10468543467E+01  0.93800000000E+00 0. -1.
         22    1    1    2    0    0 -0.23546409115E+00 -0.34589226875E+00  0.34933082782E+01  0.35182790574E+01  0.00000000000E+00 0.  1.
</event>
<event>
 5    1  0.7220939E+001  0.1599675E+01  0.7818608E-02  0.3353716E+00
         11   -1    0    0    0    0  0.00000000000E+00  0.00000000000E+00  0.39999999674E+01  0.40000000000E+01  0.51100000000E-03 0. -1.
    9000002   -1    0    0    0    0 -0.00000000000E+00 -0.00000000000E+00  0.00000000000E+00  0.93800000000E+00  0.93800000000E+00 0.  1.
         11    1    1    2    0    0  0.92213271246E-02 -0.86497947224E-02  0.10997764260E+00  0.11070318341E+00  0.51100000000E-03 0.  1.
    9000002    1    1    2    0    0 -0.32329876085E+00  0.31601616126E+00  0.13886221855E+00  0.10504832310E+01  0.93800000000E+00 0.  1.
         22    1    1    2    0    0  0.31407743373E+00 -0.30736636654E+00  0.37511601062E+01  0.37768135856E+01  0.00000000000E+00 0. -1.
</event>
<event>
 5    1  0.7220939E+001  0.1599676E+01  0.7818608E-02  0.3353715E+00
         11   -1    0    0    0    0  0.00000000000E+00  0.00000000000E+00  0.39999999674E+01  0.40000000000E+01  0.51100000000E-03 0. -1.
    9000002   -1    0    0    0    0 -0.00000000000E+00 -0.00000000000E+00  0.00000000000E+00  0.93800000000E+00  0.93800000000E+00 0. -1.
         11    1    1    2    0    0  0.47480481206E-02 -0.38083358751E-01  0.34884392095E+00  0.35094903972E+00  0.51100000000E-03 0.  1.
    9000002    1    1    2    0    0 -0.51256574796E-01  0.42588426273E+00  0.12459707041E+00  0.10389288097E+01  0.93800000000E+00 0. -1.
         22    1    1    2    0    0  0.46508526675E-01 -0.38780090397E+00  0.35265589760E+01  0.35481221506E+01  0.00000000000E+00 0. -1.
</event>
<event>
 5    1  0.7220939E+001  0.1573125E+01  0.7818608E-02  0.3383060E+00
         11   -1    0    0    0    0  0.00000000000E+00  0.00000000000E+00  0.39999999674E+01  0.40000000000E+01  0.51100000000E-03 0.  1.
    9000002   -1    0    0    0    0 -0.00000000000E+00 -0.00000000000E+00  0.00000000000E+00  0.93800000000E+00  0.93800000000E+00 0. -1.
         11    1    1    2    0    0 -0.12960167483E+00  0.43768263056E+00  0.13590720348E+01  0.14336804861E+01  0.51100000000E-03 0.  1.
    9000002    1    1    2    0    0  0.11367471031E+00 -0.70045203208E+00  0.39162653465E+00  0.12396654112E+01  0.93800000000E+00 0. -1.
         22    1    1    2    0    0  0.15926964522E-01  0.26276940152E+00  0.22493013979E+01  0.22646541028E+01  0.00000000000E+00 0. -1.
</event>
<event>
 5    1  0.7220939E+001  0.1599656E+01  0.7818608E-02  0.3353736E+00
         11   -1    0    0    0    0  0.00000000000E+00  0.00000000000E+00  0.39999999674E+01  0.40000000000E+01  0.51100000000E-03 0. -1.
    9000002   -1    0    0    0    0 -0.00000000000E+00 -0.00000000000E+00  0.00000000000E+00  0.93800000000E+00  0.93800000000E+00 0. -1.
         11    1    1    2    0    0  0.12032762427E-01  0.87471291403E-01  0.10021280363E+01  0.10060103759E+01  0.51100000000E-03 0. -1.
    9000002    1    1    2    0    0 -0.32863081899E-01 -0.35388905050E+00  0.84764841837E-01  0.10066511415E+01  0.93800000000E+00 0. -1.
         22    1    1    2    0    0  0.20830319472E-01  0.26641775910E+00  0.29131070892E+01  0.29253384826E+01  0.00000000000E+00 0. -1.
</event>
<event>
 5    1  0.7220939E+001  0.1597665E+01  0.7818608E-02  0.3355902E+00
         11   -1    0    0    0    0  0.00000000000E+00  0.00000000000E+00  0.39999999674E+01  0.40000000000E+01  0.51100000000E-03 0. -1.
    9000002   -1    0    0    0    0 -0.00000000000E+00 -0.00000000000E+00  0.00000000000E+00  0.93800000000E+00  0.93800000000E+00 0. -1.
         11    1    1    2    0    0 -0.12934152210E+00  0.10966566915E-01  0.12786356042E+01  0.12852076737E+01  0.51100000000E-03 0. -1.
    9000002    1    1    2    0    0  0.37001054251E+00 -0.18570069501E+00  0.11751269573E+00  0.10320105539E+01  0.93800000000E+00 0. -1.
         22    1    1    2    0    0 -0.24066902041E+00  0.17473412810E+00  0.26038516674E+01  0.26207817724E+01  0.00000000000E+00 0. -1.
</event>
<event>
 5    1  0.7220939E+001  0.1571643E+01  0.7818608E-02  0.3384728E+00
         11   -1    0    0    0    0  0.00000000000E+00  0.00000000000E+00  0.39999999674E+01  0.40000000000E+01  0.51100000000E-03 0. -1.
    9000002   -1    0    0    0    0 -0.00000000000E+00 -0.00000000000E+00  0.00000000000E+00  0.93800000000E+00  0.93800000000E+00 0.  1.
         11    1    1    2    0    0  0.15417974586E+00 -0.27677573952E-01  0.10415981606E+01  0.10533111751E+01  0.51100000000E-03 0. -1.
    9000002    1    1    2    0    0  0.81777909445E-01  0.20275632961E+00  0.53138854197E-01  0.96460639304E+00  0.93800000000E+00 0.  1.
         22    1    1    2    0    0 -0.23595765531E+00 -0.17507875566E+00  0.29052629525E+01  0.29200824319E+01  0.00000000000E+00 0. -1.
</event>
<event>
 5    1  0.7220939E+001  0.1599419E+01  0.7818608E-02  0.3353994E+00
         11   -1    0    0    0    0  0.00000000000E+00  0.00000000000E+00  0.39999999674E+01  0.40000000000E+01  0.51100000000E-03 0. -1.
    9000002   -1    0    0    0    0 -0.00000000000E+00 -0.00000000000E+00  0.00000000000E+00  0.93800000000E+00  0.93800000000E+00 0.  1.
         11    1    1    2    0    0  0.68131901333E-02  0.17008007681E+00  0.14785868856E+01  0.14883524756E+01  0.51100000000E-03 0. -1.
    9000002    1    1    2    0    0  0.31157429120E-01 -0.44729869680E+00  0.13673752272E+00  0.10486124449E+01  0.93800000000E+00 0.  1.
         22    1    1    2    0    0 -0.37970619253E-01  0.27721861999E+00  0.23846755590E+01  0.24010350795E+01  0.00000000000E+00 0. -1.
</event>
<event>
 5    1  0.7220939E+001  0.1599633E+01  0.7818608E-02  0.3353762E+00
         11   -1    0    0    0    0  0.00000000000E+00  0.00000000000E+00  0.39999999674E+01  0.40000000000E+01  0.51100000000E-03 0.  1.
    9000002   -1    0    0    0    0 -0.00000000000E+00 -0.00000000000E+00  0.00000000000E+00  0.93800000000E+00  0.93800000000E+00 0.  1.
         11    1    1    2    0    0  0.21822517369E+00  0.23031091668E-01  0.86336402226E+00  0.89081443279E+00  0.51100000000E-03 0.  1.
    9000002    1    1    2    0    0 -0.86117338760E+00 -0.65051629024E-01  0.56242372948E+00  0.13935622589E+01  0.93800000000E+00 0.  1.
         22    1    1    2    0    0  0.64294821391E+00  0.42020537356E-01  0.25742122156E+01  0.26536233083E+01  0.00000000000E+00 0.  1.
</event>
<event>
 5    1  0.7220939E+001  0.1599133E+01  0.7818608E-02  0.3354305E+00
         11   -1    0    0    0    0  0.00000000000E+00  0.00000000000E+00  0.39999999674E+01  0.40000000000E+01  0.51100000000E-03 0.  1.
    9000002   -1    0    0    0    0 -0.00000000000E+00 -0.00000000000E+00  0.00000000000E+00  0.93800000000E+00  0.93800000000E+00 0.  1.
         11    1    1    2    0    0 -0.87761462923E-02  0.47216512902E-01  0.48103614601E+00  0.48342781750E+00  0.51100000000E-03 0.  1.
    9000002    1    1    2    0    0  0.19712397048E+00 -0.45324434343E+00  0.16755684352E+00  0.10734093303E+01  0.93800000000E+00 0.  1.
         22    1    1    2    0    0 -0.18834782419E+00  0.40602783053E+00  0.33514069778E+01  0.33811628522E+01  0.00000000000E+00 0.  1.
</event>
<event>
 5    1  0.7220939E+001  0.1483388E+01  0.7818608E-02  0.3490544E+00
         11   -1    0    0    0    0  0.00000000000E+00  0.00000000000E+00  0.39999999674E+01  0.40000000000E+01  0.51100000000E-03 0.  1.
    9000002   -1    0    0    0    0 -0.00000000000E+00 -0.00000000000E+00  0.00000000000E+00  0.93800000000E+00  0.93800000000E+00 0.  1.
         11    1    1    2    0    0 -0.29601245536E+00 -0.89927663641E-02  0.13703324333E+01  0.14019684313E+01  0.51100000000E-03 0.  1.
    9000002    1    1    2    0    0 -0.23027126030E+00  0.32351320484E+00  0.21015301913E+00  0.10400451617E+01  0.93800000000E+00 0.  1.
         22    1    1    2    0    0  0.52628371566E+00 -0.31452043848E+00  0.24195145149E+01  0.24959864069E+01  0.00000000000E+00 0.  1.
</event>
<event>
 5    1  0.1165845E+002  0.1598469E+01  0.7818608E-02  0.3355027E+00
         11   -1    0    0    0    0  0.00000000000E+00  0.00000000000E+00  0.39999999674E+01  0.40000000000E+01  0.51100000000E-03 0.  1.
    9000002   -1    0    0    0    0 -0.00000000000E+00 -0.00000000000E+00  0.00000000000E+00  0.93800000000E+00  0.93800000000E+00 0.  1.
         11    1    1    2    0    0 -0.57560722926E-01  0.35222781463E-01  0.14132462337E+01  0.14148565508E+01  0.51100000000E-03 0.  1.
    9000002    1    1    2    0    0  0.25819550861E+00 -0.15299190559E+00  0.61034514844E-01  0.98673231215E+00  0.93800000000E+00 0.  1.
         22    1    1    2    0    0 -0.20063478569E+00  0.11776912413E+00  0.25257192188E+01  0.25364111370E+01  0.00000000000E+00 0.  1.
</event>
<event>
 5    1  0.7220939E+001  0.1599677E+01  0.7818608E-02  0.3353714E+00
         11   -1    0    0    0    0  0.00000000000E+00  0.00000000000E+00  0.39999999674E+01  0.40000000000E+01  0.51100000000E-03 0.  1.
    9000002   -1    0    0    0    0 -0.00000000000E+00 -0.00000000000E+00  0.00000000000E+00  0.93800000000E+00  0.93800000000E+00 0.  1.
         11    1    1    2    0    0 -0.11253924934E+00 -0.54732849674E-01  0.13761566037E+01  0.13818350215E+01  0.51100000000E-03 0.  1.
    9000002    1    1    2    0    0  0.31883124579E+00  0.15658453498E+00  0.84648888607E-01  0.10065691800E+01  0.93800000000E+00 0.  1.
         22    1    1    2    0    0 -0.20629199645E+00 -0.10185168530E+00  0.25391944750E+01  0.25495957985E+01  0.00000000000E+00 0.  1.
</event>
<event>
 5    1  0.7220939E+001  0.1599675E+01  0.7818608E-02  0.3353716E+00
         11   -1    0    0    0    0  0.00000000000E+00  0.00000000000E+00  0.39999999674E+01  0.40000000000E+01  0.51100000000E-03 0. -1.
    9000002   -1    0    0    0    0 -0.00000000000E+00 -0.00000000000E+00  0.00000000000E+00  0.93800000000E+00  0.93800000000E+00 0. -1.
         11    1    1    2    0    0 -0.10025447926E+00  0.11115103254E+00  0.12253689402E+01  0.12344775467E+01  0.51100000000E-03 0. -1.
    9000002    1    1    2    0    0  0.31968166339E+00 -0.34898515227E+00  0.15266966634E+00  0.10616680411E+01  0.93800000000E+00 0. -1.
         22    1    1    2    0    0 -0.21942718413E+00  0.23783411973E+00  0.26219613609E+01  0.26418544122E+01  0.00000000000E+00 0. -1.
</event>
<event>
 5    1  0.7220939E+001  0.1486259E+01  0.7818608E-02  0.3486889E+00
         11   -1    0    0    0    0  0.00000000000E+00  0.00000000000E+00  0.39999999674E+01  0.40000000000E+01  0.51100000000E-03 0. -1.
    9000002   -1    0    0    0    0 -0.00000000000E+00 -0.00000000000E+00  0.00000000000E+00  0.93800000000E+00  0.93800000000E+00 0. -1.
         11    1    1    2    0    0  0.39704442672E+00  0.27213721362E-01  0.11539894937E+01  0.12206870509E+01  0.51100000000E-03 0. -1.
    9000002    1    1    2    0    0 -0.84647053289E-01 -0.62598445950E-01  0.95294075398E-01  0.94868785692E+00  0.93800000000E+00 0. -1.
         22    1    1    2    0    0 -0.31239737343E+00  0.35384724588E-01  0.27507163982E+01  0.27686250922E+01  0.00000000000E+00 0.  1.
</event>
<event>
 5    1  0.7220939E+001  0.1599494E+01  0.7818608E-02  0.3353913E+00
         11   -1    0    0    0    0  0.00000000000E+00  0.00000000000E+00  0.39999999674E+01  0.40000000000E+01  0.51100000000E-03 0. -1.
    9000002   -1    0    0    0    0 -0.00000000000E+00 -0.00000000000E+00  0.00000000000E+00  0.93800000000E+00  0.93800000000E+00 0. -1.
         11    1    1    2    0    0  0.50066029563E-01  0.70293736016E-01  0.78310214584E+00  0.78784328935E+00  0.51100000000E-03 0. -1.
    9000002    1    1    2    0    0 -0.19802493857E+00 -0.31118079072E+00  0.91565687103E-01  0.10120650354E+01  0.93800000000E+00 0. -1.
         22    1    1    2    0    0  0.14795890901E+00  0.24088705471E+00  0.31253321344E+01  0.31380916753E+01  0.00000000000E+00 0. -1.
</event>
<event>
 5    1  0.7220939E+001  0.1598458E+01  0.7818608E-02  0.3355039E+00
         11   -1    0    0    0    0  0.00000000000E+00  0.00000000000E+00  0.39999999674E+01  0.40000000000E+01  0.51100000000E-03 0. -1.
    9000002   -1    0    0    0    0 -0.00000000000E+00 -0.00000000000E+00  0.00000000000E+00  0.93800000000E+00  0.93800000000E+00 0.  1.
         11    1    1    2    0    0 -0.34666784000E+00 -0.24113031045E+00  0.95094708865E+00  0.10404917320E+01  0.51100000000E-03 0. -1.
    9000002    1    1    2    0    0  0.89597656168E+00  0.73578351596E+00  0.12269311525E+01  0.19311539127E+01  0.93800000000E+00 0.  1.
         22    1    1    2    0    0 -0.54930872167E+00 -0.49465320552E+00  0.18221217262E+01  0.19663543553E+01  0.00000000000E+00 0.  1.
</event>
<event>
 5    1  0.7220939E+001  0.1599676E+01  0.7818608E-02  0.3353715E+00
         11   -1    0    0    0    0  0.00000000000E+00  0.00000000000E+00  0.39999999674E+01  0.40000000000E+01  0.51100000000E-03 0. -1.
    9000002   -1    0    0    0    0 -0.00000000000E+00 -0.00000000000E+00  0.00000000000E+00  0.93800000000E+00  0.93800000000E+00 0.  1.
         11    1    1    2    0    0  0.15289041588E+00  0.25835396980E-01  0.11870630988E+01  0.11971474465E+01  0.51100000000E-03 0. -1.
    9000002    1    1    2    0    0 -0.49650200353E+00 -0.84321563602E-01  0.17372691904E+00  0.10787258261E+01  0.93800000000E+00 0.  1.
         22    1    1    2    0    0  0.34361158766E+00  0.58486166622E-01  0.26392099496E+01  0.26621267274E+01  0.00000000000E+00 0. -1.
</event>
<event>
 5    1  0.7220939E+001  0.1599671E+01  0.7818608E-02  0.3353721E+00
         11   -1    0    0    0    0  0.00000000000E+00  0.00000000000E+00  0.39999999674E+01  0.40000000000E+01  0.51100000000E-03 0.  1.
    9000002   -1    0    0    0    0 -0.00000000000E+00 -0.00000000000E+00  0.00000000000E+00  0.93800000000E+00  0.93800000000E+00 0. -1.
         11    1    1    2    0    0  0.49233999563E-01  0.74453944051E-01  0.49934563686E+00  0.50726098083E+00  0.51100000000E-03 0.  1.
    9000002    1    1    2    0    0 -0.35962660919E+00 -0.53821597622E+00  0.29548856375E+00  0.11773551828E+01  0.93800000000E+00 0. -1.
         22    1    1    2    0    0  0.31039260962E+00  0.46376203217E+00  0.32051657668E+01  0.32533838364E+01  0.00000000000E+00 0.  1.
</event>
<event>
 5    1  0.7220939E+001  0.1599676E+01  0.7818608E-02  0.3353715E+00
         11   -1    0    0    0    0  0.00000000000E+00  0.00000000000E+00  0.39999999674E+01  0.40000000000E+01  0.51100000000E-03 0.  1.
    9000002   -1    0    0    0    0 -0.00000000000E+00 -0.00000000000E+00  0.00000000000E+00  0.93800000000E+00  0.93800000000E+00 0.  1.
         11    1    1    2    0    0  0.95611010011E-01 -0.15282040406E-01  0.88109898936E+00  0.88640323565E+00  0.51100000000E-03 0.  1.
    9000002    1    1    2    0    0 -0.42424217737E+00  0.65305434458E-01  0.12476589827E+00  0.10390653272E+01  0.93800000000E+00 0.  1.
         22    1    1    2    0    0  0.32863116736E+00 -0.50023394052E-01  0.29941350797E+01  0.30125314371E+01  0.00000000000E+00 0.  1.
</event>
<event>
 5    1  0.7220939E+001  0.1599676E+01  0.7818608E-02  0.3353716E+00
         11   -1    0    0    0    0  0.00000000000E+00  0.00000000000E+00  0.39999999674E+01  0.40000000000E+01  0.51100000000E-03 0.  1.
    9000002   -1    0    0    0    0 -0.00000000000E+00 -0.00000000000E+00  0.00000000000E+00  0.93800000000E+00  0.93800000000E+00 0. -1.
         11    1    1    2    0    0  0.11656397684E+00  0.11943111033E+00  0.11846321613E+01  0.11963296241E+01  0.51100000000E-03 0.  1.
    9000002    1    1    2    0    0 -0.37419416234E+00 -0.37936146319E+00  0.19549216015E+00  0.10963565002E+01  0.93800000000E+00 0. -1.
         22    1    1    2    0    0  0.25763018550E+00  0.25993035286E+00  0.26198756459E+01  0.26453138757E+01  0.00000000000E+00 0.  1.
</event>
<event>
 5    1  0.7220939E+001  0.1599676E+01  0.7818608E-02  0.3353715E+00
         11   -1    0    0    0    0  0.00000000000E+00  0.00000000000E+00  0.39999999674E+01  0.40000000000E+01  0.51100000000E-03 0.  1.
    9000002   -1    0    0    0    0 -0.00000000000E+00 -0.00000000000E+00  0.00000000000E+00  0.93800000000E+00  0.93800000000E+00 0. -1.
         11    1    1    2    0    0  0.13344114145E+00 -0.75728552915E-01  0.13087342970E+01  0.13176976411E+01  0.51100000000E-03 0.  1.
    9000002    1    1    2    0    0 -0.39629606671E+00  0.22290245042E+00  0.14051009339E+00  0.10518189774E+01  0.93800000000E+00 0. -1.
         22    1    1    2    0    0  0.26285492526E+00 -0.14717389751E+00  0.25507555769E+01  0.25684833815E+01  0.00000000000E+00 0.  1.
</event>
<event>
 5    1  0.7674539E+001  0.1572920E+01  0.7818608E-02  0.3383290E+00
         11   -1    0    0    0    0  0.00000000000E+00  0.00000000000E+00  0.39999999674E+01  0.40000000000E+01  0.51100000000E-03 0.  1.
    9000002   -1    0    0    0    0 -0.00000000000E+00 -0.00000000000E+00  0.00000000000E+00  0.93800000000E+00  0.93800000000E+00 0. -1.
         11    1    1    2    0    0 -0.23897685387E-02 -0.13417322983E+00  0.94262119327E+00  0.95212559136E+00  0.51100000000E-03 0.  1.
    9000002    1    1    2    0    0 -0.16787566776E+00 -0.11811012098E+00  0.48266249556E-01  0.96140827506E+00  0.93800000000E+00 0. -1.
         22    1    1    2    0    0  0.17026543630E+00  0.25228335080E+00  0.30091125245E+01  0.30244661336E+01  0.00000000000E+00 0.  1.
</event>
<event>
 5    1  0.7220939E+001  0.1599584E+01  0.7818608E-02  0.3353815E+00
         11   -1    0    0    0    0  0.00000000000E+00  0.00000000000E+00  0.39999999674E+01  0.40000000000E+01  0.51100000000E-03 0.  1.
    9000002   -1    0    0    0    0 -0.00000000000E+00 -0.00000000000E+00  0.00000000000E+00  0.93800000000E+00  0.93800000000E+00 0. -1.
         11    1    1    2    0    0  0.17491031037E+00 -0.17860324207E-01  0.13163330522E+01  0.13280231825E+01  0.51100000000E-03 0.  1.
    9000002    1    1    2    0    0 -0.47997186561E+00  0.63697882766E-01  0.16014648356E+00  0.10676709738E+01  0.93800000000E+00 0. -1.
         22    1    1    2    0    0  0.30506155524E+00 -0.45837558558E-01  0.25235204316E+01  0.25423058437E+01  0.00000000000E+00 0. -1.
</event>
<event>
 5    1  0.7220939E+001  0.1599060E+01  0.7818608E-02  0.3354385E+00
         11   -1    0    0    0    0  0.00000000000E+00  0.00000000000E+00  0.39999999674E+01  0.40000000000E+01  0.51100000000E-03 0. -1.
    9000002   -1    0    0    0    0 -0.00000000000E+00 -0.00000000000E+00  0.00000000000E+00  0.93800000000E+00  0.93800000000E+00 0. -1.
         11    1    1    2    0    0  0.17882441300E-02  0.20574214411E-02  0.11466103437E-01  0.11796755871E-01  0.51100000000E-03 0. -1.
    9000002    1    1    2    0    0  0.37121623622E+00 -0.21453291766E+00  0.12499660592E+00  0.10388907634E+01  0.93800000000E+00 0. -1.
         22    1    1    2    0    0 -0.37300448035E+00  0.21247549622E+00  0.38635372580E+01  0.38873124807E+01  0.00000000000E+00 0. -1.
</event>
<event>
 5    1  0.7220939E+001  0.1599676E+01  0.7818608E-02  0.3353715E+00
         11   -1    0    0    0    0  0.00000000000E+00  0.00000000000E+00  0.39999999674E+01  0.40000000000E+01  0.51100000000E-03 0.  1.
    9000002   -1    0    0    0    0 -0.00000000000E+00 -0.00000000000E+00  0.00000000000E+00  0.93800000000E+00  0.93800000000E+00 0. -1.
         11    1    1    2    0    0 -0.33952382926E-01 -0.35911218560E-01  0.52848005665E+00  0.53078603158E+00  0.51100000000E-03 0. -1.
    9000002    1    1    2    0    0  0.24677174982E+00  0.26376508140E+00  0.87591185150E-01  0.10089521943E+01  0.93800000000E+00 0. -1.
         22    1    1    2    0    0 -0.21281936690E+00 -0.22785386284E+00  0.33839287256E+01  0.33982617741E+01  0.00000000000E+00 0.  1.
</event>
<event>
 5    1  0.7220939E+001  0.1599604E+01  0.7818608E-02  0.3353793E+00
         11   -1    0    0    0    0  0.00000000000E+00  0.00000000000E+00  0.39999999674E+01  0.40000000000E+01  0.51100000000E-03 0.  1.
    9000002   -1    0    0    0    0 -0.00000000000E+00 -0.00000000000E+00  0.00000000000E+00  0.93800000000E+00  0.93800000000E+00 0.  1.
         11    1    1    2    0    0  0.36743653719E-01 -0.12413656675E+00  0.12187620119E+01  0.12256186544E+01  0.51100000000E-03 0.  1.
    9000002    1    1    2    0    0 -0.90361601761E-01  0.38262562015E+00  0.10422880912E+00  0.10223870250E+01  0.93800000000E+00 0.  1.
         22    1    1    2    0    0  0.53617948042E-01 -0.25848905340E+00  0.26770091463E+01  0.26899943206E+01  0.00000000000E+00 0. -1.
</event>
<event>
 5    1  0.7220939E+001  0.1599437E+01  0.7818608E-02  0.3353974E+00
         11   -1    0    0    0    0  0.00000000000E+00  0.00000000000E+00  0.39999999674E+01  0.40000000000E+01  0.51100000000E-03 0. -1.
    9000002   -1    0    0    0    0 -0.00000000000E+00 -0.00000000000E+00  0.00000000000E+00  0.93800000000E+00  0.93800000000E+00 0.  1.
         11    1    1    2    0    0 -0.94510022244E-01 -0.66015827167E-01  0.10712818219E+01  0.10774670467E+01  0.51100000000E-03 0. -1.
    9000002    1    1    2    0    0  0.36281228763E+00  0.18251468261E+00  0.11154703396E+00  0.10282174411E+01  0.93800000000E+00 0.  1.
         22    1    1    2    0    0 -0.26830226538E+00 -0.11649885544E+00  0.28171711115E+01  0.28323155122E+01  0.00000000000E+00 0. -1.
</event>
<event>
 5    1  0.7220939E+001  0.1599676E+01  0.7818608E-02  0.3353715E+00
         11   -1    0    0    0    0  0.00000000000E+00  0.00000000000E+00  0.39999999674E+01  0.40000000000E+01  0.51100000000E-03 0.  1.
    9000002   -1    0    0    0    0 -0.00000000000E+00 -0.00000000000E+00  0.00000000000E+00  0.93800000000E+00  0.93800000000E+00 0.  1.
         11    1    1    2    0    0  0.63417943024E-01 -0.41261087559E-01  0.63010631561E+00  0.63463260469E+00  0.51100000000E-03 0.  1.
    9000002    1    1    2    0    0 -0.39340690050E+00  0.25319895793E+00  0.14906129651E+00  0.10587454707E+01  0.93800000000E+00 0.  1.
         22    1    1    2    0    0  0.32998895748E+00 -0.21193787037E+00  0.32208323552E+01  0.32446219246E+01  0.00000000000E+00 0.  1.
</event>
<event>
 5    1  0.7220939E+001  0.1599673E+01  0.7818608E-02  0.3353718E+00
         11   -1    0    0    0    0  0.00000000000E+00  0.00000000000E+00  0.39999999674E+01  0.40000000000E+01  0.51100000000E-03 0.  1.
    9000002   -1    0    0    0    0 -0.00000000000E+00 -0.00000000000E+00  0.00000000000E+00  0.93800000000E+00  0.93800000000E+00 0.  1.
         11    1    1    2    0    0  0.15945460824E-02 -0.44619969916E-01  0.38804308446E+00  0.39060361086E+00  0.51100000000E-03 0.  1.
    9000002    1    1    2    0    0 -0.11712535013E-01  0.43266423028E+00  0.12692391786E+00  0.10408117988E+01  0.93800000000E+00 0.  1.
         22    1    1    2    0    0  0.10117988930E-01 -0.38804426036E+00  0.34850329650E+01  0.35065845903E+01  0.00000000000E+00 0.  1.
</event>
<event>
 5    1  0.7220939E+001  0.1599674E+01  0.7818608E-02  0.3353718E+00
         11   -1    0    0    0    0  0.00000000000E+00  0.00000000000E+00  0.39999999674E+01  0.40000000000E+01  0.51100000000E-03 0.  1.
    9000002   -1    0    0    0    0 -0.00000000000E+00 -0.00000000000E+00  0.00000000000E+00  0.93800000000E+00  0.93800000000E+00 0.  1.
         11    1    1    2    0    0 -0.75880196965E-01 -0.13730993790E+00  0.14391018670E+01  0.14476278071E+01  0.51100000000E-03 0.  1.
    9000002    1    1    2    0    0  0.21010560573E+00  0.36974359780E+00  0.12240384090E+00  0.10371506129E+01  0.93800000000E+00 0.  1.
         22    1    1    2    0    0 -0.13422540876E+00 -0.23243365991E+00  0.24384942595E+01  0.24532215799E+01  0.00000000000E+00 0.  1.
</event>
<event>
 5    1  0.7220939E+001  0.1599050E+01  0.7818608E-02  0.3354396E+00
         11   -1    0    0    0    0  0.00000000000E+00  0.00000000000E+00  0.39999999674E+01  0.40000000000E+01  0.51100000000E-03 0.  1.
    9000002   -1    0    0    0    0 -0.00000000000E+00 -0.00000000000E+00  0.00000000000E+00  0.93800000000E+00  0.93800000000E+00 0.  1.
         11    1    1    2    0    0 -0.50810201624E-01  0.90376276593E-01  0.52463772150E+00  0.53478458084E+00  0.51100000000E-03 0.  1.
    9000002    1    1    2    0    0  0.34972108360E+00 -0.49429770121E+00  0.25673142120E+00  0.11455959481E+01  0.93800000000E+00 0.  1.
         22    1    1    2    0    0 -0.29891088197E+00  0.40392142462E+00  0.32186308247E+01  0.32576194710E+01  0.00000000000E+00 0.  1.
</event>
<event>
 5    1  0.7220939E+001  0.1599601E+01  0.7818608E-02  0.3353797E+00
         11   -1    0    0    0    0  0.00000000000E+00  0.00000000000E+00  0.39999999674E+01  0.40000000000E+01  0.51100000000E-03 0.  1.
    9000002   -1    0    0    0    0 -0.00000000000E+00 -0.00000000000E+00  0.00000000000E+00  0.93800000000E+00  0.93800000000E+00 0.  1.
         11    1    1    2    0    0 -0.40596459711E-01 -0.13524385980E+00  0.12576914039E+01  0.12655934982E+01  0.51100000000E-03 0.  1.
    9000002    1    1    2    0    0  0.94890065092E-01  0.41959696411E+00  0.12540159417E+00  0.10395360968E+01  0.93800000000E+00 0.  1.
         22    1    1    2    0    0 -0.54293605381E-01 -0.28435310430E+00  0.26169069693E+01  0.26328704050E+01  0.00000000000E+00 0.  1.
</event>
<event>
 5    1  0.7220939E+001  0.1599657E+01  0.7818608E-02  0.3353736E+00
         11   -1    0    0    0    0  0.00000000000E+00  0.00000000000E+00  0.39999999674E+01  0.40000000000E+01  0.51100000000E-03 0. -1.
    9000002   -1    0    0    0    0 -0.00000000000E+00 -0.00000000000E+00  0.00000000000E+00  0.93800000000E+00  0.93800000000E+00 0.  1.
         11    1    1    2    0    0 -0.11168871099E-01  0.45016333951E-01  0.48290991364E+00  0.48513241473E+00  0.51100000000E-03 0. -1.
    9000002    1    1    2    0    0  0.63138931025E-01 -0.37262262778E+00  0.96097048125E-01  0.10158310834E+01  0.93800000000E+00 0.  1.
         22    1    1    2    0    0 -0.51970059926E-01  0.32760629383E+00  0.34209930056E+01  0.34370365019E+01  0.00000000000E+00 0. -1.
</event>
<event>
 5    1  0.7220939E+001  0.1598946E+01  0.7818608E-02  0.3354508E+00
         11   -1    0    0    0    0  0.00000000000E+00  0.00000000000E+00  0.39999999674E+01  0.40000000000E+01  0.51100000000E-03 0.  1.
    9000002   -1    0    0    0    0 -0.00000000000E+00 -0.00000000000E+00  0.00000000000E+00  0.93800000000E+00  0.93800000000E+00 0. -1.
         11    1    1    2    0    0  0.12069225375E+00  0.69404214652E-01  0.12815366132E+01  0.12890771572E+01  0.51100000000E-03 0.  1.
    9000002    1    1    2    0    0 -0.36174975935E+00 -0.11839833350E+00  0.98089394647E-01  0.10170283099E+01  0.93800000000E+00 0. -1.
         22    1    1    2    0    0  0.24105750560E+00  0.48994118852E-01  0.26203739595E+01  0.26318945330E+01  0.00000000000E+00 0.  1.
</event>
<event>
 5    1  0.7220939E+001  0.1599677E+01  0.7818608E-02  0.3353714E+00
         11   -1    0    0    0    0  0.00000000000E+00  0.00000000000E+00  0.39999999674E+01  0.40000000000E+01  0.51100000000E-03 0. -1.
    9000002   -1    0    0    0    0 -0.00000000000E+00 -0.00000000000E+00  0.00000000000E+00  0.93800000000E+00  0.93800000000E+00 0.  1.
         11    1    1    2    0    0 -0.10546876944E-02 -0.14644242253E+00  0.13129367608E+01  0.13210789888E+01  0.51100000000E-03 0. -1.
    9000002    1    1    2    0    0  0.24487030956E-02  0.43273533578E+00  0.12687220021E+00  0.10407720318E+01  0.93800000000E+00 0.  1.
         22    1    1    2    0    0 -0.13940154012E-02 -0.28629291324E+00  0.25601910063E+01  0.25761489794E+01  0.00000000000E+00 0. -1.
</event>
<event>
 5    1  0.7220939E+001  0.1599584E+01  0.7818608E-02  0.3353815E+00
         11   -1    0    0    0    0  0.00000000000E+00  0.00000000000E+00  0.39999999674E+01  0.40000000000E+01  0.51100000000E-03 0.  1.
    9000002   -1    0    0    0    0 -0.00000000000E+00 -0.00000000000E+00  0.00000000000E+00  0.93800000000E+00  0.93800000000E+00 0.  1.
         11    1    1    2    0    0 -0.13090050299E+00 -0.72671947554E-01  0.14371767536E+01  0.14449544754E+01  0.51100000000E-03 0.  1.
    9000002    1    1    2    0    0  0.34283477526E+00  0.22471564004E+00  0.11356596265E+00  0.10299388476E+01  0.93800000000E+00 0.  1.
         22    1    1    2    0    0 -0.21193427228E+00 -0.15204369248E+00  0.24492572511E+01  0.24631066770E+01  0.00000000000E+00 0.  1.
</event>
<event>
 5    1  0.7220939E+001  0.1591603E+01  0.7818608E-02  0.3362528E+00
         11   -1    0    0    0    0  0.00000000000E+00  0.00000000000E+00  0.39999999674E+01  0.40000000000E+01  0.51100000000E-03 0.  1.
    9000002   -1    0    0    0    0 -0.00000000000E+00 -0.00000000000E+00  0.00000000000E+00  0.93800000000E+00  0.93800000000E+00 0. -1.
         11    1    1    2    0    0 -0.48966819202E-01 -0.14150283283E-01  0.56671502103E+00  0.56900277336E+00  0.51100000000E-03 0.  1.
    9000002    1    1    2    0    0 -0.14709315286E+00  0.29955629577E+00  0.81011037565E-01  0.99888796076E+00  0.93800000000E+00 0. -1.
         22    1    1    2    0    0  0.19605997207E+00 -0.28540601248E+00  0.33522739088E+01  0.33701092659E+01  0.00000000000E+00 0.  1.
</event>
<event>
 5    1  0.7220939E+001  0.1599653E+01  0.7818608E-02  0.3353740E+00
         11   -1    0    0    0    0  0.00000000000E+00  0.00000000000E+00  0.39999999674E+01  0.40000000000E+01  0.51100000000E-03 0. -1.
    9000002   -1    0    0    0    0 -0.00000000000E+00 -0.00000000000E+00  0.00000000000E+00  0.93800000000E+00  0.93800000000E+00 0. -1.
         11    1    1    2    0    0  0.31212890451E-01  0.97974896606E-01  0.97846513687E+00  0.98385344950E+00  0.51100000000E-03 0. -1.
    9000002    1    1    2    0    0 -0.11081256796E+00 -0.37502728505E+00  0.10305370453E+00  0.10214641236E+01  0.93800000000E+00 0. -1.
         22    1    1    2    0    0  0.79599677505E-01  0.27705238845E+00  0.29184811260E+01  0.29326824269E+01  0.00000000000E+00 0. -1.
</event>
<event>
 5    1  0.7220939E+001  0.1595733E+01  0.7818608E-02  0.3358008E+00
         11   -1    0    0    0    0  0.00000000000E+00  0.00000000000E+00  0.39999999674E+01  0.40000000000E+01  0.51100000000E-03 0.  1.
    9000002   -1    0    0    0    0 -0.00000000000E+00 -0.00000000000E+00  0.00000000000E+00  0.93800000000E+00  0.93800000000E+00 0. -1.
         11    1    1    2    0    0  0.76210061299E-01 -0.53278761112E-01  0.43308220111E+00  0.44295265420E+00  0.51100000000E-03 0.  1.
    9000002    1    1    2    0    0 -0.28433462520E+00  0.31172812506E+00  0.12376911902E+00  0.10359456539E+01  0.93800000000E+00 0. -1.
         22    1    1    2    0    0  0.20812456390E+00 -0.25844936395E+00  0.34431486472E+01  0.34591016919E+01  0.00000000000E+00 0.  1.
</event>
<event>
 5    1  0.7220939E+001  0.1599663E+01  0.7818608E-02  0.3353729E+00
         11   -1    0    0    0    0  0.00000000000E+00  0.00000000000E+00  0.39999999674E+01  0.40000000000E+01  0.51100000000E-03 0. -1.
    9000002   -1    0    0    0    0 -0.00000000000E+00 -0.00000000000E+00  0.00000000000E+00  0.93800000000E+00  0.93800000000E+00 0. -1.
         11    1    1    2    0    0  0.33902307543E-02  0.85396173795E-01  0.96976459602E+00  0.97352330890E+00  0.51100000000E-03 0.  1.
    9000002    1    1    2    0    0 -0.12148087919E-01 -0.36000907580E+00  0.87112207224E-01  0.10085567150E+01  0.93800000000E+00 0. -1.
         22    1    1    2    0    0  0.87578571647E-02  0.27461290200E+00  0.29431231641E+01  0.29559199761E+01  0.00000000000E+00 0. -1.
</event>
<event>
 5    1  0.7220939E+001  0.1598032E+01  0.7818608E-02  0.3355502E+00
         11   -1    0    0    0    0  0.00000000000E+00  0.00000000000E+00  0.39999999674E+01  0.40000000000E+01  0.51100000000E-03 0.  1.
    9000002   -1    0    0    0    0 -0.00000000000E+00 -0.00000000000E+00  0.00000000000E+00  0.93800000000E+00  0.93800000000E+00 0.  1.
         11    1    1    2    0    0 -0.89892113779E-01 -0.16403031106E+00  0.12539335582E+01  0.12678076213E+01  0.51100000000E-03 0.  1.
    9000002    1    1    2    0    0  0.36350551637E+00  0.39201736036E+00  0.19837733168E+00  0.10977301294E+01  0.93800000000E+00 0.  1.
         22    1    1    2    0    0 -0.27361340259E+00 -0.22798704929E+00  0.25476890775E+01  0.25724622493E+01  0.00000000000E+00 0.  1.
</event>
<event>
 5    1  0.7220939E+001  0.1599650E+01  0.7818608E-02  0.3353743E+00
         11   -1    0    0    0    0  0.00000000000E+00  0.00000000000E+00  0.39999999674E+01  0.40000000000E+01  0.51100000000E-03 0. -1.
    9000002   -1    0    0    0    0 -0.00000000000E+00 -0.00000000000E+00  0.00000000000E+00  0.93800000000E+00  0.93800000000E+00 0.  1.
         11    1    1    2    0    0 -0.41582397421E-01 -0.21202119892E-01  0.44906852755E+00  0.45148801669E+00  0.51100000000E-03 0. -1.
    9000002    1    1    2    0    0  0.33593434379E+00  0.20791099316E+00  0.10523453590E+00  0.10232287975E+01  0.93800000000E+00 0.  1.
         22    1    1    2    0    0 -0.29435194637E+00 -0.18670887327E+00  0.34456969039E+01  0.34632831858E+01  0.00000000000E+00 0. -1.
</event>
<event>
 5    1  0.7220939E+001  0.1599655E+01  0.7818608E-02  0.3353738E+00
         11   -1    0    0    0    0  0.00000000000E+00  0.00000000000E+00  0.39999999674E+01  0.40000000000E+01  0.51100000000E-03 0.  1.
    9000002   -1    0    0    0    0 -0.00000000000E+00 -0.00000000000E+00  0.00000000000E+00  0.93800000000E+00  0.93800000000E+00 0.  1.
         11    1    1    2    0    0  0.15518354288E-01 -0.14361005317E-01  0.16096334830E+00  0.16234690761E+00  0.51100000000E-03 0.  1.
    9000002    1    1    2    0    0 -0.33408144701E+00  0.30709465094E+00  0.13995338547E+00  0.10513555478E+01  0.93800000000E+00 0.  1.
         22    1    1    2    0    0  0.31856309272E+00 -0.29273364562E+00  0.36990832336E+01  0.37242975445E+01  0.00000000000E+00 0.  1.
</event>
<event>
 5    1  0.7220939E+001  0.1599674E+01  0.7818608E-02  0.3353717E+00
         11   -1    0    0    0    0  0.00000000000E+00  0.00000000000E+00  0.39999999674E+01  0.40000000000E+01  0.51100000000E-03 0. -1.
    9000002   -1    0    0    0    0 -0.00000000000E+00 -0.00000000000E+00  0.00000000000E+00  0.93800000000E+00  0.93800000000E+00 0. -1.
         11    1    1    2    0    0 -0.12731836708E+00 -0.52160907641E-01  0.14931806825E+01  0.14995064317E+01  0.51100000000E-03 0. -1.
    9000002    1    1    2    0    0  0.33662448903E+00  0.13282312437E+00  0.87928120549E-01  0.10092241492E+01  0.93800000000E+00 0. -1.
         22    1    1    2    0    0 -0.20930612195E+00 -0.80662216729E-01  0.24188911643E+01  0.24292694191E+01  0.00000000000E+00 0. -1.
</event>
<event>
 5    1  0.7220939E+001  0.1495574E+01  0.7818608E-02  0.3475135E+00
         11   -1    0    0    0    0  0.00000000000E+00  0.00000000000E+00  0.39999999674E+01  0.40000000000E+01  0.51100000000E-03 0. -1.
    9000002   -1    0    0    0    0 -0.00000000000E+00 -0.00000000000E+00  0.00000000000E+00  0.93800000000E+00  0.93800000000E+00 0. -1.
         11    1    1    2    0    0 -0.54798120189E-01  0.20129402443E+00  0.34362478488E+00  0.40199548772E+00  0.51100000000E-03 0. -1.
    9000002    1    1    2    0    0  0.13671970872E+00  0.24067271222E+00  0.13640946982E+00  0.98745489852E+00  0.93800000000E+00 0. -1.
         22    1    1    2    0    0 -0.81921588527E-01 -0.44196673665E+00  0.35199657127E+01  0.35485496138E+01  0.00000000000E+00 0. -1.
</event>
<event>
 5    1  0.7220939E+001  0.1588175E+01  0.7818608E-02  0.3366299E+00
         11   -1    0    0    0    0  0.00000000000E+00  0.00000000000E+00  0.39999999674E+01  0.40000000000E+01  0.51100000000E-03 0. -1.
    9000002   -1    0    0    0    0 -0.00000000000E+00 -0.00000000000E+00  0.00000000000E+00  0.93800000000E+00  0.93800000000E+00 0.  1.
         11    1    1    2    0    0  0.72454151474E-01 -0.17099885285E-01  0.35167467485E+00  0.35946814629E+00  0.51100000000E-03 0. -1.
    9000002    1    1    2    0    0 -0.12508676291E+00  0.65849261314E+00  0.33111793017E+00  0.11994758453E+01  0.93800000000E+00 0.  1.
         22    1    1    2    0    0  0.52632611432E-01 -0.64139272785E+00  0.33172073623E+01  0.33790560084E+01  0.00000000000E+00 0. -1.
</event>
<event>
 5    1  0.7220939E+001  0.1598996E+01  0.7818608E-02  0.3354454E+00
         11   -1    0    0    0    0  0.00000000000E+00  0.00000000000E+00  0.39999999674E+01  0.40000000000E+01  0.51100000000E-03 0.  1.
    9000002   -1    0    0    0    0 -0.00000000000E+00 -0.00000000000E+00  0.00000000000E+00  0.93800000000E+00  0.93800000000E+00 0.  1.
         11    1    1    2    0    0  0.74973483495E-01  0.13281228200E+00  0.13693444359E+01  0.13778115150E+01  0.51100000000E-03 0.  1.
    9000002    1    1    2    0    0 -0.24046846963E+00 -0.29717766903E+00  0.98915709896E-01  0.10177268639E+01  0.93800000000E+00 0.  1.
         22    1    1    2    0    0  0.16549498613E+00  0.16436538704E+00  0.25317398216E+01  0.25424616211E+01  0.00000000000E+00 0.  1.
</event>
<event>
 5    1  0.7220939E+001  0.1571011E+01  0.7818608E-02  0.3385441E+00
         11   -1    0    0    0    0  0.00000000000E+00  0.00000000000E+00  0.39999999674E+01  0.40000000000E+01  0.51100000000E-03 0.  1.
    9000002   -1    0    0    0    0 -0.00000000000E+00 -0.00000000000E+00  0.00000000000E+00  0.93800000000E+00  0.93800000000E+00 0. -1.
         11    1    1    2    0    0  0.73071852378E-01  0.58384355241E-01  0.13894859388E+01  0.13926304836E+01  0.51100000000E-03 0.  1.
    9000002    1    1    2    0    0  0.22336016338E+00  0.17949930523E+00  0.77336224457E-01  0.98383670127E+00  0.93800000000E+00 0. -1.
         22    1    1    2    0    0 -0.29643201575E+00 -0.23788366047E+00  0.25331778041E+01  0.25615328151E+01  0.00000000000E+00 0.  1.
</event>
<event>
 5    1  0.7220939E+001  0.1598895E+01  0.7818608E-02  0.3354564E+00
         11   -1    0    0    0    0  0.00000000000E+00  0.00000000000E+00  0.39999999674E+01  0.40000000000E+01  0.51100000000E-03 0.  1.
    9000002   -1    0    0    0    0 -0.00000000000E+00 -0.00000000000E+00  0.00000000000E+00  0.93800000000E+00  0.93800000000E+00 0. -1.
         11    1    1    2    0    0 -0.16904447071E+00  0.62786286271E-01  0.11585884626E+01  0.11725381178E+01  0.51100000000E-03 0.  1.
    9000002    1    1    2    0    0  0.50765527928E+00 -0.29592339135E+00  0.24104422660E+00  0.11327977998E+01  0.93800000000E+00 0. -1.
         22    1    1    2    0    0 -0.33861080857E+00  0.23313710508E+00  0.26003672781E+01  0.26326640824E+01  0.00000000000E+00 0.  1.
</event>
<event>
 5    1  0.7220939E+001  0.1592536E+01  0.7818608E-02  0.3361505E+00
         11   -1    0    0    0    0  0.00000000000E+00  0.00000000000E+00  0.39999999674E+01  0.40000000000E+01  0.51100000000E-03 0.  1.
    9000002   -1    0    0    0    0 -0.00000000000E+00 -0.00000000000E+00  0.00000000000E+00  0.93800000000E+00  0.93800000000E+00 0.  1.
         11    1    1    2    0    0 -0.21092031522E+00  0.24183508390E+00  0.12065584560E+01  0.12485011638E+01  0.51100000000E-03 0.  1.
    9000002    1    1    2    0    0  0.46205093148E+00 -0.49798301509E+00  0.33585331592E+00  0.12058688139E+01  0.93800000000E+00 0.  1.
         22    1    1    2    0    0 -0.25113061626E+00  0.25614793119E+00  0.24575881954E+01  0.24836300222E+01  0.00000000000E+00 0.  1.
</event>
<event>
 5    1  0.7220939E+001  0.1599672E+01  0.7818608E-02  0.3353720E+00
         11   -1    0    0    0    0  0.00000000000E+00  0.00000000000E+00  0.39999999674E+01  0.40000000000E+01  0.51100000000E-03 0.  1.
    9000002   -1    0    0    0    0 -0.00000000000E+00 -0.00000000000E+00  0.00000000000E+00  0.93800000000E+00  0.93800000000E+00 0. -1.
         11    1    1    2    0    0 -0.14414535521E+00  0.16724819650E-02  0.95684077171E+00  0.96763898441E+00  0.51100000000E-03 0.  1.
    9000002    1    1    2    0    0  0.57551753467E+00 -0.12023411807E-01  0.23003105303E+00  0.11243323710E+01  0.93800000000E+00 0. -1.
         22    1    1    2    0    0 -0.43137217946E+00  0.10350929842E-01  0.28131281426E+01  0.28460286446E+01  0.00000000000E+00 0.  1.
</event>
<event>
 5    1  0.7220939E+001  0.1599676E+01  0.7818608E-02  0.3353715E+00
         11   -1    0    0    0    0  0.00000000000E+00  0.00000000000E+00  0.39999999674E+01  0.40000000000E+01  0.51100000000E-03 0.  1.
    9000002   -1    0    0    0    0 -0.00000000000E+00 -0.00000000000E+00  0.00000000000E+00  0.93800000000E+00  0.93800000000E+00 0.  1.
         11    1    1    2    0    0  0.22178160309E-01  0.19667398442E-01  0.23746298874E+00  0.23930651787E+00  0.51100000000E-03 0.  1.
    9000002    1    1    2    0    0 -0.36384560404E+00 -0.32218108221E+00  0.16130914389E+00  0.10686668860E+01  0.93800000000E+00 0.  1.
         22    1    1    2    0    0  0.34166744373E+00  0.30251368377E+00  0.36012278347E+01  0.36300265961E+01  0.00000000000E+00 0.  1.
</event>
<event>
 5    1  0.7220939E+001  0.1599673E+01  0.7818608E-02  0.3353718E+00
         11   -1    0    0    0    0  0.00000000000E+00  0.00000000000E+00  0.39999999674E+01  0.40000000000E+01  0.51100000000E-03 0. -1.
    9000002   -1    0    0    0    0 -0.00000000000E+00 -0.00000000000E+00  0.00000000000E+00  0.93800000000E+00  0.93800000000E+00 0.  1.
         11    1    1    2    0    0  0.16240665274E-01 -0.20862096428E+00  0.10736256531E+01  0.10938275778E+01  0.51100000000E-03 0. -1.
    9000002    1    1    2    0    0 -0.57546232356E-01  0.70142854848E+00  0.35435459729E+00  0.12250407169E+01  0.93800000000E+00 0.  1.
         22    1    1    2    0    0  0.41305567082E-01 -0.49280758420E+00  0.25720197170E+01  0.26191317052E+01  0.00000000000E+00 0. -1.
</event>
<event>
 5    1  0.7220939E+001  0.1599676E+01  0.7818608E-02  0.3353715E+00
         11   -1    0    0    0    0  0.00000000000E+00  0.00000000000E+00  0.39999999674E+01  0.40000000000E+01  0.51100000000E-03 0.  1.
    9000002   -1    0    0    0    0 -0.00000000000E+00 -0.00000000000E+00  0.00000000000E+00  0.93800000000E+00  0.93800000000E+00 0.  1.
         11    1    1    2    0    0  0.81923531442E-01  0.94078842270E-01  0.85300553082E+00  0.86207945707E+00  0.51100000000E-03 0.  1.
    9000002    1    1    2    0    0 -0.36778427818E+00 -0.41901911657E+00  0.21501013701E+00  0.11121670982E+01  0.93800000000E+00 0.  1.
         22    1    1    2    0    0  0.28586074674E+00  0.32494027430E+00  0.29319842995E+01  0.29637534447E+01  0.00000000000E+00 0.  1.
</event>
<event>
 5    1  0.7220939E+001  0.1543355E+01  0.7818608E-02  0.3417236E+00
         11   -1    0    0    0    0  0.00000000000E+00  0.00000000000E+00  0.39999999674E+01  0.40000000000E+01  0.51100000000E-03 0.  1.
    9000002   -1    0    0    0    0 -0.00000000000E+00 -0.00000000000E+00  0.00000000000E+00  0.93800000000E+00  0.93800000000E+00 0.  1.
         11    1    1    2    0    0  0.24729211895E+00 -0.11500758495E+00  0.12703573363E+01  0.12993029514E+01  0.51100000000E-03 0.  1.
    9000002    1    1    2    0    0 -0.52679980655E+00 -0.42834965771E+00  0.39197853007E+00  0.12224944309E+01  0.93800000000E+00 0.  1.
         22    1    1    2    0    0  0.27950768760E+00  0.54335724266E+00  0.23376641010E+01  0.24162026177E+01  0.00000000000E+00 0.  1.
</event>
<event>
 5    1  0.1427987E+002  0.1530769E+01  0.7818608E-02  0.3432112E+00
         11   -1    0    0    0    0  0.00000000000E+00  0.00000000000E+00  0.39999999674E+01  0.40000000000E+01  0.51100000000E-03 0. -1.
    9000002   -1    0    0    0    0 -0.00000000000E+00 -0.00000000000E+00  0.00000000000E+00  0.93800000000E+00  0.93800000000E+00 0.  1.
         11    1    1    2    0    0 -0.22729523397E+00 -0.11303888551E+00  0.93397338173E+00  0.96785714438E+00  0.51100000000E-03 0. -1.
    9000002    1    1    2    0    0 -0.46562032252E-01 -0.53301575315E-01  0.55167812577E-01  0.94228263718E+00  0.93800000000E+00 0.  1.
         22    1    1    2    0    0  0.27385726623E+00  0.16634046083E+00  0.30108587731E+01  0.30278602184E+01  0.00000000000E+00 0. -1.
</event>
<event>
 5    1  0.7220939E+001  0.1599670E+01  0.7818608E-02  0.3353721E+00
         11   -1    0    0    0    0  0.00000000000E+00  0.00000000000E+00  0.39999999674E+01  0.40000000000E+01  0.51100000000E-03 0. -1.
    9000002   -1    0    0    0    0 -0.00000000000E+00 -0.00000000000E+00  0.00000000000E+00  0.93800000000E+00  0.93800000000E+00 0. -1.
         11    1    1    2    0    0  0.49339918224E-01  0.22564787119E-01  0.51990938301E+00  0.52273284267E+00  0.51100000000E-03 0. -1.
    9000002    1    1    2    0    0 -0.35522280094E+00 -0.17515555267E+00  0.10575935718E+00  0.10236658378E+01  0.93800000000E+00 0. -1.
         22    1    1    2    0    0  0.30588288272E+00  0.15259076555E+00  0.33743312272E+01  0.33916013195E+01  0.00000000000E+00 0. -1.
</event>
<event>
 5    1  0.7220939E+001  0.1540533E+01  0.7818608E-02  0.3420549E+00
         11   -1    0    0    0    0  0.00000000000E+00  0.00000000000E+00  0.39999999674E+01  0.40000000000E+01  0.51100000000E-03 0.  1.
    9000002   -1    0    0    0    0 -0.00000000000E+00 -0.00000000000E+00  0.00000000000E+00  0.93800000000E+00  0.93800000000E+00 0.  1.
         11    1    1    2    0    0  0.15360548839E+00  0.25878662785E+00  0.14380028139E+01  0.14691553760E+01  0.51100000000E-03 0.  1.
    9000002    1    1    2    0    0 -0.20841534278E+00  0.34743963145E-01  0.75478984022E-01  0.96446108014E+00  0.93800000000E+00 0.  1.
         22    1    1    2    0    0  0.54809854386E-01 -0.29353059100E+00  0.24865181694E+01  0.25043835439E+01  0.00000000000E+00 0.  1.
</event>
<event>
 5    1  0.7220939E+001  0.1599660E+01  0.7818608E-02  0.3353733E+00
         11   -1    0    0    0    0  0.00000000000E+00  0.00000000000E+00  0.39999999674E+01  0.40000000000E+01  0.51100000000E-03 0. -1.
    9000002   -1    0    0    0    0 -0.00000000000E+00 -0.00000000000E+00  0.00000000000E+00  0.93800000000E+00  0.93800000000E+00 0.  1.
         11    1    1    2    0    0  0.11924453141E+00  0.13821516052E+00  0.13644422646E+01  0.13765993039E+01  0.51100000000E-03 0. -1.
    9000002    1    1    2    0    0 -0.32174151672E+00 -0.39259547326E+00  0.17661792602E+00  0.10810581395E+01  0.93800000000E+00 0.  1.
         22    1    1    2    0    0  0.20249698531E+00  0.25438031274E+00  0.24589397767E+01  0.24803425566E+01  0.00000000000E+00 0. -1.
</event>
<event>
 5    1  0.7220939E+001  0.1599628E+01  0.7818608E-02  0.3353767E+00
         11   -1    0    0    0    0  0.00000000000E+00  0.00000000000E+00  0.39999999674E+01  0.40000000000E+01  0.51100000000E-03 0.  1.
    9000002   -1    0    0    0    0 -0.00000000000E+00 -0.00000000000E+00  0.00000000000E+00  0.93800000000E+00  0.93800000000E+00 0.  1.
         11    1    1    2    0    0  0.10451010956E+00 -0.70649785322E-02  0.98492041972E+00  0.99047502302E+00  0.51100000000E-03 0.  1.
    9000002    1    1    2    0    0 -0.40003726297E+00  0.53920783002E-01  0.10999725659E+00  0.10270738333E+01  0.93800000000E+00 0.  1.
         22    1    1    2    0    0  0.29552715341E+00 -0.46855804469E-01  0.29050822910E+01  0.29204511437E+01  0.00000000000E+00 0.  1.
</event>
<event>
 5    1  0.7220939E+001  0.1599495E+01  0.7818608E-02  0.3353911E+00
         11   -1    0    0    0    0  0.00000000000E+00  0.00000000000E+00  0.39999999674E+01  0.40000000000E+01  0.51100000000E-03 0. -1.
    9000002   -1    0    0    0    0 -0.00000000000E+00 -0.00000000000E+00  0.00000000000E+00  0.93800000000E+00  0.93800000000E+00 0. -1.
         11    1    1    2    0    0 -0.12393628735E+00  0.17685059911E+00  0.90484399298E+00  0.93025762586E+00  0.51100000000E-03 0. -1.
    9000002    1    1    2    0    0  0.52613850479E+00 -0.65824849540E+00  0.53136361072E+00  0.13683216342E+01  0.93800000000E+00 0. -1.
         22    1    1    2    0    0 -0.40220221744E+00  0.48139789629E+00  0.25637923637E+01  0.26394207399E+01  0.00000000000E+00 0. -1.
</event>
<event>
 5    1  0.7220939E+001  0.1599675E+01  0.7818608E-02  0.3353716E+00
         11   -1    0    0    0    0  0.00000000000E+00  0.00000000000E+00  0.39999999674E+01  0.40000000000E+01  0.51100000000E-03 0.  1.
    9000002   -1    0    0    0    0 -0.00000000000E+00 -0.00000000000E+00  0.00000000000E+00  0.93800000000E+00  0.93800000000E+00 0.  1.
         11    1    1    2    0    0  0.67989258320E-02 -0.47089352258E-01  0.51766394563E+00  0.51984599086E+00  0.51100000000E-03 0.  1.
    9000002    1    1    2    0    0 -0.58867975769E-01  0.35277214777E+00  0.85842282452E-01  0.10075348750E+01  0.93800000000E+00 0.  1.
         22    1    1    2    0    0  0.52069049937E-01 -0.30568279551E+00  0.33964937393E+01  0.34106191342E+01  0.00000000000E+00 0.  1.
</event>
<event>
 5    1  0.7849774E+001  0.1599369E+01  0.7818608E-02  0.3354049E+00
         11   -1    0    0    0    0  0.00000000000E+00  0.00000000000E+00  0.39999999674E+01  0.40000000000E+01  0.51100000000E-03 0.  1.
    9000002   -1    0    0    0    0 -0.00000000000E+00 -0.00000000000E+00  0.00000000000E+00  0.93800000000E+00  0.93800000000E+00 0. -1.
         11    1    1    2    0    0 -0.87796667246E-01 -0.62788585367E-01  0.14544880498E+01  0.14584877131E+01  0.51100000000E-03 0.  1.
    9000002    1    1    2    0    0  0.27647303653E+00  0.20738581047E+00  0.80298981448E-01  0.10028649664E+01  0.93800000000E+00 0. -1.
         22    1    1    2    0    0 -0.18867636928E+00 -0.14459722511E+00  0.24652129361E+01  0.24766473205E+01  0.00000000000E+00 0.  1.
</event>
<event>
 5    1  0.7220939E+001  0.1582953E+01  0.7818608E-02  0.3372076E+00
         11   -1    0    0    0    0  0.00000000000E+00  0.00000000000E+00  0.39999999674E+01  0.40000000000E+01  0.51100000000E-03 0. -1.
    9000002   -1    0    0    0    0 -0.00000000000E+00 -0.00000000000E+00  0.00000000000E+00  0.93800000000E+00  0.93800000000E+00 0. -1.
         11    1    1    2    0    0  0.39568585218E-01 -0.69935509170E-01  0.62443421102E+00  0.62958319021E+00  0.51100000000E-03 0. -1.
    9000002    1    1    2    0    0  0.21976788503E+00 -0.10077573923E+00  0.51651900513E-01  0.97003380958E+00  0.93800000000E+00 0. -1.
         22    1    1    2    0    0 -0.25933647025E+00  0.17071124840E+00  0.33239138558E+01  0.33383830002E+01  0.00000000000E+00 0. -1.
</event>
<event>
 5    1  0.7220939E+001  0.1599667E+01  0.7818608E-02  0.3353724E+00
         11   -1    0    0    0    0  0.00000000000E+00  0.00000000000E+00  0.39999999674E+01  0.40000000000E+01  0.51100000000E-03 0.  1.
    9000002   -1    0    0    0    0 -0.00000000000E+00 -0.00000000000E+00  0.00000000000E+00  0.93800000000E+00  0.93800000000E+00 0.  1.
         11    1    1    2    0    0 -0.59269810279E-01 -0.42532132785E-01  0.83526847397E+00  0.83844831532E+00  0.51100000000E-03 0.  1.
    9000002    1    1    2    0    0  0.29196053541E+00  0.20159048220E+00  0.84456361963E-01  0.10064077473E+01  0.93800000000E+00 0.  1.
         22    1    1    2    0    0 -0.23269072513E+00 -0.15905834942E+00  0.30802751314E+01  0.30931439374E+01  0.00000000000E+00 0.  1.
</event>
<event>
 5    1  0.7220939E+001  0.1589586E+01  0.7818608E-02  0.3364745E+00
         11   -1    0    0    0    0  0.00000000000E+00  0.00000000000E+00  0.39999999674E+01  0.40000000000E+01  0.51100000000E-03 0. -1.
    9000002   -1    0    0    0    0 -0.00000000000E+00 -0.00000000000E+00  0.00000000000E+00  0.93800000000E+00  0.93800000000E+00 0. -1.
         11    1    1    2    0    0  0.73821588565E-01  0.25685741293E-01  0.14339340344E+01  0.14360628330E+01  0.51100000000E-03 0. -1.
    9000002    1    1    2    0    0 -0.83257858644E-01  0.22633318802E+00  0.46331092029E-01  0.96961288828E+00  0.93800000000E+00 0. -1.
         22    1    1    2    0    0  0.94362700789E-02 -0.25201892931E+00  0.25197348409E+01  0.25323242787E+01  0.00000000000E+00 0. -1.
</event>
<event>
 5    1  0.7220939E+001  0.1599637E+01  0.7818608E-02  0.3353757E+00
         11   -1    0    0    0    0  0.00000000000E+00  0.00000000000E+00  0.39999999674E+01  0.40000000000E+01  0.51100000000E-03 0. -1.
    9000002   -1    0    0    0    0 -0.00000000000E+00 -0.00000000000E+00  0.00000000000E+00  0.93800000000E+00  0.93800000000E+00 0. -1.
         11    1    1    2    0    0 -0.72054909902E-01  0.35192801486E-01  0.85007567086E+00  0.85384972368E+00  0.51100000000E-03 0. -1.
    9000002    1    1    2    0    0  0.32679205365E+00 -0.19009260760E+00  0.96177993314E-01  0.10158850586E+01  0.93800000000E+00 0. -1.
         22    1    1    2    0    0 -0.25473714375E+00  0.15489980612E+00  0.30537463032E+01  0.30682652178E+01  0.00000000000E+00 0. -1.
</event>
<event>
 5    1  0.7220939E+001  0.1599653E+01  0.7818608E-02  0.3353740E+00
         11   -1    0    0    0    0  0.00000000000E+00  0.00000000000E+00  0.39999999674E+01  0.40000000000E+01  0.51100000000E-03 0.  1.
    9000002   -1    0    0    0    0 -0.00000000000E+00 -0.00000000000E+00  0.00000000000E+00  0.93800000000E+00  0.93800000000E+00 0. -1.
         11    1    1    2    0    0 -0.71993695751E-01  0.50316089429E-01  0.93288407501E+00  0.93701001041E+00  0.51100000000E-03 0.  1.
    9000002    1    1    2    0    0  0.32186204196E+00 -0.20735083240E+00  0.98685403191E-01  0.10179255133E+01  0.93800000000E+00 0. -1.
         22    1    1    2    0    0 -0.24986834621E+00  0.15703474297E+00  0.29684304892E+01  0.29830644763E+01  0.00000000000E+00 0.  1.
</event>
<event>
 5    1  0.7220939E+001  0.1592927E+01  0.7818608E-02  0.3361076E+00
         11   -1    0    0    0    0  0.00000000000E+00  0.00000000000E+00  0.39999999674E+01  0.40000000000E+01  0.51100000000E-03 0. -1.
    9000002   -1    0    0    0    0 -0.00000000000E+00 -0.00000000000E+00  0.00000000000E+00  0.93800000000E+00  0.93800000000E+00 0.  1.
         11    1    1    2    0    0 -0.91926570810E-01 -0.69477712431E-01  0.14503041785E+01  0.14548746057E+01  0.51100000000E-03 0. -1.
    9000002    1    1    2    0    0  0.47691369915E+00  0.83273186486E-01  0.16604879321E+00  0.10685491574E+01  0.93800000000E+00 0.  1.
         22    1    1    2    0    0 -0.38498712834E+00 -0.13795474055E-01  0.23836469957E+01  0.24145762369E+01  0.00000000000E+00 0. -1.
</event>
<event>
 5    1  0.7220939E+001  0.1566306E+01  0.7818608E-02  0.3390766E+00
         11   -1    0    0    0    0  0.00000000000E+00  0.00000000000E+00  0.39999999674E+01  0.40000000000E+01  0.51100000000E-03 0.  1.
    9000002   -1    0    0    0    0 -0.00000000000E+00 -0.00000000000E+00  0.00000000000E+00  0.93800000000E+00  0.93800000000E+00 0.  1.
         11    1    1    2    0    0 -0.19909856751E+00 -0.96179490298E-01  0.99224199890E+00  0.10165801392E+01  0.51100000000E-03 0.  1.
    9000002    1    1    2    0    0  0.32828575275E-01  0.49311798070E+00  0.19758313150E+00  0.10784832646E+01  0.93800000000E+00 0.  1.
         22    1    1    2    0    0  0.16626999224E+00 -0.39693849040E+00  0.28101748370E+01  0.28429365962E+01  0.00000000000E+00 0.  1.
</event>
<event>
 5    1  0.7220939E+001  0.1599676E+01  0.7818608E-02  0.3353715E+00
         11   -1    0    0    0    0  0.00000000000E+00  0.00000000000E+00  0.39999999674E+01  0.40000000000E+01  0.51100000000E-03 0.  1.
    9000002   -1    0    0    0    0 -0.00000000000E+00 -0.00000000000E+00  0.00000000000E+00  0.93800000000E+00  0.93800000000E+00 0.  1.
         11    1    1    2    0    0  0.27327403142E-01 -0.92274908121E-01  0.99772646438E+00  0.10023571242E+01  0.51100000000E-03 0. -1.
    9000002    1    1    2    0    0 -0.10538031742E+00  0.35841662113E+00  0.93835027770E-01  0.10140101075E+01  0.93800000000E+00 0.  1.
         22    1    1    2    0    0  0.78052914273E-01 -0.26614171300E+00  0.29084384752E+01  0.29216327683E+01  0.00000000000E+00 0.  1.
</event>
<event>
 5    1  0.7220939E+001  0.1598424E+01  0.7818608E-02  0.3355076E+00
         11   -1    0    0    0    0  0.00000000000E+00  0.00000000000E+00  0.39999999674E+01  0.40000000000E+01  0.51100000000E-03 0. -1.
    9000002   -1    0    0    0    0 -0.00000000000E+00 -0.00000000000E+00  0.00000000000E+00  0.93800000000E+00  0.93800000000E+00 0.  1.
         11    1    1    2    0    0 -0.74105198084E-01  0.16029875578E+00  0.14652794523E+01  0.14758832630E+01  0.51100000000E-03 0. -1.
    9000002    1    1    2    0    0  0.86906785966E-01 -0.41736798789E+00  0.12408723573E+00  0.10377815131E+01  0.93800000000E+00 0.  1.
         22    1    1    2    0    0 -0.12801587882E-01  0.25706923211E+00  0.24106332793E+01  0.24243352240E+01  0.00000000000E+00 0. -1.
</event>
<event>
 5    1  0.7220939E+001  0.1591203E+01  0.7818608E-02  0.3362967E+00
         11   -1    0    0    0    0  0.00000000000E+00  0.00000000000E+00  0.39999999674E+01  0.40000000000E+01  0.51100000000E-03 0.  1.
    9000002   -1    0    0    0    0 -0.00000000000E+00 -0.00000000000E+00  0.00000000000E+00  0.93800000000E+00  0.93800000000E+00 0.  1.
         11    1    1    2    0    0  0.31799842877E+00 -0.20880049768E-01  0.12920585288E+01  0.13307796512E+01  0.51100000000E-03 0.  1.
    9000002    1    1    2    0    0 -0.63608784196E+00 -0.75461312468E-01  0.29775346828E+00  0.11742245442E+01  0.93800000000E+00 0.  1.
         22    1    1    2    0    0  0.31808941320E+00  0.96341362236E-01  0.24101879703E+01  0.24329958046E+01  0.00000000000E+00 0.  1.
</event>
<event>
 5    1  0.7220939E+001  0.1599673E+01  0.7818608E-02  0.3353719E+00
         11   -1    0    0    0    0  0.00000000000E+00  0.00000000000E+00  0.39999999674E+01  0.40000000000E+01  0.51100000000E-03 0.  1.
    9000002   -1    0    0    0    0 -0.00000000000E+00 -0.00000000000E+00  0.00000000000E+00  0.93800000000E+00  0.93800000000E+00 0. -1.
         11    1    1    2    0    0 -0.14780657834E+00  0.97058545571E-01  0.12398318378E+01  0.12523778955E+01  0.51100000000E-03 0.  1.
    9000002    1    1    2    0    0  0.45054226541E+00 -0.30417497031E+00  0.20386809894E+00  0.11031395865E+01  0.93800000000E+00 0. -1.
         22    1    1    2    0    0 -0.30273568707E+00  0.20711642474E+00  0.25563000306E+01  0.25824825180E+01  0.00000000000E+00 0.  1.
</event>
<event>
 5    1  0.7220939E+001  0.1599591E+01  0.7818608E-02  0.3353807E+00
         11   -1    0    0    0    0  0.00000000000E+00  0.00000000000E+00  0.39999999674E+01  0.40000000000E+01  0.51100000000E-03 0. -1.
    9000002   -1    0    0    0    0 -0.00000000000E+00 -0.00000000000E+00  0.00000000000E+00  0.93800000000E+00  0.93800000000E+00 0. -1.
         11    1    1    2    0    0 -0.70707886218E-01  0.18261397856E-01  0.89920234175E+00  0.90216306528E+00  0.51100000000E-03 0. -1.
    9000002    1    1    2    0    0  0.34477089444E+00 -0.96905209919E-01  0.86145477675E-01  0.10077314288E+01  0.93800000000E+00 0. -1.
         22    1    1    2    0    0 -0.27406300822E+00  0.78643812063E-01  0.30146521479E+01  0.30281055059E+01  0.00000000000E+00 0. -1.
</event>
<event>
 5    1  0.7220939E+001  0.1599634E+01  0.7818608E-02  0.3353761E+00
         11   -1    0    0    0    0  0.00000000000E+00  0.00000000000E+00  0.39999999674E+01  0.40000000000E+01  0.51100000000E-03 0. -1.
    9000002   -1    0    0    0    0 -0.00000000000E+00 -0.00000000000E+00  0.00000000000E+00  0.93800000000E+00  0.93800000000E+00 0.  1.
         11    1    1    2    0    0  0.20978799800E-01  0.10548518087E+00  0.11742084558E+01  0.11791238240E+01  0.51100000000E-03 0. -1.
    9000002    1    1    2    0    0 -0.82528127869E-01 -0.37104548896E+00  0.97252298613E-01  0.10167534885E+01  0.93800000000E+00 0.  1.
         22    1    1    2    0    0  0.61549328069E-01  0.26556030809E+00  0.27285392129E+01  0.27421226875E+01  0.00000000000E+00 0. -1.
</event>
<event>
 5    1  0.7220939E+001  0.1597785E+01  0.7818608E-02  0.3355771E+00
         11   -1    0    0    0    0  0.00000000000E+00  0.00000000000E+00  0.39999999674E+01  0.40000000000E+01  0.51100000000E-03 0. -1.
    9000002   -1    0    0    0    0 -0.00000000000E+00 -0.00000000000E+00  0.00000000000E+00  0.93800000000E+00  0.93800000000E+00 0.  1.
         11    1    1    2    0    0 -0.33746198976E-01 -0.11738324140E+00  0.12489445234E+01  0.12549025122E+01  0.51100000000E-03 0. -1.
    9000002    1    1    2    0    0  0.29281243117E-01  0.49195791551E+00  0.16776219851E+00  0.10727852241E+01  0.93800000000E+00 0.  1.
         22    1    1    2    0    0  0.44649558587E-02 -0.37457467410E+00  0.25832932454E+01  0.26103122637E+01  0.00000000000E+00 0. -1.
</event>
<event>
 5    1  0.7220939E+001  0.1599677E+01  0.7818608E-02  0.3353715E+00
         11   -1    0    0    0    0  0.00000000000E+00  0.00000000000E+00  0.39999999674E+01  0.40000000000E+01  0.51100000000E-03 0. -1.
    9000002   -1    0    0    0    0 -0.00000000000E+00 -0.00000000000E+00  0.00000000000E+00  0.93800000000E+00  0.93800000000E+00 0. -1.
         11    1    1    2    0    0  0.85279022213E-01  0.77135327062E-01  0.11732847896E+01  0.11789062002E+01  0.51100000000E-03 0. -1.
    9000002    1    1    2    0    0 -0.28542421392E+00 -0.25784455875E+00  0.99603966150E-01  0.10186833406E+01  0.93800000000E+00 0. -1.
         22    1    1    2    0    0  0.20014519170E+00  0.18070923169E+00  0.27271112116E+01  0.27404104592E+01  0.00000000000E+00 0. -1.
</event>
<event>
 5    1  0.7220939E+001  0.1571536E+01  0.7818608E-02  0.3384848E+00
         11   -1    0    0    0    0  0.00000000000E+00  0.00000000000E+00  0.39999999674E+01  0.40000000000E+01  0.51100000000E-03 0.  1.
    9000002   -1    0    0    0    0 -0.00000000000E+00 -0.00000000000E+00  0.00000000000E+00  0.93800000000E+00  0.93800000000E+00 0. -1.
         11    1    1    2    0    0 -0.26523146791E-01 -0.12039488448E+00  0.79758821233E+00  0.80705986339E+00  0.51100000000E-03 0.  1.
    9000002    1    1    2    0    0 -0.80549646540E-01 -0.17803029116E+00  0.46629552342E-01  0.95927125740E+00  0.93800000000E+00 0. -1.
         22    1    1    2    0    0  0.10707279333E+00  0.29842517564E+00  0.31557822027E+01  0.31716688792E+01  0.00000000000E+00 0.  1.
</event>
<event>
 5    1  0.7220939E+001  0.1564520E+01  0.7818608E-02  0.3392796E+00
         11   -1    0    0    0    0  0.00000000000E+00  0.00000000000E+00  0.39999999674E+01  0.40000000000E+01  0.51100000000E-03 0.  1.
    9000002   -1    0    0    0    0 -0.00000000000E+00 -0.00000000000E+00  0.00000000000E+00  0.93800000000E+00  0.93800000000E+00 0. -1.
         11    1    1    2    0    0  0.95576140927E-01  0.13907327960E+00  0.14865950872E+01  0.14961421692E+01  0.51100000000E-03 0.  1.
    9000002    1    1    2    0    0  0.45026742115E-01  0.12851306916E+00  0.38555390126E-01  0.94861664257E+00  0.93800000000E+00 0. -1.
         22    1    1    2    0    0 -0.14060288304E+00 -0.26758634876E+00  0.24748494900E+01  0.24932411883E+01  0.00000000000E+00 0.  1.
</event>
<event>
 5    1  0.7220939E+001  0.1562059E+01  0.7818608E-02  0.3395601E+00
         11   -1    0    0    0    0  0.00000000000E+00  0.00000000000E+00  0.39999999674E+01  0.40000000000E+01  0.51100000000E-03 0. -1.
    9000002   -1    0    0    0    0 -0.00000000000E+00 -0.00000000000E+00  0.00000000000E+00  0.93800000000E+00  0.93800000000E+00 0. -1.
         11    1    1    2    0    0  0.32160957884E-01 -0.38702724177E-01  0.40782149764E-01  0.64774014320E-01  0.51100000000E-03 0. -1.
    9000002    1    1    2    0    0  0.41865020839E+00  0.44760187709E-02  0.15096514196E+00  0.10382304685E+01  0.93800000000E+00 0. -1.
         22    1    1    2    0    0 -0.45081116627E+00  0.34226705406E-01  0.38082526756E+01  0.38349955171E+01  0.00000000000E+00 0. -1.
</event>
<event>
 5    1  0.7220939E+001  0.1580185E+01  0.7818608E-02  0.3375154E+00
         11   -1    0    0    0    0  0.00000000000E+00  0.00000000000E+00  0.39999999674E+01  0.40000000000E+01  0.51100000000E-03 0.  1.
    9000002   -1    0    0    0    0 -0.00000000000E+00 -0.00000000000E+00  0.00000000000E+00  0.93800000000E+00  0.93800000000E+00 0.  1.
         11    1    1    2    0    0 -0.21300656772E+00  0.30933102960E-01  0.62511228722E+00  0.66113106681E+00  0.51100000000E-03 0.  1.
    9000002    1    1    2    0    0  0.51528327793E+00 -0.17256971655E+00  0.22222477392E+00  0.11065825833E+01  0.93800000000E+00 0.  1.
         22    1    1    2    0    0 -0.30227671020E+00  0.14163661359E+00  0.31526629062E+01  0.31702863499E+01  0.00000000000E+00 0.  1.
</event>
<event>
 5    1  0.7220939E+001  0.1599604E+01  0.7818608E-02  0.3353793E+00
         11   -1    0    0    0    0  0.00000000000E+00  0.00000000000E+00  0.39999999674E+01  0.40000000000E+01  0.51100000000E-03 0.  1.
    9000002   -1    0    0    0    0 -0.00000000000E+00 -0.00000000000E+00  0.00000000000E+00  0.93800000000E+00  0.93800000000E+00 0. -1.
         11    1    1    2    0    0 -0.66400859933E-01  0.79442025031E-01  0.90472002641E+00  0.91062544268E+00  0.51100000000E-03 0.  1.
    9000002    1    1    2    0    0  0.24917837575E+00 -0.33081606565E+00  0.11597561470E+00  0.10319028421E+01  0.93800000000E+00 0. -1.
         22    1    1    2    0    0 -0.18277751582E+00  0.25137404062E+00  0.29793043262E+01  0.29954717153E+01  0.00000000000E+00 0.  1.
</event>
<event>
 5    1  0.7220939E+001  0.1599613E+01  0.7818608E-02  0.3353784E+00
         11   -1    0    0    0    0  0.00000000000E+00  0.00000000000E+00  0.39999999674E+01  0.40000000000E+01  0.51100000000E-03 0. -1.
    9000002   -1    0    0    0    0 -0.00000000000E+00 -0.00000000000E+00  0.00000000000E+00  0.93800000000E+00  0.93800000000E+00 0. -1.
         11    1    1    2    0    0 -0.76383444137E-01  0.49802476422E-01  0.55437671504E+00  0.56182605893E+00  0.51100000000E-03 0. -1.
    9000002    1    1    2    0    0  0.47368827060E+00 -0.32800146523E+00  0.23052957599E+00  0.11247014823E+01  0.93800000000E+00 0. -1.
         22    1    1    2    0    0 -0.39730482646E+00  0.27819898881E+00  0.32150936763E+01  0.32514724588E+01  0.00000000000E+00 0. -1.
</event>
<event>
 5    1  0.7220939E+001  0.1596229E+01  0.7818608E-02  0.3357467E+00
         11   -1    0    0    0    0  0.00000000000E+00  0.00000000000E+00  0.39999999674E+01  0.40000000000E+01  0.51100000000E-03 0. -1.
    9000002   -1    0    0    0    0 -0.00000000000E+00 -0.00000000000E+00  0.00000000000E+00  0.93800000000E+00  0.93800000000E+00 0.  1.
         11    1    1    2    0    0  0.38282576105E-02 -0.11212819849E+00  0.59316291717E+00  0.60368029277E+00  0.51100000000E-03 0. -1.
    9000002    1    1    2    0    0  0.29424825708E+00  0.64880224507E+00  0.36788494090E+00  0.12339812477E+01  0.93800000000E+00 0.  1.
         22    1    1    2    0    0 -0.29807651469E+00 -0.53667404658E+00  0.30389521093E+01  0.31003384595E+01  0.00000000000E+00 0. -1.
</event>
<event>
 5    1  0.7220939E+001  0.1599570E+01  0.7818608E-02  0.3353830E+00
         11   -1    0    0    0    0  0.00000000000E+00  0.00000000000E+00  0.39999999674E+01  0.40000000000E+01  0.51100000000E-03 0. -1.
    9000002   -1    0    0    0    0 -0.00000000000E+00 -0.00000000000E+00  0.00000000000E+00  0.93800000000E+00  0.93800000000E+00 0.  1.
         11    1    1    2    0    0  0.14621029811E+00 -0.74684938598E-01  0.12976992991E+01  0.13080439684E+01  0.51100000000E-03 0. -1.
    9000002    1    1    2    0    0 -0.45508902781E+00  0.19465911267E+00  0.16767050743E+00  0.10737576973E+01  0.93800000000E+00 0.  1.
         22    1    1    2    0    0  0.30887872970E+00 -0.11997417407E+00  0.25346301608E+01  0.25561983343E+01  0.00000000000E+00 0. -1.
</event>
<event>
 5    1  0.7220939E+001  0.1599487E+01  0.7818608E-02  0.3353921E+00
         11   -1    0    0    0    0  0.00000000000E+00  0.00000000000E+00  0.39999999674E+01  0.40000000000E+01  0.51100000000E-03 0. -1.
    9000002   -1    0    0    0    0 -0.00000000000E+00 -0.00000000000E+00  0.00000000000E+00  0.93800000000E+00  0.93800000000E+00 0.  1.
         11    1    1    2    0    0 -0.56983607850E-02 -0.98865184543E-02  0.16453993256E+00  0.16493594239E+00  0.51100000000E-03 0. -1.
    9000002    1    1    2    0    0  0.30318070022E-01  0.35336927483E+00  0.84540220321E-01  0.10063697524E+01  0.93800000000E+00 0.  1.
         22    1    1    2    0    0 -0.24619709237E-01 -0.34348275638E+00  0.37509198145E+01  0.37666943052E+01  0.00000000000E+00 0. -1.
</event>
<event>
 5    1  0.9765324E+001  0.1584498E+01  0.7818608E-02  0.3370363E+00
         11   -1    0    0    0    0  0.00000000000E+00  0.00000000000E+00  0.39999999674E+01  0.40000000000E+01  0.51100000000E-03 0. -1.
    9000002   -1    0    0    0    0 -0.00000000000E+00 -0.00000000000E+00  0.00000000000E+00  0.93800000000E+00  0.93800000000E+00 0.  1.
         11    1    1    2    0    0 -0.98260480368E-01  0.40739801595E-01  0.14435930016E+01  0.14475067767E+01  0.51100000000E-03 0. -1.
    9000002    1    1    2    0    0 -0.12157257532E+00 -0.13018062700E+00  0.32357462551E-01  0.95531036428E+00  0.93800000000E+00 0.  1.
         22    1    1    2    0    0  0.21983305569E+00  0.89440825404E-01  0.25240495032E+01  0.25351828590E+01  0.00000000000E+00 0.  1.
</event>
<event>
 5    1  0.7220939E+001  0.1599675E+01  0.7818608E-02  0.3353716E+00
         11   -1    0    0    0    0  0.00000000000E+00  0.00000000000E+00  0.39999999674E+01  0.40000000000E+01  0.51100000000E-03 0. -1.
    9000002   -1    0    0    0    0 -0.00000000000E+00 -0.00000000000E+00  0.00000000000E+00  0.93800000000E+00  0.93800000000E+00 0. -1.
         11    1    1    2    0    0  0.31480601416E-01 -0.23876837252E-01  0.38785962321E+00  0.38986725954E+00  0.51100000000E-03 0.  1.
    9000002    1    1    2    0    0 -0.31414716606E+00  0.23220382743E+00  0.10281598622E+00  0.10212845766E+01  0.93800000000E+00 0. -1.
         22    1    1    2    0    0  0.28266656465E+00 -0.20832699018E+00  0.35093243579E+01  0.35268481638E+01  0.00000000000E+00 0. -1.
</event>
<event>
 5    1  0.7220939E+001  0.1532703E+01  0.7818608E-02  0.3429808E+00
         11   -1    0    0    0    0  0.00000000000E+00  0.00000000000E+00  0.39999999674E+01  0.40000000000E+01  0.51100000000E-03 0.  1.
    9000002   -1    0    0    0    0 -0.00000000000E+00 -0.00000000000E+00  0.00000000000E+00  0.93800000000E+00  0.93800000000E+00 0.  1.
         11    1    1    2    0    0  0.26344422085E+00 -0.28026590994E-01  0.13125954153E+01  0.13390650965E+01  0.51100000000E-03 0.  1.
    9000002    1    1    2    0    0  0.90213752545E-01  0.53717531154E-01  0.57902762722E-01  0.94563249956E+00  0.93800000000E+00 0.  1.
         22    1    1    2    0    0 -0.35365797339E+00 -0.25690940160E-01  0.26295017893E+01  0.26533024039E+01  0.00000000000E+00 0.  1.
</event>
<event>
 5    1  0.7220939E+001  0.1599422E+01  0.7818608E-02  0.3353991E+00
         11   -1    0    0    0    0  0.00000000000E+00  0.00000000000E+00  0.39999999674E+01  0.40000000000E+01  0.51100000000E-03 0.  1.
    9000002   -1    0    0    0    0 -0.00000000000E+00 -0.00000000000E+00  0.00000000000E+00  0.93800000000E+00  0.93800000000E+00 0.  1.
         11    1    1    2    0    0  0.11512865429E+00 -0.10859252174E+00  0.84003600191E+00  0.85481441754E+00  0.51100000000E-03 0.  1.
    9000002    1    1    2    0    0 -0.44591853130E+00  0.44729363674E+00  0.28054191795E+00  0.11651020135E+01  0.93800000000E+00 0.  1.
         22    1    1    2    0    0  0.33078987701E+00 -0.33870111501E+00  0.28794220475E+01  0.29180835690E+01  0.00000000000E+00 0.  1.
</event>
<event>
 5    1  0.7220939E+001  0.1573930E+01  0.7818608E-02  0.3382154E+00
         11   -1    0    0    0    0  0.00000000000E+00  0.00000000000E+00  0.39999999674E+01  0.40000000000E+01  0.51100000000E-03 0.  1.
    9000002   -1    0    0    0    0 -0.00000000000E+00 -0.00000000000E+00  0.00000000000E+00  0.93800000000E+00  0.93800000000E+00 0. -1.
         11    1    1    2    0    0  0.33710727066E-01 -0.36582843352E-01  0.10354912572E+00  0.11487993778E+00  0.51100000000E-03 0.  1.
    9000002    1    1    2    0    0  0.15670370239E+00 -0.53770625180E+00  0.24206009692E+00  0.11189821956E+01  0.93800000000E+00 0. -1.
         22    1    1    2    0    0 -0.19041442945E+00  0.57428909515E+00  0.36543907447E+01  0.37041378666E+01  0.00000000000E+00 0.  1.
</event>
<event>
 5    1  0.7220939E+001  0.1599494E+01  0.7818608E-02  0.3353912E+00
         11   -1    0    0    0    0  0.00000000000E+00  0.00000000000E+00  0.39999999674E+01  0.40000000000E+01  0.51100000000E-03 0. -1.
    9000002   -1    0    0    0    0 -0.00000000000E+00 -0.00000000000E+00  0.00000000000E+00  0.93800000000E+00  0.93800000000E+00 0. -1.
         11    1    1    2    0    0  0.14618286139E+00  0.12025878839E+00  0.10558959972E+01  0.10727293336E+01  0.51100000000E-03 0. -1.
    9000002    1    1    2    0    0 -0.52389346604E+00 -0.37182148098E+00  0.29089871378E+00  0.11735338253E+01  0.93800000000E+00 0. -1.
         22    1    1    2    0    0  0.37771060465E+00  0.25156269259E+00  0.26532052564E+01  0.26917368411E+01  0.00000000000E+00 0. -1.
</event>
<event>
 5    1  0.7220939E+001  0.1599656E+01  0.7818608E-02  0.3353736E+00
         11   -1    0    0    0    0  0.00000000000E+00  0.00000000000E+00  0.39999999674E+01  0.40000000000E+01  0.51100000000E-03 0.  1.
    9000002   -1    0    0    0    0 -0.00000000000E+00 -0.00000000000E+00  0.00000000000E+00  0.93800000000E+00  0.93800000000E+00 0. -1.
         11    1    1    2    0    0 -0.28950276368E-02 -0.13840329693E-01  0.80396398907E-01  0.81631966711E-01  0.51100000000E-03 0. -1.
    9000002    1    1    2    0    0  0.74135381315E-01  0.67109423399E+00  0.32370835702E+00  0.12002060765E+01  0.93800000000E+00 0. -1.
         22    1    1    2    0    0 -0.71240353679E-01 -0.65725390430E+00  0.35958952114E+01  0.36561619568E+01  0.00000000000E+00 0.  1.
</event>
<event>
 5    1  0.7220939E+001  0.1590069E+01  0.7818608E-02  0.3364213E+00
         11   -1    0    0    0    0  0.00000000000E+00  0.00000000000E+00  0.39999999674E+01  0.40000000000E+01  0.51100000000E-03 0.  1.
    9000002   -1    0    0    0    0 -0.00000000000E+00 -0.00000000000E+00  0.00000000000E+00  0.93800000000E+00  0.93800000000E+00 0. -1.
         11    1    1    2    0    0  0.42957490945E-01  0.89930506430E-01  0.11705926672E+01  0.11748277728E+01  0.51100000000E-03 0.  1.
    9000002    1    1    2    0    0 -0.30904068636E+00  0.20563974735E-01  0.71651883611E-01  0.99040749962E+00  0.93800000000E+00 0. -1.
         22    1    1    2    0    0  0.26608319541E+00 -0.11049448117E+00  0.27577554165E+01  0.27727647276E+01  0.00000000000E+00 0. -1.
</event>
<event>
 5    1  0.1278676E+002  0.1588528E+01  0.7818608E-02  0.3365909E+00
         11   -1    0    0    0    0  0.00000000000E+00  0.00000000000E+00  0.39999999674E+01  0.40000000000E+01  0.51100000000E-03 0.  1.
    9000002   -1    0    0    0    0 -0.00000000000E+00 -0.00000000000E+00  0.00000000000E+00  0.93800000000E+00  0.93800000000E+00 0. -1.
         11    1    1    2    0    0 -0.67189463408E-02  0.99256818123E-01  0.14106003819E+01  0.14141042248E+01  0.51100000000E-03 0.  1.
    9000002    1    1    2    0    0 -0.21606069752E+00 -0.30629741717E-01  0.40019905475E-01  0.96388069745E+00  0.93800000000E+00 0. -1.
         22    1    1    2    0    0  0.22277964386E+00 -0.68627076406E-01  0.25493796800E+01  0.25600150777E+01  0.00000000000E+00 0.  1.
</event>
<event>
 5    1  0.7220939E+001  0.1599677E+01  0.7818608E-02  0.3353714E+00
         11   -1    0    0    0    0  0.00000000000E+00  0.00000000000E+00  0.39999999674E+01  0.40000000000E+01  0.51100000000E-03 0.  1.
    9000002   -1    0    0    0    0 -0.00000000000E+00 -0.00000000000E+00  0.00000000000E+00  0.93800000000E+00  0.93800000000E+00 0. -1.
         11    1    1    2    0    0  0.14735650778E-01  0.92252984366E-01  0.89070343546E+00  0.89558953968E+00  0.51100000000E-03 0.  1.
    9000002    1    1    2    0    0 -0.65226718140E-01 -0.40043850938E+00  0.11111221725E+00  0.10280055687E+01  0.93800000000E+00 0. -1.
         22    1    1    2    0    0  0.50491067362E-01  0.30818552502E+00  0.29981843147E+01  0.30144048916E+01  0.00000000000E+00 0.  1.
</event>
<event>
 5    1  0.7220939E+001  0.1471637E+01  0.7818608E-02  0.3505666E+00
         11   -1    0    0    0    0  0.00000000000E+00  0.00000000000E+00  0.39999999674E+01  0.40000000000E+01  0.51100000000E-03 0. -1.
    9000002   -1    0    0    0    0 -0.00000000000E+00 -0.00000000000E+00  0.00000000000E+00  0.93800000000E+00  0.93800000000E+00 0. -1.
         11    1    1    2    0    0 -0.10611887973E+00  0.36261734323E+00  0.98662365689E+00  0.10564937556E+01  0.51100000000E-03 0. -1.
    9000002    1    1    2    0    0  0.62471346099E-01  0.14326943680E-01  0.10222528781E+00  0.94572825900E+00  0.93800000000E+00 0. -1.
         22    1    1    2    0    0  0.43647533632E-01 -0.37694428691E+00  0.29111510227E+01  0.29357779854E+01  0.00000000000E+00 0. -1.
</event>
<event>
 5    1  0.7220939E+001  0.1476202E+01  0.7818608E-02  0.3499761E+00
         11   -1    0    0    0    0  0.00000000000E+00  0.00000000000E+00  0.39999999674E+01  0.40000000000E+01  0.51100000000E-03 0.  1.
    9000002   -1    0    0    0    0 -0.00000000000E+00 -0.00000000000E+00  0.00000000000E+00  0.93800000000E+00  0.93800000000E+00 0.  1.
         11    1    1    2    0    0  0.98198681025E-01  0.31333241847E+00  0.33320366172E+00  0.46780885704E+00  0.51100000000E-03 0.  1.
    9000002    1    1    2    0    0 -0.34207119279E+00 -0.66456940306E-01  0.24414143035E+00  0.10299894484E+01  0.93800000000E+00 0.  1.
         22    1    1    2    0    0  0.24387251176E+00 -0.24687547817E+00  0.34226548753E+01  0.34402016945E+01  0.00000000000E+00 0.  1.
</event>
<event>
 5    1  0.7220939E+001  0.1599604E+01  0.7818608E-02  0.3353794E+00
         11   -1    0    0    0    0  0.00000000000E+00  0.00000000000E+00  0.39999999674E+01  0.40000000000E+01  0.51100000000E-03 0. -1.
    9000002   -1    0    0    0    0 -0.00000000000E+00 -0.00000000000E+00  0.00000000000E+00  0.93800000000E+00  0.93800000000E+00 0. -1.
         11    1    1    2    0    0  0.83918762163E-01 -0.93173293242E-01  0.96709664283E+00  0.97519218563E+00  0.51100000000E-03 0. -1.
    9000002    1    1    2    0    0 -0.33625868193E+00  0.40231519677E+00  0.18906534096E+00  0.10911082081E+01  0.93800000000E+00 0. -1.
         22    1    1    2    0    0  0.25233991977E+00 -0.30914190353E+00  0.28438379836E+01  0.28716996062E+01  0.00000000000E+00 0. -1.
</event>
<event>
 5    1  0.7220939E+001  0.1598550E+01  0.7818608E-02  0.3354939E+00
         11   -1    0    0    0    0  0.00000000000E+00  0.00000000000E+00  0.39999999674E+01  0.40000000000E+01  0.51100000000E-03 0.  1.
    9000002   -1    0    0    0    0 -0.00000000000E+00 -0.00000000000E+00  0.00000000000E+00  0.93800000000E+00  0.93800000000E+00 0. -1.
         11    1    1    2    0    0  0.57911624043E-01 -0.14233288880E+00  0.95683696957E+00  0.96909734025E+00  0.51100000000E-03 0.  1.
    9000002    1    1    2    0    0 -0.12482916572E+00  0.47829565856E+00  0.16812275470E+00  0.10735261144E+01  0.93800000000E+00 0. -1.
         22    1    1    2    0    0  0.66917541680E-01 -0.33596276976E+00  0.28750402431E+01  0.28953765454E+01  0.00000000000E+00 0.  1.
</event>
<event>
 5    1  0.7220939E+001  0.1599667E+01  0.7818608E-02  0.3353725E+00
         11   -1    0    0    0    0  0.00000000000E+00  0.00000000000E+00  0.39999999674E+01  0.40000000000E+01  0.51100000000E-03 0. -1.
    9000002   -1    0    0    0    0 -0.00000000000E+00 -0.00000000000E+00  0.00000000000E+00  0.93800000000E+00  0.93800000000E+00 0.  1.
         11    1    1    2    0    0 -0.43070338696E-02  0.14524215319E+00  0.11950079655E+01  0.12038098406E+01  0.51100000000E-03 0. -1.
    9000002    1    1    2    0    0  0.79737548698E-02 -0.47733880988E+00  0.15545638653E+00  0.10639203957E+01  0.93800000000E+00 0.  1.
         22    1    1    2    0    0 -0.36667210002E-02  0.33209665669E+00  0.26495356154E+01  0.26702697638E+01  0.00000000000E+00 0. -1.
</event>
<event>
 5    1  0.7220939E+001  0.1598689E+01  0.7818608E-02  0.3354788E+00
         11   -1    0    0    0    0  0.00000000000E+00  0.00000000000E+00  0.39999999674E+01  0.40000000000E+01  0.51100000000E-03 0.  1.
    9000002   -1    0    0    0    0 -0.00000000000E+00 -0.00000000000E+00  0.00000000000E+00  0.93800000000E+00  0.93800000000E+00 0.  1.
         11    1    1    2    0    0  0.20538501969E-02 -0.51229190964E-02  0.16634011809E+00  0.16643244458E+00  0.51100000000E-03 0.  1.
    9000002    1    1    2    0    0 -0.34343675199E+00 -0.84270703019E-01  0.84679003704E-01  0.10060143576E+01  0.93800000000E+00 0.  1.
         22    1    1    2    0    0  0.34138290179E+00  0.89393622115E-01  0.37489808456E+01  0.37655531978E+01  0.00000000000E+00 0.  1.
</event>
<event>
 5    1  0.7220939E+001  0.1599675E+01  0.7818608E-02  0.3353717E+00
         11   -1    0    0    0    0  0.00000000000E+00  0.00000000000E+00  0.39999999674E+01  0.40000000000E+01  0.51100000000E-03 0.  1.
    9000002   -1    0    0    0    0 -0.00000000000E+00 -0.00000000000E+00  0.00000000000E+00  0.93800000000E+00  0.93800000000E+00 0. -1.
         11    1    1    2    0    0 -0.15646727173E+00 -0.16813031864E+00  0.12757554755E+01  0.12962646742E+01  0.51100000000E-03 0.  1.
    9000002    1    1    2    0    0  0.45103525740E+00  0.49066064138E+00  0.31470274126E+00  0.11929218263E+01  0.93800000000E+00 0. -1.
         22    1    1    2    0    0 -0.29456798567E+00 -0.32253032273E+00  0.24095417506E+01  0.24488134995E+01  0.00000000000E+00 0. -1.
</event>
<event>
 5    1  0.7220939E+001  0.1598518E+01  0.7818608E-02  0.3354973E+00
         11   -1    0    0    0    0  0.00000000000E+00  0.00000000000E+00  0.39999999674E+01  0.40000000000E+01  0.51100000000E-03 0. -1.
    9000002   -1    0    0    0    0 -0.00000000000E+00 -0.00000000000E+00  0.00000000000E+00  0.93800000000E+00  0.93800000000E+00 0.  1.
         11    1    1    2    0    0 -0.15549257265E-01  0.18676995449E+00  0.13134587712E+01  0.13267626012E+01  0.51100000000E-03 0. -1.
    9000002    1    1    2    0    0 -0.44026021898E-01 -0.47591809545E+00  0.15683999040E+00  0.10643679377E+01  0.93800000000E+00 0.  1.
         22    1    1    2    0    0  0.59575279163E-01  0.28914814096E+00  0.25297012058E+01  0.25468694611E+01  0.00000000000E+00 0. -1.
</event>
<event>
 5    1  0.7220939E+001  0.1599631E+01  0.7818608E-02  0.3353764E+00
         11   -1    0    0    0    0  0.00000000000E+00  0.00000000000E+00  0.39999999674E+01  0.40000000000E+01  0.51100000000E-03 0. -1.
    9000002   -1    0    0    0    0 -0.00000000000E+00 -0.00000000000E+00  0.00000000000E+00  0.93800000000E+00  0.93800000000E+00 0. -1.
         11    1    1    2    0    0  0.29409787755E-01 -0.17214707924E+00  0.56100434710E+00  0.58755909583E+00  0.51100000000E-03 0. -1.
    9000002    1    1    2    0    0 -0.13644180945E+00  0.97507929254E+00  0.77324619420E+00  0.15643368151E+01  0.93800000000E+00 0. -1.
         22    1    1    2    0    0  0.10703202169E+00 -0.80293221330E+00  0.26657494261E+01  0.27861040891E+01  0.00000000000E+00 0. -1.
</event>
<event>
 5    1  0.7220939E+001  0.1599676E+01  0.7818608E-02  0.3353715E+00
         11   -1    0    0    0    0  0.00000000000E+00  0.00000000000E+00  0.39999999674E+01  0.40000000000E+01  0.51100000000E-03 0. -1.
    9000002   -1    0    0    0    0 -0.00000000000E+00 -0.00000000000E+00  0.00000000000E+00  0.93800000000E+00  0.93800000000E+00 0. -1.
         11    1    1    2    0    0 -0.88085364605E-01 -0.10798091937E+00  0.12228116723E+01  0.12307264349E+01  0.51100000000E-03 0. -1.
    9000002    1    1    2    0    0  0.27699944677E+00  0.34485464655E+00  0.13273692670E+00  0.10455221243E+01  0.93800000000E+00 0. -1.
         22    1    1    2    0    0 -0.18891408217E+00 -0.23687372718E+00  0.26444513684E+01  0.26617514408E+01  0.00000000000E+00 0. -1.
</event>
<event>
 5    1  0.7220939E+001  0.1599676E+01  0.7818608E-02  0.3353715E+00
         11   -1    0    0    0    0  0.00000000000E+00  0.00000000000E+00  0.39999999674E+01  0.40000000000E+01  0.51100000000E-03 0.  1.
    9000002   -1    0    0    0    0 -0.00000000000E+00 -0.00000000000E+00  0.00000000000E+00  0.93800000000E+00  0.93800000000E+00 0. -1.
         11    1    1    2    0    0  0.77768914516E-02 -0.12435892331E+00  0.10256998438E+01  0.10332405589E+01  0.51100000000E-03 0.  1.
    9000002    1    1    2    0    0 -0.27557549295E-01  0.46924453525E+00  0.15052269012E+00  0.10599296829E+01  0.93800000000E+00 0. -1.
         22    1    1    2    0    0  0.19780657844E-01 -0.34488561194E+00  0.28237774334E+01  0.28448297582E+01  0.00000000000E+00 0.  1.
</event>
<event>
 5    1  0.7220939E+001  0.1599285E+01  0.7818608E-02  0.3354140E+00
         11   -1    0    0    0    0  0.00000000000E+00  0.00000000000E+00  0.39999999674E+01  0.40000000000E+01  0.51100000000E-03 0.  1.
    9000002   -1    0    0    0    0 -0.00000000000E+00 -0.00000000000E+00  0.00000000000E+00  0.93800000000E+00  0.93800000000E+00 0.  1.
         11    1    1    2    0    0 -0.87395895991E-02 -0.52243119222E-01  0.63334701656E+00  0.63555835958E+00  0.51100000000E-03 0.  1.
    9000002    1    1    2    0    0  0.14084978339E+00  0.38477353684E+00  0.11371709859E+00  0.10298858746E+01  0.93800000000E+00 0.  1.
         22    1    1    2    0    0 -0.13211019379E+00 -0.33253041762E+00  0.32529358522E+01  0.32725557658E+01  0.00000000000E+00 0.  1.
</event>
<event>
 5    1  0.7220939E+001  0.1599397E+01  0.7818608E-02  0.3354018E+00
         11   -1    0    0    0    0  0.00000000000E+00  0.00000000000E+00  0.39999999674E+01  0.40000000000E+01  0.51100000000E-03 0. -1.
    9000002   -1    0    0    0    0 -0.00000000000E+00 -0.00000000000E+00  0.00000000000E+00  0.93800000000E+00  0.93800000000E+00 0. -1.
         11    1    1    2    0    0 -0.14866283541E+00  0.90573903205E-01  0.13575094802E+01  0.13686257781E+01  0.51100000000E-03 0. -1.
    9000002    1    1    2    0    0  0.42819154474E+00 -0.30733142608E+00  0.19132466658E+00  0.10928173372E+01  0.93800000000E+00 0. -1.
         22    1    1    2    0    0 -0.27952870934E+00  0.21675752288E+00  0.24511658206E+01  0.24765568847E+01  0.00000000000E+00 0. -1.
</event>
<event>
 5    1  0.7220939E+001  0.1599533E+01  0.7818608E-02  0.3353871E+00
         11   -1    0    0    0    0  0.00000000000E+00  0.00000000000E+00  0.39999999674E+01  0.40000000000E+01  0.51100000000E-03 0. -1.
    9000002   -1    0    0    0    0 -0.00000000000E+00 -0.00000000000E+00  0.00000000000E+00  0.93800000000E+00  0.93800000000E+00 0. -1.
         11    1    1    2    0    0  0.30844317744E-01 -0.27036961054E-01  0.43200654240E+00  0.43394963187E+00  0.51100000000E-03 0. -1.
    9000002    1    1    2    0    0 -0.22807633964E+00  0.30853455166E+00  0.99213413553E-01  0.10182827150E+01  0.93800000000E+00 0. -1.
         22    1    1    2    0    0  0.19723202190E+00 -0.28149759060E+00  0.34687800114E+01  0.34857676531E+01  0.00000000000E+00 0. -1.
</event>
<event>
 5    1  0.7220939E+001  0.1599677E+01  0.7818608E-02  0.3353714E+00
         11   -1    0    0    0    0  0.00000000000E+00  0.00000000000E+00  0.39999999674E+01  0.40000000000E+01  0.51100000000E-03 0.  1.
    9000002   -1    0    0    0    0 -0.00000000000E+00 -0.00000000000E+00  0.00000000000E+00  0.93800000000E+00  0.93800000000E+00 0.  1.
         11    1    1    2    0    0  0.71283612969E-01 -0.15890836546E-01  0.54620332815E+00  0.55106461415E+00  0.51100000000E-03 0.  1.
    9000002    1    1    2    0    0 -0.49700563513E+00  0.11017705479E+00  0.17767894464E+00  0.10819276279E+01  0.93800000000E+00 0.  1.
         22    1    1    2    0    0  0.42572202216E+00 -0.94286218239E-01  0.32761176946E+01  0.33050077579E+01  0.00000000000E+00 0.  1.
</event>
<event>
 5    1  0.7220939E+001  0.1599633E+01  0.7818608E-02  0.3353761E+00
         11   -1    0    0    0    0  0.00000000000E+00  0.00000000000E+00  0.39999999674E+01  0.40000000000E+01  0.51100000000E-03 0.  1.
    9000002   -1    0    0    0    0 -0.00000000000E+00 -0.00000000000E+00  0.00000000000E+00  0.93800000000E+00  0.93800000000E+00 0.  1.
         11    1    1    2    0    0  0.16423877816E+00 -0.12856621558E-01  0.98710038080E+00  0.10007532622E+01  0.51100000000E-03 0.  1.
    9000002    1    1    2    0    0 -0.63130306744E+00  0.25048098292E-01  0.28051743572E+00  0.11652059912E+01  0.93800000000E+00 0.  1.
         22    1    1    2    0    0  0.46706428928E+00 -0.12191476734E-01  0.27323821508E+01  0.27720407466E+01  0.00000000000E+00 0.  1.
</event>
<event>
 5    1  0.7220939E+001  0.1532942E+01  0.7818608E-02  0.3429525E+00
         11   -1    0    0    0    0  0.00000000000E+00  0.00000000000E+00  0.39999999674E+01  0.40000000000E+01  0.51100000000E-03 0.  1.
    9000002   -1    0    0    0    0 -0.00000000000E+00 -0.00000000000E+00  0.00000000000E+00  0.93800000000E+00  0.93800000000E+00 0.  1.
         11    1    1    2    0    0  0.24507765358E+00 -0.24517966926E+00  0.12518090737E+01  0.12989235330E+01  0.51100000000E-03 0.  1.
    9000002    1    1    2    0    0 -0.47084277743E+00 -0.10335676539E+00  0.22039994219E+00  0.10774022817E+01  0.93800000000E+00 0.  1.
         22    1    1    2    0    0  0.22576512385E+00  0.34853643465E+00  0.25277909514E+01  0.25616741853E+01  0.00000000000E+00 0.  1.
</event>
<event>
 5    1  0.7220939E+001  0.1599672E+01  0.7818608E-02  0.3353719E+00
         11   -1    0    0    0    0  0.00000000000E+00  0.00000000000E+00  0.39999999674E+01  0.40000000000E+01  0.51100000000E-03 0. -1.
    9000002   -1    0    0    0    0 -0.00000000000E+00 -0.00000000000E+00  0.00000000000E+00  0.93800000000E+00  0.93800000000E+00 0.  1.
         11    1    1    2    0    0  0.76445228526E-01  0.36704181709E-01  0.61360893267E+00  0.61944108138E+00  0.51100000000E-03 0. -1.
    9000002    1    1    2    0    0 -0.48236354800E+00 -0.23539809306E+00  0.19849379895E+00  0.10987859859E+01  0.93800000000E+00 0. -1.
         22    1    1    2    0    0  0.40591831947E+00  0.19869391135E+00  0.31878972357E+01  0.32197729327E+01  0.00000000000E+00 0. -1.
</event>
<event>
 5    1  0.7220939E+001  0.1599331E+01  0.7818608E-02  0.3354090E+00
         11   -1    0    0    0    0  0.00000000000E+00  0.00000000000E+00  0.39999999674E+01  0.40000000000E+01  0.51100000000E-03 0. -1.
    9000002   -1    0    0    0    0 -0.00000000000E+00 -0.00000000000E+00  0.00000000000E+00  0.93800000000E+00  0.93800000000E+00 0.  1.
         11    1    1    2    0    0  0.11456680206E-01 -0.51984105259E-01  0.31830062133E+00  0.32272147338E+00  0.51100000000E-03 0. -1.
    9000002    1    1    2    0    0 -0.33200478107E-01  0.51618135438E+00  0.18400913209E+00  0.10868527145E+01  0.93800000000E+00 0.  1.
         22    1    1    2    0    0  0.21743797902E-01 -0.46419724912E+00  0.34976902139E+01  0.35284258121E+01  0.00000000000E+00 0. -1.
</event>
<event>
 5    1  0.7220939E+001  0.1576319E+01  0.7818608E-02  0.3379474E+00
         11   -1    0    0    0    0  0.00000000000E+00  0.00000000000E+00  0.39999999674E+01  0.40000000000E+01  0.51100000000E-03 0.  1.
    9000002   -1    0    0    0    0 -0.00000000000E+00 -0.00000000000E+00  0.00000000000E+00  0.93800000000E+00  0.93800000000E+00 0.  1.
         11    1    1    2    0    0  0.22373343990E-01  0.14001459106E+00  0.10103671955E+01  0.10202679957E+01  0.51100000000E-03 0.  1.
    9000002    1    1    2    0    0 -0.24692264379E+00  0.59740839045E-01  0.60987174390E-01  0.97370590802E+00  0.93800000000E+00 0.  1.
         22    1    1    2    0    0  0.22454929980E+00 -0.19975543010E+00  0.29286455975E+01  0.29440260962E+01  0.00000000000E+00 0.  1.
</event>
<event>
 5    1  0.7220939E+001  0.1592259E+01  0.7818608E-02  0.3361808E+00
         11   -1    0    0    0    0  0.00000000000E+00  0.00000000000E+00  0.39999999674E+01  0.40000000000E+01  0.51100000000E-03 0.  1.
    9000002   -1    0    0    0    0 -0.00000000000E+00 -0.00000000000E+00  0.00000000000E+00  0.93800000000E+00  0.93800000000E+00 0.  1.
         11    1    1    2    0    0  0.53231319449E-01 -0.73755085837E-01  0.10715153454E+01  0.10753691378E+01  0.51100000000E-03 0.  1.
    9000002    1    1    2    0    0 -0.28760185051E+00 -0.55211650305E-01  0.62982974598E-01  0.98466949066E+00  0.93800000000E+00 0.  1.
         22    1    1    2    0    0  0.23437053106E+00  0.12896673614E+00  0.28655016473E+01  0.28779613715E+01  0.00000000000E+00 0.  1.
</event>
<event>
 5    1  0.7220939E+001  0.1599676E+01  0.7818608E-02  0.3353715E+00
         11   -1    0    0    0    0  0.00000000000E+00  0.00000000000E+00  0.39999999674E+01  0.40000000000E+01  0.51100000000E-03 0. -1.
    9000002   -1    0    0    0    0 -0.00000000000E+00 -0.00000000000E+00  0.00000000000E+00  0.93800000000E+00  0.93800000000E+00 0. -1.
         11    1    1    2    0    0 -0.43946531558E-01 -0.37761659278E-01  0.59930123988E+00  0.60209590415E+00  0.51100000000E-03 0. -1.
    9000002    1    1    2    0    0  0.28251091430E+00  0.24603261599E+00  0.94369026343E-01  0.10144426933E+01  0.93800000000E+00 0. -1.
         22    1    1    2    0    0 -0.23856438274E+00 -0.20827095671E+00  0.33063297011E+01  0.33214614026E+01  0.00000000000E+00 0. -1.
</event>
<event>
 5    1  0.7220939E+001  0.1560064E+01  0.7818608E-02  0.3397883E+00
         11   -1    0    0    0    0  0.00000000000E+00  0.00000000000E+00  0.39999999674E+01  0.40000000000E+01  0.51100000000E-03 0. -1.
    9000002   -1    0    0    0    0 -0.00000000000E+00 -0.00000000000E+00  0.00000000000E+00  0.93800000000E+00  0.93800000000E+00 0. -1.
         11    1    1    2    0    0  0.12769474755E+00  0.57238155964E-01  0.91829192547E+00  0.92889314592E+00  0.51100000000E-03 0. -1.
    9000002    1    1    2    0    0  0.30318808111E+00 -0.69980946220E-01  0.96531382323E-01  0.99296659215E+00  0.93800000000E+00 0. -1.
         22    1    1    2    0    0 -0.43088282866E+00  0.12742790256E-01  0.29851766596E+01  0.30161402619E+01  0.00000000000E+00 0. -1.
</event>
<event>
 5    1  0.7220939E+001  0.1588748E+01  0.7818608E-02  0.3365668E+00
         11   -1    0    0    0    0  0.00000000000E+00  0.00000000000E+00  0.39999999674E+01  0.40000000000E+01  0.51100000000E-03 0.  1.
    9000002   -1    0    0    0    0 -0.00000000000E+00 -0.00000000000E+00  0.00000000000E+00  0.93800000000E+00  0.93800000000E+00 0.  1.
         11    1    1    2    0    0 -0.80335652697E-01 -0.59362880985E-01  0.11280863181E+01  0.11325002300E+01  0.51100000000E-03 0.  1.
    9000002    1    1    2    0    0  0.21830182362E+00 -0.18493520295E+00  0.63081553859E-01  0.98269018410E+00  0.93800000000E+00 0.  1.
         22    1    1    2    0    0 -0.13796617093E+00  0.24429808393E+00  0.28088320954E+01  0.28228095859E+01  0.00000000000E+00 0.  1.
</event>
<event>
 5    1  0.7220939E+001  0.1599458E+01  0.7818608E-02  0.3353951E+00
         11   -1    0    0    0    0  0.00000000000E+00  0.00000000000E+00  0.39999999674E+01  0.40000000000E+01  0.51100000000E-03 0. -1.
    9000002   -1    0    0    0    0 -0.00000000000E+00 -0.00000000000E+00  0.00000000000E+00  0.93800000000E+00  0.93800000000E+00 0. -1.
         11    1    1    2    0    0  0.90785538781E-01  0.15587283935E+00  0.12467337167E+01  0.12597156733E+01  0.51100000000E-03 0. -1.
    9000002    1    1    2    0    0 -0.30355204452E+00 -0.51051023918E+00  0.24602296096E+00  0.11371613102E+01  0.93800000000E+00 0. -1.
         22    1    1    2    0    0  0.21276650574E+00  0.35463739983E+00  0.25072432897E+01  0.25411230165E+01  0.00000000000E+00 0. -1.
</event>
<event>
 5    1  0.7220939E+001  0.1599675E+01  0.7818608E-02  0.3353716E+00
         11   -1    0    0    0    0  0.00000000000E+00  0.00000000000E+00  0.39999999674E+01  0.40000000000E+01  0.51100000000E-03 0.  1.
    9000002   -1    0    0    0    0 -0.00000000000E+00 -0.00000000000E+00  0.00000000000E+00  0.93800000000E+00  0.93800000000E+00 0. -1.
         11    1    1    2    0    0 -0.46393914064E-01 -0.17974571423E+00  0.11356920413E+01  0.11507639162E+01  0.51100000000E-03 0.  1.
    9000002    1    1    2    0    0  0.15747038238E+00  0.59088642276E+00  0.26155307603E+00  0.11498685566E+01  0.93800000000E+00 0. -1.
         22    1    1    2    0    0 -0.11107646832E+00 -0.41114070853E+00  0.26027548500E+01  0.26373675271E+01  0.00000000000E+00 0.  1.
</event>
<event>
 5    1  0.7220939E+001  0.1534907E+01  0.7818608E-02  0.3427192E+00
         11   -1    0    0    0    0  0.00000000000E+00  0.00000000000E+00  0.39999999674E+01  0.40000000000E+01  0.51100000000E-03 0.  1.
    9000002   -1    0    0    0    0 -0.00000000000E+00 -0.00000000000E+00  0.00000000000E+00  0.93800000000E+00  0.93800000000E+00 0. -1.
         11    1    1    2    0    0  0.34001422770E+00  0.31358579418E+00  0.12762582428E+01  0.13574907324E+01  0.51100000000E-03 0.  1.
    9000002    1    1    2    0    0 -0.21146646810E+00 -0.54401111782E+00  0.30318499281E+00  0.11456139417E+01  0.93800000000E+00 0. -1.
         22    1    1    2    0    0 -0.12854775959E+00  0.23042532364E+00  0.24205567318E+01  0.24348953259E+01  0.00000000000E+00 0.  1.
</event>
<event>
 5    1  0.7220939E+001  0.1599327E+01  0.7818608E-02  0.3354094E+00
         11   -1    0    0    0    0  0.00000000000E+00  0.00000000000E+00  0.39999999674E+01  0.40000000000E+01  0.51100000000E-03 0.  1.
    9000002   -1    0    0    0    0 -0.00000000000E+00 -0.00000000000E+00  0.00000000000E+00  0.93800000000E+00  0.93800000000E+00 0.  1.
         11    1    1    2    0    0  0.42902811766E-01 -0.87327495424E-01  0.10148330157E+01  0.10194866618E+01  0.51100000000E-03 0.  1.
    9000002    1    1    2    0    0 -0.23952830288E+00  0.32392572884E+00  0.10980803549E+00  0.10267441212E+01  0.93800000000E+00 0.  1.
         22    1    1    2    0    0  0.19662549111E+00 -0.23659823342E+00  0.28753589162E+01  0.28917692171E+01  0.00000000000E+00 0.  1.
</event>
<event>
 5    1  0.7220939E+001  0.1572813E+01  0.7818608E-02  0.3383410E+00
         11   -1    0    0    0    0  0.00000000000E+00  0.00000000000E+00  0.39999999674E+01  0.40000000000E+01  0.51100000000E-03 0. -1.
    9000002   -1    0    0    0    0 -0.00000000000E+00 -0.00000000000E+00  0.00000000000E+00  0.93800000000E+00  0.93800000000E+00 0. -1.
         11    1    1    2    0    0  0.11360989152E+00 -0.37589151319E-01  0.56175882542E+00  0.57436346577E+00  0.51100000000E-03 0. -1.
    9000002    1    1    2    0    0  0.28877422058E-01 -0.24389185417E+00  0.60833422650E-01  0.97152552583E+00  0.93800000000E+00 0. -1.
         22    1    1    2    0    0 -0.14248731358E+00  0.28148100549E+00  0.33774077193E+01  0.33921110084E+01  0.00000000000E+00 0. -1.
</event>
<event>
 5    1  0.7220939E+001  0.1599607E+01  0.7818608E-02  0.3353790E+00
         11   -1    0    0    0    0  0.00000000000E+00  0.00000000000E+00  0.39999999674E+01  0.40000000000E+01  0.51100000000E-03 0. -1.
    9000002   -1    0    0    0    0 -0.00000000000E+00 -0.00000000000E+00  0.00000000000E+00  0.93800000000E+00  0.93800000000E+00 0. -1.
         11    1    1    2    0    0 -0.57286715430E-01 -0.74947787655E-01  0.99638640668E+00  0.10008421810E+01  0.51100000000E-03 0. -1.
    9000002    1    1    2    0    0  0.25659881814E+00  0.30370186592E+00  0.10665211532E+00  0.10243517221E+01  0.93800000000E+00 0. -1.
         22    1    1    2    0    0 -0.19931210271E+00 -0.22875407827E+00  0.28969614454E+01  0.29128060970E+01  0.00000000000E+00 0. -1.
</event>
<event>
 5    1  0.7220939E+001  0.1549157E+01  0.7818608E-02  0.3410465E+00
         11   -1    0    0    0    0  0.00000000000E+00  0.00000000000E+00  0.39999999674E+01  0.40000000000E+01  0.51100000000E-03 0.  1.
    9000002   -1    0    0    0    0 -0.00000000000E+00 -0.00000000000E+00  0.00000000000E+00  0.93800000000E+00  0.93800000000E+00 0. -1.
         11    1    1    2    0    0 -0.18665050946E+00 -0.15440576971E+00  0.11636204772E+01  0.11885673858E+01  0.51100000000E-03 0.  1.
    9000002    1    1    2    0    0  0.19736521795E+00 -0.19333784487E+00  0.90968270308E-01  0.98206505778E+00  0.93800000000E+00 0. -1.
         22    1    1    2    0    0 -0.10714708499E-01  0.34774361458E+00  0.27454112198E+01  0.27673675565E+01  0.00000000000E+00 0.  1.
</event>
<event>
 5    1  0.7220939E+001  0.1599674E+01  0.7818608E-02  0.3353717E+00
         11   -1    0    0    0    0  0.00000000000E+00  0.00000000000E+00  0.39999999674E+01  0.40000000000E+01  0.51100000000E-03 0. -1.
    9000002   -1    0    0    0    0 -0.00000000000E+00 -0.00000000000E+00  0.00000000000E+00  0.93800000000E+00  0.93800000000E+00 0.  1.
         11    1    1    2    0    0 -0.10716318722E+00 -0.10577857759E+00  0.13897925053E+01  0.13979257938E+01  0.51100000000E-03 0. -1.
    9000002    1    1    2    0    0  0.29432187210E+00  0.29703928144E+00  0.11822977426E+00  0.10337697900E+01  0.93800000000E+00 0.  1.
         22    1    1    2    0    0 -0.18715868488E+00 -0.19126070385E+00  0.24919776878E+01  0.25063044162E+01  0.00000000000E+00 0. -1.
</event>
<event>
 5    1  0.7220939E+001  0.1596531E+01  0.7818608E-02  0.3357137E+00
         11   -1    0    0    0    0  0.00000000000E+00  0.00000000000E+00  0.39999999674E+01  0.40000000000E+01  0.51100000000E-03 0. -1.
    9000002   -1    0    0    0    0 -0.00000000000E+00 -0.00000000000E+00  0.00000000000E+00  0.93800000000E+00  0.93800000000E+00 0.  1.
         11    1    1    2    0    0 -0.50214967070E-03 -0.92649069746E-03  0.46885938379E+00  0.46886084655E+00  0.51100000000E-03 0. -1.
    9000002    1    1    2    0    0  0.13680675150E+00  0.34869003418E+00  0.96915939504E-01  0.10146612866E+01  0.93800000000E+00 0.  1.
         22    1    1    2    0    0 -0.13630460183E+00 -0.34776354348E+00  0.34342246441E+01  0.34544778669E+01  0.00000000000E+00 0. -1.
</event>
<event>
 5    1  0.7220939E+001  0.1594900E+01  0.7818608E-02  0.3358918E+00
         11   -1    0    0    0    0  0.00000000000E+00  0.00000000000E+00  0.39999999674E+01  0.40000000000E+01  0.51100000000E-03 0.  1.
    9000002   -1    0    0    0    0 -0.00000000000E+00 -0.00000000000E+00  0.00000000000E+00  0.93800000000E+00  0.93800000000E+00 0. -1.
         11    1    1    2    0    0 -0.20911530135E+00  0.13088239025E+00  0.13616446409E+01  0.13838120532E+01  0.51100000000E-03 0.  1.
    9000002    1    1    2    0    0  0.58779227014E+00 -0.13991095694E+00  0.25972903235E+00  0.11455906769E+01  0.93800000000E+00 0. -1.
         22    1    1    2    0    0 -0.37867696879E+00  0.90285666884E-02  0.23786262941E+01  0.24085972700E+01  0.00000000000E+00 0.  1.
</event>
<event>
 5    1  0.7220939E+001  0.1599674E+01  0.7818608E-02  0.3353718E+00
         11   -1    0    0    0    0  0.00000000000E+00  0.00000000000E+00  0.39999999674E+01  0.40000000000E+01  0.51100000000E-03 0.  1.
    9000002   -1    0    0    0    0 -0.00000000000E+00 -0.00000000000E+00  0.00000000000E+00  0.93800000000E+00  0.93800000000E+00 0.  1.
         11    1    1    2    0    0  0.73455633689E-01 -0.10714628651E+00  0.12808183130E+01  0.12873895560E+01  0.51100000000E-03 0.  1.
    9000002    1    1    2    0    0 -0.21732573743E+00  0.32424523667E+00  0.10265085939E+00  0.10211496700E+01  0.93800000000E+00 0.  1.
         22    1    1    2    0    0  0.14387010374E+00 -0.21709895016E+00  0.26165307950E+01  0.26294607740E+01  0.00000000000E+00 0. -1.
</event>
<event>
 5    1  0.7220939E+001  0.1599547E+01  0.7818608E-02  0.3353855E+00
         11   -1    0    0    0    0  0.00000000000E+00  0.00000000000E+00  0.39999999674E+01  0.40000000000E+01  0.51100000000E-03 0. -1.
    9000002   -1    0    0    0    0 -0.00000000000E+00 -0.00000000000E+00  0.00000000000E+00  0.93800000000E+00  0.93800000000E+00 0. -1.
         11    1    1    2    0    0  0.13405133069E-01 -0.12576902619E-01  0.20007446397E+00  0.20091771531E+00  0.51100000000E-03 0. -1.
    9000002    1    1    2    0    0 -0.35593217786E+00  0.30648302209E+00  0.15040265951E+00  0.10597568202E+01  0.93800000000E+00 0. -1.
         22    1    1    2    0    0  0.34252704480E+00 -0.29390611947E+00  0.36495228439E+01  0.36773254644E+01  0.00000000000E+00 0. -1.
</event>
<event>
 5    1  0.7220939E+001  0.1599417E+01  0.7818608E-02  0.3353997E+00
         11   -1    0    0    0    0  0.00000000000E+00  0.00000000000E+00  0.39999999674E+01  0.40000000000E+01  0.51100000000E-03 0.  1.
    9000002   -1    0    0    0    0 -0.00000000000E+00 -0.00000000000E+00  0.00000000000E+00  0.93800000000E+00  0.93800000000E+00 0. -1.
         11    1    1    2    0    0  0.53968500151E-01  0.42255891267E-02  0.57008980383E+00  0.57265443346E+00  0.51100000000E-03 0.  1.
    9000002    1    1    2    0    0 -0.41446358069E+00 -0.10939046974E+00  0.12463757856E+00  0.10388093476E+01  0.93800000000E+00 0. -1.
         22    1    1    2    0    0  0.36049508054E+00  0.10516488061E+00  0.33052725850E+01  0.33265362190E+01  0.00000000000E+00 0.  1.
</event>
<event>
 5    1  0.7220939E+001  0.1599675E+01  0.7818608E-02  0.3353717E+00
         11   -1    0    0    0    0  0.00000000000E+00  0.00000000000E+00  0.39999999674E+01  0.40000000000E+01  0.51100000000E-03 0.  1.
    9000002   -1    0    0    0    0 -0.00000000000E+00 -0.00000000000E+00  0.00000000000E+00  0.93800000000E+00  0.93800000000E+00 0.  1.
         11    1    1    2    0    0 -0.71797470618E-01  0.58771499255E-01  0.38585906529E+00  0.39685821813E+00  0.51100000000E-03 0.  1.
    9000002    1    1    2    0    0  0.65370103432E+00 -0.53372792837E+00  0.53291524650E+00  0.13696836145E+01  0.93800000000E+00 0.  1.
         22    1    1    2    0    0 -0.58190356370E+00  0.47495642912E+00  0.30812256556E+01  0.31714581674E+01  0.00000000000E+00 0.  1.
</event>
<event>
 5    1  0.7220939E+001  0.1542240E+01  0.7818608E-02  0.3418543E+00
         11   -1    0    0    0    0  0.00000000000E+00  0.00000000000E+00  0.39999999674E+01  0.40000000000E+01  0.51100000000E-03 0. -1.
    9000002   -1    0    0    0    0 -0.00000000000E+00 -0.00000000000E+00  0.00000000000E+00  0.93800000000E+00  0.93800000000E+00 0. -1.
         11    1    1    2    0    0 -0.18756532757E+00  0.57517362212E-01  0.69359177420E+00  0.72080427956E+00  0.51100000000E-03 0. -1.
    9000002    1    1    2    0    0 -0.12183067492E+00  0.71420638224E-01  0.56718702263E-01  0.95026555873E+00  0.93800000000E+00 0. -1.
         22    1    1    2    0    0  0.30939600249E+00 -0.12893800044E+00  0.32496894909E+01  0.32669301617E+01  0.00000000000E+00 0. -1.
</event>
<event>
 5    1  0.7220939E+001  0.1512039E+01  0.7818608E-02  0.3454740E+00
         11   -1    0    0    0    0  0.00000000000E+00  0.00000000000E+00  0.39999999674E+01  0.40000000000E+01  0.51100000000E-03 0.  1.
    9000002   -1    0    0    0    0 -0.00000000000E+00 -0.00000000000E+00  0.00000000000E+00  0.93800000000E+00  0.93800000000E+00 0.  1.
         11    1    1    2    0    0 -0.27180592909E+00 -0.25028744337E+00  0.12068869258E+01  0.12621800902E+01  0.51100000000E-03 0.  1.
    9000002    1    1    2    0    0  0.24928368903E-02  0.19555294188E+00  0.94020518057E-01  0.96277257186E+00  0.93800000000E+00 0.  1.
         22    1    1    2    0    0  0.26931309220E+00  0.54734501487E-01  0.26990925235E+01  0.27130473379E+01  0.00000000000E+00 0. -1.
</event>
<event>
 5    1  0.7380916E+001  0.1599588E+01  0.7818608E-02  0.3353811E+00
         11   -1    0    0    0    0  0.00000000000E+00  0.00000000000E+00  0.39999999674E+01  0.40000000000E+01  0.51100000000E-03 0.  1.
    9000002   -1    0    0    0    0 -0.00000000000E+00 -0.00000000000E+00  0.00000000000E+00  0.93800000000E+00  0.93800000000E+00 0.  1.
         11    1    1    2    0    0 -0.78959940658E-01  0.57423573554E-01  0.12186815227E+01  0.12225862153E+01  0.51100000000E-03 0.  1.
    9000002    1    1    2    0    0  0.27878540237E+00 -0.20774984432E+00  0.81103185926E-01  0.10036448700E+01  0.93800000000E+00 0.  1.
         22    1    1    2    0    0 -0.19982546172E+00  0.15032627077E+00  0.27002152588E+01  0.27117689147E+01  0.00000000000E+00 0.  1.
</event>
<event>
 5    1  0.7220939E+001  0.1599596E+01  0.7818608E-02  0.3353802E+00
         11   -1    0    0    0    0  0.00000000000E+00  0.00000000000E+00  0.39999999674E+01  0.40000000000E+01  0.51100000000E-03 0.  1.
    9000002   -1    0    0    0    0 -0.00000000000E+00 -0.00000000000E+00  0.00000000000E+00  0.93800000000E+00  0.93800000000E+00 0. -1.
         11    1    1    2    0    0 -0.43775322804E-01  0.77754303612E-02  0.41941124423E+00  0.42176153110E+00  0.51100000000E-03 0.  1.
    9000002    1    1    2    0    0  0.41104940135E+00 -0.13350023555E+00  0.12660462811E+00  0.10405078832E+01  0.93800000000E+00 0. -1.
         22    1    1    2    0    0 -0.36727407854E+00  0.12572480519E+00  0.34539840950E+01  0.34757305857E+01  0.00000000000E+00 0.  1.
</event>
<event>
 5    1  0.7220939E+001  0.1599677E+01  0.7818608E-02  0.3353714E+00
         11   -1    0    0    0    0  0.00000000000E+00  0.00000000000E+00  0.39999999674E+01  0.40000000000E+01  0.51100000000E-03 0.  1.
    9000002   -1    0    0    0    0 -0.00000000000E+00 -0.00000000000E+00  0.00000000000E+00  0.93800000000E+00  0.93800000000E+00 0.  1.
         11    1    1    2    0    0 -0.10441751418E+00 -0.17921074194E-01  0.10204342183E+01  0.10259193132E+01  0.51100000000E-03 0. -1.
    9000002    1    1    2    0    0  0.39628939112E+00  0.69792061673E-01  0.10924964726E+00  0.10264968090E+01  0.93800000000E+00 0.  1.
         22    1    1    2    0    0 -0.29187187693E+00 -0.51870987479E-01  0.28703161018E+01  0.28855838779E+01  0.00000000000E+00 0.  1.
</event>
<event>
 5    1  0.7220939E+001  0.1599513E+01  0.7818608E-02  0.3353892E+00
         11   -1    0    0    0    0  0.00000000000E+00  0.00000000000E+00  0.39999999674E+01  0.40000000000E+01  0.51100000000E-03 0. -1.
    9000002   -1    0    0    0    0 -0.00000000000E+00 -0.00000000000E+00  0.00000000000E+00  0.93800000000E+00  0.93800000000E+00 0.  1.
         11    1    1    2    0    0  0.84648257972E-01 -0.80624986601E-01  0.13384561078E+01  0.13435515359E+01  0.51100000000E-03 0. -1.
    9000002    1    1    2    0    0 -0.28810445237E+00  0.22262953890E+00  0.89162963105E-01  0.10101297546E+01  0.93800000000E+00 0.  1.
         22    1    1    2    0    0  0.20345619440E+00 -0.14200455230E+00  0.25723808964E+01  0.25843187095E+01  0.00000000000E+00 0. -1.
</event>
<event>
 5    1  0.7220939E+001  0.1599540E+01  0.7818608E-02  0.3353863E+00
         11   -1    0    0    0    0  0.00000000000E+00  0.00000000000E+00  0.39999999674E+01  0.40000000000E+01  0.51100000000E-03 0.  1.
    9000002   -1    0    0    0    0 -0.00000000000E+00 -0.00000000000E+00  0.00000000000E+00  0.93800000000E+00  0.93800000000E+00 0. -1.
         11    1    1    2    0    0  0.18027634950E-01  0.60175911957E-01  0.54804880045E+00  0.55163745775E+00  0.51100000000E-03 0.  1.
    9000002    1    1    2    0    0 -0.13498053442E+00 -0.35876235780E+00  0.99012920282E-01  0.10181246154E+01  0.93800000000E+00 0. -1.
         22    1    1    2    0    0  0.11695289947E+00  0.29858644584E+00  0.33529382466E+01  0.33682379269E+01  0.00000000000E+00 0.  1.
</event>
<event>
 5    1  0.7220939E+001  0.1599676E+01  0.7818608E-02  0.3353715E+00
         11   -1    0    0    0    0  0.00000000000E+00  0.00000000000E+00  0.39999999674E+01  0.40000000000E+01  0.51100000000E-03 0. -1.
    9000002   -1    0    0    0    0 -0.00000000000E+00 -0.00000000000E+00  0.00000000000E+00  0.93800000000E+00  0.93800000000E+00 0. -1.
         11    1    1    2    0    0  0.35638794043E-01 -0.99120309635E-02  0.36567867453E+00  0.36754527085E+00  0.51100000000E-03 0.  1.
    9000002    1    1    2    0    0 -0.38616148263E+00  0.10520429791E+00  0.10805470266E+00  0.10255283778E+01  0.93800000000E+00 0. -1.
         22    1    1    2    0    0  0.35052268859E+00 -0.95292266943E-01  0.35262665902E+01  0.35449263513E+01  0.00000000000E+00 0. -1.
</event>
<event>
 5    1  0.8873020E+001  0.1598135E+01  0.7818608E-02  0.3355390E+00
         11   -1    0    0    0    0  0.00000000000E+00  0.00000000000E+00  0.39999999674E+01  0.40000000000E+01  0.51100000000E-03 0.  1.
    9000002   -1    0    0    0    0 -0.00000000000E+00 -0.00000000000E+00  0.00000000000E+00  0.93800000000E+00  0.93800000000E+00 0.  1.
         11    1    1    2    0    0 -0.12639173218E+00  0.19717766411E-01  0.14822760115E+01  0.14877856350E+01  0.51100000000E-03 0.  1.
    9000002    1    1    2    0    0  0.33146572223E+00  0.69032448434E-01  0.78003045197E-01  0.10002816998E+01  0.93800000000E+00 0.  1.
         22    1    1    2    0    0 -0.20507399005E+00 -0.88750214844E-01  0.24397209107E+01  0.24499326652E+01  0.00000000000E+00 0.  1.
</event>
<event>
 5    1  0.7220939E+001  0.1599649E+01  0.7818608E-02  0.3353744E+00
         11   -1    0    0    0    0  0.00000000000E+00  0.00000000000E+00  0.39999999674E+01  0.40000000000E+01  0.51100000000E-03 0.  1.
    9000002   -1    0    0    0    0 -0.00000000000E+00 -0.00000000000E+00  0.00000000000E+00  0.93800000000E+00  0.93800000000E+00 0. -1.
         11    1    1    2    0    0 -0.30732699486E+00  0.25004228347E+00  0.10285859727E+01  0.11022524165E+01  0.51100000000E-03 0.  1.
    9000002    1    1    2    0    0  0.87647102810E+00 -0.69179990143E+00  0.10886223231E+01  0.18198162350E+01  0.93800000000E+00 0. -1.
         22    1    1    2    0    0 -0.56914403324E+00  0.44175761796E+00  0.18827916715E+01  0.20159313485E+01  0.00000000000E+00 0.  1.
</event>
<event>
 5    1  0.7220939E+001  0.1598985E+01  0.7818608E-02  0.3354466E+00
         11   -1    0    0    0    0  0.00000000000E+00  0.00000000000E+00  0.39999999674E+01  0.40000000000E+01  0.51100000000E-03 0. -1.
    9000002   -1    0    0    0    0 -0.00000000000E+00 -0.00000000000E+00  0.00000000000E+00  0.93800000000E+00  0.93800000000E+00 0.  1.
         11    1    1    2    0    0  0.89846523798E-01  0.15992325301E-01  0.12467896622E+01  0.12501251438E+01  0.51100000000E-03 0. -1.
    9000002    1    1    2    0    0 -0.35503334787E+00 -0.10673969545E+00  0.92938849619E-01  0.10128789022E+01  0.93800000000E+00 0.  1.
         22    1    1    2    0    0  0.26518682407E+00  0.90747370148E-01  0.26602714556E+01  0.26749959540E+01  0.00000000000E+00 0. -1.
</event>
<event>
 5    1  0.7220939E+001  0.1595054E+01  0.7818608E-02  0.3358750E+00
         11   -1    0    0    0    0  0.00000000000E+00  0.00000000000E+00  0.39999999674E+01  0.40000000000E+01  0.51100000000E-03 0. -1.
    9000002   -1    0    0    0    0 -0.00000000000E+00 -0.00000000000E+00  0.00000000000E+00  0.93800000000E+00  0.93800000000E+00 0. -1.
         11    1    1    2    0    0  0.45208528378E-01  0.20129717656E-01  0.60723282890E+00  0.60924624430E+00  0.51100000000E-03 0. -1.
    9000002    1    1    2    0    0  0.39770710831E-01 -0.32008969645E+00  0.73229778958E-01  0.99460832680E+00  0.93800000000E+00 0. -1.
         22    1    1    2    0    0 -0.84979239210E-01  0.29995997879E+00  0.33195373595E+01  0.33341454289E+01  0.00000000000E+00 0. -1.
</event>
<event>
 5    1  0.7220939E+001  0.1599677E+01  0.7818608E-02  0.3353714E+00
         11   -1    0    0    0    0  0.00000000000E+00  0.00000000000E+00  0.39999999674E+01  0.40000000000E+01  0.51100000000E-03 0.  1.
    9000002   -1    0    0    0    0 -0.00000000000E+00 -0.00000000000E+00  0.00000000000E+00  0.93800000000E+00  0.93800000000E+00 0.  1.
         11    1    1    2    0    0 -0.15315820007E-01 -0.18030751185E+00  0.14098757586E+01  0.14214412717E+01  0.51100000000E-03 0.  1.
    9000002    1    1    2    0    0  0.42526611902E-01  0.48900137900E+00  0.16468061642E+00  0.10713984165E+01  0.93800000000E+00 0.  1.
         22    1    1    2    0    0 -0.27210791895E-01 -0.30869386715E+00  0.24254435924E+01  0.24451603118E+01  0.00000000000E+00 0.  1.
</event>
<event>
 5    1  0.1092151E+002  0.1598497E+01  0.7818608E-02  0.3354996E+00
         11   -1    0    0    0    0  0.00000000000E+00  0.00000000000E+00  0.39999999674E+01  0.40000000000E+01  0.51100000000E-03 0. -1.
    9000002   -1    0    0    0    0 -0.00000000000E+00 -0.00000000000E+00  0.00000000000E+00  0.93800000000E+00  0.93800000000E+00 0.  1.
         11    1    1    2    0    0  0.55582236193E-01  0.48483560068E-01  0.13733208552E+01  0.13753001393E+01  0.51100000000E-03 0. -1.
    9000002    1    1    2    0    0 -0.26440316110E+00 -0.17999960716E+00  0.69316398436E-01  0.99345742398E+00  0.93800000000E+00 0.  1.
         22    1    1    2    0    0  0.20882092490E+00  0.13151604710E+00  0.25573627137E+01  0.25692424367E+01  0.00000000000E+00 0.  1.
</event>
<event>
 5    1  0.7220939E+001  0.1599671E+01  0.7818608E-02  0.3353720E+00
         11   -1    0    0    0    0  0.00000000000E+00  0.00000000000E+00  0.39999999674E+01  0.40000000000E+01  0.51100000000E-03 0. -1.
    9000002   -1    0    0    0    0 -0.00000000000E+00 -0.00000000000E+00  0.00000000000E+00  0.93800000000E+00  0.93800000000E+00 0. -1.
         11    1    1    2    0    0 -0.66406667293E-01 -0.35418835664E-01  0.77833986878E+00  0.78197030112E+00  0.51100000000E-03 0. -1.
    9000002    1    1    2    0    0  0.34032511354E+00  0.18587811530E+00  0.10127732210E+00  0.10200357605E+01  0.93800000000E+00 0. -1.
         22    1    1    2    0    0 -0.27391844624E+00 -0.15045927964E+00  0.31203827765E+01  0.31359939384E+01  0.00000000000E+00 0. -1.
</event>
<event>
 5    1  0.7220939E+001  0.1479483E+01  0.7818608E-02  0.3495541E+00
         11   -1    0    0    0    0  0.00000000000E+00  0.00000000000E+00  0.39999999674E+01  0.40000000000E+01  0.51100000000E-03 0.  1.
    9000002   -1    0    0    0    0 -0.00000000000E+00 -0.00000000000E+00  0.00000000000E+00  0.93800000000E+00  0.93800000000E+00 0. -1.
         11    1    1    2    0    0  0.10815687259E+00 -0.18325249961E+00  0.23917294309E+00  0.32013020091E+00  0.51100000000E-03 0.  1.
    9000002    1    1    2    0    0 -0.23801672170E+00 -0.16659393307E+00  0.15659385487E+00  0.99436971682E+00  0.93800000000E+00 0. -1.
         22    1    1    2    0    0  0.12985984911E+00  0.34984643268E+00  0.36042331694E+01  0.36235000823E+01  0.00000000000E+00 0.  1.
</event>
<event>
 5    1  0.7220939E+001  0.1599092E+01  0.7818608E-02  0.3354350E+00
         11   -1    0    0    0    0  0.00000000000E+00  0.00000000000E+00  0.39999999674E+01  0.40000000000E+01  0.51100000000E-03 0. -1.
    9000002   -1    0    0    0    0 -0.00000000000E+00 -0.00000000000E+00  0.00000000000E+00  0.93800000000E+00  0.93800000000E+00 0.  1.
         11    1    1    2    0    0  0.17885947996E-01  0.16353299822E+00  0.10128767635E+01  0.10261493789E+01  0.51100000000E-03 0. -1.
    9000002    1    1    2    0    0  0.24718504393E-01 -0.63061261637E+00  0.28040585800E+00  0.11647981463E+01  0.93800000000E+00 0.  1.
         22    1    1    2    0    0 -0.42604452389E-01  0.46707961815E+00  0.27067173459E+01  0.27470524749E+01  0.00000000000E+00 0. -1.
</event>
<event>
 5    1  0.7220939E+001  0.1592182E+01  0.7818608E-02  0.3361893E+00
         11   -1    0    0    0    0  0.00000000000E+00  0.00000000000E+00  0.39999999674E+01  0.40000000000E+01  0.51100000000E-03 0. -1.
    9000002   -1    0    0    0    0 -0.00000000000E+00 -0.00000000000E+00  0.00000000000E+00  0.93800000000E+00  0.93800000000E+00 0. -1.
         11    1    1    2    0    0 -0.22657069307E+00 -0.29375406714E-01  0.10219146955E+01  0.10471423491E+01  0.51100000000E-03 0. -1.
    9000002    1    1    2    0    0  0.52555960804E+00 -0.32148871516E-01  0.19761666609E+00  0.10936831343E+01  0.93800000000E+00 0. -1.
         22    1    1    2    0    0 -0.29898891497E+00  0.61524278230E-01  0.27804686058E+01  0.27971745165E+01  0.00000000000E+00 0. -1.
</event>
<event>
 5    1  0.7220939E+001  0.1562922E+01  0.7818608E-02  0.3394617E+00
         11   -1    0    0    0    0  0.00000000000E+00  0.00000000000E+00  0.39999999674E+01  0.40000000000E+01  0.51100000000E-03 0.  1.
    9000002   -1    0    0    0    0 -0.00000000000E+00 -0.00000000000E+00  0.00000000000E+00  0.93800000000E+00  0.93800000000E+00 0. -1.
         11    1    1    2    0    0  0.85574919951E-01  0.22968256925E+00  0.11034514208E+01  0.11303461632E+01  0.51100000000E-03 0.  1.
    9000002    1    1    2    0    0  0.25656636627E+00 -0.32865081219E+00  0.14915491120E+00  0.10372698994E+01  0.93800000000E+00 0. -1.
         22    1    1    2    0    0 -0.34214128622E+00  0.98968242945E-01  0.27473936354E+01  0.27703839374E+01  0.00000000000E+00 0.  1.
</event>
<event>
 5    1  0.7220939E+001  0.1599286E+01  0.7818608E-02  0.3354138E+00
         11   -1    0    0    0    0  0.00000000000E+00  0.00000000000E+00  0.39999999674E+01  0.40000000000E+01  0.51100000000E-03 0. -1.
    9000002   -1    0    0    0    0 -0.00000000000E+00 -0.00000000000E+00  0.00000000000E+00  0.93800000000E+00  0.93800000000E+00 0. -1.
         11    1    1    2    0    0  0.95435205516E-01 -0.54342100362E-03  0.97165701344E+00  0.97633282575E+00  0.51100000000E-03 0. -1.
    9000002    1    1    2    0    0 -0.35074348727E+00  0.77852718432E-01  0.86957288683E-01  0.10082101020E+01  0.93800000000E+00 0. -1.
         22    1    1    2    0    0  0.25530828175E+00 -0.77309297429E-01  0.29413856652E+01  0.29534570723E+01  0.00000000000E+00 0. -1.
</event>
<event>
 5    1  0.7220939E+001  0.1599675E+01  0.7818608E-02  0.3353716E+00
         11   -1    0    0    0    0  0.00000000000E+00  0.00000000000E+00  0.39999999674E+01  0.40000000000E+01  0.51100000000E-03 0.  1.
    9000002   -1    0    0    0    0 -0.00000000000E+00 -0.00000000000E+00  0.00000000000E+00  0.93800000000E+00  0.93800000000E+00 0. -1.
         11    1    1    2    0    0 -0.31251523227E-01 -0.20497193159E-01  0.37778106958E+00  0.37962559224E+00  0.51100000000E-03 0.  1.
    9000002    1    1    2    0    0  0.32819754739E+00  0.21758657503E+00  0.10450802519E+00  0.10226551105E+01  0.93800000000E+00 0. -1.
         22    1    1    2    0    0 -0.29694602417E+00 -0.19708938187E+00  0.35177108726E+01  0.35357192972E+01  0.00000000000E+00 0.  1.
</event>
<event>
 5    1  0.7220939E+001  0.1599673E+01  0.7818608E-02  0.3353718E+00
         11   -1    0    0    0    0  0.00000000000E+00  0.00000000000E+00  0.39999999674E+01  0.40000000000E+01  0.51100000000E-03 0. -1.
    9000002   -1    0    0    0    0 -0.00000000000E+00 -0.00000000000E+00  0.00000000000E+00  0.93800000000E+00  0.93800000000E+00 0. -1.
         11    1    1    2    0    0 -0.41998003644E-01 -0.63129478234E-01  0.86191615003E+00  0.86524497926E+00  0.51100000000E-03 0. -1.
    9000002    1    1    2    0    0  0.19745894098E+00  0.29229418807E+00  0.83457130547E-01  0.10056018190E+01  0.93800000000E+00 0. -1.
         22    1    1    2    0    0 -0.15546093734E+00 -0.22916470984E+00  0.30546266868E+01  0.30671532017E+01  0.00000000000E+00 0. -1.
</event>
<event>
 5    1  0.7220939E+001  0.1593192E+01  0.7818608E-02  0.3360786E+00
         11   -1    0    0    0    0  0.00000000000E+00  0.00000000000E+00  0.39999999674E+01  0.40000000000E+01  0.51100000000E-03 0. -1.
    9000002   -1    0    0    0    0 -0.00000000000E+00 -0.00000000000E+00  0.00000000000E+00  0.93800000000E+00  0.93800000000E+00 0.  1.
         11    1    1    2    0    0 -0.11295486106E+00 -0.36487933222E-01  0.51951142019E+00  0.53290012829E+00  0.51100000000E-03 0. -1.
    9000002    1    1    2    0    0  0.42037046201E+00  0.83816329159E-02  0.12506154353E+00  0.10355027604E+01  0.93800000000E+00 0.  1.
         22    1    1    2    0    0 -0.30741560095E+00  0.28106300306E-01  0.33554270036E+01  0.33695971113E+01  0.00000000000E+00 0. -1.
</event>
<event>
 5    1  0.7220939E+001  0.1569165E+01  0.7818608E-02  0.3387526E+00
         11   -1    0    0    0    0  0.00000000000E+00  0.00000000000E+00  0.39999999674E+01  0.40000000000E+01  0.51100000000E-03 0.  1.
    9000002   -1    0    0    0    0 -0.00000000000E+00 -0.00000000000E+00  0.00000000000E+00  0.93800000000E+00  0.93800000000E+00 0. -1.
         11    1    1    2    0    0 -0.18169670826E-01 -0.11219400810E-01 -0.35806671021E-02  0.21658582372E-01  0.51100000000E-03 0.  1.
    9000002    1    1    2    0    0  0.23138574940E+00  0.42758720128E+00  0.18911892865E+00  0.10733033816E+01  0.93800000000E+00 0. -1.
         22    1    1    2    0    0 -0.21321607858E+00 -0.41636780047E+00  0.38144617058E+01  0.38430380361E+01  0.00000000000E+00 0.  1.
</event>
<event>
 5    1  0.7220939E+001  0.1599666E+01  0.7818608E-02  0.3353726E+00
         11   -1    0    0    0    0  0.00000000000E+00  0.00000000000E+00  0.39999999674E+01  0.40000000000E+01  0.51100000000E-03 0. -1.
    9000002   -1    0    0    0    0 -0.00000000000E+00 -0.00000000000E+00  0.00000000000E+00  0.93800000000E+00  0.93800000000E+00 0. -1.
         11    1    1    2    0    0  0.88788550569E-01 -0.79592327346E-01  0.81192268266E+00  0.82063210334E+00  0.51100000000E-03 0. -1.
    9000002    1    1    2    0    0 -0.40799196892E+00  0.35850860017E+00  0.20349384348E+00  0.11028325383E+01  0.93800000000E+00 0. -1.
         22    1    1    2    0    0  0.31920341835E+00 -0.27891627282E+00  0.29845834412E+01  0.30145353584E+01  0.00000000000E+00 0. -1.
</event>
<event>
 5    1  0.7220939E+001  0.1599675E+01  0.7818608E-02  0.3353716E+00
         11   -1    0    0    0    0  0.00000000000E+00  0.00000000000E+00  0.39999999674E+01  0.40000000000E+01  0.51100000000E-03 0. -1.
    9000002   -1    0    0    0    0 -0.00000000000E+00 -0.00000000000E+00  0.00000000000E+00  0.93800000000E+00  0.93800000000E+00 0. -1.
         11    1    1    2    0    0  0.19775747535E-01  0.54542719234E-01  0.54888326257E+00  0.55194119747E+00  0.51100000000E-03 0. -1.
    9000002    1    1    2    0    0 -0.13663362072E+00 -0.37941560344E+00  0.10974167474E+00  0.10268944355E+01  0.93800000000E+00 0. -1.
         22    1    1    2    0    0  0.11685787318E+00  0.32487288421E+00  0.33413750301E+01  0.33591643671E+01  0.00000000000E+00 0. -1.
</event>
<event>
 5    1  0.7220939E+001  0.1599651E+01  0.7818608E-02  0.3353742E+00
         11   -1    0    0    0    0  0.00000000000E+00  0.00000000000E+00  0.39999999674E+01  0.40000000000E+01  0.51100000000E-03 0. -1.
    9000002   -1    0    0    0    0 -0.00000000000E+00 -0.00000000000E+00  0.00000000000E+00  0.93800000000E+00  0.93800000000E+00 0. -1.
         11    1    1    2    0    0 -0.70018453850E-01  0.22093193958E-01  0.72546684902E+00  0.72917288982E+00  0.51100000000E-03 0. -1.
    9000002    1    1    2    0    0  0.35737616115E+00 -0.13567650827E+00  0.98367573891E-01  0.10176669470E+01  0.93800000000E+00 0. -1.
         22    1    1    2    0    0 -0.28735770730E+00  0.11358331432E+00  0.31761655444E+01  0.31911601632E+01  0.00000000000E+00 0. -1.
</event>
<event>
 5    1  0.7220939E+001  0.1596254E+01  0.7818608E-02  0.3357439E+00
         11   -1    0    0    0    0  0.00000000000E+00  0.00000000000E+00  0.39999999674E+01  0.40000000000E+01  0.51100000000E-03 0.  1.
    9000002   -1    0    0    0    0 -0.00000000000E+00 -0.00000000000E+00  0.00000000000E+00  0.93800000000E+00  0.93800000000E+00 0. -1.
         11    1    1    2    0    0 -0.52711353962E-01  0.11426150704E+00  0.12404356066E+01  0.12468018825E+01  0.51100000000E-03 0.  1.
    9000002    1    1    2    0    0  0.32299091610E+00 -0.22605138431E+00  0.10760076085E+00  0.10231540861E+01  0.93800000000E+00 0. -1.
         22    1    1    2    0    0 -0.27027956214E+00  0.11178987726E+00  0.26519635999E+01  0.26680440314E+01  0.00000000000E+00 0.  1.
</event>
<event>
 5    1  0.7220939E+001  0.1599677E+01  0.7818608E-02  0.3353714E+00
         11   -1    0    0    0    0  0.00000000000E+00  0.00000000000E+00  0.39999999674E+01  0.40000000000E+01  0.51100000000E-03 0.  1.
    9000002   -1    0    0    0    0 -0.00000000000E+00 -0.00000000000E+00  0.00000000000E+00  0.93800000000E+00  0.93800000000E+00 0. -1.
         11    1    1    2    0    0 -0.38534589156E-02  0.32221666464E+00  0.13404819495E+01  0.13786698467E+01  0.51100000000E-03 0.  1.
    9000002    1    1    2    0    0  0.11689820447E-01 -0.83575906029E+00  0.52119389539E+00  0.13601900365E+01  0.93800000000E+00 0. -1.
         22    1    1    2    0    0 -0.78363615317E-02  0.51354239565E+00  0.21383241225E+01  0.21991401168E+01  0.00000000000E+00 0.  1.
</event>
<event>
 5    1  0.7220939E+001  0.1535029E+01  0.7818608E-02  0.3427047E+00
         11   -1    0    0    0    0  0.00000000000E+00  0.00000000000E+00  0.39999999674E+01  0.40000000000E+01  0.51100000000E-03 0. -1.
    9000002   -1    0    0    0    0 -0.00000000000E+00 -0.00000000000E+00  0.00000000000E+00  0.93800000000E+00  0.93800000000E+00 0. -1.
         11    1    1    2    0    0  0.19748558458E+00  0.16763504523E+00  0.88759810766E+00  0.92462572230E+00  0.51100000000E-03 0. -1.
    9000002    1    1    2    0    0  0.72668412231E-01 -0.11191866778E+00  0.60866600949E-01  0.94939729800E+00  0.93800000000E+00 0. -1.
         22    1    1    2    0    0 -0.27015399681E+00 -0.55716377449E-01  0.30515352588E+01  0.30639769797E+01  0.00000000000E+00 0. -1.
</event>
<event>
 5    1  0.7220939E+001  0.1584534E+01  0.7818608E-02  0.3370322E+00
         11   -1    0    0    0    0  0.00000000000E+00  0.00000000000E+00  0.39999999674E+01  0.40000000000E+01  0.51100000000E-03 0. -1.
    9000002   -1    0    0    0    0 -0.00000000000E+00 -0.00000000000E+00  0.00000000000E+00  0.93800000000E+00  0.93800000000E+00 0.  1.
         11    1    1    2    0    0  0.20866009335E-02 -0.11720976108E+00  0.55331128548E+00  0.56559360124E+00  0.51100000000E-03 0. -1.
    9000002    1    1    2    0    0  0.37013829260E+00  0.20283757322E+00  0.13342901607E+00  0.10372042899E+01  0.93800000000E+00 0.  1.
         22    1    1    2    0    0 -0.37222489353E+00 -0.85627812135E-01  0.33132596658E+01  0.33352021088E+01  0.00000000000E+00 0. -1.
</event>
<event>
 5    1  0.7220939E+001  0.1585717E+01  0.7818608E-02  0.3369014E+00
         11   -1    0    0    0    0  0.00000000000E+00  0.00000000000E+00  0.39999999674E+01  0.40000000000E+01  0.51100000000E-03 0.  1.
    9000002   -1    0    0    0    0 -0.00000000000E+00 -0.00000000000E+00  0.00000000000E+00  0.93800000000E+00  0.93800000000E+00 0.  1.
         11    1    1    2    0    0  0.90934944469E-01  0.18559235205E+00  0.12203558036E+01  0.12377326988E+01  0.51100000000E-03 0.  1.
    9000002    1    1    2    0    0 -0.40681648529E+00 -0.18540485353E+00  0.14782291546E+00  0.10495571574E+01  0.93800000000E+00 0.  1.
         22    1    1    2    0    0  0.31588154082E+00 -0.18749851847E-03  0.26318212483E+01  0.26507101437E+01  0.00000000000E+00 0.  1.
</event>
<event>
 5    1  0.7220939E+001  0.1598443E+01  0.7818608E-02  0.3355055E+00
         11   -1    0    0    0    0  0.00000000000E+00  0.00000000000E+00  0.39999999674E+01  0.40000000000E+01  0.51100000000E-03 0.  1.
    9000002   -1    0    0    0    0 -0.00000000000E+00 -0.00000000000E+00  0.00000000000E+00  0.93800000000E+00  0.93800000000E+00 0. -1.
         11    1    1    2    0    0 -0.25409539675E-01  0.72383715453E-01  0.49595478799E+00  0.50185302612E+00  0.51100000000E-03 0.  1.
    9000002    1    1    2    0    0 -0.10006008644E-01 -0.48494376439E+00  0.16175777933E+00  0.10683071440E+01  0.93800000000E+00 0. -1.
         22    1    1    2    0    0  0.35415548319E-01  0.41256004893E+00  0.33422874000E+01  0.33678398298E+01  0.00000000000E+00 0.  1.
</event>
<event>
 5    1  0.7220939E+001  0.1599619E+01  0.7818608E-02  0.3353777E+00
         11   -1    0    0    0    0  0.00000000000E+00  0.00000000000E+00  0.39999999674E+01  0.40000000000E+01  0.51100000000E-03 0. -1.
    9000002   -1    0    0    0    0 -0.00000000000E+00 -0.00000000000E+00  0.00000000000E+00  0.93800000000E+00  0.93800000000E+00 0. -1.
         11    1    1    2    0    0  0.12043592685E-01 -0.92561583053E-01  0.10503568857E+01  0.10544963457E+01  0.51100000000E-03 0. -1.
    9000002    1    1    2    0    0 -0.21666793574E-01  0.36420555119E+00  0.89452216861E-01  0.10104260649E+01  0.93800000000E+00 0. -1.
         22    1    1    2    0    0  0.96232008897E-02 -0.27164396814E+00  0.28601908648E+01  0.28730775894E+01  0.00000000000E+00 0. -1.
</event>
<event>
 5    1  0.7220939E+001  0.1599676E+01  0.7818608E-02  0.3353715E+00
         11   -1    0    0    0    0  0.00000000000E+00  0.00000000000E+00  0.39999999674E+01  0.40000000000E+01  0.51100000000E-03 0. -1.
    9000002   -1    0    0    0    0 -0.00000000000E+00 -0.00000000000E+00  0.00000000000E+00  0.93800000000E+00  0.93800000000E+00 0. -1.
         11    1    1    2    0    0  0.72549046143E-01  0.32799786696E-01  0.70007098869E+00  0.70458416135E+00  0.51100000000E-03 0. -1.
    9000002    1    1    2    0    0 -0.40160935932E+00 -0.18551605179E+00  0.13277372196E+00  0.10455520763E+01  0.93800000000E+00 0. -1.
         22    1    1    2    0    0  0.32906031317E+00  0.15271626509E+00  0.31671552567E+01  0.31878637624E+01  0.00000000000E+00 0. -1.
</event>
<event>
 5    1  0.7220939E+001  0.1599128E+01  0.7818608E-02  0.3354310E+00
         11   -1    0    0    0    0  0.00000000000E+00  0.00000000000E+00  0.39999999674E+01  0.40000000000E+01  0.51100000000E-03 0.  1.
    9000002   -1    0    0    0    0 -0.00000000000E+00 -0.00000000000E+00  0.00000000000E+00  0.93800000000E+00  0.93800000000E+00 0. -1.
         11    1    1    2    0    0 -0.12897594032E+00 -0.11633563866E-01  0.12440713799E+01  0.12507933452E+01  0.51100000000E-03 0.  1.
    9000002    1    1    2    0    0  0.37108726349E+00 -0.38719037316E-01  0.94033777906E-01  0.10138497287E+01  0.93800000000E+00 0. -1.
         22    1    1    2    0    0 -0.24211132317E+00  0.50352601182E-01  0.26618948095E+01  0.26733569261E+01  0.00000000000E+00 0.  1.
</event>
<event>
 5    1  0.7220939E+001  0.1576115E+01  0.7818608E-02  0.3379703E+00
         11   -1    0    0    0    0  0.00000000000E+00  0.00000000000E+00  0.39999999674E+01  0.40000000000E+01  0.51100000000E-03 0.  1.
    9000002   -1    0    0    0    0 -0.00000000000E+00 -0.00000000000E+00  0.00000000000E+00  0.93800000000E+00  0.93800000000E+00 0.  1.
         11    1    1    2    0    0  0.19666366439E+00 -0.55641280824E-01  0.88783670433E+00  0.91105807921E+00  0.51100000000E-03 0.  1.
    9000002    1    1    2    0    0 -0.33927840656E+00 -0.19711876221E+00  0.12351888685E+00  0.10242395027E+01  0.93800000000E+00 0.  1.
         22    1    1    2    0    0  0.14261474216E+00  0.25276004304E+00  0.29886443762E+01  0.30027024180E+01  0.00000000000E+00 0.  1.
</event>
<event>
 5    1  0.7220939E+001  0.1544568E+01  0.7818608E-02  0.3415816E+00
         11   -1    0    0    0    0  0.00000000000E+00  0.00000000000E+00  0.39999999674E+01  0.40000000000E+01  0.51100000000E-03 0.  1.
    9000002   -1    0    0    0    0 -0.00000000000E+00 -0.00000000000E+00  0.00000000000E+00  0.93800000000E+00  0.93800000000E+00 0.  1.
         11    1    1    2    0    0 -0.10513635060E+00  0.14612948824E+00  0.25622395966E+00  0.31314287183E+00  0.51100000000E-03 0.  1.
    9000002    1    1    2    0    0  0.96253187456E-01 -0.46971379055E+00  0.20735942147E+00  0.10736562070E+01  0.93800000000E+00 0.  1.
         22    1    1    2    0    0  0.88831631407E-02  0.32358430231E+00  0.35364165862E+01  0.35512009212E+01  0.00000000000E+00 0.  1.
</event>
<event>
 5    1  0.7220939E+001  0.1599416E+01  0.7818608E-02  0.3353998E+00
         11   -1    0    0    0    0  0.00000000000E+00  0.00000000000E+00  0.39999999674E+01  0.40000000000E+01  0.51100000000E-03 0.  1.
    9000002   -1    0    0    0    0 -0.00000000000E+00 -0.00000000000E+00  0.00000000000E+00  0.93800000000E+00  0.93800000000E+00 0.  1.
         11    1    1    2    0    0 -0.13652632332E+00 -0.15999559142E+00  0.91164803053E+00  0.93559629057E+00  0.51100000000E-03 0.  1.
    9000002    1    1    2    0    0  0.49367364642E+00  0.57555903422E+00  0.41819242700E+00  0.12766012600E+01  0.93800000000E+00 0.  1.
         22    1    1    2    0    0 -0.35714732310E+00 -0.41556344280E+00  0.26701595098E+01  0.27258024494E+01  0.00000000000E+00 0.  1.
</event>
<event>
 5    1  0.7220939E+001  0.1485080E+01  0.7818608E-02  0.3488389E+00
         11   -1    0    0    0    0  0.00000000000E+00  0.00000000000E+00  0.39999999674E+01  0.40000000000E+01  0.51100000000E-03 0. -1.
    9000002   -1    0    0    0    0 -0.00000000000E+00 -0.00000000000E+00  0.00000000000E+00  0.93800000000E+00  0.93800000000E+00 0. -1.
         11    1    1    2    0    0 -0.27660483530E+00  0.62484321993E-01  0.63049021011E+00  0.69132676179E+00  0.51100000000E-03 0. -1.
    9000002    1    1    2    0    0 -0.10948123512E+00  0.73826789774E-01  0.10100016441E+00  0.95261827032E+00  0.93800000000E+00 0. -1.
         22    1    1    2    0    0  0.38608607042E+00 -0.13631111177E+00  0.32685095928E+01  0.32940549679E+01  0.00000000000E+00 0. -1.
</event>
<event>
 5    1  0.7220939E+001  0.1594100E+01  0.7818608E-02  0.3359792E+00
         11   -1    0    0    0    0  0.00000000000E+00  0.00000000000E+00  0.39999999674E+01  0.40000000000E+01  0.51100000000E-03 0. -1.
    9000002   -1    0    0    0    0 -0.00000000000E+00 -0.00000000000E+00  0.00000000000E+00  0.93800000000E+00  0.93800000000E+00 0.  1.
         11    1    1    2    0    0 -0.15449337612E-01 -0.59540405698E-02  0.12392557717E+01  0.12393664759E+01  0.51100000000E-03 0. -1.
    9000002    1    1    2    0    0  0.11197013947E+00 -0.23956543021E+00  0.50807731760E-01  0.97588643453E+00  0.93800000000E+00 0.  1.
         22    1    1    2    0    0 -0.96520801857E-01  0.24551947078E+00  0.27099364639E+01  0.27227470896E+01  0.00000000000E+00 0.  1.
</event>
<event>
 5    1  0.7220939E+001  0.1599487E+01  0.7818608E-02  0.3353920E+00
         11   -1    0    0    0    0  0.00000000000E+00  0.00000000000E+00  0.39999999674E+01  0.40000000000E+01  0.51100000000E-03 0.  1.
    9000002   -1    0    0    0    0 -0.00000000000E+00 -0.00000000000E+00  0.00000000000E+00  0.93800000000E+00  0.93800000000E+00 0.  1.
         11    1    1    2    0    0 -0.22053139264E-01  0.16754045332E-01  0.21681616007E+00  0.21857846960E+00  0.51100000000E-03 0.  1.
    9000002    1    1    2    0    0  0.28536888918E+00 -0.22339811970E+00  0.88343236215E-01  0.10094506675E+01  0.93800000000E+00 0.  1.
         22    1    1    2    0    0 -0.26331574991E+00  0.20664407437E+00  0.36948405711E+01  0.37099708629E+01  0.00000000000E+00 0.  1.
</event>
<event>
 5    1  0.7220939E+001  0.1599616E+01  0.7818608E-02  0.3353780E+00
         11   -1    0    0    0    0  0.00000000000E+00  0.00000000000E+00  0.39999999674E+01  0.40000000000E+01  0.51100000000E-03 0. -1.
    9000002   -1    0    0    0    0 -0.00000000000E+00 -0.00000000000E+00  0.00000000000E+00  0.93800000000E+00  0.93800000000E+00 0. -1.
         11    1    1    2    0    0 -0.31777922180E-01  0.12539620749E-02  0.24190944981E+00  0.24399149942E+00  0.51100000000E-03 0. -1.
    9000002    1    1    2    0    0  0.49791480505E+00  0.51963871052E-01  0.17163579873E+00  0.10769968637E+01  0.93800000000E+00 0. -1.
         22    1    1    2    0    0 -0.46613688287E+00 -0.53217833127E-01  0.35864547188E+01  0.36170116369E+01  0.00000000000E+00 0. -1.
</event>
<event>
 5    1  0.7220939E+001  0.1599540E+01  0.7818608E-02  0.3353862E+00
         11   -1    0    0    0    0  0.00000000000E+00  0.00000000000E+00  0.39999999674E+01  0.40000000000E+01  0.51100000000E-03 0. -1.
    9000002   -1    0    0    0    0 -0.00000000000E+00 -0.00000000000E+00  0.00000000000E+00  0.93800000000E+00  0.93800000000E+00 0.  1.
         11    1    1    2    0    0 -0.17619798320E-02 -0.10375057603E-01  0.79107431299E-01  0.79805972214E-01  0.51100000000E-03 0. -1.
    9000002    1    1    2    0    0  0.14461089699E+00  0.32686619977E+00  0.85841743291E-01  0.10074555221E+01  0.93800000000E+00 0.  1.
         22    1    1    2    0    0 -0.14284891716E+00 -0.31649114216E+00  0.38350507928E+01  0.38507385057E+01  0.00000000000E+00 0. -1.
</event>
<event>
 5    1  0.7220939E+001  0.1598404E+01  0.7818608E-02  0.3355097E+00
         11   -1    0    0    0    0  0.00000000000E+00  0.00000000000E+00  0.39999999674E+01  0.40000000000E+01  0.51100000000E-03 0. -1.
    9000002   -1    0    0    0    0 -0.00000000000E+00 -0.00000000000E+00  0.00000000000E+00  0.93800000000E+00  0.93800000000E+00 0.  1.
         11    1    1    2    0    0 -0.20439616667E-01 -0.12308533995E+00  0.79411371845E+00  0.80385610515E+00  0.51100000000E-03 0. -1.
    9000002    1    1    2    0    0  0.25820395708E+00  0.59711334435E+00  0.30002071458E+00  0.11802838890E+01  0.93800000000E+00 0.  1.
         22    1    1    2    0    0 -0.23776434041E+00 -0.47402800440E+00  0.29058655343E+01  0.29538600058E+01  0.00000000000E+00 0. -1.
</event>
<event>
 5    1  0.7220939E+001  0.1598486E+01  0.7818608E-02  0.3355008E+00
         11   -1    0    0    0    0  0.00000000000E+00  0.00000000000E+00  0.39999999674E+01  0.40000000000E+01  0.51100000000E-03 0. -1.
    9000002   -1    0    0    0    0 -0.00000000000E+00 -0.00000000000E+00  0.00000000000E+00  0.93800000000E+00  0.93800000000E+00 0.  1.
         11    1    1    2    0    0 -0.32192732425E-01 -0.43979488707E-02  0.25162754828E+00  0.25371716172E+00  0.51100000000E-03 0. -1.
    9000002    1    1    2    0    0  0.35561245822E+00 -0.21434440609E+00  0.11752444398E+00  0.10325016900E+01  0.93800000000E+00 0.  1.
         22    1    1    2    0    0 -0.32341972580E+00  0.21874235496E+00  0.36308479751E+01  0.36517811483E+01  0.00000000000E+00 0. -1.
</event>
<event>
 5    1  0.7220939E+001  0.1597991E+01  0.7818608E-02  0.3355547E+00
         11   -1    0    0    0    0  0.00000000000E+00  0.00000000000E+00  0.39999999674E+01  0.40000000000E+01  0.51100000000E-03 0.  1.
    9000002   -1    0    0    0    0 -0.00000000000E+00 -0.00000000000E+00  0.00000000000E+00  0.93800000000E+00  0.93800000000E+00 0.  1.
         11    1    1    2    0    0 -0.37644397282E-01  0.18153624895E-01  0.19801446162E+00  0.20237747620E+00  0.51100000000E-03 0.  1.
    9000002    1    1    2    0    0  0.30683782022E+00 -0.32164727491E+00  0.13555485154E+00  0.10468168585E+01  0.93800000000E+00 0.  1.
         22    1    1    2    0    0 -0.26919342294E+00  0.30349365001E+00  0.36664306542E+01  0.36888056653E+01  0.00000000000E+00 0.  1.
</event>
<event>
 5    1  0.7220939E+001  0.1599553E+01  0.7818608E-02  0.3353849E+00
         11   -1    0    0    0    0  0.00000000000E+00  0.00000000000E+00  0.39999999674E+01  0.40000000000E+01  0.51100000000E-03 0. -1.
    9000002   -1    0    0    0    0 -0.00000000000E+00 -0.00000000000E+00  0.00000000000E+00  0.93800000000E+00  0.93800000000E+00 0.  1.
         11    1    1    2    0    0 -0.24687924694E-02  0.80146557453E-02  0.70007173528E-01  0.70509539137E-01  0.51100000000E-03 0. -1.
    9000002    1    1    2    0    0 -0.49039137015E-01 -0.38389117158E+00  0.10096513543E+00  0.10197133064E+01  0.93800000000E+00 0.  1.
         22    1    1    2    0    0  0.51507929485E-01  0.37587651584E+00  0.38290276584E+01  0.38477771545E+01  0.00000000000E+00 0. -1.
</event>
<event>
 5    1  0.7220939E+001  0.1599676E+01  0.7818608E-02  0.3353715E+00
         11   -1    0    0    0    0  0.00000000000E+00  0.00000000000E+00  0.39999999674E+01  0.40000000000E+01  0.51100000000E-03 0.  1.
    9000002   -1    0    0    0    0 -0.00000000000E+00 -0.00000000000E+00  0.00000000000E+00  0.93800000000E+00  0.93800000000E+00 0.  1.
         11    1    1    2    0    0 -0.22004918173E+00  0.16454799723E+00  0.14283099281E+01  0.14544989507E+01  0.51100000000E-03 0.  1.
    9000002    1    1    2    0    0  0.56002512445E+00 -0.41894316169E+00  0.34952040616E+00  0.12211265402E+01  0.93800000000E+00 0.  1.
         22    1    1    2    0    0 -0.33997594272E+00  0.25439516446E+00  0.22221696331E+01  0.22623745092E+01  0.00000000000E+00 0.  1.
</event>
<event>
 5    1  0.7220939E+001  0.1599675E+01  0.7818608E-02  0.3353716E+00
         11   -1    0    0    0    0  0.00000000000E+00  0.00000000000E+00  0.39999999674E+01  0.40000000000E+01  0.51100000000E-03 0. -1.
    9000002   -1    0    0    0    0 -0.00000000000E+00 -0.00000000000E+00  0.00000000000E+00  0.93800000000E+00  0.93800000000E+00 0.  1.
         11    1    1    2    0    0  0.71301180656E-01  0.81896315216E-01  0.10332467200E+01  0.10389369136E+01  0.51100000000E-03 0. -1.
    9000002    1    1    2    0    0 -0.27301764239E+00 -0.30689222397E+00  0.11396705058E+00  0.10303174068E+01  0.93800000000E+00 0.  1.
         22    1    1    2    0    0  0.20171646173E+00  0.22499590875E+00  0.28527861967E+01  0.28687456796E+01  0.00000000000E+00 0. -1.
</event>
<event>
 5    1  0.7220939E+001  0.1599544E+01  0.7818608E-02  0.3353859E+00
         11   -1    0    0    0    0  0.00000000000E+00  0.00000000000E+00  0.39999999674E+01  0.40000000000E+01  0.51100000000E-03 0.  1.
    9000002   -1    0    0    0    0 -0.00000000000E+00 -0.00000000000E+00  0.00000000000E+00  0.93800000000E+00  0.93800000000E+00 0. -1.
         11    1    1    2    0    0  0.64066081961E-01 -0.19330079054E+00  0.10851429224E+01  0.11040856314E+01  0.51100000000E-03 0.  1.
    9000002    1    1    2    0    0 -0.25750017717E+00  0.64113013067E+00  0.34047592940E+00  0.12137223917E+01  0.93800000000E+00 0. -1.
         22    1    1    2    0    0  0.19343409521E+00 -0.44782934013E+00  0.25743811156E+01  0.26201919768E+01  0.00000000000E+00 0. -1.
</event>
<event>
 5    1  0.7220939E+001  0.1577088E+01  0.7818608E-02  0.3378613E+00
         11   -1    0    0    0    0  0.00000000000E+00  0.00000000000E+00  0.39999999674E+01  0.40000000000E+01  0.51100000000E-03 0. -1.
    9000002   -1    0    0    0    0 -0.00000000000E+00 -0.00000000000E+00  0.00000000000E+00  0.93800000000E+00  0.93800000000E+00 0.  1.
         11    1    1    2    0    0  0.19914031824E-01 -0.71393041330E-01  0.58871307813E+00  0.59336066983E+00  0.51100000000E-03 0. -1.
    9000002    1    1    2    0    0 -0.56870168719E+00 -0.25595587003E+00  0.29620929846E+00  0.11646969412E+01  0.93800000000E+00 0.  1.
         22    1    1    2    0    0  0.54878765537E+00  0.32734891136E+00  0.31150775908E+01  0.31799423889E+01  0.00000000000E+00 0. -1.
</event>
<event>
 5    1  0.7220939E+001  0.1599677E+01  0.7818608E-02  0.3353714E+00
         11   -1    0    0    0    0  0.00000000000E+00  0.00000000000E+00  0.39999999674E+01  0.40000000000E+01  0.51100000000E-03 0.  1.
    9000002   -1    0    0    0    0 -0.00000000000E+00 -0.00000000000E+00  0.00000000000E+00  0.93800000000E+00  0.93800000000E+00 0.  1.
         11    1    1    2    0    0 -0.16503228577E+00 -0.58592825567E-01  0.14548334113E+01  0.14653358967E+01  0.51100000000E-03 0.  1.
    9000002    1    1    2    0    0  0.43629214464E+00  0.15472883574E+00  0.14582607825E+00  0.10561255101E+01  0.93800000000E+00 0.  1.
         22    1    1    2    0    0 -0.27125985887E+00 -0.96136010177E-01  0.23993404778E+01  0.24165385931E+01  0.00000000000E+00 0.  1.
</event>
<event>
 5    1  0.7220939E+001  0.1599669E+01  0.7818608E-02  0.3353723E+00
         11   -1    0    0    0    0  0.00000000000E+00  0.00000000000E+00  0.39999999674E+01  0.40000000000E+01  0.51100000000E-03 0.  1.
    9000002   -1    0    0    0    0 -0.00000000000E+00 -0.00000000000E+00  0.00000000000E+00  0.93800000000E+00  0.93800000000E+00 0. -1.
         11    1    1    2    0    0  0.13832465936E+00 -0.69921664455E-02  0.13464460216E+01  0.13535507940E+01  0.51100000000E-03 0.  1.
    9000002    1    1    2    0    0 -0.39257481863E+00  0.14730915976E-01  0.10401220632E+00  0.10222497382E+01  0.93800000000E+00 0. -1.
         22    1    1    2    0    0  0.25425015928E+00 -0.77387495300E-02  0.25495417394E+01  0.25621994678E+01  0.00000000000E+00 0.  1.
</event>
<event>
 5    1  0.7220939E+001  0.1589169E+01  0.7818608E-02  0.3365203E+00
         11   -1    0    0    0    0  0.00000000000E+00  0.00000000000E+00  0.39999999674E+01  0.40000000000E+01  0.51100000000E-03 0. -1.
    9000002   -1    0    0    0    0 -0.00000000000E+00 -0.00000000000E+00  0.00000000000E+00  0.93800000000E+00  0.93800000000E+00 0. -1.
         11    1    1    2    0    0 -0.16370929993E+00 -0.81100401354E-01  0.68624402573E+00  0.71014726216E+00  0.51100000000E-03 0. -1.
    9000002    1    1    2    0    0  0.43345782021E+00  0.21390060673E+00  0.16889051961E+00  0.10686473502E+01  0.93800000000E+00 0. -1.
         22    1    1    2    0    0 -0.26974852028E+00 -0.13280020537E+00  0.31448654220E+01  0.31592053876E+01  0.00000000000E+00 0. -1.
</event>
<event>
 5    1  0.7220939E+001  0.1599676E+01  0.7818608E-02  0.3353715E+00
         11   -1    0    0    0    0  0.00000000000E+00  0.00000000000E+00  0.39999999674E+01  0.40000000000E+01  0.51100000000E-03 0. -1.
    9000002   -1    0    0    0    0 -0.00000000000E+00 -0.00000000000E+00  0.00000000000E+00  0.93800000000E+00  0.93800000000E+00 0.  1.
         11    1    1    2    0    0 -0.30448871239E-01 -0.97923137841E-01  0.11000610102E+01  0.11048305580E+01  0.51100000000E-03 0. -1.
    9000002    1    1    2    0    0  0.10601333796E+00  0.34973533524E+00  0.89706052975E-01  0.10106655275E+01  0.93800000000E+00 0.  1.
         22    1    1    2    0    0 -0.75564466717E-01 -0.25181219740E+00  0.28102329042E+01  0.28225039145E+01  0.00000000000E+00 0. -1.
</event>
<event>
 5    1  0.7220939E+001  0.1594879E+01  0.7818608E-02  0.3358941E+00
         11   -1    0    0    0    0  0.00000000000E+00  0.00000000000E+00  0.39999999674E+01  0.40000000000E+01  0.51100000000E-03 0.  1.
    9000002   -1    0    0    0    0 -0.00000000000E+00 -0.00000000000E+00  0.00000000000E+00  0.93800000000E+00  0.93800000000E+00 0.  1.
         11    1    1    2    0    0  0.33352834289E-01  0.23814092514E-01  0.46450206309E+00  0.46630671269E+00  0.51100000000E-03 0.  1.
    9000002    1    1    2    0    0 -0.47734720661E-01 -0.57868459436E+00  0.23896982666E+00  0.11287626151E+01  0.93800000000E+00 0.  1.
         22    1    1    2    0    0  0.14381886372E-01  0.55487050184E+00  0.32965280776E+01  0.33429306722E+01  0.00000000000E+00 0.  1.
</event>
<event>
 5    1  0.7220939E+001  0.1599658E+01  0.7818608E-02  0.3353734E+00
         11   -1    0    0    0    0  0.00000000000E+00  0.00000000000E+00  0.39999999674E+01  0.40000000000E+01  0.51100000000E-03 0.  1.
    9000002   -1    0    0    0    0 -0.00000000000E+00 -0.00000000000E+00  0.00000000000E+00  0.93800000000E+00  0.93800000000E+00 0. -1.
         11    1    1    2    0    0 -0.25789234280E-01 -0.57965418504E-02  0.12263721625E+00  0.12545450344E+00  0.51100000000E-03 0.  1.
    9000002    1    1    2    0    0  0.78917058130E+00  0.18655930560E+00  0.48624290131E+00  0.13318673883E+01  0.93800000000E+00 0.  1.
         22    1    1    2    0    0 -0.76338134702E+00 -0.18076276375E+00  0.33911198498E+01  0.34806781083E+01  0.00000000000E+00 0.  1.
</event>
<event>
 5    1  0.7220939E+001  0.1599652E+01  0.7818608E-02  0.3353741E+00
         11   -1    0    0    0    0  0.00000000000E+00  0.00000000000E+00  0.39999999674E+01  0.40000000000E+01  0.51100000000E-03 0.  1.
    9000002   -1    0    0    0    0 -0.00000000000E+00 -0.00000000000E+00  0.00000000000E+00  0.93800000000E+00  0.93800000000E+00 0.  1.
         11    1    1    2    0    0  0.16486773687E-01 -0.16432869956E+00  0.11605653348E+01  0.11722576051E+01  0.51100000000E-03 0.  1.
    9000002    1    1    2    0    0 -0.51325279518E-01  0.55408529218E+00  0.21415990423E+00  0.11114644663E+01  0.93800000000E+00 0.  1.
         22    1    1    2    0    0  0.34838505832E-01 -0.38975659263E+00  0.26252747283E+01  0.26542779286E+01  0.00000000000E+00 0.  1.
</event>
<event>
 5    1  0.7220939E+001  0.1599607E+01  0.7818608E-02  0.3353790E+00
         11   -1    0    0    0    0  0.00000000000E+00  0.00000000000E+00  0.39999999674E+01  0.40000000000E+01  0.51100000000E-03 0. -1.
    9000002   -1    0    0    0    0 -0.00000000000E+00 -0.00000000000E+00  0.00000000000E+00  0.93800000000E+00  0.93800000000E+00 0. -1.
         11    1    1    2    0    0  0.36557855446E-01  0.73660196366E-03  0.35736045103E+00  0.35922663105E+00  0.51100000000E-03 0. -1.
    9000002    1    1    2    0    0 -0.36025913660E+00 -0.57289436394E-01  0.89429721445E-01  0.10104011085E+01  0.93800000000E+00 0. -1.
         22    1    1    2    0    0  0.32370128115E+00  0.56552834430E-01  0.35532097949E+01  0.35683722604E+01  0.00000000000E+00 0. -1.
</event>
<event>
 5    1  0.7220939E+001  0.1598981E+01  0.7818608E-02  0.3354470E+00
         11   -1    0    0    0    0  0.00000000000E+00  0.00000000000E+00  0.39999999674E+01  0.40000000000E+01  0.51100000000E-03 0. -1.
    9000002   -1    0    0    0    0 -0.00000000000E+00 -0.00000000000E+00  0.00000000000E+00  0.93800000000E+00  0.93800000000E+00 0. -1.
         11    1    1    2    0    0 -0.15986970422E+00 -0.46932887381E-01  0.13119357855E+01  0.13224737368E+01  0.51100000000E-03 0. -1.
    9000002    1    1    2    0    0  0.40303701391E+00  0.83908949834E-01  0.11507589251E+00  0.10308084242E+01  0.93800000000E+00 0. -1.
         22    1    1    2    0    0 -0.24316730969E+00 -0.36976062453E-01  0.25729882894E+01  0.25847178390E+01  0.00000000000E+00 0. -1.
</event>
<event>
 5    1  0.7220939E+001  0.1599626E+01  0.7818608E-02  0.3353769E+00
         11   -1    0    0    0    0  0.00000000000E+00  0.00000000000E+00  0.39999999674E+01  0.40000000000E+01  0.51100000000E-03 0.  1.
    9000002   -1    0    0    0    0 -0.00000000000E+00 -0.00000000000E+00  0.00000000000E+00  0.93800000000E+00  0.93800000000E+00 0. -1.
         11    1    1    2    0    0  0.11045657898E-02  0.58678215609E-01  0.51296683369E+00  0.51631345774E+00  0.51100000000E-03 0.  1.
    9000002    1    1    2    0    0  0.45803776371E-02 -0.40287805813E+00  0.10957922601E+00  0.10267342969E+01  0.93800000000E+00 0. -1.
         22    1    1    2    0    0 -0.56849434269E-02  0.34419984252E+00  0.33774539077E+01  0.33949522454E+01  0.00000000000E+00 0.  1.
</event>
<event>
 5    1  0.7220939E+001  0.1520707E+01  0.7818608E-02  0.3444193E+00
         11   -1    0    0    0    0  0.00000000000E+00  0.00000000000E+00  0.39999999674E+01  0.40000000000E+01  0.51100000000E-03 0. -1.
    9000002   -1    0    0    0    0 -0.00000000000E+00 -0.00000000000E+00  0.00000000000E+00  0.93800000000E+00  0.93800000000E+00 0.  1.
         11    1    1    2    0    0  0.21415289873E+00  0.18549346776E+00  0.10353236870E+01  0.10733893462E+01  0.51100000000E-03 0. -1.
    9000002    1    1    2    0    0  0.19420944960E+00 -0.17834450979E+00  0.10963497816E+00  0.98050390255E+00  0.93800000000E+00 0.  1.
         22    1    1    2    0    0 -0.40836234833E+00 -0.71489579738E-02  0.28550413022E+01  0.28841067512E+01  0.00000000000E+00 0. -1.
</event>
<event>
 5    1  0.7220939E+001  0.1595210E+01  0.7818608E-02  0.3358579E+00
         11   -1    0    0    0    0  0.00000000000E+00  0.00000000000E+00  0.39999999674E+01  0.40000000000E+01  0.51100000000E-03 0.  1.
    9000002   -1    0    0    0    0 -0.00000000000E+00 -0.00000000000E+00  0.00000000000E+00  0.93800000000E+00  0.93800000000E+00 0. -1.
         11    1    1    2    0    0 -0.60177053855E-01  0.39464953342E-01  0.37164233421E+00  0.37854596293E+00  0.51100000000E-03 0.  1.
    9000002    1    1    2    0    0  0.43437171752E+00  0.45935995442E-01  0.13316166865E+00  0.10432473027E+01  0.93800000000E+00 0. -1.
         22    1    1    2    0    0 -0.37419466367E+00 -0.85400948784E-01  0.34951959645E+01  0.35162067343E+01  0.00000000000E+00 0.  1.
</event>
<event>
 5    1  0.7220939E+001  0.1598466E+01  0.7818608E-02  0.3355030E+00
         11   -1    0    0    0    0  0.00000000000E+00  0.00000000000E+00  0.39999999674E+01  0.40000000000E+01  0.51100000000E-03 0. -1.
    9000002   -1    0    0    0    0 -0.00000000000E+00 -0.00000000000E+00  0.00000000000E+00  0.93800000000E+00  0.93800000000E+00 0.  1.
         11    1    1    2    0    0 -0.10110618765E-01  0.20619790848E-02  0.50015794241E-01  0.51071686521E-01  0.51100000000E-03 0. -1.
    9000002    1    1    2    0    0  0.91797909669E-01 -0.40309762377E+00  0.11650604697E+00  0.10316647757E+01  0.93800000000E+00 0.  1.
         22    1    1    2    0    0 -0.81687290904E-01  0.40103564469E+00  0.38334781261E+01  0.38552635377E+01  0.00000000000E+00 0. -1.
</event>
<event>
 5    1  0.7220939E+001  0.1599659E+01  0.7818608E-02  0.3353734E+00
         11   -1    0    0    0    0  0.00000000000E+00  0.00000000000E+00  0.39999999674E+01  0.40000000000E+01  0.51100000000E-03 0. -1.
    9000002   -1    0    0    0    0 -0.00000000000E+00 -0.00000000000E+00  0.00000000000E+00  0.93800000000E+00  0.93800000000E+00 0.  1.
         11    1    1    2    0    0 -0.28749714907E-01  0.81893622367E-02  0.34368767263E+00  0.34498563622E+00  0.51100000000E-03 0. -1.
    9000002    1    1    2    0    0  0.34090921230E+00 -0.12281815893E+00  0.88177361678E-01  0.10094169794E+01  0.93800000000E+00 0.  1.
         22    1    1    2    0    0 -0.31215949739E+00  0.11462879669E+00  0.35681349331E+01  0.35835973844E+01  0.00000000000E+00 0. -1.
</event>
<event>
 5    1  0.7220939E+001  0.1599677E+01  0.7818608E-02  0.3353715E+00
         11   -1    0    0    0    0  0.00000000000E+00  0.00000000000E+00  0.39999999674E+01  0.40000000000E+01  0.51100000000E-03 0.  1.
    9000002   -1    0    0    0    0 -0.00000000000E+00 -0.00000000000E+00  0.00000000000E+00  0.93800000000E+00  0.93800000000E+00 0. -1.
         11    1    1    2    0    0  0.50470668245E-01 -0.22837692963E-01  0.33270655010E+00  0.33728735252E+00  0.51100000000E-03 0. -1.
    9000002    1    1    2    0    0 -0.56748572096E+00  0.25684538748E+00  0.27207882251E+00  0.11583956501E+01  0.93800000000E+00 0. -1.
         22    1    1    2    0    0  0.51701505272E+00 -0.23400769452E+00  0.33952145948E+01  0.34423169974E+01  0.00000000000E+00 0.  1.
</event>
<event>
 5    1  0.7220939E+001  0.1599353E+01  0.7818608E-02  0.3354066E+00
         11   -1    0    0    0    0  0.00000000000E+00  0.00000000000E+00  0.39999999674E+01  0.40000000000E+01  0.51100000000E-03 0. -1.
    9000002   -1    0    0    0    0 -0.00000000000E+00 -0.00000000000E+00  0.00000000000E+00  0.93800000000E+00  0.93800000000E+00 0. -1.
         11    1    1    2    0    0 -0.98351845010E-01  0.25248137689E-01  0.93359139456E+00  0.93909728303E+00  0.51100000000E-03 0. -1.
    9000002    1    1    2    0    0  0.44556889649E+00 -0.37992661739E-01  0.13604335254E+00  0.10480109148E+01  0.93800000000E+00 0. -1.
         22    1    1    2    0    0 -0.34721705148E+00  0.12744524050E-01  0.29303652203E+01  0.29508918021E+01  0.00000000000E+00 0. -1.
</event>
<event>
 5    1  0.7220939E+001  0.1522389E+01  0.7818608E-02  0.3442162E+00
         11   -1    0    0    0    0  0.00000000000E+00  0.00000000000E+00  0.39999999674E+01  0.40000000000E+01  0.51100000000E-03 0.  1.
    9000002   -1    0    0    0    0 -0.00000000000E+00 -0.00000000000E+00  0.00000000000E+00  0.93800000000E+00  0.93800000000E+00 0. -1.
         11    1    1    2    0    0 -0.19346277643E-01 -0.76122461313E-01  0.33062570824E-01  0.85219142717E-01  0.51100000000E-03 0.  1.
    9000002    1    1    2    0    0 -0.26846756170E+00 -0.13888237755E+00  0.12420819451E+00  0.99329493206E+00  0.93800000000E+00 0. -1.
         22    1    1    2    0    0  0.28781383935E+00  0.21500483886E+00  0.38427292020E+01  0.38594859252E+01  0.00000000000E+00 0.  1.
</event>
<event>
 5    1  0.7220939E+001  0.1599657E+01  0.7818608E-02  0.3353736E+00
         11   -1    0    0    0    0  0.00000000000E+00  0.00000000000E+00  0.39999999674E+01  0.40000000000E+01  0.51100000000E-03 0.  1.
    9000002   -1    0    0    0    0 -0.00000000000E+00 -0.00000000000E+00  0.00000000000E+00  0.93800000000E+00  0.93800000000E+00 0. -1.
         11    1    1    2    0    0  0.42822554143E-01 -0.30029326638E-02  0.39117928689E+00  0.39352799692E+00  0.51100000000E-03 0.  1.
    9000002    1    1    2    0    0 -0.42478930267E+00 -0.23085425858E-02  0.12213723680E+00  0.10369246769E+01  0.93800000000E+00 0. -1.
         22    1    1    2    0    0  0.38196674852E+00  0.53114752497E-02  0.34866834437E+01  0.35075473261E+01  0.00000000000E+00 0.  1.
</event>
<event>
 5    1  0.7220939E+001  0.1599677E+01  0.7818608E-02  0.3353715E+00
         11   -1    0    0    0    0  0.00000000000E+00  0.00000000000E+00  0.39999999674E+01  0.40000000000E+01  0.51100000000E-03 0.  1.
    9000002   -1    0    0    0    0 -0.00000000000E+00 -0.00000000000E+00  0.00000000000E+00  0.93800000000E+00  0.93800000000E+00 0.  1.
         11    1    1    2    0    0 -0.44196444620E-01 -0.18515608828E+00  0.13124045823E+01  0.13261380590E+01  0.51100000000E-03 0.  1.
    9000002    1    1    2    0    0  0.12961651700E+00  0.53385779035E+00  0.20843210300E+00  0.11068389781E+01  0.93800000000E+00 0.  1.
         22    1    1    2    0    0 -0.85420072378E-01 -0.34870170207E+00  0.24791632820E+01  0.25050229629E+01  0.00000000000E+00 0.  1.
</event>
<event>
 5    1  0.7220939E+001  0.1514376E+01  0.7818608E-02  0.3451884E+00
         11   -1    0    0    0    0  0.00000000000E+00  0.00000000000E+00  0.39999999674E+01  0.40000000000E+01  0.51100000000E-03 0. -1.
    9000002   -1    0    0    0    0 -0.00000000000E+00 -0.00000000000E+00  0.00000000000E+00  0.93800000000E+00  0.93800000000E+00 0. -1.
         11    1    1    2    0    0 -0.18772221292E+00 -0.17756883575E+00  0.79594071012E+00  0.83683462871E+00  0.51100000000E-03 0. -1.
    9000002    1    1    2    0    0  0.18135171972E-01 -0.19240087886E+00  0.91445331971E-01  0.96205677139E+00  0.93800000000E+00 0. -1.
         22    1    1    2    0    0  0.16958704095E+00  0.36996971461E+00  0.31126139253E+01  0.31391085999E+01  0.00000000000E+00 0. -1.
</event>
<event>
 5    1  0.7220939E+001  0.1599540E+01  0.7818608E-02  0.3353863E+00
         11   -1    0    0    0    0  0.00000000000E+00  0.00000000000E+00  0.39999999674E+01  0.40000000000E+01  0.51100000000E-03 0. -1.
    9000002   -1    0    0    0    0 -0.00000000000E+00 -0.00000000000E+00  0.00000000000E+00  0.93800000000E+00  0.93800000000E+00 0.  1.
         11    1    1    2    0    0  0.14571309745E-01 -0.13454933042E-01  0.20884623291E+00  0.20978648291E+00  0.51100000000E-03 0. -1.
    9000002    1    1    2    0    0 -0.19980103990E+00  0.34470538223E+00  0.10716745807E+00  0.10247297791E+01  0.93800000000E+00 0.  1.
         22    1    1    2    0    0  0.18522973016E+00 -0.33125044919E+00  0.36839862764E+01  0.37034837380E+01  0.00000000000E+00 0. -1.
</event>
<event>
 5    1  0.7220939E+001  0.1599647E+01  0.7818608E-02  0.3353747E+00
         11   -1    0    0    0    0  0.00000000000E+00  0.00000000000E+00  0.39999999674E+01  0.40000000000E+01  0.51100000000E-03 0.  1.
    9000002   -1    0    0    0    0 -0.00000000000E+00 -0.00000000000E+00  0.00000000000E+00  0.93800000000E+00  0.93800000000E+00 0.  1.
         11    1    1    2    0    0  0.82281266257E-03  0.15650583502E+00  0.13539292761E+01  0.13629451564E+01  0.51100000000E-03 0.  1.
    9000002    1    1    2    0    0 -0.39848425687E-02 -0.42986230749E+00  0.12517514916E+00  0.10393797671E+01  0.93800000000E+00 0.  1.
         22    1    1    2    0    0  0.31620299061E-02  0.27335647246E+00  0.25208955421E+01  0.25356750765E+01  0.00000000000E+00 0.  1.
</event>
<event>
 5    1  0.7220939E+001  0.1599639E+01  0.7818608E-02  0.3353756E+00
         11   -1    0    0    0    0  0.00000000000E+00  0.00000000000E+00  0.39999999674E+01  0.40000000000E+01  0.51100000000E-03 0. -1.
    9000002   -1    0    0    0    0 -0.00000000000E+00 -0.00000000000E+00  0.00000000000E+00  0.93800000000E+00  0.93800000000E+00 0. -1.
         11    1    1    2    0    0 -0.12325817369E+00  0.11894532615E+00  0.14069313478E+01  0.14173202343E+01  0.51100000000E-03 0. -1.
    9000002    1    1    2    0    0  0.32636993031E+00 -0.31072992611E+00  0.13796821103E+00  0.10497378938E+01  0.93800000000E+00 0. -1.
         22    1    1    2    0    0 -0.20311175662E+00  0.19178459996E+00  0.24551004085E+01  0.24709418719E+01  0.00000000000E+00 0. -1.
</event>
<event>
 5    1  0.7220939E+001  0.1599677E+01  0.7818608E-02  0.3353714E+00
         11   -1    0    0    0    0  0.00000000000E+00  0.00000000000E+00  0.39999999674E+01  0.40000000000E+01  0.51100000000E-03 0. -1.
    9000002   -1    0    0    0    0 -0.00000000000E+00 -0.00000000000E+00  0.00000000000E+00  0.93800000000E+00  0.93800000000E+00 0.  1.
         11    1    1    2    0    0 -0.72188634757E-01 -0.43573467985E-01  0.83976617640E+00  0.84398894438E+00  0.51100000000E-03 0.  1.
    9000002    1    1    2    0    0  0.33612932164E+00  0.20126478714E+00  0.10342462398E+00  0.10217783949E+01  0.93800000000E+00 0.  1.
         22    1    1    2    0    0 -0.26394068688E+00 -0.15769131916E+00  0.30568091670E+01  0.30722326607E+01  0.00000000000E+00 0. -1.
</event>
<event>
 5    1  0.7220939E+001  0.1599677E+01  0.7818608E-02  0.3353714E+00
         11   -1    0    0    0    0  0.00000000000E+00  0.00000000000E+00  0.39999999674E+01  0.40000000000E+01  0.51100000000E-03 0.  1.
    9000002   -1    0    0    0    0 -0.00000000000E+00 -0.00000000000E+00  0.00000000000E+00  0.93800000000E+00  0.93800000000E+00 0.  1.
         11    1    1    2    0    0  0.78651935575E-01  0.15922816346E-01  0.64467573036E+00  0.64965123065E+00  0.51100000000E-03 0.  1.
    9000002    1    1    2    0    0 -0.46673647867E+00 -0.95688823459E-01  0.15479870694E+00  0.10633935918E+01  0.93800000000E+00 0.  1.
         22    1    1    2    0    0  0.38808454310E+00  0.79766007113E-01  0.32005255301E+01  0.32249551775E+01  0.00000000000E+00 0.  1.
</event>
<event>
 5    1  0.7220939E+001  0.1599593E+01  0.7818608E-02  0.3353805E+00
         11   -1    0    0    0    0  0.00000000000E+00  0.00000000000E+00  0.39999999674E+01  0.40000000000E+01  0.51100000000E-03 0. -1.
    9000002   -1    0    0    0    0 -0.00000000000E+00 -0.00000000000E+00  0.00000000000E+00  0.93800000000E+00  0.93800000000E+00 0.  1.
         11    1    1    2    0    0  0.52398311765E-01 -0.10634596842E+00  0.11580026893E+01  0.11640556420E+01  0.51100000000E-03 0. -1.
    9000002    1    1    2    0    0 -0.14317791325E+00  0.36497229549E+00  0.10364178279E+00  0.10219052356E+01  0.93800000000E+00 0.  1.
         22    1    1    2    0    0  0.90779601482E-01 -0.25862632707E+00  0.27383554952E+01  0.27520391224E+01  0.00000000000E+00 0. -1.
</event>
<event>
 5    1  0.7220939E+001  0.1599358E+01  0.7818608E-02  0.3354060E+00
         11   -1    0    0    0    0  0.00000000000E+00  0.00000000000E+00  0.39999999674E+01  0.40000000000E+01  0.51100000000E-03 0.  1.
    9000002   -1    0    0    0    0 -0.00000000000E+00 -0.00000000000E+00  0.00000000000E+00  0.93800000000E+00  0.93800000000E+00 0. -1.
         11    1    1    2    0    0  0.63181356387E-01  0.19059245727E+00  0.68853273902E+00  0.71721333115E+00  0.51100000000E-03 0.  1.
    9000002    1    1    2    0    0 -0.37304411098E+00 -0.86795766572E+00  0.69788241748E+00  0.15031288324E+01  0.93800000000E+00 0. -1.
         22    1    1    2    0    0  0.30986275460E+00  0.67736520845E+00  0.26135848109E+01  0.27176578364E+01  0.00000000000E+00 0.  1.
</event>
<event>
 5    1  0.9349479E+001  0.1515158E+01  0.7818608E-02  0.3450930E+00
         11   -1    0    0    0    0  0.00000000000E+00  0.00000000000E+00  0.39999999674E+01  0.40000000000E+01  0.51100000000E-03 0.  1.
    9000002   -1    0    0    0    0 -0.00000000000E+00 -0.00000000000E+00  0.00000000000E+00  0.93800000000E+00  0.93800000000E+00 0.  1.
         11    1    1    2    0    0  0.33866552878E+00  0.69408355591E-01  0.13272007026E+01  0.13714859920E+01  0.51100000000E-03 0.  1.
    9000002    1    1    2    0    0 -0.33341378287E-01 -0.49897169080E-01  0.66443929866E-01  0.94226332350E+00  0.93800000000E+00 0.  1.
         22    1    1    2    0    0 -0.30532415050E+00 -0.19511186511E-01  0.26063553349E+01  0.26242506845E+01  0.00000000000E+00 0.  1.
</event>
<event>
 5    1  0.7220939E+001  0.1599677E+01  0.7818608E-02  0.3353715E+00
         11   -1    0    0    0    0  0.00000000000E+00  0.00000000000E+00  0.39999999674E+01  0.40000000000E+01  0.51100000000E-03 0.  1.
    9000002   -1    0    0    0    0 -0.00000000000E+00 -0.00000000000E+00  0.00000000000E+00  0.93800000000E+00  0.93800000000E+00 0.  1.
         11    1    1    2    0    0 -0.15228574220E-01  0.11388692055E+00  0.11082979309E+01  0.11142381724E+01  0.51100000000E-03 0.  1.
    9000002    1    1    2    0    0  0.50968466338E-01 -0.39939968592E+00  0.10938934168E+00  0.10266099170E+01  0.93800000000E+00 0.  1.
         22    1    1    2    0    0 -0.35739892117E-01  0.28551276536E+00  0.27823126948E+01  0.27971519105E+01  0.00000000000E+00 0.  1.
</event>
<event>
 5    1  0.7220939E+001  0.1599677E+01  0.7818608E-02  0.3353714E+00
         11   -1    0    0    0    0  0.00000000000E+00  0.00000000000E+00  0.39999999674E+01  0.40000000000E+01  0.51100000000E-03 0. -1.
    9000002   -1    0    0    0    0 -0.00000000000E+00 -0.00000000000E+00  0.00000000000E+00  0.93800000000E+00  0.93800000000E+00 0.  1.
         11    1    1    2    0    0  0.24607318629E-01  0.80687785877E-01  0.73250962930E+00  0.73735110840E+00  0.51100000000E-03 0. -1.
    9000002    1    1    2    0    0 -0.12812329161E+00 -0.42614151888E+00  0.13438819658E+00  0.10468602387E+01  0.93800000000E+00 0.  1.
         22    1    1    2    0    0  0.10351597298E+00  0.34545373301E+00  0.31331021415E+01  0.31537886529E+01  0.00000000000E+00 0. -1.
</event>
<event>
 5    1  0.8487679E+001  0.1594206E+01  0.7818608E-02  0.3359676E+00
         11   -1    0    0    0    0  0.00000000000E+00  0.00000000000E+00  0.39999999674E+01  0.40000000000E+01  0.51100000000E-03 0. -1.
    9000002   -1    0    0    0    0 -0.00000000000E+00 -0.00000000000E+00  0.00000000000E+00  0.93800000000E+00  0.93800000000E+00 0.  1.
         11    1    1    2    0    0 -0.18488088033E-01 -0.29712847174E-01  0.14908977811E+01  0.14913085253E+01  0.51100000000E-03 0. -1.
    9000002    1    1    2    0    0  0.27464549689E+00  0.11282627954E+00  0.63083247505E-01  0.98589219209E+00  0.93800000000E+00 0.  1.
         22    1    1    2    0    0 -0.25615740886E+00 -0.83113432361E-01  0.24460189387E+01  0.24607992826E+01  0.00000000000E+00 0. -1.
</event>
<event>
 5    1  0.7220939E+001  0.1598953E+01  0.7818608E-02  0.3354500E+00
         11   -1    0    0    0    0  0.00000000000E+00  0.00000000000E+00  0.39999999674E+01  0.40000000000E+01  0.51100000000E-03 0.  1.
    9000002   -1    0    0    0    0 -0.00000000000E+00 -0.00000000000E+00  0.00000000000E+00  0.93800000000E+00  0.93800000000E+00 0. -1.
         11    1    1    2    0    0 -0.66812277255E-01 -0.68343324375E-01  0.80195503702E+00  0.80763038137E+00  0.51100000000E-03 0.  1.
    9000002    1    1    2    0    0  0.37566840498E+00  0.21495672092E+00  0.12753607763E+00  0.10408854853E+01  0.93800000000E+00 0. -1.
         22    1    1    2    0    0 -0.30885612772E+00 -0.14661339655E+00  0.30705088527E+01  0.30894841334E+01  0.00000000000E+00 0.  1.
</event>
<event>
 5    1  0.7220939E+001  0.1599677E+01  0.7818608E-02  0.3353714E+00
         11   -1    0    0    0    0  0.00000000000E+00  0.00000000000E+00  0.39999999674E+01  0.40000000000E+01  0.51100000000E-03 0.  1.
    9000002   -1    0    0    0    0 -0.00000000000E+00 -0.00000000000E+00  0.00000000000E+00  0.93800000000E+00  0.93800000000E+00 0. -1.
         11    1    1    2    0    0 -0.79730432764E-01 -0.13898322248E+00  0.13172692392E+01  0.13269784428E+01  0.51100000000E-03 0.  1.
    9000002    1    1    2    0    0  0.23259232899E+00  0.40788972418E+00  0.15018586008E+00  0.10596570252E+01  0.93800000000E+00 0. -1.
         22    1    1    2    0    0 -0.15286189622E+00 -0.26890650169E+00  0.25325448681E+01  0.25513645320E+01  0.00000000000E+00 0.  1.
</event>
<event>
 5    1  0.7220939E+001  0.1599672E+01  0.7818608E-02  0.3353719E+00
         11   -1    0    0    0    0  0.00000000000E+00  0.00000000000E+00  0.39999999674E+01  0.40000000000E+01  0.51100000000E-03 0.  1.
    9000002   -1    0    0    0    0 -0.00000000000E+00 -0.00000000000E+00  0.00000000000E+00  0.93800000000E+00  0.93800000000E+00 0. -1.
         11    1    1    2    0    0  0.33117453012E-01  0.75621742205E-01  0.75111320955E+00  0.75563663772E+00  0.51100000000E-03 0.  1.
    9000002    1    1    2    0    0 -0.16371179910E+00 -0.39804544195E+00  0.12546359857E+00  0.10396282228E+01  0.93800000000E+00 0. -1.
         22    1    1    2    0    0  0.13059434609E+00  0.32242369974E+00  0.31234231592E+01  0.31427351395E+01  0.00000000000E+00 0.  1.
</event>
<event>
 5    1  0.7220939E+001  0.1598358E+01  0.7818608E-02  0.3355147E+00
         11   -1    0    0    0    0  0.00000000000E+00  0.00000000000E+00  0.39999999674E+01  0.40000000000E+01  0.51100000000E-03 0. -1.
    9000002   -1    0    0    0    0 -0.00000000000E+00 -0.00000000000E+00  0.00000000000E+00  0.93800000000E+00  0.93800000000E+00 0. -1.
         11    1    1    2    0    0 -0.18721068631E-01  0.34925533564E-01  0.21372412293E+00  0.21736727709E+00  0.51100000000E-03 0. -1.
    9000002    1    1    2    0    0  0.84215309408E-01 -0.37716171009E+00  0.10165093787E+00  0.10195685789E+01  0.93800000000E+00 0. -1.
         22    1    1    2    0    0 -0.65494240777E-01  0.34223617652E+00  0.36846249066E+01  0.37010641440E+01  0.00000000000E+00 0. -1.
</event>
<event>
 5    1  0.7220939E+001  0.1599078E+01  0.7818608E-02  0.3354364E+00
         11   -1    0    0    0    0  0.00000000000E+00  0.00000000000E+00  0.39999999674E+01  0.40000000000E+01  0.51100000000E-03 0.  1.
    9000002   -1    0    0    0    0 -0.00000000000E+00 -0.00000000000E+00  0.00000000000E+00  0.93800000000E+00  0.93800000000E+00 0. -1.
         11    1    1    2    0    0 -0.16328058580E+00  0.29494000963E+00  0.12483953503E+01  0.12931130542E+01  0.51100000000E-03 0.  1.
    9000002    1    1    2    0    0  0.41606548204E+00 -0.74366644304E+00  0.54590794678E+00  0.13798585979E+01  0.93800000000E+00 0. -1.
         22    1    1    2    0    0 -0.25278489624E+00  0.44872643341E+00  0.22056966702E+01  0.22650283479E+01  0.00000000000E+00 0.  1.
</event>
<event>
 5    1  0.7220939E+001  0.1599663E+01  0.7818608E-02  0.3353730E+00
         11   -1    0    0    0    0  0.00000000000E+00  0.00000000000E+00  0.39999999674E+01  0.40000000000E+01  0.51100000000E-03 0.  1.
    9000002   -1    0    0    0    0 -0.00000000000E+00 -0.00000000000E+00  0.00000000000E+00  0.93800000000E+00  0.93800000000E+00 0. -1.
         11    1    1    2    0    0  0.10943746584E+00  0.10706936925E+00  0.14679628043E+01  0.14759252910E+01  0.51100000000E-03 0.  1.
    9000002    1    1    2    0    0 -0.28764168167E+00 -0.27258868684E+00  0.10588984359E+00  0.10237670576E+01  0.93800000000E+00 0. -1.
         22    1    1    2    0    0  0.17820421583E+00  0.16551931759E+00  0.24261473195E+01  0.24383076514E+01  0.00000000000E+00 0.  1.
</event>
<event>
 5    1  0.7220939E+001  0.1592078E+01  0.7818608E-02  0.3362007E+00
         11   -1    0    0    0    0  0.00000000000E+00  0.00000000000E+00  0.39999999674E+01  0.40000000000E+01  0.51100000000E-03 0.  1.
    9000002   -1    0    0    0    0 -0.00000000000E+00 -0.00000000000E+00  0.00000000000E+00  0.93800000000E+00  0.93800000000E+00 0. -1.
         11    1    1    2    0    0 -0.13919100016E-01 -0.15463552034E-01  0.46371957133E-01  0.50827967854E-01  0.51100000000E-03 0.  1.
    9000002    1    1    2    0    0  0.11512279502E+00 -0.32971173560E+00  0.87911717089E-01  0.10047564663E+01  0.93800000000E+00 0. -1.
         22    1    1    2    0    0 -0.10120369500E+00  0.34517528763E+00  0.38657162931E+01  0.38824155659E+01  0.00000000000E+00 0.  1.
</event>
<event>
 5    1  0.7220939E+001  0.1595057E+01  0.7818608E-02  0.3358746E+00
         11   -1    0    0    0    0  0.00000000000E+00  0.00000000000E+00  0.39999999674E+01  0.40000000000E+01  0.51100000000E-03 0. -1.
    9000002   -1    0    0    0    0 -0.00000000000E+00 -0.00000000000E+00  0.00000000000E+00  0.93800000000E+00  0.93800000000E+00 0.  1.
         11    1    1    2    0    0  0.10660493022E+00  0.16693115427E-01  0.85380122114E+00  0.86059285239E+00  0.51100000000E-03 0. -1.
    9000002    1    1    2    0    0 -0.34089270970E+00  0.19633936548E+00  0.10813512784E+00  0.10228852291E+01  0.93800000000E+00 0.  1.
         22    1    1    2    0    0  0.23428777948E+00 -0.21303248091E+00  0.30380636184E+01  0.30545219185E+01  0.00000000000E+00 0. -1.
</event>
<event>
 5    1  0.7220939E+001  0.1599621E+01  0.7818608E-02  0.3353775E+00
         11   -1    0    0    0    0  0.00000000000E+00  0.00000000000E+00  0.39999999674E+01  0.40000000000E+01  0.51100000000E-03 0.  1.
    9000002   -1    0    0    0    0 -0.00000000000E+00 -0.00000000000E+00  0.00000000000E+00  0.93800000000E+00  0.93800000000E+00 0.  1.
         11    1    1    2    0    0 -0.55769752208E-03 -0.10132912908E-02  0.86639964854E-02  0.87557833382E-02  0.51100000000E-03 0.  1.
    9000002    1    1    2    0    0  0.33990945494E+00  0.16317574817E+00  0.95666083558E-01  0.10154608618E+01  0.93800000000E+00 0.  1.
         22    1    1    2    0    0 -0.33935175742E+00 -0.16216245688E+00  0.38956698873E+01  0.39137833548E+01  0.00000000000E+00 0.  1.
</event>
<event>
 5    1  0.7220939E+001  0.1599296E+01  0.7818608E-02  0.3354128E+00
         11   -1    0    0    0    0  0.00000000000E+00  0.00000000000E+00  0.39999999674E+01  0.40000000000E+01  0.51100000000E-03 0. -1.
    9000002   -1    0    0    0    0 -0.00000000000E+00 -0.00000000000E+00  0.00000000000E+00  0.93800000000E+00  0.93800000000E+00 0. -1.
         11    1    1    2    0    0  0.64984205997E-02 -0.13973908482E+00  0.12357313959E+01  0.12436243747E+01  0.51100000000E-03 0. -1.
    9000002    1    1    2    0    0  0.27459516451E-01  0.48340645226E+00  0.16040630196E+00  0.10677125104E+01  0.93800000000E+00 0. -1.
         22    1    1    2    0    0 -0.33957937051E-01 -0.34366736744E+00  0.26038622695E+01  0.26266631149E+01  0.00000000000E+00 0. -1.
</event>
<event>
 5    1  0.7220939E+001  0.1448751E+01  0.7818608E-02  0.3535880E+00
         11   -1    0    0    0    0  0.00000000000E+00  0.00000000000E+00  0.39999999674E+01  0.40000000000E+01  0.51100000000E-03 0. -1.
    9000002   -1    0    0    0    0 -0.00000000000E+00 -0.00000000000E+00  0.00000000000E+00  0.93800000000E+00  0.93800000000E+00 0.  1.
         11    1    1    2    0    0 -0.21582247249E+00 -0.37788711028E+00  0.96237009092E+00  0.10561886483E+01  0.51100000000E-03 0. -1.
    9000002    1    1    2    0    0 -0.41755920397E-01  0.13399735686E+00  0.13548761303E+00  0.95807084384E+00  0.93800000000E+00 0.  1.
         22    1    1    2    0    0  0.25757839288E+00  0.24388975342E+00  0.29021422634E+01  0.29237405079E+01  0.00000000000E+00 0. -1.
</event>
<event>
 5    1  0.7220939E+001  0.1599323E+01  0.7818608E-02  0.3354099E+00
         11   -1    0    0    0    0  0.00000000000E+00  0.00000000000E+00  0.39999999674E+01  0.40000000000E+01  0.51100000000E-03 0.  1.
    9000002   -1    0    0    0    0 -0.00000000000E+00 -0.00000000000E+00  0.00000000000E+00  0.93800000000E+00  0.93800000000E+00 0. -1.
         11    1    1    2    0    0 -0.34391827675E-01 -0.30408206511E-01  0.72242505544E+00  0.72388236522E+00  0.51100000000E-03 0.  1.
    9000002    1    1    2    0    0  0.23582637183E+00  0.24704060477E+00  0.78422244677E-01  0.10013177251E+01  0.93800000000E+00 0. -1.
         22    1    1    2    0    0 -0.20143454416E+00 -0.21663239826E+00  0.31991526672E+01  0.32127999097E+01  0.00000000000E+00 0.  1.
</event>
<event>
 5    1  0.7220939E+001  0.1598528E+01  0.7818608E-02  0.3354962E+00
         11   -1    0    0    0    0  0.00000000000E+00  0.00000000000E+00  0.39999999674E+01  0.40000000000E+01  0.51100000000E-03 0. -1.
    9000002   -1    0    0    0    0 -0.00000000000E+00 -0.00000000000E+00  0.00000000000E+00  0.93800000000E+00  0.93800000000E+00 0. -1.
         11    1    1    2    0    0 -0.85952911784E-01 -0.53596526752E-01  0.66459341860E+00  0.67226866943E+00  0.51100000000E-03 0. -1.
    9000002    1    1    2    0    0  0.35459774559E+00  0.20899691767E+00  0.11541409499E+00  0.10308169993E+01  0.93800000000E+00 0. -1.
         22    1    1    2    0    0 -0.26864483380E+00 -0.15540039092E+00  0.32199924538E+01  0.32349143313E+01  0.00000000000E+00 0. -1.
</event>
<event>
 5    1  0.7220939E+001  0.1599516E+01  0.7818608E-02  0.3353889E+00
         11   -1    0    0    0    0  0.00000000000E+00  0.00000000000E+00  0.39999999674E+01  0.40000000000E+01  0.51100000000E-03 0.  1.
    9000002   -1    0    0    0    0 -0.00000000000E+00 -0.00000000000E+00  0.00000000000E+00  0.93800000000E+00  0.93800000000E+00 0.  1.
         11    1    1    2    0    0  0.27511731280E-02  0.30137050329E-02  0.61750457819E-01  0.61887248553E-01  0.51100000000E-03 0.  1.
    9000002    1    1    2    0    0 -0.37332257346E+00 -0.58987629719E-01  0.96222850058E-01  0.10158504423E+01  0.93800000000E+00 0.  1.
         22    1    1    2    0    0  0.37057140033E+00  0.55973924686E-01  0.38420266595E+01  0.38602623091E+01  0.00000000000E+00 0.  1.
</event>
<event>
 5    1  0.7220939E+001  0.1599670E+01  0.7818608E-02  0.3353722E+00
         11   -1    0    0    0    0  0.00000000000E+00  0.00000000000E+00  0.39999999674E+01  0.40000000000E+01  0.51100000000E-03 0.  1.
    9000002   -1    0    0    0    0 -0.00000000000E+00 -0.00000000000E+00  0.00000000000E+00  0.93800000000E+00  0.93800000000E+00 0. -1.
         11    1    1    2    0    0  0.38096970885E-03 -0.12113467912E+00  0.51034143445E+00  0.52452111155E+00  0.51100000000E-03 0.  1.
    9000002    1    1    2    0    0 -0.57654686255E-02  0.81685773695E+00  0.49442657454E+00  0.13385034332E+01  0.93800000000E+00 0. -1.
         22    1    1    2    0    0  0.53844989166E-02 -0.69572305783E+00  0.29952319584E+01  0.30749754553E+01  0.00000000000E+00 0.  1.
</event>
<event>
 5    1  0.7220939E+001  0.1599610E+01  0.7818608E-02  0.3353787E+00
         11   -1    0    0    0    0  0.00000000000E+00  0.00000000000E+00  0.39999999674E+01  0.40000000000E+01  0.51100000000E-03 0. -1.
    9000002   -1    0    0    0    0 -0.00000000000E+00 -0.00000000000E+00  0.00000000000E+00  0.93800000000E+00  0.93800000000E+00 0.  1.
         11    1    1    2    0    0 -0.76116972330E-01  0.51280128089E-02  0.91274116518E+00  0.91592400652E+00  0.51100000000E-03 0. -1.
    9000002    1    1    2    0    0  0.35821968081E+00 -0.53162797513E-02  0.86193817968E-01  0.10077812148E+01  0.93800000000E+00 0.  1.
         22    1    1    2    0    0 -0.28210270848E+00  0.18826694231E-03  0.30010649842E+01  0.30142947787E+01  0.00000000000E+00 0. -1.
</event>
<event>
 5    1  0.7220939E+001  0.1579184E+01  0.7818608E-02  0.3376271E+00
         11   -1    0    0    0    0  0.00000000000E+00  0.00000000000E+00  0.39999999674E+01  0.40000000000E+01  0.51100000000E-03 0.  1.
    9000002   -1    0    0    0    0 -0.00000000000E+00 -0.00000000000E+00  0.00000000000E+00  0.93800000000E+00  0.93800000000E+00 0.  1.
         11    1    1    2    0    0 -0.49533375165E-01  0.11016829190E+00  0.66648289784E+00  0.67734062482E+00  0.51100000000E-03 0.  1.
    9000002    1    1    2    0    0  0.28024610115E+00  0.11386497842E+00  0.77295216754E-01  0.98859580267E+00  0.93800000000E+00 0.  1.
         22    1    1    2    0    0 -0.23071272598E+00 -0.22403327032E+00  0.32562218528E+01  0.32720635725E+01  0.00000000000E+00 0.  1.
</event>
<event>
 5    1  0.7220939E+001  0.1597493E+01  0.7818608E-02  0.3356089E+00
         11   -1    0    0    0    0  0.00000000000E+00  0.00000000000E+00  0.39999999674E+01  0.40000000000E+01  0.51100000000E-03 0. -1.
    9000002   -1    0    0    0    0 -0.00000000000E+00 -0.00000000000E+00  0.00000000000E+00  0.93800000000E+00  0.93800000000E+00 0. -1.
         11    1    1    2    0    0  0.25807797782E-01  0.29448409375E-01  0.10515604357E+01  0.10522893434E+01  0.51100000000E-03 0. -1.
    9000002    1    1    2    0    0 -0.27558744807E+00 -0.16168837894E+00  0.69963964828E-01  0.99339344159E+00  0.93800000000E+00 0. -1.
         22    1    1    2    0    0  0.24977965028E+00  0.13223996956E+00  0.28784755668E+01  0.28923172150E+01  0.00000000000E+00 0. -1.
</event>
<event>
 5    1  0.7220939E+001  0.1599606E+01  0.7818608E-02  0.3353792E+00
         11   -1    0    0    0    0  0.00000000000E+00  0.00000000000E+00  0.39999999674E+01  0.40000000000E+01  0.51100000000E-03 0. -1.
    9000002   -1    0    0    0    0 -0.00000000000E+00 -0.00000000000E+00  0.00000000000E+00  0.93800000000E+00  0.93800000000E+00 0.  1.
         11    1    1    2    0    0  0.75488327694E-01 -0.27597498832E-01  0.80137749652E+00  0.80539820127E+00  0.51100000000E-03 0. -1.
    9000002    1    1    2    0    0 -0.35205025879E+00  0.17121209310E+00  0.10331962037E+00  0.10216515597E+01  0.93800000000E+00 0.  1.
         22    1    1    2    0    0  0.27656193110E+00 -0.14361459427E+00  0.30953028505E+01  0.31109502390E+01  0.00000000000E+00 0. -1.
</event>
<event>
 5    1  0.7220939E+001  0.1599674E+01  0.7818608E-02  0.3353718E+00
         11   -1    0    0    0    0  0.00000000000E+00  0.00000000000E+00  0.39999999674E+01  0.40000000000E+01  0.51100000000E-03 0.  1.
    9000002   -1    0    0    0    0 -0.00000000000E+00 -0.00000000000E+00  0.00000000000E+00  0.93800000000E+00  0.93800000000E+00 0. -1.
         11    1    1    2    0    0  0.20680582858E-01 -0.92274991739E-01  0.79004051939E+00  0.79567998844E+00  0.51100000000E-03 0.  1.
    9000002    1    1    2    0    0 -0.10801875253E+00  0.44570626829E+00  0.14303393794E+00  0.10538618676E+01  0.93800000000E+00 0. -1.
         22    1    1    2    0    0  0.87338169676E-01 -0.35343127656E+00  0.30669255100E+01  0.30884581440E+01  0.00000000000E+00 0.  1.
</event>
<event>
 5    1  0.7220939E+001  0.1500885E+01  0.7818608E-02  0.3468503E+00
         11   -1    0    0    0    0  0.00000000000E+00  0.00000000000E+00  0.39999999674E+01  0.40000000000E+01  0.51100000000E-03 0.  1.
    9000002   -1    0    0    0    0 -0.00000000000E+00 -0.00000000000E+00  0.00000000000E+00  0.93800000000E+00  0.93800000000E+00 0. -1.
         11    1    1    2    0    0  0.20735229608E+00  0.18706268245E+00  0.24142775594E+00  0.36915449925E+00  0.51100000000E-03 0.  1.
    9000002    1    1    2    0    0  0.10293415100E+00  0.15159241074E+00  0.19452691456E+00  0.97532580142E+00  0.93800000000E+00 0. -1.
         22    1    1    2    0    0 -0.31028644708E+00 -0.33865509319E+00  0.35640452969E+01  0.35935196993E+01  0.00000000000E+00 0.  1.
</event>
<event>
 5    1  0.7220939E+001  0.1599673E+01  0.7818608E-02  0.3353718E+00
         11   -1    0    0    0    0  0.00000000000E+00  0.00000000000E+00  0.39999999674E+01  0.40000000000E+01  0.51100000000E-03 0. -1.
    9000002   -1    0    0    0    0 -0.00000000000E+00 -0.00000000000E+00  0.00000000000E+00  0.93800000000E+00  0.93800000000E+00 0.  1.
         11    1    1    2    0    0 -0.39151284045E-01  0.90319515975E-01  0.10718231830E+01  0.10763343508E+01  0.51100000000E-03 0. -1.
    9000002    1    1    2    0    0  0.13885236022E+00 -0.33603165559E+00  0.88778551935E-01  0.10099123144E+01  0.93800000000E+00 0.  1.
         22    1    1    2    0    0 -0.99701076174E-01  0.24571213962E+00  0.28393982324E+01  0.28517533348E+01  0.00000000000E+00 0. -1.
</event>
<event>
 5    1  0.7220939E+001  0.1599510E+01  0.7818608E-02  0.3353896E+00
         11   -1    0    0    0    0  0.00000000000E+00  0.00000000000E+00  0.39999999674E+01  0.40000000000E+01  0.51100000000E-03 0. -1.
    9000002   -1    0    0    0    0 -0.00000000000E+00 -0.00000000000E+00  0.00000000000E+00  0.93800000000E+00  0.93800000000E+00 0.  1.
         11    1    1    2    0    0  0.18606629304E+00  0.50238046826E-01  0.12466978618E+01  0.12615071725E+01  0.51100000000E-03 0. -1.
    9000002    1    1    2    0    0 -0.52166399910E+00 -0.15658128361E+00  0.20484770333E+00  0.11038376728E+01  0.93800000000E+00 0.  1.
         22    1    1    2    0    0  0.33559770606E+00  0.10634323679E+00  0.25484544023E+01  0.25726551547E+01  0.00000000000E+00 0. -1.
</event>
<event>
 5    1  0.7220939E+001  0.1599592E+01  0.7818608E-02  0.3353806E+00
         11   -1    0    0    0    0  0.00000000000E+00  0.00000000000E+00  0.39999999674E+01  0.40000000000E+01  0.51100000000E-03 0. -1.
    9000002   -1    0    0    0    0 -0.00000000000E+00 -0.00000000000E+00  0.00000000000E+00  0.93800000000E+00  0.93800000000E+00 0. -1.
         11    1    1    2    0    0  0.15673025479E-01 -0.15058316353E-01  0.17358526664E+00  0.17494142601E+00  0.51100000000E-03 0. -1.
    9000002    1    1    2    0    0 -0.26683083615E+00  0.28076169666E+00  0.10110398892E+00  0.10198489310E+01  0.93800000000E+00 0. -1.
         22    1    1    2    0    0  0.25115781067E+00 -0.26570338030E+00  0.37253107118E+01  0.37432096430E+01  0.00000000000E+00 0. -1.
</event>
<event>
 5    1  0.7220939E+001  0.1599658E+01  0.7818608E-02  0.3353735E+00
         11   -1    0    0    0    0  0.00000000000E+00  0.00000000000E+00  0.39999999674E+01  0.40000000000E+01  0.51100000000E-03 0.  1.
    9000002   -1    0    0    0    0 -0.00000000000E+00 -0.00000000000E+00  0.00000000000E+00  0.93800000000E+00  0.93800000000E+00 0.  1.
         11    1    1    2    0    0 -0.37511563602E-04 -0.58760255110E-02  0.42089967398E-01  0.42501241858E-01  0.51100000000E-03 0.  1.
    9000002    1    1    2    0    0  0.27938202462E-01  0.45209581194E+00  0.13942675573E+00  0.10509305336E+01  0.93800000000E+00 0.  1.
         22    1    1    2    0    0 -0.27900690898E-01 -0.44621978643E+00  0.38184832442E+01  0.38445682245E+01  0.00000000000E+00 0.  1.
</event>
<event>
 5    1  0.7220939E+001  0.1599665E+01  0.7818608E-02  0.3353727E+00
         11   -1    0    0    0    0  0.00000000000E+00  0.00000000000E+00  0.39999999674E+01  0.40000000000E+01  0.51100000000E-03 0. -1.
    9000002   -1    0    0    0    0 -0.00000000000E+00 -0.00000000000E+00  0.00000000000E+00  0.93800000000E+00  0.93800000000E+00 0. -1.
         11    1    1    2    0    0  0.13067039068E+00  0.61343369515E-01  0.13537965304E+01  0.13614709203E+01  0.51100000000E-03 0. -1.
    9000002    1    1    2    0    0 -0.36650612238E+00 -0.16895707669E+00  0.10992214306E+00  0.10270346192E+01  0.93800000000E+00 0. -1.
         22    1    1    2    0    0  0.23583573171E+00  0.10761370717E+00  0.25362812939E+01  0.25494944605E+01  0.00000000000E+00 0.  1.
</event>
<event>
 5    1  0.7220939E+001  0.1599676E+01  0.7818608E-02  0.3353715E+00
         11   -1    0    0    0    0  0.00000000000E+00  0.00000000000E+00  0.39999999674E+01  0.40000000000E+01  0.51100000000E-03 0.  1.
    9000002   -1    0    0    0    0 -0.00000000000E+00 -0.00000000000E+00  0.00000000000E+00  0.93800000000E+00  0.93800000000E+00 0. -1.
         11    1    1    2    0    0  0.10155079079E+00  0.10058121668E+00  0.14914834990E+01  0.14983165331E+01  0.51100000000E-03 0.  1.
    9000002    1    1    2    0    0 -0.26888157359E+00 -0.26261027469E+00  0.94999766322E-01  0.10149534041E+01  0.93800000000E+00 0. -1.
         22    1    1    2    0    0  0.16733078281E+00  0.16202905801E+00  0.24135167020E+01  0.24247300628E+01  0.00000000000E+00 0. -1.
</event>
<event>
 5    1  0.7220939E+001  0.1597635E+01  0.7818608E-02  0.3355934E+00
         11   -1    0    0    0    0  0.00000000000E+00  0.00000000000E+00  0.39999999674E+01  0.40000000000E+01  0.51100000000E-03 0. -1.
    9000002   -1    0    0    0    0 -0.00000000000E+00 -0.00000000000E+00  0.00000000000E+00  0.93800000000E+00  0.93800000000E+00 0. -1.
         11    1    1    2    0    0 -0.46401336693E-02  0.15187394820E-01  0.29537347569E+00  0.29580050552E+00  0.51100000000E-03 0. -1.
    9000002    1    1    2    0    0 -0.31128940769E+00 -0.12285606301E+00  0.76600409096E-01  0.99885250675E+00  0.93800000000E+00 0. -1.
         22    1    1    2    0    0  0.31592954136E+00  0.10766866819E+00  0.36280260826E+01  0.36433469877E+01  0.00000000000E+00 0. -1.
</event>
<event>
 5    1  0.7220939E+001  0.1597674E+01  0.7818608E-02  0.3355891E+00
         11   -1    0    0    0    0  0.00000000000E+00  0.00000000000E+00  0.39999999674E+01  0.40000000000E+01  0.51100000000E-03 0. -1.
    9000002   -1    0    0    0    0 -0.00000000000E+00 -0.00000000000E+00  0.00000000000E+00  0.93800000000E+00  0.93800000000E+00 0.  1.
         11    1    1    2    0    0 -0.19540558715E+00 -0.10036673884E+00  0.93716021923E+00  0.96256239454E+00  0.51100000000E-03 0. -1.
    9000002    1    1    2    0    0  0.59087559698E+00  0.32644782316E+00  0.32573778667E+00  0.12006878270E+01  0.93800000000E+00 0.  1.
         22    1    1    2    0    0 -0.39547000983E+00 -0.22608108433E+00  0.27371019615E+01  0.27747497784E+01  0.00000000000E+00 0. -1.
</event>
<event>
 5    1  0.7220939E+001  0.1576785E+01  0.7818608E-02  0.3378952E+00
         11   -1    0    0    0    0  0.00000000000E+00  0.00000000000E+00  0.39999999674E+01  0.40000000000E+01  0.51100000000E-03 0. -1.
    9000002   -1    0    0    0    0 -0.00000000000E+00 -0.00000000000E+00  0.00000000000E+00  0.93800000000E+00  0.93800000000E+00 0.  1.
         11    1    1    2    0    0  0.17096060669E+00 -0.82735426320E-01  0.14107602024E+01  0.14234877202E+01  0.51100000000E-03 0. -1.
    9000002    1    1    2    0    0 -0.24029846352E+00 -0.19525691958E+00  0.82245845854E-01  0.99119977571E+00  0.93800000000E+00 0.  1.
         22    1    1    2    0    0  0.69337856834E-01  0.27799234590E+00  0.25069939191E+01  0.25233125041E+01  0.00000000000E+00 0. -1.
</event>
<event>
 5    1  0.7220939E+001  0.1599167E+01  0.7818608E-02  0.3354269E+00
         11   -1    0    0    0    0  0.00000000000E+00  0.00000000000E+00  0.39999999674E+01  0.40000000000E+01  0.51100000000E-03 0. -1.
    9000002   -1    0    0    0    0 -0.00000000000E+00 -0.00000000000E+00  0.00000000000E+00  0.93800000000E+00  0.93800000000E+00 0.  1.
         11    1    1    2    0    0 -0.62755046428E-01  0.23910840837E-02  0.81353510205E+00  0.81595559715E+00  0.51100000000E-03 0. -1.
    9000002    1    1    2    0    0  0.34172825135E+00 -0.10997685829E+00  0.86911118548E-01  0.10081024996E+01  0.93800000000E+00 0.  1.
         22    1    1    2    0    0 -0.27897320492E+00  0.10758577421E+00  0.30995537468E+01  0.31139419033E+01  0.00000000000E+00 0. -1.
</event>
<event>
 5    1  0.7220939E+001  0.1599676E+01  0.7818608E-02  0.3353716E+00
         11   -1    0    0    0    0  0.00000000000E+00  0.00000000000E+00  0.39999999674E+01  0.40000000000E+01  0.51100000000E-03 0. -1.
    9000002   -1    0    0    0    0 -0.00000000000E+00 -0.00000000000E+00  0.00000000000E+00  0.93800000000E+00  0.93800000000E+00 0.  1.
         11    1    1    2    0    0 -0.25264858293E-01  0.80454209237E-01  0.88736522946E+00  0.89136328420E+00  0.51100000000E-03 0. -1.
    9000002    1    1    2    0    0  0.10782090435E+00 -0.35814935026E+00  0.94061660377E-01  0.10141932264E+01  0.93800000000E+00 0.  1.
         22    1    1    2    0    0 -0.82556046057E-01  0.27769514102E+00  0.30185730775E+01  0.30324434894E+01  0.00000000000E+00 0. -1.
</event>
<event>
 5    1  0.7220939E+001  0.1599517E+01  0.7818608E-02  0.3353887E+00
         11   -1    0    0    0    0  0.00000000000E+00  0.00000000000E+00  0.39999999674E+01  0.40000000000E+01  0.51100000000E-03 0.  1.
    9000002   -1    0    0    0    0 -0.00000000000E+00 -0.00000000000E+00  0.00000000000E+00  0.93800000000E+00  0.93800000000E+00 0. -1.
         11    1    1    2    0    0 -0.15160957389E-01 -0.29231082738E-02  0.95473218065E-01  0.96715023030E-01  0.51100000000E-03 0.  1.
    9000002    1    1    2    0    0  0.42349165231E+00  0.10183938675E+00  0.12872005675E+00  0.10421752699E+01  0.93800000000E+00 0. -1.
         22    1    1    2    0    0 -0.40833069492E+00 -0.98916278477E-01  0.37758066925E+01  0.37991097070E+01  0.00000000000E+00 0.  1.
</event>
<event>
 5    1  0.7220939E+001  0.1599671E+01  0.7818608E-02  0.3353720E+00
         11   -1    0    0    0    0  0.00000000000E+00  0.00000000000E+00  0.39999999674E+01  0.40000000000E+01  0.51100000000E-03 0. -1.
    9000002   -1    0    0    0    0 -0.00000000000E+00 -0.00000000000E+00  0.00000000000E+00  0.93800000000E+00  0.93800000000E+00 0. -1.
         11    1    1    2    0    0 -0.79912927216E-03  0.13959500150E-01  0.13512989665E+00  0.13585233286E+00  0.51100000000E-03 0. -1.
    9000002    1    1    2    0    0  0.15319579811E-01 -0.37774485914E+00  0.96148260185E-01  0.10158810738E+01  0.93800000000E+00 0. -1.
         22    1    1    2    0    0 -0.14520450539E-01  0.36378535899E+00  0.37687218105E+01  0.37862665934E+01  0.00000000000E+00 0. -1.
</event>
<event>
 5    1  0.7220939E+001  0.1588872E+01  0.7818608E-02  0.3365530E+00
         11   -1    0    0    0    0  0.00000000000E+00  0.00000000000E+00  0.39999999674E+01  0.40000000000E+01  0.51100000000E-03 0. -1.
    9000002   -1    0    0    0    0 -0.00000000000E+00 -0.00000000000E+00  0.00000000000E+00  0.93800000000E+00  0.93800000000E+00 0. -1.
         11    1    1    2    0    0 -0.24435449009E-01 -0.29879596600E+00  0.14482069890E+01  0.14789117163E+01  0.51100000000E-03 0. -1.
    9000002    1    1    2    0    0 -0.17587081169E+00  0.56601671661E+00  0.25546208631E+00  0.11386001684E+01  0.93800000000E+00 0. -1.
         22    1    1    2    0    0  0.20030626070E+00 -0.26722075061E+00  0.22963308920E+01  0.23204881153E+01  0.00000000000E+00 0. -1.
</event>
<event>
 5    1  0.7220939E+001  0.1599654E+01  0.7818608E-02  0.3353739E+00
         11   -1    0    0    0    0  0.00000000000E+00  0.00000000000E+00  0.39999999674E+01  0.40000000000E+01  0.51100000000E-03 0.  1.
    9000002   -1    0    0    0    0 -0.00000000000E+00 -0.00000000000E+00  0.00000000000E+00  0.93800000000E+00  0.93800000000E+00 0.  1.
         11    1    1    2    0    0  0.83277351612E-01 -0.14722200760E+00  0.12202849619E+01  0.12319517386E+01  0.51100000000E-03 0.  1.
    9000002    1    1    2    0    0 -0.26907751708E+00  0.44562605600E+00  0.18618430864E+00  0.10888038798E+01  0.93800000000E+00 0.  1.
         22    1    1    2    0    0  0.18580016547E+00 -0.29840404840E+00  0.25935306968E+01  0.26172443815E+01  0.00000000000E+00 0. -1.
</event>
<event>
 5    1  0.7220939E+001  0.1595357E+01  0.7818608E-02  0.3358419E+00
         11   -1    0    0    0    0  0.00000000000E+00  0.00000000000E+00  0.39999999674E+01  0.40000000000E+01  0.51100000000E-03 0.  1.
    9000002   -1    0    0    0    0 -0.00000000000E+00 -0.00000000000E+00  0.00000000000E+00  0.93800000000E+00  0.93800000000E+00 0.  1.
         11    1    1    2    0    0  0.63918026810E-01 -0.10689678110E-01  0.22712107712E+00  0.23618642671E+00  0.51100000000E-03 0.  1.
    9000002    1    1    2    0    0 -0.43928130373E+00  0.17123572427E+00  0.15527527073E+00  0.10612465061E+01  0.93800000000E+00 0.  1.
         22    1    1    2    0    0  0.37536327692E+00 -0.16054604616E+00  0.36176036195E+01  0.36405670672E+01  0.00000000000E+00 0.  1.
</event>
<event>
 5    1  0.7220939E+001  0.1599567E+01  0.7818608E-02  0.3353833E+00
         11   -1    0    0    0    0  0.00000000000E+00  0.00000000000E+00  0.39999999674E+01  0.40000000000E+01  0.51100000000E-03 0.  1.
    9000002   -1    0    0    0    0 -0.00000000000E+00 -0.00000000000E+00  0.00000000000E+00  0.93800000000E+00  0.93800000000E+00 0.  1.
         11    1    1    2    0    0 -0.49568359531E-01  0.19033047790E-01  0.48991574051E+00  0.49278491566E+00  0.51100000000E-03 0.  1.
    9000002    1    1    2    0    0  0.33838422525E+00 -0.18710764893E+00  0.10077084313E+00  0.10195645732E+01  0.93800000000E+00 0.  1.
         22    1    1    2    0    0 -0.28881586572E+00  0.16807460114E+00  0.34093133837E+01  0.34256505111E+01  0.00000000000E+00 0.  1.
</event>
<event>
 5    1  0.7220939E+001  0.1591303E+01  0.7818608E-02  0.3362857E+00
         11   -1    0    0    0    0  0.00000000000E+00  0.00000000000E+00  0.39999999674E+01  0.40000000000E+01  0.51100000000E-03 0. -1.
    9000002   -1    0    0    0    0 -0.00000000000E+00 -0.00000000000E+00  0.00000000000E+00  0.93800000000E+00  0.93800000000E+00 0.  1.
         11    1    1    2    0    0  0.38886368243E-01 -0.31865086445E-01  0.11481067516E+00  0.12533668905E+00  0.51100000000E-03 0. -1.
    9000002    1    1    2    0    0 -0.24586519971E+00  0.33037943478E+00  0.12163525176E+00  0.10316197952E+01  0.93800000000E+00 0.  1.
         22    1    1    2    0    0  0.20697883146E+00 -0.29851434833E+00  0.37635540404E+01  0.37810435158E+01  0.00000000000E+00 0. -1.
</event>
<event>
 5    1  0.7220939E+001  0.1599635E+01  0.7818608E-02  0.3353759E+00
         11   -1    0    0    0    0  0.00000000000E+00  0.00000000000E+00  0.39999999674E+01  0.40000000000E+01  0.51100000000E-03 0.  1.
    9000002   -1    0    0    0    0 -0.00000000000E+00 -0.00000000000E+00  0.00000000000E+00  0.93800000000E+00  0.93800000000E+00 0.  1.
         11    1    1    2    0    0  0.63280601534E-01  0.14975920945E-01  0.58973893061E+00  0.59331355971E+00  0.51100000000E-03 0.  1.
    9000002    1    1    2    0    0 -0.44191124164E+00 -0.12170928812E+00  0.14291020899E+00  0.10537390683E+01  0.93800000000E+00 0.  1.
         22    1    1    2    0    0  0.37863064010E+00  0.10673336718E+00  0.32673508278E+01  0.32909473720E+01  0.00000000000E+00 0.  1.
</event>
<event>
 5    1  0.7220939E+001  0.1585731E+01  0.7818608E-02  0.3368997E+00
         11   -1    0    0    0    0  0.00000000000E+00  0.00000000000E+00  0.39999999674E+01  0.40000000000E+01  0.51100000000E-03 0.  1.
    9000002   -1    0    0    0    0 -0.00000000000E+00 -0.00000000000E+00  0.00000000000E+00  0.93800000000E+00  0.93800000000E+00 0. -1.
         11    1    1    2    0    0 -0.85381944641E-01 -0.33347005686E-04  0.18625906232E+00  0.20489699119E+00  0.51100000000E-03 0.  1.
    9000002    1    1    2    0    0  0.47313383095E+00 -0.28441443826E+00  0.22388218802E+00  0.11111770466E+01  0.93800000000E+00 0. -1.
         22    1    1    2    0    0 -0.38775188631E+00  0.28444778527E+00  0.35898587170E+01  0.36219259623E+01  0.00000000000E+00 0.  1.
</event>
<event>
 5    1  0.7220939E+001  0.1599357E+01  0.7818608E-02  0.3354062E+00
         11   -1    0    0    0    0  0.00000000000E+00  0.00000000000E+00  0.39999999674E+01  0.40000000000E+01  0.51100000000E-03 0. -1.
    9000002   -1    0    0    0    0 -0.00000000000E+00 -0.00000000000E+00  0.00000000000E+00  0.93800000000E+00  0.93800000000E+00 0. -1.
         11    1    1    2    0    0  0.24748081349E-01 -0.60259010975E+00  0.10667947875E+01  0.12254708025E+01  0.51100000000E-03 0. -1.
    9000002    1    1    2    0    0 -0.46437927045E-01  0.12754621291E+01  0.18314069992E+01  0.24213334592E+01  0.93800000000E+00 0. -1.
         22    1    1    2    0    0  0.21689845696E-01 -0.67287201937E+00  0.11017981806E+01  0.12911957384E+01  0.00000000000E+00 0. -1.
</event>
<event>
 5    1  0.7220939E+001  0.1599513E+01  0.7818608E-02  0.3353892E+00
         11   -1    0    0    0    0  0.00000000000E+00  0.00000000000E+00  0.39999999674E+01  0.40000000000E+01  0.51100000000E-03 0.  1.
    9000002   -1    0    0    0    0 -0.00000000000E+00 -0.00000000000E+00  0.00000000000E+00  0.93800000000E+00  0.93800000000E+00 0. -1.
         11    1    1    2    0    0  0.73040425148E-02 -0.59732560590E-01  0.33996640206E+00  0.34525171033E+00  0.51100000000E-03 0.  1.
    9000002    1    1    2    0    0 -0.10610927693E+00  0.56675579051E+00  0.23099745367E+00  0.11250222790E+01  0.93800000000E+00 0. -1.
         22    1    1    2    0    0  0.98805234416E-01 -0.50702322992E+00  0.34290361116E+01  0.34677260106E+01  0.00000000000E+00 0.  1.
</event>
<event>
 5    1  0.7220939E+001  0.1584236E+01  0.7818608E-02  0.3370653E+00
         11   -1    0    0    0    0  0.00000000000E+00  0.00000000000E+00  0.39999999674E+01  0.40000000000E+01  0.51100000000E-03 0.  1.
    9000002   -1    0    0    0    0 -0.00000000000E+00 -0.00000000000E+00  0.00000000000E+00  0.93800000000E+00  0.93800000000E+00 0.  1.
         11    1    1    2    0    0 -0.78107098287E-01 -0.22010556040E+00  0.77856107243E+00  0.81283748754E+00  0.51100000000E-03 0.  1.
    9000002    1    1    2    0    0 -0.13049097172E+00  0.72057790683E+00  0.40503727080E+00  0.12570439946E+01  0.93800000000E+00 0.  1.
         22    1    1    2    0    0  0.20859807001E+00 -0.50047234643E+00  0.28164016241E+01  0.28681185179E+01  0.00000000000E+00 0.  1.
</event>
<event>
 5    1  0.7220939E+001  0.1599675E+01  0.7818608E-02  0.3353716E+00
         11   -1    0    0    0    0  0.00000000000E+00  0.00000000000E+00  0.39999999674E+01  0.40000000000E+01  0.51100000000E-03 0.  1.
    9000002   -1    0    0    0    0 -0.00000000000E+00 -0.00000000000E+00  0.00000000000E+00  0.93800000000E+00  0.93800000000E+00 0. -1.
         11    1    1    2    0    0  0.43655888675E-01  0.56616949612E-02  0.44417365925E+00  0.44635007796E+00  0.51100000000E-03 0.  1.
    9000002    1    1    2    0    0 -0.37582329875E+00 -0.52687703570E-01  0.96897476182E-01  0.10164901706E+01  0.93800000000E+00 0. -1.
         22    1    1    2    0    0  0.33216741008E+00  0.47026008609E-01  0.34589288319E+01  0.34751597515E+01  0.00000000000E+00 0.  1.
</event>
<event>
 5    1  0.7220939E+001  0.1599676E+01  0.7818608E-02  0.3353716E+00
         11   -1    0    0    0    0  0.00000000000E+00  0.00000000000E+00  0.39999999674E+01  0.40000000000E+01  0.51100000000E-03 0.  1.
    9000002   -1    0    0    0    0 -0.00000000000E+00 -0.00000000000E+00  0.00000000000E+00  0.93800000000E+00  0.93800000000E+00 0. -1.
         11    1    1    2    0    0  0.53280922130E-01  0.58315145565E-01  0.81403240282E+00  0.81785605508E+00  0.51100000000E-03 0.  1.
    9000002    1    1    2    0    0 -0.25931473845E+00 -0.27598448308E+00  0.96479008125E-01  0.10161514491E+01  0.93800000000E+00 0. -1.
         22    1    1    2    0    0  0.20603381632E+00  0.21766933752E+00  0.30894885564E+01  0.31039924958E+01  0.00000000000E+00 0.  1.
</event>
<event>
 5    1  0.7220939E+001  0.1565213E+01  0.7818608E-02  0.3392008E+00
         11   -1    0    0    0    0  0.00000000000E+00  0.00000000000E+00  0.39999999674E+01  0.40000000000E+01  0.51100000000E-03 0. -1.
    9000002   -1    0    0    0    0 -0.00000000000E+00 -0.00000000000E+00  0.00000000000E+00  0.93800000000E+00  0.93800000000E+00 0.  1.
         11    1    1    2    0    0  0.14928075178E+00  0.33738687039E-01  0.13058167152E+01  0.13147549569E+01  0.51100000000E-03 0. -1.
    9000002    1    1    2    0    0  0.16259806165E+00 -0.26381921812E+00  0.91758854564E-01  0.99212015245E+00  0.93800000000E+00 0.  1.
         22    1    1    2    0    0 -0.31187881343E+00  0.23008053108E+00  0.26024243976E+01  0.26311248906E+01  0.00000000000E+00 0. -1.
</event>
<event>
 5    1  0.7220939E+001  0.1599225E+01  0.7818608E-02  0.3354205E+00
         11   -1    0    0    0    0  0.00000000000E+00  0.00000000000E+00  0.39999999674E+01  0.40000000000E+01  0.51100000000E-03 0.  1.
    9000002   -1    0    0    0    0 -0.00000000000E+00 -0.00000000000E+00  0.00000000000E+00  0.93800000000E+00  0.93800000000E+00 0.  1.
         11    1    1    2    0    0  0.13846024042E-01  0.41145703892E-01  0.51652879677E+00  0.51835021014E+00  0.51100000000E-03 0.  1.
    9000002    1    1    2    0    0  0.72515618391E-02 -0.37922998671E+00  0.97163014263E-01  0.10164411539E+01  0.93800000000E+00 0.  1.
         22    1    1    2    0    0 -0.21097585881E-01  0.33808428282E+00  0.33863081563E+01  0.34032086360E+01  0.00000000000E+00 0.  1.
</event>
<event>
 5    1  0.7220939E+001  0.1592929E+01  0.7818608E-02  0.3361074E+00
         11   -1    0    0    0    0  0.00000000000E+00  0.00000000000E+00  0.39999999674E+01  0.40000000000E+01  0.51100000000E-03 0. -1.
    9000002   -1    0    0    0    0 -0.00000000000E+00 -0.00000000000E+00  0.00000000000E+00  0.93800000000E+00  0.93800000000E+00 0.  1.
         11    1    1    2    0    0  0.11747399894E+00  0.56053550692E-01  0.11058308381E+01  0.11134649723E+01  0.51100000000E-03 0. -1.
    9000002    1    1    2    0    0 -0.68815943475E+00 -0.18206848641E+00  0.37102782668E+00  0.12345922361E+01  0.93800000000E+00 0.  1.
         22    1    1    2    0    0  0.57068543581E+00  0.12601493572E+00  0.25231413026E+01  0.25899427916E+01  0.00000000000E+00 0. -1.
</event>
<event>
 5    1  0.7220939E+001  0.1537380E+01  0.7818608E-02  0.3424266E+00
         11   -1    0    0    0    0  0.00000000000E+00  0.00000000000E+00  0.39999999674E+01  0.40000000000E+01  0.51100000000E-03 0. -1.
    9000002   -1    0    0    0    0 -0.00000000000E+00 -0.00000000000E+00  0.00000000000E+00  0.93800000000E+00  0.93800000000E+00 0.  1.
         11    1    1    2    0    0  0.32894218036E+00  0.24355427647E+00  0.12020063566E+01  0.12697799754E+01  0.51100000000E-03 0. -1.
    9000002    1    1    2    0    0 -0.19551444596E+00 -0.46452730950E+00  0.23268007141E+00  0.10899520794E+01  0.93800000000E+00 0.  1.
         22    1    1    2    0    0 -0.13342773439E+00  0.22097303303E+00  0.25653135393E+01  0.25782679451E+01  0.00000000000E+00 0. -1.
</event>
<event>
 5    1  0.7220939E+001  0.1588952E+01  0.7818608E-02  0.3365442E+00
         11   -1    0    0    0    0  0.00000000000E+00  0.00000000000E+00  0.39999999674E+01  0.40000000000E+01  0.51100000000E-03 0. -1.
    9000002   -1    0    0    0    0 -0.00000000000E+00 -0.00000000000E+00  0.00000000000E+00  0.93800000000E+00  0.93800000000E+00 0.  1.
         11    1    1    2    0    0  0.78592914379E-01  0.21352000211E+00  0.14149453447E+01  0.14331218466E+01  0.51100000000E-03 0. -1.
    9000002    1    1    2    0    0  0.88247479405E-01 -0.45466966581E+00  0.15540271244E+00  0.10575944996E+01  0.93800000000E+00 0.  1.
         22    1    1    2    0    0 -0.16684039378E+00  0.24114966370E+00  0.24296519102E+01  0.24472836538E+01  0.00000000000E+00 0. -1.
</event>
<event>
 5    1  0.7220939E+001  0.1540307E+01  0.7818608E-02  0.3420815E+00
         11   -1    0    0    0    0  0.00000000000E+00  0.00000000000E+00  0.39999999674E+01  0.40000000000E+01  0.51100000000E-03 0.  1.
    9000002   -1    0    0    0    0 -0.00000000000E+00 -0.00000000000E+00  0.00000000000E+00  0.93800000000E+00  0.93800000000E+00 0.  1.
         11    1    1    2    0    0 -0.23774840495E+00  0.18674615331E+00  0.13813636195E+01  0.14140594543E+01  0.51100000000E-03 0.  1.
    9000002    1    1    2    0    0  0.12715476086E+00  0.46365138263E-01  0.57089547888E-01  0.94943208063E+00  0.93800000000E+00 0.  1.
         22    1    1    2    0    0  0.11059364409E+00 -0.23311129157E+00  0.25615468000E+01  0.25745084651E+01  0.00000000000E+00 0.  1.
</event>
<event>
 5    1  0.7220939E+001  0.1583801E+01  0.7818608E-02  0.3371135E+00
         11   -1    0    0    0    0  0.00000000000E+00  0.00000000000E+00  0.39999999674E+01  0.40000000000E+01  0.51100000000E-03 0. -1.
    9000002   -1    0    0    0    0 -0.00000000000E+00 -0.00000000000E+00  0.00000000000E+00  0.93800000000E+00  0.93800000000E+00 0.  1.
         11    1    1    2    0    0 -0.56546714633E-01  0.31038192062E-01  0.13352726737E+01  0.13368299348E+01  0.51100000000E-03 0. -1.
    9000002    1    1    2    0    0  0.25871473771E+00  0.31813805500E+00  0.12699215168E+00  0.10315600536E+01  0.93800000000E+00 0.  1.
         22    1    1    2    0    0 -0.20216802307E+00 -0.34917624706E+00  0.25377351420E+01  0.25696100117E+01  0.00000000000E+00 0. -1.
</event>
<event>
 5    1  0.7220939E+001  0.1599645E+01  0.7818608E-02  0.3353749E+00
         11   -1    0    0    0    0  0.00000000000E+00  0.00000000000E+00  0.39999999674E+01  0.40000000000E+01  0.51100000000E-03 0. -1.
    9000002   -1    0    0    0    0 -0.00000000000E+00 -0.00000000000E+00  0.00000000000E+00  0.93800000000E+00  0.93800000000E+00 0. -1.
         11    1    1    2    0    0  0.10054343001E+00 -0.40653044901E-02  0.86947008948E+00  0.87527367471E+00  0.51100000000E-03 0. -1.
    9000002    1    1    2    0    0 -0.42736183465E+00  0.32559075732E-01  0.12440999506E+00  0.10387589124E+01  0.93800000000E+00 0. -1.
         22    1    1    2    0    0  0.32681840464E+00 -0.28493771242E-01  0.30061198828E+01  0.30239674129E+01  0.00000000000E+00 0. -1.
</event>
<event>
 5    1  0.7220939E+001  0.1597942E+01  0.7818608E-02  0.3355600E+00
         11   -1    0    0    0    0  0.00000000000E+00  0.00000000000E+00  0.39999999674E+01  0.40000000000E+01  0.51100000000E-03 0.  1.
    9000002   -1    0    0    0    0 -0.00000000000E+00 -0.00000000000E+00  0.00000000000E+00  0.93800000000E+00  0.93800000000E+00 0. -1.
         11    1    1    2    0    0 -0.86384992952E-01  0.98586919585E-01  0.13355180841E+01  0.13419353791E+01  0.51100000000E-03 0.  1.
    9000002    1    1    2    0    0  0.14636967063E+00 -0.37737098992E+00  0.11202634622E+00  0.10277289753E+01  0.93800000000E+00 0. -1.
         22    1    1    2    0    0 -0.59984677673E-01  0.27878407034E+00  0.25524555371E+01  0.25683356456E+01  0.00000000000E+00 0.  1.
</event>
<event>
 5    1  0.7220939E+001  0.1599652E+01  0.7818608E-02  0.3353741E+00
         11   -1    0    0    0    0  0.00000000000E+00  0.00000000000E+00  0.39999999674E+01  0.40000000000E+01  0.51100000000E-03 0.  1.
    9000002   -1    0    0    0    0 -0.00000000000E+00 -0.00000000000E+00  0.00000000000E+00  0.93800000000E+00  0.93800000000E+00 0. -1.
         11    1    1    2    0    0 -0.84549036206E-01  0.10665250944E+00  0.81241211020E+00  0.82373357053E+00  0.51100000000E-03 0.  1.
    9000002    1    1    2    0    0  0.36646155652E+00 -0.49550396131E+00  0.26596610838E+00  0.11534297633E+01  0.93800000000E+00 0. -1.
         22    1    1    2    0    0 -0.28191252031E+00  0.38885145187E+00  0.29216217488E+01  0.29608366662E+01  0.00000000000E+00 0.  1.
</event>
<event>
 5    1  0.7220939E+001  0.1599676E+01  0.7818608E-02  0.3353715E+00
         11   -1    0    0    0    0  0.00000000000E+00  0.00000000000E+00  0.39999999674E+01  0.40000000000E+01  0.51100000000E-03 0.  1.
    9000002   -1    0    0    0    0 -0.00000000000E+00 -0.00000000000E+00  0.00000000000E+00  0.93800000000E+00  0.93800000000E+00 0. -1.
         11    1    1    2    0    0 -0.27394852970E-01 -0.76423425836E-01  0.58118288001E+00  0.58682605526E+00  0.51100000000E-03 0.  1.
    9000002    1    1    2    0    0  0.17543009649E+00  0.49863825724E+00  0.19223082236E+00  0.10937150083E+01  0.93800000000E+00 0. -1.
         22    1    1    2    0    0 -0.14803524352E+00 -0.42221483140E+00  0.32265862650E+01  0.32574589364E+01  0.00000000000E+00 0.  1.
</event>
<event>
 5    1  0.7220939E+001  0.1553795E+01  0.7818608E-02  0.3405091E+00
         11   -1    0    0    0    0  0.00000000000E+00  0.00000000000E+00  0.39999999674E+01  0.40000000000E+01  0.51100000000E-03 0.  1.
    9000002   -1    0    0    0    0 -0.00000000000E+00 -0.00000000000E+00  0.00000000000E+00  0.93800000000E+00  0.93800000000E+00 0. -1.
         11    1    1    2    0    0  0.16830017444E+00  0.13490197699E+00  0.10333676591E+01  0.10556384192E+01  0.51100000000E-03 0.  1.
    9000002    1    1    2    0    0 -0.58187942406E-01  0.12440395558E+00  0.46996025031E-01  0.94916532131E+00  0.93800000000E+00 0. -1.
         22    1    1    2    0    0 -0.11011223203E+00 -0.25930593257E+00  0.29196362832E+01  0.29331962595E+01  0.00000000000E+00 0. -1.
</event>
<event>
 5    1  0.7220939E+001  0.1589045E+01  0.7818608E-02  0.3365340E+00
         11   -1    0    0    0    0  0.00000000000E+00  0.00000000000E+00  0.39999999674E+01  0.40000000000E+01  0.51100000000E-03 0.  1.
    9000002   -1    0    0    0    0 -0.00000000000E+00 -0.00000000000E+00  0.00000000000E+00  0.93800000000E+00  0.93800000000E+00 0. -1.
         11    1    1    2    0    0  0.44270375542E-01  0.10518338035E+00  0.11357147766E+01  0.11414340649E+01  0.51100000000E-03 0.  1.
    9000002    1    1    2    0    0 -0.32618327274E+00 -0.15356538597E-01  0.79811283194E-01  0.99641617390E+00  0.93800000000E+00 0. -1.
         22    1    1    2    0    0  0.28191289719E+00 -0.89826841753E-01  0.27844739076E+01  0.28001497612E+01  0.00000000000E+00 0. -1.
</event>
<event>
 5    1  0.7580156E+001  0.1575793E+01  0.7818608E-02  0.3380064E+00
         11   -1    0    0    0    0  0.00000000000E+00  0.00000000000E+00  0.39999999674E+01  0.40000000000E+01  0.51100000000E-03 0. -1.
    9000002   -1    0    0    0    0 -0.00000000000E+00 -0.00000000000E+00  0.00000000000E+00  0.93800000000E+00  0.93800000000E+00 0. -1.
         11    1    1    2    0    0 -0.33223828765E-02 -0.16379691450E+00  0.12919964236E+01  0.13023423080E+01  0.51100000000E-03 0. -1.
    9000002    1    1    2    0    0 -0.19296271403E+00  0.75761679162E-02  0.42751938159E-01  0.95862596227E+00  0.93800000000E+00 0. -1.
         22    1    1    2    0    0  0.19628509691E+00  0.15622074659E+00  0.26652516056E+01  0.26770317297E+01  0.00000000000E+00 0. -1.
</event>
<event>
 5    1  0.7220939E+001  0.1599425E+01  0.7818608E-02  0.3353988E+00
         11   -1    0    0    0    0  0.00000000000E+00  0.00000000000E+00  0.39999999674E+01  0.40000000000E+01  0.51100000000E-03 0.  1.
    9000002   -1    0    0    0    0 -0.00000000000E+00 -0.00000000000E+00  0.00000000000E+00  0.93800000000E+00  0.93800000000E+00 0.  1.
         11    1    1    2    0    0 -0.61244073282E-01 -0.10555265870E+00  0.11469021778E+01  0.11533763769E+01  0.51100000000E-03 0.  1.
    9000002    1    1    2    0    0  0.22663728841E+00  0.40953617814E+00  0.14942599584E+00  0.10588939843E+01  0.93800000000E+00 0.  1.
         22    1    1    2    0    0 -0.16539321513E+00 -0.30398351944E+00  0.27036717937E+01  0.27257296388E+01  0.00000000000E+00 0.  1.
</event>
<event>
 5    1  0.7220939E+001  0.1599676E+01  0.7818608E-02  0.3353715E+00
         11   -1    0    0    0    0  0.00000000000E+00  0.00000000000E+00  0.39999999674E+01  0.40000000000E+01  0.51100000000E-03 0.  1.
    9000002   -1    0    0    0    0 -0.00000000000E+00 -0.00000000000E+00  0.00000000000E+00  0.93800000000E+00  0.93800000000E+00 0.  1.
         11    1    1    2    0    0  0.63540960997E-01  0.52413816298E-01  0.68061493276E+00  0.68558122033E+00  0.51100000000E-03 0. -1.
    9000002    1    1    2    0    0 -0.36389069353E+00 -0.29528232387E+00  0.14957569068E+00  0.10591623931E+01  0.93800000000E+00 0.  1.
         22    1    1    2    0    0  0.30034973253E+00  0.24286850757E+00  0.31698093439E+01  0.31932563866E+01  0.00000000000E+00 0.  1.
</event>
<event>
 5    1  0.7220939E+001  0.1599664E+01  0.7818608E-02  0.3353728E+00
         11   -1    0    0    0    0  0.00000000000E+00  0.00000000000E+00  0.39999999674E+01  0.40000000000E+01  0.51100000000E-03 0. -1.
    9000002   -1    0    0    0    0 -0.00000000000E+00 -0.00000000000E+00  0.00000000000E+00  0.93800000000E+00  0.93800000000E+00 0. -1.
         11    1    1    2    0    0  0.16005438296E-01 -0.71573604690E-01  0.76538797264E+00  0.76889398797E+00  0.51100000000E-03 0. -1.
    9000002    1    1    2    0    0 -0.83702562518E-01  0.34875886460E+00  0.86347481399E-01  0.10079378712E+01  0.93800000000E+00 0. -1.
         22    1    1    2    0    0  0.67697124222E-01 -0.27718525991E+00  0.31482645133E+01  0.31611681409E+01  0.00000000000E+00 0. -1.
</event>
<event>
 5    1  0.7220939E+001  0.1566402E+01  0.7818608E-02  0.3390657E+00
         11   -1    0    0    0    0  0.00000000000E+00  0.00000000000E+00  0.39999999674E+01  0.40000000000E+01  0.51100000000E-03 0.  1.
    9000002   -1    0    0    0    0 -0.00000000000E+00 -0.00000000000E+00  0.00000000000E+00  0.93800000000E+00  0.93800000000E+00 0.  1.
         11    1    1    2    0    0  0.15952127472E+00  0.20417540967E+00  0.72791778020E+00  0.77265722727E+00  0.51100000000E-03 0.  1.
    9000002    1    1    2    0    0 -0.46290801994E+00 -0.22275887817E+00  0.21208783497E+00  0.10902892288E+01  0.93800000000E+00 0.  1.
         22    1    1    2    0    0  0.30338674523E+00  0.18583468509E-01  0.30599943522E+01  0.30750535439E+01  0.00000000000E+00 0.  1.
</event>
<event>
 5    1  0.7220939E+001  0.1596666E+01  0.7818608E-02  0.3356990E+00
         11   -1    0    0    0    0  0.00000000000E+00  0.00000000000E+00  0.39999999674E+01  0.40000000000E+01  0.51100000000E-03 0.  1.
    9000002   -1    0    0    0    0 -0.00000000000E+00 -0.00000000000E+00  0.00000000000E+00  0.93800000000E+00  0.93800000000E+00 0. -1.
         11    1    1    2    0    0 -0.31349940792E-01 -0.47350895110E-01  0.11229776637E+01  0.11244127447E+01  0.51100000000E-03 0.  1.
    9000002    1    1    2    0    0 -0.62298347025E-01  0.28502071114E+00  0.59090626604E-01  0.98410039730E+00  0.93800000000E+00 0. -1.
         22    1    1    2    0    0  0.93648287816E-01 -0.23766981603E+00  0.28179316770E+01  0.28294868580E+01  0.00000000000E+00 0.  1.
</event>
<event>
 5    1  0.7220939E+001  0.1599672E+01  0.7818608E-02  0.3353719E+00
         11   -1    0    0    0    0  0.00000000000E+00  0.00000000000E+00  0.39999999674E+01  0.40000000000E+01  0.51100000000E-03 0. -1.
    9000002   -1    0    0    0    0 -0.00000000000E+00 -0.00000000000E+00  0.00000000000E+00  0.93800000000E+00  0.93800000000E+00 0. -1.
         11    1    1    2    0    0 -0.18582770359E-01 -0.14194519809E-02  0.18265412630E+00  0.18360317310E+00  0.51100000000E-03 0. -1.
    9000002    1    1    2    0    0  0.41520305787E+00  0.21251920852E-01  0.11683300844E+00  0.10326370007E+01  0.93800000000E+00 0. -1.
         22    1    1    2    0    0 -0.39662028751E+00 -0.19832468871E-01  0.37005128326E+01  0.37217598262E+01  0.00000000000E+00 0. -1.
</event>
<event>
 5    1  0.7220939E+001  0.1599640E+01  0.7818608E-02  0.3353755E+00
         11   -1    0    0    0    0  0.00000000000E+00  0.00000000000E+00  0.39999999674E+01  0.40000000000E+01  0.51100000000E-03 0.  1.
    9000002   -1    0    0    0    0 -0.00000000000E+00 -0.00000000000E+00  0.00000000000E+00  0.93800000000E+00  0.93800000000E+00 0. -1.
         11    1    1    2    0    0 -0.26568089186E-01  0.60766050894E-01  0.71808177728E+00  0.72113804246E+00  0.51100000000E-03 0.  1.
    9000002    1    1    2    0    0  0.17151384144E+00 -0.31552652400E+00  0.86597005031E-01  0.10081255013E+01  0.93800000000E+00 0. -1.
         22    1    1    2    0    0 -0.14494575226E+00  0.25476047311E+00  0.31953211851E+01  0.32087364562E+01  0.00000000000E+00 0.  1.
</event>
<event>
 5    1  0.7220939E+001  0.1579821E+01  0.7818608E-02  0.3375561E+00
         11   -1    0    0    0    0  0.00000000000E+00  0.00000000000E+00  0.39999999674E+01  0.40000000000E+01  0.51100000000E-03 0. -1.
    9000002   -1    0    0    0    0 -0.00000000000E+00 -0.00000000000E+00  0.00000000000E+00  0.93800000000E+00  0.93800000000E+00 0. -1.
         11    1    1    2    0    0  0.15374891297E+00  0.10036839442E+00  0.13168871023E+01  0.13296256782E+01  0.51100000000E-03 0. -1.
    9000002    1    1    2    0    0 -0.80848550249E+00 -0.37986423025E+00  0.63998538882E+00  0.14447736636E+01  0.93800000000E+00 0. -1.
         22    1    1    2    0    0  0.65473658952E+00  0.27949583583E+00  0.20431274762E+01  0.21636006582E+01  0.00000000000E+00 0. -1.
</event>
<event>
 5    1  0.7220939E+001  0.1599676E+01  0.7818608E-02  0.3353716E+00
         11   -1    0    0    0    0  0.00000000000E+00  0.00000000000E+00  0.39999999674E+01  0.40000000000E+01  0.51100000000E-03 0. -1.
    9000002   -1    0    0    0    0 -0.00000000000E+00 -0.00000000000E+00  0.00000000000E+00  0.93800000000E+00  0.93800000000E+00 0.  1.
         11    1    1    2    0    0 -0.11862452072E+00  0.38676621707E-01  0.11909099495E+01  0.11974282554E+01  0.51100000000E-03 0. -1.
    9000002    1    1    2    0    0  0.38400814849E+00 -0.12910084565E+00  0.11078317892E+00  0.10277383904E+01  0.93800000000E+00 0.  1.
         22    1    1    2    0    0 -0.26538362777E+00  0.90424223943E-01  0.26983068390E+01  0.27128333542E+01  0.00000000000E+00 0. -1.
</event>
<event>
 5    1  0.8638872E+001  0.1598103E+01  0.7818608E-02  0.3355425E+00
         11   -1    0    0    0    0  0.00000000000E+00  0.00000000000E+00  0.39999999674E+01  0.40000000000E+01  0.51100000000E-03 0.  1.
    9000002   -1    0    0    0    0 -0.00000000000E+00 -0.00000000000E+00  0.00000000000E+00  0.93800000000E+00  0.93800000000E+00 0. -1.
         11    1    1    2    0    0 -0.35899797371E-01 -0.37154276461E-01  0.10120851417E+01  0.10134030939E+01  0.51100000000E-03 0.  1.
    9000002    1    1    2    0    0  0.83075982414E-01  0.29677804180E+00  0.64648847675E-01  0.98944544996E+00  0.93800000000E+00 0. -1.
         22    1    1    2    0    0 -0.47176185044E-01 -0.25962376534E+00  0.29232659780E+01  0.29351514561E+01  0.00000000000E+00 0.  1.
</event>
<event>
 5    1  0.7220939E+001  0.1599648E+01  0.7818608E-02  0.3353745E+00
         11   -1    0    0    0    0  0.00000000000E+00  0.00000000000E+00  0.39999999674E+01  0.40000000000E+01  0.51100000000E-03 0.  1.
    9000002   -1    0    0    0    0 -0.00000000000E+00 -0.00000000000E+00  0.00000000000E+00  0.93800000000E+00  0.93800000000E+00 0.  1.
         11    1    1    2    0    0  0.62203469685E-01  0.12017579858E+00  0.11755286359E+01  0.11832917346E+01  0.51100000000E-03 0.  1.
    9000002    1    1    2    0    0 -0.22233835387E+00 -0.38720218643E+00  0.13535723471E+00  0.10476284922E+01  0.93800000000E+00 0.  1.
         22    1    1    2    0    0  0.16013488419E+00  0.26702638785E+00  0.26891140968E+01  0.27070797732E+01  0.00000000000E+00 0.  1.
</event>
<event>
 5    1  0.7220939E+001  0.1599675E+01  0.7818608E-02  0.3353717E+00
         11   -1    0    0    0    0  0.00000000000E+00  0.00000000000E+00  0.39999999674E+01  0.40000000000E+01  0.51100000000E-03 0.  1.
    9000002   -1    0    0    0    0 -0.00000000000E+00 -0.00000000000E+00  0.00000000000E+00  0.93800000000E+00  0.93800000000E+00 0. -1.
         11    1    1    2    0    0 -0.28185507242E-01 -0.68739357367E-01  0.73139399493E+00  0.73515777831E+00  0.51100000000E-03 0.  1.
    9000002    1    1    2    0    0  0.14378561574E+00  0.36231163587E+00  0.10235912861E+00  0.10209140101E+01  0.93800000000E+00 0. -1.
         22    1    1    2    0    0 -0.11560010849E+00 -0.29357227851E+00  0.31662468438E+01  0.31819282116E+01  0.00000000000E+00 0.  1.
</event>
<event>
 5    1  0.7220939E+001  0.1599676E+01  0.7818608E-02  0.3353716E+00
         11   -1    0    0    0    0  0.00000000000E+00  0.00000000000E+00  0.39999999674E+01  0.40000000000E+01  0.51100000000E-03 0. -1.
    9000002   -1    0    0    0    0 -0.00000000000E+00 -0.00000000000E+00  0.00000000000E+00  0.93800000000E+00  0.93800000000E+00 0.  1.
         11    1    1    2    0    0  0.64489109921E-01  0.90726644729E-01  0.10250229235E+01  0.10310491861E+01  0.51100000000E-03 0. -1.
    9000002    1    1    2    0    0 -0.24019730149E+00 -0.34114756769E+00  0.11768563997E+00  0.10333297230E+01  0.93800000000E+00 0.  1.
         22    1    1    2    0    0  0.17570819157E+00  0.25042092296E+00  0.28572914039E+01  0.28736210909E+01  0.00000000000E+00 0. -1.
</event>
<event>
 5    1  0.7220939E+001  0.1566953E+01  0.7818608E-02  0.3390031E+00
         11   -1    0    0    0    0  0.00000000000E+00  0.00000000000E+00  0.39999999674E+01  0.40000000000E+01  0.51100000000E-03 0. -1.
    9000002   -1    0    0    0    0 -0.00000000000E+00 -0.00000000000E+00  0.00000000000E+00  0.93800000000E+00  0.93800000000E+00 0.  1.
         11    1    1    2    0    0  0.11705520701E+00 -0.11995328816E+00  0.11626833010E+01  0.11747014227E+01  0.51100000000E-03 0. -1.
    9000002    1    1    2    0    0  0.20758205886E+00  0.11037306473E+00  0.61953366895E-01  0.96899677205E+00  0.93800000000E+00 0.  1.
         22    1    1    2    0    0 -0.32463726587E+00  0.95802234316E-02  0.27753632994E+01  0.27943018053E+01  0.00000000000E+00 0. -1.
</event>
<event>
 5    1  0.7220939E+001  0.1599675E+01  0.7818608E-02  0.3353716E+00
         11   -1    0    0    0    0  0.00000000000E+00  0.00000000000E+00  0.39999999674E+01  0.40000000000E+01  0.51100000000E-03 0.  1.
    9000002   -1    0    0    0    0 -0.00000000000E+00 -0.00000000000E+00  0.00000000000E+00  0.93800000000E+00  0.93800000000E+00 0.  1.
         11    1    1    2    0    0 -0.13222560065E+00  0.57495212653E-01  0.12481204170E+01  0.12564211656E+01  0.51100000000E-03 0.  1.
    9000002    1    1    2    0    0  0.40909951583E+00 -0.17361049583E+00  0.13403272123E+00  0.10465714445E+01  0.93800000000E+00 0.  1.
         22    1    1    2    0    0 -0.27687391518E+00  0.11611528317E+00  0.26178468292E+01  0.26350073899E+01  0.00000000000E+00 0.  1.
</event>
<event>
 5    1  0.7220939E+001  0.1599599E+01  0.7818608E-02  0.3353799E+00
         11   -1    0    0    0    0  0.00000000000E+00  0.00000000000E+00  0.39999999674E+01  0.40000000000E+01  0.51100000000E-03 0. -1.
    9000002   -1    0    0    0    0 -0.00000000000E+00 -0.00000000000E+00  0.00000000000E+00  0.93800000000E+00  0.93800000000E+00 0.  1.
         11    1    1    2    0    0 -0.13100827423E+00  0.66832884075E-01  0.13560552705E+01  0.13640073167E+01  0.51100000000E-03 0. -1.
    9000002    1    1    2    0    0  0.34699682053E+00 -0.19151402656E+00  0.10597184640E+00  0.10237960969E+01  0.93800000000E+00 0.  1.
         22    1    1    2    0    0 -0.21598854630E+00  0.12468114249E+00  0.25379728505E+01  0.25501965864E+01  0.00000000000E+00 0. -1.
</event>
<event>
 5    1  0.7220939E+001  0.1599676E+01  0.7818608E-02  0.3353715E+00
         11   -1    0    0    0    0  0.00000000000E+00  0.00000000000E+00  0.39999999674E+01  0.40000000000E+01  0.51100000000E-03 0. -1.
    9000002   -1    0    0    0    0 -0.00000000000E+00 -0.00000000000E+00  0.00000000000E+00  0.93800000000E+00  0.93800000000E+00 0.  1.
         11    1    1    2    0    0 -0.24109417222E+00 -0.50465498448E-01  0.14611809501E+01  0.14817972858E+01  0.51100000000E-03 0. -1.
    9000002    1    1    2    0    0  0.61545738469E+00  0.12663494903E+00  0.27719967275E+00  0.11625437029E+01  0.93800000000E+00 0.  1.
         22    1    1    2    0    0 -0.37436321246E+00 -0.76169450579E-01  0.22616193446E+01  0.22936590112E+01  0.00000000000E+00 0. -1.
</event>
<event>
 5    1  0.7220939E+001  0.1594411E+01  0.7818608E-02  0.3359452E+00
         11   -1    0    0    0    0  0.00000000000E+00  0.00000000000E+00  0.39999999674E+01  0.40000000000E+01  0.51100000000E-03 0.  1.
    9000002   -1    0    0    0    0 -0.00000000000E+00 -0.00000000000E+00  0.00000000000E+00  0.93800000000E+00  0.93800000000E+00 0.  1.
         11    1    1    2    0    0  0.29073528581E-02 -0.37762015127E-01  0.14795197407E+01  0.14800045090E+01  0.51100000000E-03 0.  1.
    9000002    1    1    2    0    0  0.80601839694E-01  0.30741633470E+00  0.71667751982E-01  0.99296612534E+00  0.93800000000E+00 0.  1.
         22    1    1    2    0    0 -0.83509192552E-01 -0.26965431957E+00  0.24488124747E+01  0.24650293657E+01  0.00000000000E+00 0.  1.
</event>
<event>
 5    1  0.7220939E+001  0.1557581E+01  0.7818608E-02  0.3400731E+00
         11   -1    0    0    0    0  0.00000000000E+00  0.00000000000E+00  0.39999999674E+01  0.40000000000E+01  0.51100000000E-03 0. -1.
    9000002   -1    0    0    0    0 -0.00000000000E+00 -0.00000000000E+00  0.00000000000E+00  0.93800000000E+00  0.93800000000E+00 0. -1.
         11    1    1    2    0    0 -0.57264505119E-02  0.20311386957E+00  0.12286885471E+01  0.12453769884E+01  0.51100000000E-03 0. -1.
    9000002    1    1    2    0    0  0.17381702312E+00  0.65566706917E-01  0.54908793122E-01  0.95779451144E+00  0.93800000000E+00 0. -1.
         22    1    1    2    0    0 -0.16809057261E+00 -0.26868057648E+00  0.27164026271E+01  0.27348285002E+01  0.00000000000E+00 0. -1.
</event>
<event>
 5    1  0.7220939E+001  0.1588803E+01  0.7818608E-02  0.3365606E+00
         11   -1    0    0    0    0  0.00000000000E+00  0.00000000000E+00  0.39999999674E+01  0.40000000000E+01  0.51100000000E-03 0.  1.
    9000002   -1    0    0    0    0 -0.00000000000E+00 -0.00000000000E+00  0.00000000000E+00  0.93800000000E+00  0.93800000000E+00 0. -1.
         11    1    1    2    0    0 -0.42640335472E-01  0.23255851959E-01  0.26027230346E+00  0.26476587002E+00  0.51100000000E-03 0.  1.
    9000002    1    1    2    0    0 -0.30121240295E+00 -0.32291871074E+00  0.14167172631E+00  0.10463843861E+01  0.93800000000E+00 0. -1.
         22    1    1    2    0    0  0.34385273842E+00  0.29966285878E+00  0.35980559376E+01  0.36268497439E+01  0.00000000000E+00 0.  1.
</event>
<event>
 5    1  0.7220939E+001  0.1580476E+01  0.7818608E-02  0.3374830E+00
         11   -1    0    0    0    0  0.00000000000E+00  0.00000000000E+00  0.39999999674E+01  0.40000000000E+01  0.51100000000E-03 0. -1.
    9000002   -1    0    0    0    0 -0.00000000000E+00 -0.00000000000E+00  0.00000000000E+00  0.93800000000E+00  0.93800000000E+00 0.  1.
         11    1    1    2    0    0  0.11051770709E-01 -0.15883752893E+00  0.48860295552E+00  0.51389163400E+00  0.51100000000E-03 0. -1.
    9000002    1    1    2    0    0 -0.52889302030E+00  0.45451403053E+00  0.36908321487E+00  0.12257149956E+01  0.93800000000E+00 0.  1.
         22    1    1    2    0    0  0.51784124959E+00 -0.29567650160E+00  0.31423137970E+01  0.31983933704E+01  0.00000000000E+00 0. -1.
</event>
<event>
 5    1  0.7220939E+001  0.1599675E+01  0.7818608E-02  0.3353716E+00
         11   -1    0    0    0    0  0.00000000000E+00  0.00000000000E+00  0.39999999674E+01  0.40000000000E+01  0.51100000000E-03 0. -1.
    9000002   -1    0    0    0    0 -0.00000000000E+00 -0.00000000000E+00  0.00000000000E+00  0.93800000000E+00  0.93800000000E+00 0. -1.
         11    1    1    2    0    0 -0.11460263057E+00  0.30045204171E+00  0.13313837140E+01  0.13696671302E+01  0.51100000000E-03 0. -1.
    9000002    1    1    2    0    0  0.29919148715E+00 -0.78698312878E+00  0.53002666522E+00  0.13673442349E+01  0.93800000000E+00 0. -1.
         22    1    1    2    0    0 -0.18458885658E+00  0.48653108707E+00  0.21385895881E+01  0.22009886349E+01  0.00000000000E+00 0. -1.
</event>
<event>
 5    1  0.7220939E+001  0.1598373E+01  0.7818608E-02  0.3355131E+00
         11   -1    0    0    0    0  0.00000000000E+00  0.00000000000E+00  0.39999999674E+01  0.40000000000E+01  0.51100000000E-03 0. -1.
    9000002   -1    0    0    0    0 -0.00000000000E+00 -0.00000000000E+00  0.00000000000E+00  0.93800000000E+00  0.93800000000E+00 0. -1.
         11    1    1    2    0    0 -0.63019009588E-01 -0.21585743389E-01  0.40207748181E+00  0.40755846500E+00  0.51100000000E-03 0. -1.
    9000002    1    1    2    0    0  0.35401871051E+00  0.25302676457E+00  0.12944272355E+00  0.10420898280E+01  0.93800000000E+00 0. -1.
         22    1    1    2    0    0 -0.29099970092E+00 -0.23144102118E+00  0.34684797620E+01  0.34883517070E+01  0.00000000000E+00 0. -1.
</event>
<event>
 5    1  0.7220939E+001  0.1463162E+01  0.7818608E-02  0.3516735E+00
         11   -1    0    0    0    0  0.00000000000E+00  0.00000000000E+00  0.39999999674E+01  0.40000000000E+01  0.51100000000E-03 0. -1.
    9000002   -1    0    0    0    0 -0.00000000000E+00 -0.00000000000E+00  0.00000000000E+00  0.93800000000E+00  0.93800000000E+00 0. -1.
         11    1    1    2    0    0 -0.48350699849E+00 -0.88327128689E-02  0.14001230266E+01  0.14812838300E+01  0.51100000000E-03 0. -1.
    9000002    1    1    2    0    0  0.36280029124E-01 -0.15766277031E+00  0.15340079924E+00  0.96413152363E+00  0.93800000000E+00 0. -1.
         22    1    1    2    0    0  0.44722696937E+00  0.16649548317E+00  0.24464761415E+01  0.24925846463E+01  0.00000000000E+00 0. -1.
</event>
<event>
 5    1  0.7220939E+001  0.1599649E+01  0.7818608E-02  0.3353744E+00
         11   -1    0    0    0    0  0.00000000000E+00  0.00000000000E+00  0.39999999674E+01  0.40000000000E+01  0.51100000000E-03 0.  1.
    9000002   -1    0    0    0    0 -0.00000000000E+00 -0.00000000000E+00  0.00000000000E+00  0.93800000000E+00  0.93800000000E+00 0.  1.
         11    1    1    2    0    0  0.17271098713E-01 -0.31520471291E-02  0.14610733831E+00  0.14715923920E+00  0.51100000000E-03 0.  1.
    9000002    1    1    2    0    0 -0.40443553853E+00  0.11556613828E+00  0.11968770752E+00  0.10349361258E+01  0.93800000000E+00 0.  1.
         22    1    1    2    0    0  0.38716443981E+00 -0.11241409115E+00  0.37342049215E+01  0.37559046350E+01  0.00000000000E+00 0.  1.
</event>
<event>
 5    1  0.7220939E+001  0.1592297E+01  0.7818608E-02  0.3361767E+00
         11   -1    0    0    0    0  0.00000000000E+00  0.00000000000E+00  0.39999999674E+01  0.40000000000E+01  0.51100000000E-03 0. -1.
    9000002   -1    0    0    0    0 -0.00000000000E+00 -0.00000000000E+00  0.00000000000E+00  0.93800000000E+00  0.93800000000E+00 0. -1.
         11    1    1    2    0    0 -0.21926229341E-01 -0.10668404258E-01  0.11019732092E+01  0.11022430718E+01  0.51100000000E-03 0. -1.
    9000002    1    1    2    0    0 -0.20567683834E+00  0.20990641396E+00  0.63362125440E-01  0.98499869208E+00  0.93800000000E+00 0. -1.
         22    1    1    2    0    0  0.22760306768E+00 -0.19923800970E+00  0.28346646327E+01  0.28507582361E+01  0.00000000000E+00 0. -1.
</event>
<event>
 5    1  0.7220939E+001  0.1599194E+01  0.7818608E-02  0.3354238E+00
         11   -1    0    0    0    0  0.00000000000E+00  0.00000000000E+00  0.39999999674E+01  0.40000000000E+01  0.51100000000E-03 0.  1.
    9000002   -1    0    0    0    0 -0.00000000000E+00 -0.00000000000E+00  0.00000000000E+00  0.93800000000E+00  0.93800000000E+00 0. -1.
         11    1    1    2    0    0  0.15303669220E+00  0.98299291523E-01  0.13782904083E+01  0.13902401557E+01  0.51100000000E-03 0.  1.
    9000002    1    1    2    0    0 -0.37644717655E+00 -0.32403111611E+00  0.16922621933E+00  0.10747977271E+01  0.93800000000E+00 0. -1.
         22    1    1    2    0    0  0.22341048436E+00  0.22573182459E+00  0.24524833398E+01  0.24729621172E+01  0.00000000000E+00 0.  1.
</event>
<event>
 5    1  0.9452116E+001  0.1531734E+01  0.7818608E-02  0.3430961E+00
         11   -1    0    0    0    0  0.00000000000E+00  0.00000000000E+00  0.39999999674E+01  0.40000000000E+01  0.51100000000E-03 0. -1.
    9000002   -1    0    0    0    0 -0.00000000000E+00 -0.00000000000E+00  0.00000000000E+00  0.93800000000E+00  0.93800000000E+00 0. -1.
         11    1    1    2    0    0  0.89594662306E-01 -0.26899496465E+00  0.13819629887E+01  0.14107471275E+01  0.51100000000E-03 0. -1.
    9000002    1    1    2    0    0  0.57792051375E-02 -0.45868532948E-01  0.52390027981E-01  0.94059876491E+00  0.93800000000E+00 0. -1.
         22    1    1    2    0    0 -0.95373867444E-01  0.31486349760E+00  0.25656469507E+01  0.25866541076E+01  0.00000000000E+00 0. -1.
</event>
<event>
 5    1  0.7220939E+001  0.1599674E+01  0.7818608E-02  0.3353717E+00
         11   -1    0    0    0    0  0.00000000000E+00  0.00000000000E+00  0.39999999674E+01  0.40000000000E+01  0.51100000000E-03 0. -1.
    9000002   -1    0    0    0    0 -0.00000000000E+00 -0.00000000000E+00  0.00000000000E+00  0.93800000000E+00  0.93800000000E+00 0. -1.
         11    1    1    2    0    0 -0.16943810687E-01 -0.85640675808E-01  0.83716081913E+00  0.84170060965E+00  0.51100000000E-03 0. -1.
    9000002    1    1    2    0    0  0.77356533695E-01  0.39025820367E+00  0.10674003593E+00  0.10244622658E+01  0.93800000000E+00 0. -1.
         22    1    1    2    0    0 -0.60412723008E-01 -0.30461752786E+00  0.30560991123E+01  0.30718371245E+01  0.00000000000E+00 0. -1.
</event>
<event>
 5    1  0.7220939E+001  0.1590386E+01  0.7818608E-02  0.3363865E+00
         11   -1    0    0    0    0  0.00000000000E+00  0.00000000000E+00  0.39999999674E+01  0.40000000000E+01  0.51100000000E-03 0. -1.
    9000002   -1    0    0    0    0 -0.00000000000E+00 -0.00000000000E+00  0.00000000000E+00  0.93800000000E+00  0.93800000000E+00 0. -1.
         11    1    1    2    0    0  0.37123928966E-01 -0.17119498154E-01  0.10706960854E+01  0.10714763794E+01  0.51100000000E-03 0. -1.
    9000002    1    1    2    0    0  0.23599895886E+00 -0.13287599005E-01  0.44170751219E-01  0.96833213524E+00  0.93800000000E+00 0. -1.
         22    1    1    2    0    0 -0.27312288782E+00  0.30407097159E-01  0.28851331308E+01  0.28981914853E+01  0.00000000000E+00 0. -1.
</event>
<event>
 5    1  0.7220939E+001  0.1451880E+01  0.7818608E-02  0.3531688E+00
         11   -1    0    0    0    0  0.00000000000E+00  0.00000000000E+00  0.39999999674E+01  0.40000000000E+01  0.51100000000E-03 0. -1.
    9000002   -1    0    0    0    0 -0.00000000000E+00 -0.00000000000E+00  0.00000000000E+00  0.93800000000E+00  0.93800000000E+00 0.  1.
         11    1    1    2    0    0  0.25359444697E+00 -0.15741874199E+00  0.66326093585E+00  0.72732807866E+00  0.51100000000E-03 0. -1.
    9000002    1    1    2    0    0  0.30305524868E+00 -0.10905859362E+00  0.19735353910E+00  0.10112016021E+01  0.93800000000E+00 0.  1.
         22    1    1    2    0    0 -0.55664969565E+00  0.26647733560E+00  0.31393854924E+01  0.31994703193E+01  0.00000000000E+00 0. -1.
</event>
<event>
 5    1  0.7220939E+001  0.1599647E+01  0.7818608E-02  0.3353746E+00
         11   -1    0    0    0    0  0.00000000000E+00  0.00000000000E+00  0.39999999674E+01  0.40000000000E+01  0.51100000000E-03 0. -1.
    9000002   -1    0    0    0    0 -0.00000000000E+00 -0.00000000000E+00  0.00000000000E+00  0.93800000000E+00  0.93800000000E+00 0. -1.
         11    1    1    2    0    0  0.13328263659E+00  0.36944748161E-01  0.13673966583E+01  0.13743736966E+01  0.51100000000E-03 0. -1.
    9000002    1    1    2    0    0 -0.36824707054E+00 -0.11879609983E+00  0.10084662766E+00  0.10196727223E+01  0.93800000000E+00 0. -1.
         22    1    1    2    0    0  0.23496443394E+00  0.81851351669E-01  0.25317566814E+01  0.25439535811E+01  0.00000000000E+00 0. -1.
</event>
<event>
 5    1  0.7220939E+001  0.1582119E+01  0.7818608E-02  0.3373003E+00
         11   -1    0    0    0    0  0.00000000000E+00  0.00000000000E+00  0.39999999674E+01  0.40000000000E+01  0.51100000000E-03 0. -1.
    9000002   -1    0    0    0    0 -0.00000000000E+00 -0.00000000000E+00  0.00000000000E+00  0.93800000000E+00  0.93800000000E+00 0. -1.
         11    1    1    2    0    0  0.18783339100E+00 -0.22645326906E+00  0.14540995791E+01  0.14835660797E+01  0.51100000000E-03 0. -1.
    9000002    1    1    2    0    0 -0.40363088976E+00  0.19898462578E+00  0.15286869452E+00  0.10515348849E+01  0.93800000000E+00 0. -1.
         22    1    1    2    0    0  0.21579749876E+00  0.27468643281E-01  0.23930316937E+01  0.24028990353E+01  0.00000000000E+00 0. -1.
</event>
<event>
 5    1  0.8582503E+001  0.1553804E+01  0.7818608E-02  0.3405081E+00
         11   -1    0    0    0    0  0.00000000000E+00  0.00000000000E+00  0.39999999674E+01  0.40000000000E+01  0.51100000000E-03 0.  1.
    9000002   -1    0    0    0    0 -0.00000000000E+00 -0.00000000000E+00  0.00000000000E+00  0.93800000000E+00  0.93800000000E+00 0. -1.
         11    1    1    2    0    0 -0.22695158275E+00 -0.36616343327E-01  0.13622518528E+01  0.13815129927E+01  0.51100000000E-03 0.  1.
    9000002    1    1    2    0    0  0.33478469251E-02 -0.17034940111E+00  0.54043761304E-01  0.95487949746E+00  0.93800000000E+00 0. -1.
         22    1    1    2    0    0  0.22360373583E+00  0.20696574443E+00  0.25837043533E+01  0.26016075098E+01  0.00000000000E+00 0.  1.
</event>
<event>
 5    1  0.7220939E+001  0.1599282E+01  0.7818608E-02  0.3354143E+00
         11   -1    0    0    0    0  0.00000000000E+00  0.00000000000E+00  0.39999999674E+01  0.40000000000E+01  0.51100000000E-03 0.  1.
    9000002   -1    0    0    0    0 -0.00000000000E+00 -0.00000000000E+00  0.00000000000E+00  0.93800000000E+00  0.93800000000E+00 0.  1.
         11    1    1    2    0    0  0.22167743162E-01  0.12986648326E+00  0.14026155766E+01  0.14087893488E+01  0.51100000000E-03 0.  1.
    9000002    1    1    2    0    0 -0.12409539744E+00 -0.34750809947E+00  0.91817354815E-01  0.10121442454E+01  0.93800000000E+00 0.  1.
         22    1    1    2    0    0  0.10192765428E+00  0.21764161621E+00  0.25055670359E+01  0.25170664058E+01  0.00000000000E+00 0.  1.
</event>
<event>
 5    1  0.7220939E+001  0.1599667E+01  0.7818608E-02  0.3353725E+00
         11   -1    0    0    0    0  0.00000000000E+00  0.00000000000E+00  0.39999999674E+01  0.40000000000E+01  0.51100000000E-03 0.  1.
    9000002   -1    0    0    0    0 -0.00000000000E+00 -0.00000000000E+00  0.00000000000E+00  0.93800000000E+00  0.93800000000E+00 0.  1.
         11    1    1    2    0    0  0.18742060381E+00 -0.55324878450E-01  0.13499749833E+01  0.13640454690E+01  0.51100000000E-03 0.  1.
    9000002    1    1    2    0    0 -0.52740435613E+00  0.14533008475E+00  0.20660470712E+00  0.11053531985E+01  0.93800000000E+00 0.  1.
         22    1    1    2    0    0  0.33998375232E+00 -0.90005206302E-01  0.24434202770E+01  0.24686013325E+01  0.00000000000E+00 0. -1.
</event>
<event>
 5    1  0.7220939E+001  0.1596729E+01  0.7818608E-02  0.3356921E+00
         11   -1    0    0    0    0  0.00000000000E+00  0.00000000000E+00  0.39999999674E+01  0.40000000000E+01  0.51100000000E-03 0.  1.
    9000002   -1    0    0    0    0 -0.00000000000E+00 -0.00000000000E+00  0.00000000000E+00  0.93800000000E+00  0.93800000000E+00 0. -1.
         11    1    1    2    0    0  0.27758352519E-01  0.74488267526E-01  0.10073801283E+01  0.10105117576E+01  0.51100000000E-03 0.  1.
    9000002    1    1    2    0    0  0.74975927379E-01 -0.41230273050E+00  0.12124476977E+00  0.10344850049E+01  0.93800000000E+00 0. -1.
         22    1    1    2    0    0 -0.10273427990E+00  0.33781446297E+00  0.28713750693E+01  0.28930032375E+01  0.00000000000E+00 0.  1.
</event>
<event>
 5    1  0.7220939E+001  0.1599666E+01  0.7818608E-02  0.3353726E+00
         11   -1    0    0    0    0  0.00000000000E+00  0.00000000000E+00  0.39999999674E+01  0.40000000000E+01  0.51100000000E-03 0. -1.
    9000002   -1    0    0    0    0 -0.00000000000E+00 -0.00000000000E+00  0.00000000000E+00  0.93800000000E+00  0.93800000000E+00 0. -1.
         11    1    1    2    0    0 -0.40721842741E-01  0.92441479277E-01  0.10414200791E+01  0.10463076688E+01  0.51100000000E-03 0. -1.
    9000002    1    1    2    0    0  0.16383045597E+00 -0.33970667997E+00  0.95681489730E-01  0.10154998740E+01  0.93800000000E+00 0. -1.
         22    1    1    2    0    0 -0.12310861323E+00  0.24726520069E+00  0.28628983986E+01  0.28761924572E+01  0.00000000000E+00 0. -1.
</event>
<event>
 5    1  0.7220939E+001  0.1591665E+01  0.7818608E-02  0.3362459E+00
         11   -1    0    0    0    0  0.00000000000E+00  0.00000000000E+00  0.39999999674E+01  0.40000000000E+01  0.51100000000E-03 0. -1.
    9000002   -1    0    0    0    0 -0.00000000000E+00 -0.00000000000E+00  0.00000000000E+00  0.93800000000E+00  0.93800000000E+00 0.  1.
         11    1    1    2    0    0 -0.11856342374E+00  0.13067118356E+00  0.91591534535E+00  0.93275582262E+00  0.51100000000E-03 0. -1.
    9000002    1    1    2    0    0  0.39448879767E+00 -0.17757407537E+00  0.13365241016E+00  0.10415665752E+01  0.93800000000E+00 0.  1.
         22    1    1    2    0    0 -0.27592537393E+00  0.46902891813E-01  0.29504322118E+01  0.29636776022E+01  0.00000000000E+00 0. -1.
</event>
<event>
 5    1  0.7220939E+001  0.1599677E+01  0.7818608E-02  0.3353714E+00
         11   -1    0    0    0    0  0.00000000000E+00  0.00000000000E+00  0.39999999674E+01  0.40000000000E+01  0.51100000000E-03 0.  1.
    9000002   -1    0    0    0    0 -0.00000000000E+00 -0.00000000000E+00  0.00000000000E+00  0.93800000000E+00  0.93800000000E+00 0. -1.
         11    1    1    2    0    0 -0.13925714050E-02 -0.81197456986E-01  0.83881081359E+00  0.84273294013E+00  0.51100000000E-03 0. -1.
    9000002    1    1    2    0    0  0.47658545166E-02  0.37891266768E+00  0.96606075715E-01  0.10162550157E+01  0.93800000000E+00 0. -1.
         22    1    1    2    0    0 -0.33732831116E-02 -0.29771521069E+00  0.30645830781E+01  0.30790120442E+01  0.00000000000E+00 0.  1.
</event>
<event>
 5    1  0.7220939E+001  0.1592329E+01  0.7818608E-02  0.3361731E+00
         11   -1    0    0    0    0  0.00000000000E+00  0.00000000000E+00  0.39999999674E+01  0.40000000000E+01  0.51100000000E-03 0.  1.
    9000002   -1    0    0    0    0 -0.00000000000E+00 -0.00000000000E+00  0.00000000000E+00  0.93800000000E+00  0.93800000000E+00 0. -1.
         11    1    1    2    0    0  0.24896455109E+00  0.15255421023E-02  0.11353603501E+01  0.11623377567E+01  0.51100000000E-03 0.  1.
    9000002    1    1    2    0    0 -0.51507796970E+00 -0.80868985527E-02  0.18887215657E+00  0.10866864333E+01  0.93800000000E+00 0. -1.
         22    1    1    2    0    0  0.26611341861E+00  0.65613564504E-02  0.26757674607E+01  0.26889758100E+01  0.00000000000E+00 0.  1.
</event>
<event>
 5    1  0.7220939E+001  0.1598766E+01  0.7818608E-02  0.3354704E+00
         11   -1    0    0    0    0  0.00000000000E+00  0.00000000000E+00  0.39999999674E+01  0.40000000000E+01  0.51100000000E-03 0. -1.
    9000002   -1    0    0    0    0 -0.00000000000E+00 -0.00000000000E+00  0.00000000000E+00  0.93800000000E+00  0.93800000000E+00 0. -1.
         11    1    1    2    0    0 -0.17117092164E-01 -0.63936421171E-01  0.31952236015E+00  0.32630608415E+00  0.51100000000E-03 0. -1.
    9000002    1    1    2    0    0 -0.21315392582E-01  0.65057186945E+00  0.30000886852E+00  0.11804860967E+01  0.93800000000E+00 0. -1.
         22    1    1    2    0    0  0.38432484746E-01 -0.58663544828E+00  0.33804687387E+01  0.34312078192E+01  0.00000000000E+00 0. -1.
</event>
<event>
 5    1  0.7220939E+001  0.1599670E+01  0.7818608E-02  0.3353722E+00
         11   -1    0    0    0    0  0.00000000000E+00  0.00000000000E+00  0.39999999674E+01  0.40000000000E+01  0.51100000000E-03 0.  1.
    9000002   -1    0    0    0    0 -0.00000000000E+00 -0.00000000000E+00  0.00000000000E+00  0.93800000000E+00  0.93800000000E+00 0.  1.
         11    1    1    2    0    0 -0.93592939200E-01 -0.43765480207E-01  0.40682138464E+00  0.41973676947E+00  0.51100000000E-03 0.  1.
    9000002    1    1    2    0    0  0.79975225495E+00  0.37456325744E+00  0.59270456108E+00  0.14181128304E+01  0.93800000000E+00 0.  1.
         22    1    1    2    0    0 -0.70615931575E+00 -0.33079777724E+00  0.30004740216E+01  0.31001504001E+01  0.00000000000E+00 0.  1.
</event>
<event>
 5    1  0.7220939E+001  0.1599675E+01  0.7818608E-02  0.3353717E+00
         11   -1    0    0    0    0  0.00000000000E+00  0.00000000000E+00  0.39999999674E+01  0.40000000000E+01  0.51100000000E-03 0.  1.
    9000002   -1    0    0    0    0 -0.00000000000E+00 -0.00000000000E+00  0.00000000000E+00  0.93800000000E+00  0.93800000000E+00 0.  1.
         11    1    1    2    0    0  0.36976803445E-01 -0.15566192624E-01  0.27178204194E+00  0.27472773757E+00  0.51100000000E-03 0.  1.
    9000002    1    1    2    0    0 -0.52390171996E+00  0.22286998943E+00  0.22473177132E+00  0.11200412552E+01  0.93800000000E+00 0.  1.
         22    1    1    2    0    0  0.48692491651E+00 -0.20730379681E+00  0.35034861541E+01  0.35432310072E+01  0.00000000000E+00 0.  1.
</event>
<event>
 5    1  0.7220939E+001  0.1599554E+01  0.7818608E-02  0.3353847E+00
         11   -1    0    0    0    0  0.00000000000E+00  0.00000000000E+00  0.39999999674E+01  0.40000000000E+01  0.51100000000E-03 0. -1.
    9000002   -1    0    0    0    0 -0.00000000000E+00 -0.00000000000E+00  0.00000000000E+00  0.93800000000E+00  0.93800000000E+00 0.  1.
         11    1    1    2    0    0 -0.29195561013E-01 -0.10774462036E+00  0.92596286838E+00  0.93266756068E+00  0.51100000000E-03 0. -1.
    9000002    1    1    2    0    0  0.12742189104E+00  0.49187480656E+00  0.17709149289E+00  0.10813799335E+01  0.93800000000E+00 0.  1.
         22    1    1    2    0    0 -0.98226330024E-01 -0.38413018621E+00  0.28969456061E+01  0.29239525059E+01  0.00000000000E+00 0. -1.
</event>
<event>
 5    1  0.1049731E+002  0.1545440E+01  0.7818608E-02  0.3414797E+00
         11   -1    0    0    0    0  0.00000000000E+00  0.00000000000E+00  0.39999999674E+01  0.40000000000E+01  0.51100000000E-03 0. -1.
    9000002   -1    0    0    0    0 -0.00000000000E+00 -0.00000000000E+00  0.00000000000E+00  0.93800000000E+00  0.93800000000E+00 0. -1.
         11    1    1    2    0    0  0.15034244818E+00 -0.18920924684E+00  0.10633852263E+01  0.10905005234E+01  0.51100000000E-03 0. -1.
    9000002    1    1    2    0    0 -0.18940492800E-01 -0.48361008298E-01  0.42204220801E-01  0.94038434996E+00  0.93800000000E+00 0. -1.
         22    1    1    2    0    0 -0.13140195538E+00  0.23757025513E+00  0.28944105203E+01  0.29071151267E+01  0.00000000000E+00 0. -1.
</event>
<event>
 5    1  0.7220939E+001  0.1599663E+01  0.7818608E-02  0.3353729E+00
         11   -1    0    0    0    0  0.00000000000E+00  0.00000000000E+00  0.39999999674E+01  0.40000000000E+01  0.51100000000E-03 0. -1.
    9000002   -1    0    0    0    0 -0.00000000000E+00 -0.00000000000E+00  0.00000000000E+00  0.93800000000E+00  0.93800000000E+00 0.  1.
         11    1    1    2    0    0  0.35112294248E-01 -0.11248832149E+00  0.68689934502E+00  0.69693433478E+00  0.51100000000E-03 0. -1.
    9000002    1    1    2    0    0 -0.20766010632E+00  0.61102057164E+00  0.29356869852E+00  0.11757956623E+01  0.93800000000E+00 0.  1.
         22    1    1    2    0    0  0.17254781208E+00 -0.49853225015E+00  0.30195319238E+01  0.30652700029E+01  0.00000000000E+00 0. -1.
</event>
<event>
 5    1  0.7220939E+001  0.1599660E+01  0.7818608E-02  0.3353733E+00
         11   -1    0    0    0    0  0.00000000000E+00  0.00000000000E+00  0.39999999674E+01  0.40000000000E+01  0.51100000000E-03 0. -1.
    9000002   -1    0    0    0    0 -0.00000000000E+00 -0.00000000000E+00  0.00000000000E+00  0.93800000000E+00  0.93800000000E+00 0. -1.
         11    1    1    2    0    0 -0.23956207493E-02 -0.15799292095E-01  0.11407632247E+00  0.11519125444E+00  0.51100000000E-03 0. -1.
    9000002    1    1    2    0    0  0.29883219827E-01  0.50735753278E+00  0.17708706760E+00  0.10814381639E+01  0.93800000000E+00 0. -1.
         22    1    1    2    0    0 -0.27487599078E-01 -0.49155824068E+00  0.37088365773E+01  0.37413705816E+01  0.00000000000E+00 0. -1.
</event>
<event>
 5    1  0.7220939E+001  0.1592520E+01  0.7818608E-02  0.3361523E+00
         11   -1    0    0    0    0  0.00000000000E+00  0.00000000000E+00  0.39999999674E+01  0.40000000000E+01  0.51100000000E-03 0.  1.
    9000002   -1    0    0    0    0 -0.00000000000E+00 -0.00000000000E+00  0.00000000000E+00  0.93800000000E+00  0.93800000000E+00 0. -1.
         11    1    1    2    0    0 -0.58298401029E-02  0.62974139244E-01  0.12391528593E+01  0.12407658115E+01  0.51100000000E-03 0.  1.
    9000002    1    1    2    0    0  0.31651273284E+00 -0.21521680317E+00  0.10451173954E+00  0.10184622163E+01  0.93800000000E+00 0. -1.
         22    1    1    2    0    0 -0.31068289273E+00  0.15224266393E+00  0.26563353686E+01  0.26787719722E+01  0.00000000000E+00 0.  1.
</event>
<event>
 5    1  0.7220939E+001  0.1587833E+01  0.7818608E-02  0.3366676E+00
         11   -1    0    0    0    0  0.00000000000E+00  0.00000000000E+00  0.39999999674E+01  0.40000000000E+01  0.51100000000E-03 0.  1.
    9000002   -1    0    0    0    0 -0.00000000000E+00 -0.00000000000E+00  0.00000000000E+00  0.93800000000E+00  0.93800000000E+00 0. -1.
         11    1    1    2    0    0  0.95925132240E-01 -0.13194463179E+00  0.14450779340E+01  0.14542563438E+01  0.51100000000E-03 0.  1.
    9000002    1    1    2    0    0 -0.35221157816E+00  0.27755194877E-01  0.93344169360E-01  0.10066680091E+01  0.93800000000E+00 0. -1.
         22    1    1    2    0    0  0.25628644591E+00  0.10418943692E+00  0.24615778640E+01  0.24770756471E+01  0.00000000000E+00 0.  1.
</event>
<event>
 5    1  0.7220939E+001  0.1599420E+01  0.7818608E-02  0.3353993E+00
         11   -1    0    0    0    0  0.00000000000E+00  0.00000000000E+00  0.39999999674E+01  0.40000000000E+01  0.51100000000E-03 0.  1.
    9000002   -1    0    0    0    0 -0.00000000000E+00 -0.00000000000E+00  0.00000000000E+00  0.93800000000E+00  0.93800000000E+00 0.  1.
         11    1    1    2    0    0  0.94411875754E-02  0.15563541587E-02  0.11379898626E+00  0.11420170164E+00  0.51100000000E-03 0.  1.
    9000002    1    1    2    0    0 -0.26529333133E+00 -0.26774187757E+00  0.95763186618E-01  0.10154215147E+01  0.93800000000E+00 0.  1.
         22    1    1    2    0    0  0.25585214376E+00  0.26618552342E+00  0.37904377945E+01  0.38083767836E+01  0.00000000000E+00 0.  1.
</event>
<event>
 5    1  0.7220939E+001  0.1593675E+01  0.7818608E-02  0.3360257E+00
         11   -1    0    0    0    0  0.00000000000E+00  0.00000000000E+00  0.39999999674E+01  0.40000000000E+01  0.51100000000E-03 0. -1.
    9000002   -1    0    0    0    0 -0.00000000000E+00 -0.00000000000E+00  0.00000000000E+00  0.93800000000E+00  0.93800000000E+00 0. -1.
         11    1    1    2    0    0 -0.62918253364E-01  0.26178111993E-01  0.47814796795E+00  0.48298006225E+00  0.51100000000E-03 0. -1.
    9000002    1    1    2    0    0  0.50987636614E-01 -0.40256922147E+00  0.11618209495E+00  0.10285932123E+01  0.93800000000E+00 0. -1.
         22    1    1    2    0    0  0.11930616750E-01  0.37639110948E+00  0.34056699045E+01  0.34264267255E+01  0.00000000000E+00 0. -1.
</event>
<event>
 5    1  0.7220939E+001  0.1599676E+01  0.7818608E-02  0.3353716E+00
         11   -1    0    0    0    0  0.00000000000E+00  0.00000000000E+00  0.39999999674E+01  0.40000000000E+01  0.51100000000E-03 0. -1.
    9000002   -1    0    0    0    0 -0.00000000000E+00 -0.00000000000E+00  0.00000000000E+00  0.93800000000E+00  0.93800000000E+00 0.  1.
         11    1    1    2    0    0  0.48283990302E-01 -0.15705005222E+00  0.14236233127E+01  0.14330735014E+01  0.51100000000E-03 0. -1.
    9000002    1    1    2    0    0 -0.12808862190E+00  0.42856201312E+00  0.13583300484E+00  0.10480299134E+01  0.93800000000E+00 0.  1.
         22    1    1    2    0    0  0.79804631595E-01 -0.27151196090E+00  0.24405436498E+01  0.24568965852E+01  0.00000000000E+00 0. -1.
</event>
<event>
 5    1  0.7220939E+001  0.1599676E+01  0.7818608E-02  0.3353715E+00
         11   -1    0    0    0    0  0.00000000000E+00  0.00000000000E+00  0.39999999674E+01  0.40000000000E+01  0.51100000000E-03 0. -1.
    9000002   -1    0    0    0    0 -0.00000000000E+00 -0.00000000000E+00  0.00000000000E+00  0.93800000000E+00  0.93800000000E+00 0. -1.
         11    1    1    2    0    0  0.77901113563E-01  0.35805756237E-01  0.71194455690E+00  0.71708852236E+00  0.51100000000E-03 0. -1.
    9000002    1    1    2    0    0 -0.42075241220E+00 -0.18966888541E+00  0.14492161604E+00  0.10553924167E+01  0.93800000000E+00 0. -1.
         22    1    1    2    0    0  0.34285129864E+00  0.15386312917E+00  0.31431337944E+01  0.31655190609E+01  0.00000000000E+00 0. -1.
</event>
<event>
 5    1  0.7220939E+001  0.1592750E+01  0.7818608E-02  0.3361270E+00
         11   -1    0    0    0    0  0.00000000000E+00  0.00000000000E+00  0.39999999674E+01  0.40000000000E+01  0.51100000000E-03 0.  1.
    9000002   -1    0    0    0    0 -0.00000000000E+00 -0.00000000000E+00  0.00000000000E+00  0.93800000000E+00  0.93800000000E+00 0. -1.
         11    1    1    2    0    0  0.35024418719E-01  0.37799051424E-01  0.13910804357E+01  0.13920346684E+01  0.51100000000E-03 0.  1.
    9000002    1    1    2    0    0 -0.30163481379E+00  0.73087225292E-01  0.69794833476E-01  0.99047494778E+00  0.93800000000E+00 0. -1.
         22    1    1    2    0    0  0.26661039507E+00 -0.11088627672E+00  0.25391246981E+01  0.25554903838E+01  0.00000000000E+00 0.  1.
</event>
<event>
 5    1  0.7220939E+001  0.1599594E+01  0.7818608E-02  0.3353804E+00
         11   -1    0    0    0    0  0.00000000000E+00  0.00000000000E+00  0.39999999674E+01  0.40000000000E+01  0.51100000000E-03 0. -1.
    9000002   -1    0    0    0    0 -0.00000000000E+00 -0.00000000000E+00  0.00000000000E+00  0.93800000000E+00  0.93800000000E+00 0. -1.
         11    1    1    2    0    0  0.37542099540E-01  0.20073181955E+00  0.13938546011E+01  0.14087347454E+01  0.51100000000E-03 0. -1.
    9000002    1    1    2    0    0 -0.98422437040E-01 -0.57117343438E+00  0.23345978516E+00  0.11270641240E+01  0.93800000000E+00 0. -1.
         22    1    1    2    0    0  0.60880337501E-01  0.37044161484E+00  0.23726855811E+01  0.24022011307E+01  0.00000000000E+00 0. -1.
</event>
<event>
 5    1  0.7220939E+001  0.1599657E+01  0.7818608E-02  0.3353735E+00
         11   -1    0    0    0    0  0.00000000000E+00  0.00000000000E+00  0.39999999674E+01  0.40000000000E+01  0.51100000000E-03 0. -1.
    9000002   -1    0    0    0    0 -0.00000000000E+00 -0.00000000000E+00  0.00000000000E+00  0.93800000000E+00  0.93800000000E+00 0. -1.
         11    1    1    2    0    0  0.74096779354E-02 -0.54719219539E-01  0.38240135953E+00  0.38636790395E+00  0.51100000000E-03 0. -1.
    9000002    1    1    2    0    0 -0.51976490722E-01  0.56399137656E+00  0.22229112492E+00  0.11180541904E+01  0.93800000000E+00 0. -1.
         22    1    1    2    0    0  0.44566812786E-01 -0.50927215702E+00  0.33953074829E+01  0.34335779057E+01  0.00000000000E+00 0. -1.
</event>
<event>
 5    1  0.7220939E+001  0.1599633E+01  0.7818608E-02  0.3353762E+00
         11   -1    0    0    0    0  0.00000000000E+00  0.00000000000E+00  0.39999999674E+01  0.40000000000E+01  0.51100000000E-03 0. -1.
    9000002   -1    0    0    0    0 -0.00000000000E+00 -0.00000000000E+00  0.00000000000E+00  0.93800000000E+00  0.93800000000E+00 0.  1.
         11    1    1    2    0    0 -0.23152244284E-01  0.14100046983E-01  0.15525177382E+00  0.15760143444E+00  0.51100000000E-03 0. -1.
    9000002    1    1    2    0    0  0.49627641151E+00 -0.30078670237E+00  0.23403783839E+00  0.11275551546E+01  0.93800000000E+00 0.  1.
         22    1    1    2    0    0 -0.47312416723E+00  0.28668665539E+00  0.36107103551E+01  0.36528434109E+01  0.00000000000E+00 0. -1.
</event>
<event>
 5    1  0.7220939E+001  0.1572137E+01  0.7818608E-02  0.3384172E+00
         11   -1    0    0    0    0  0.00000000000E+00  0.00000000000E+00  0.39999999674E+01  0.40000000000E+01  0.51100000000E-03 0. -1.
    9000002   -1    0    0    0    0 -0.00000000000E+00 -0.00000000000E+00  0.00000000000E+00  0.93800000000E+00  0.93800000000E+00 0.  1.
         11    1    1    2    0    0 -0.36279786799E+00  0.99128436361E-01  0.10105482157E+01  0.10782655969E+01  0.51100000000E-03 0. -1.
    9000002    1    1    2    0    0  0.68839762281E+00 -0.10706838153E+00  0.37798460325E+00  0.12280355393E+01  0.93800000000E+00 0.  1.
         22    1    1    2    0    0 -0.32559975482E+00  0.79399451641E-02  0.26114671484E+01  0.26316988639E+01  0.00000000000E+00 0. -1.
</event>
<event>
 5    1  0.7220939E+001  0.1584783E+01  0.7818608E-02  0.3370046E+00
         11   -1    0    0    0    0  0.00000000000E+00  0.00000000000E+00  0.39999999674E+01  0.40000000000E+01  0.51100000000E-03 0. -1.
    9000002   -1    0    0    0    0 -0.00000000000E+00 -0.00000000000E+00  0.00000000000E+00  0.93800000000E+00  0.93800000000E+00 0. -1.
         11    1    1    2    0    0  0.26437725781E-01  0.31274344057E-01  0.42859549010E+00  0.43054778271E+00  0.51100000000E-03 0. -1.
    9000002    1    1    2    0    0  0.12165422815E+00  0.46674933805E+00  0.17213595490E+00  0.10687045816E+01  0.93800000000E+00 0. -1.
         22    1    1    2    0    0 -0.14809195393E+00 -0.49802368211E+00  0.33992685224E+01  0.34387476357E+01  0.00000000000E+00 0. -1.
</event>
<event>
 5    1  0.7220939E+001  0.1599658E+01  0.7818608E-02  0.3353735E+00
         11   -1    0    0    0    0  0.00000000000E+00  0.00000000000E+00  0.39999999674E+01  0.40000000000E+01  0.51100000000E-03 0. -1.
    9000002   -1    0    0    0    0 -0.00000000000E+00 -0.00000000000E+00  0.00000000000E+00  0.93800000000E+00  0.93800000000E+00 0. -1.
         11    1    1    2    0    0 -0.14324502909E+00 -0.41044013735E-01  0.10694435939E+01  0.10797747965E+01  0.51100000000E-03 0. -1.
    9000002    1    1    2    0    0  0.51572081994E+00  0.16130558050E+00  0.20132956797E+00  0.11010744976E+01  0.93800000000E+00 0. -1.
         22    1    1    2    0    0 -0.37247579085E+00 -0.12026156677E+00  0.27292268055E+01  0.27571507059E+01  0.00000000000E+00 0. -1.
</event>
<event>
 5    1  0.7220939E+001  0.1599677E+01  0.7818608E-02  0.3353714E+00
         11   -1    0    0    0    0  0.00000000000E+00  0.00000000000E+00  0.39999999674E+01  0.40000000000E+01  0.51100000000E-03 0.  1.
    9000002   -1    0    0    0    0 -0.00000000000E+00 -0.00000000000E+00  0.00000000000E+00  0.93800000000E+00  0.93800000000E+00 0. -1.
         11    1    1    2    0    0  0.14132461024E-01 -0.12267636204E+00  0.13269028493E+01  0.13326367280E+01  0.51100000000E-03 0.  1.
    9000002    1    1    2    0    0 -0.40504147576E-01  0.36100085950E+00  0.88614468186E-01  0.10097815261E+01  0.93800000000E+00 0. -1.
         22    1    1    2    0    0  0.26371686552E-01 -0.23832449746E+00  0.25844826499E+01  0.25955817458E+01  0.00000000000E+00 0.  1.
</event>
<event>
 5    1  0.7220939E+001  0.1599498E+01  0.7818608E-02  0.3353909E+00
         11   -1    0    0    0    0  0.00000000000E+00  0.00000000000E+00  0.39999999674E+01  0.40000000000E+01  0.51100000000E-03 0.  1.
    9000002   -1    0    0    0    0 -0.00000000000E+00 -0.00000000000E+00  0.00000000000E+00  0.93800000000E+00  0.93800000000E+00 0. -1.
         11    1    1    2    0    0  0.78567067407E-01  0.26252632310E-01  0.93492340361E+00  0.93858617959E+00  0.51100000000E-03 0.  1.
    9000002    1    1    2    0    0 -0.37729395270E+00 -0.80320268156E-01  0.10033818694E+00  0.10191731080E+01  0.93800000000E+00 0. -1.
         22    1    1    2    0    0  0.29872688529E+00  0.54067635846E-01  0.29647383768E+01  0.29802407125E+01  0.00000000000E+00 0.  1.
</event>
<event>
 5    1  0.7220939E+001  0.1597101E+01  0.7818608E-02  0.3356516E+00
         11   -1    0    0    0    0  0.00000000000E+00  0.00000000000E+00  0.39999999674E+01  0.40000000000E+01  0.51100000000E-03 0.  1.
    9000002   -1    0    0    0    0 -0.00000000000E+00 -0.00000000000E+00  0.00000000000E+00  0.93800000000E+00  0.93800000000E+00 0. -1.
         11    1    1    2    0    0  0.16508972296E-01 -0.12733878320E-01  0.57563505545E-01  0.61225126500E-01  0.51100000000E-03 0.  1.
    9000002    1    1    2    0    0 -0.22965157903E+00  0.34930838196E+00  0.12033102830E+00  0.10339631279E+01  0.93800000000E+00 0. -1.
         22    1    1    2    0    0  0.21314260674E+00 -0.33657450364E+00  0.38221054335E+01  0.38428117456E+01  0.00000000000E+00 0.  1.
</event>
<event>
 5    1  0.7220939E+001  0.1593018E+01  0.7818608E-02  0.3360977E+00
         11   -1    0    0    0    0  0.00000000000E+00  0.00000000000E+00  0.39999999674E+01  0.40000000000E+01  0.51100000000E-03 0.  1.
    9000002   -1    0    0    0    0 -0.00000000000E+00 -0.00000000000E+00  0.00000000000E+00  0.93800000000E+00  0.93800000000E+00 0.  1.
         11    1    1    2    0    0 -0.24479931065E+00  0.23474764914E-01  0.13879488804E+01  0.14095673531E+01  0.51100000000E-03 0.  1.
    9000002    1    1    2    0    0  0.52024267413E+00  0.14792132595E+00  0.20796273439E+00  0.11025541518E+01  0.93800000000E+00 0.  1.
         22    1    1    2    0    0 -0.27544336348E+00 -0.17139609086E+00  0.24040883525E+01  0.24258784952E+01  0.00000000000E+00 0.  1.
</event>
<event>
 5    1  0.7220939E+001  0.1599659E+01  0.7818608E-02  0.3353733E+00
         11   -1    0    0    0    0  0.00000000000E+00  0.00000000000E+00  0.39999999674E+01  0.40000000000E+01  0.51100000000E-03 0.  1.
    9000002   -1    0    0    0    0 -0.00000000000E+00 -0.00000000000E+00  0.00000000000E+00  0.93800000000E+00  0.93800000000E+00 0.  1.
         11    1    1    2    0    0 -0.86252344958E-01 -0.13216704520E+00  0.13004453599E+01  0.13099870190E+01  0.51100000000E-03 0.  1.
    9000002    1    1    2    0    0  0.26362394942E+00  0.40172789997E+00  0.15756395528E+00  0.10656234290E+01  0.93800000000E+00 0.  1.
         22    1    1    2    0    0 -0.17737160446E+00 -0.26956085477E+00  0.25419906522E+01  0.25623895520E+01  0.00000000000E+00 0.  1.
</event>
<event>
 5    1  0.7220939E+001  0.1599496E+01  0.7818608E-02  0.3353911E+00
         11   -1    0    0    0    0  0.00000000000E+00  0.00000000000E+00  0.39999999674E+01  0.40000000000E+01  0.51100000000E-03 0.  1.
    9000002   -1    0    0    0    0 -0.00000000000E+00 -0.00000000000E+00  0.00000000000E+00  0.93800000000E+00  0.93800000000E+00 0.  1.
         11    1    1    2    0    0  0.19644714038E-01 -0.13130906575E-01  0.18515606909E+00  0.18665842210E+00  0.51100000000E-03 0.  1.
    9000002    1    1    2    0    0 -0.34422499532E+00  0.14949703567E+00  0.94857483209E-01  0.10147325525E+01  0.93800000000E+00 0.  1.
         22    1    1    2    0    0  0.32458028128E+00 -0.13636612909E+00  0.37199864151E+01  0.37366090254E+01  0.00000000000E+00 0.  1.
</event>
<event>
 5    1  0.7220939E+001  0.1599673E+01  0.7818608E-02  0.3353718E+00
         11   -1    0    0    0    0  0.00000000000E+00  0.00000000000E+00  0.39999999674E+01  0.40000000000E+01  0.51100000000E-03 0.  1.
    9000002   -1    0    0    0    0 -0.00000000000E+00 -0.00000000000E+00  0.00000000000E+00  0.93800000000E+00  0.93800000000E+00 0.  1.
         11    1    1    2    0    0 -0.39543459057E-01 -0.10746510293E-01  0.40313823264E+00  0.40521582937E+00  0.51100000000E-03 0.  1.
    9000002    1    1    2    0    0  0.37140170688E+00  0.11116674795E+00  0.10122429590E+00  0.10199939371E+01  0.93800000000E+00 0.  1.
         22    1    1    2    0    0 -0.33185824782E+00 -0.10042023766E+00  0.34956374388E+01  0.35127902335E+01  0.00000000000E+00 0.  1.
</event>
<event>
 5    1  0.7220939E+001  0.1599666E+01  0.7818608E-02  0.3353726E+00
         11   -1    0    0    0    0  0.00000000000E+00  0.00000000000E+00  0.39999999674E+01  0.40000000000E+01  0.51100000000E-03 0.  1.
    9000002   -1    0    0    0    0 -0.00000000000E+00 -0.00000000000E+00  0.00000000000E+00  0.93800000000E+00  0.93800000000E+00 0. -1.
         11    1    1    2    0    0 -0.42560654417E-01  0.16190016223E-01  0.14335007698E+00  0.15040954631E+00  0.51100000000E-03 0.  1.
    9000002    1    1    2    0    0  0.96463099239E+00 -0.33537791099E+00  0.84971246911E+00  0.16262984274E+01  0.93800000000E+00 0. -1.
         22    1    1    2    0    0 -0.92207033798E+00  0.31918789476E+00  0.30069374213E+01  0.31612920263E+01  0.00000000000E+00 0.  1.
</event>
<event>
 5    1  0.7220939E+001  0.1599598E+01  0.7818608E-02  0.3353799E+00
         11   -1    0    0    0    0  0.00000000000E+00  0.00000000000E+00  0.39999999674E+01  0.40000000000E+01  0.51100000000E-03 0.  1.
    9000002   -1    0    0    0    0 -0.00000000000E+00 -0.00000000000E+00  0.00000000000E+00  0.93800000000E+00  0.93800000000E+00 0. -1.
         11    1    1    2    0    0 -0.12820899381E+00 -0.11724643579E+00  0.13853875088E+01  0.13962389063E+01  0.51100000000E-03 0.  1.
    9000002    1    1    2    0    0  0.37529756676E+00  0.34231753552E+00  0.17694575769E+00  0.10812878247E+01  0.93800000000E+00 0. -1.
         22    1    1    2    0    0 -0.24708857295E+00 -0.22507109973E+00  0.24376667009E+01  0.24604732690E+01  0.00000000000E+00 0. -1.
</event>
<event>
 5    1  0.7220939E+001  0.1597009E+01  0.7818608E-02  0.3356616E+00
         11   -1    0    0    0    0  0.00000000000E+00  0.00000000000E+00  0.39999999674E+01  0.40000000000E+01  0.51100000000E-03 0. -1.
    9000002   -1    0    0    0    0 -0.00000000000E+00 -0.00000000000E+00  0.00000000000E+00  0.93800000000E+00  0.93800000000E+00 0. -1.
         11    1    1    2    0    0  0.35818533296E-02  0.26929828737E-01  0.34768122994E+00  0.34874137140E+00  0.51100000000E-03 0. -1.
    9000002    1    1    2    0    0 -0.42549109272E+00 -0.21534585293E+00  0.15745303219E+00  0.10639793060E+01  0.93800000000E+00 0. -1.
         22    1    1    2    0    0  0.42190923939E+00  0.18841602419E+00  0.34948657052E+01  0.35252793226E+01  0.00000000000E+00 0. -1.
</event>
<event>
 5    1  0.7220939E+001  0.1585612E+01  0.7818608E-02  0.3369129E+00
         11   -1    0    0    0    0  0.00000000000E+00  0.00000000000E+00  0.39999999674E+01  0.40000000000E+01  0.51100000000E-03 0.  1.
    9000002   -1    0    0    0    0 -0.00000000000E+00 -0.00000000000E+00  0.00000000000E+00  0.93800000000E+00  0.93800000000E+00 0.  1.
         11    1    1    2    0    0  0.16941656069E-01 -0.82976782615E-01  0.26043573584E+00  0.27385981776E+00  0.51100000000E-03 0.  1.
    9000002    1    1    2    0    0 -0.56834526144E+00  0.19067087083E+00  0.26481609643E+00  0.11442653897E+01  0.93800000000E+00 0.  1.
         22    1    1    2    0    0  0.55140360537E+00 -0.10769408822E+00  0.34747481351E+01  0.35198747925E+01  0.00000000000E+00 0.  1.
</event>
<event>
 5    1  0.7220939E+001  0.1597918E+01  0.7818608E-02  0.3355627E+00
         11   -1    0    0    0    0  0.00000000000E+00  0.00000000000E+00  0.39999999674E+01  0.40000000000E+01  0.51100000000E-03 0. -1.
    9000002   -1    0    0    0    0 -0.00000000000E+00 -0.00000000000E+00  0.00000000000E+00  0.93800000000E+00  0.93800000000E+00 0.  1.
         11    1    1    2    0    0  0.69312323491E-01 -0.58269033161E-01  0.53079888428E+00  0.53846745035E+00  0.51100000000E-03 0. -1.
    9000002    1    1    2    0    0 -0.46841859238E+00  0.16973756350E+00  0.17145845196E+00  0.10758572484E+01  0.93800000000E+00 0.  1.
         22    1    1    2    0    0  0.39910626889E+00 -0.11146853034E+00  0.32977426311E+01  0.33236753013E+01  0.00000000000E+00 0. -1.
</event>
<event>
 5    1  0.7220939E+001  0.1599670E+01  0.7818608E-02  0.3353722E+00
         11   -1    0    0    0    0  0.00000000000E+00  0.00000000000E+00  0.39999999674E+01  0.40000000000E+01  0.51100000000E-03 0. -1.
    9000002   -1    0    0    0    0 -0.00000000000E+00 -0.00000000000E+00  0.00000000000E+00  0.93800000000E+00  0.93800000000E+00 0. -1.
         11    1    1    2    0    0 -0.69911765081E-02 -0.78561718707E-01  0.83379366922E+00  0.83751594860E+00  0.51100000000E-03 0. -1.
    9000002    1    1    2    0    0  0.45264594685E-01  0.36909229744E+00  0.92954575196E-01  0.10132929293E+01  0.93800000000E+00 0. -1.
         22    1    1    2    0    0 -0.38273418177E-01 -0.29053057873E+00  0.30732517229E+01  0.30871911221E+01  0.00000000000E+00 0. -1.
</event>
<event>
 5    1  0.7220939E+001  0.1575087E+01  0.7818608E-02  0.3380855E+00
         11   -1    0    0    0    0  0.00000000000E+00  0.00000000000E+00  0.39999999674E+01  0.40000000000E+01  0.51100000000E-03 0.  1.
    9000002   -1    0    0    0    0 -0.00000000000E+00 -0.00000000000E+00  0.00000000000E+00  0.93800000000E+00  0.93800000000E+00 0.  1.
         11    1    1    2    0    0 -0.17670965898E-01 -0.12156158828E+00  0.90026433096E+00  0.90860641066E+00  0.51100000000E-03 0.  1.
    9000002    1    1    2    0    0  0.16786958101E+00 -0.15545160863E+00  0.53582510207E-01  0.96698525545E+00  0.93800000000E+00 0.  1.
         22    1    1    2    0    0 -0.15019861511E+00  0.27701319691E+00  0.30461531262E+01  0.30624083339E+01  0.00000000000E+00 0.  1.
</event>
<event>
 5    1  0.7220939E+001  0.1513501E+01  0.7818608E-02  0.3452952E+00
         11   -1    0    0    0    0  0.00000000000E+00  0.00000000000E+00  0.39999999674E+01  0.40000000000E+01  0.51100000000E-03 0.  1.
    9000002   -1    0    0    0    0 -0.00000000000E+00 -0.00000000000E+00  0.00000000000E+00  0.93800000000E+00  0.93800000000E+00 0.  1.
         11    1    1    2    0    0 -0.21293307967E+00  0.14566648810E+00  0.15432126895E+00  0.30062358082E+00  0.51100000000E-03 0.  1.
    9000002    1    1    2    0    0 -0.19617790183E+00 -0.10548132645E+00  0.22051635156E+00  0.98898106185E+00  0.93800000000E+00 0.  1.
         22    1    1    2    0    0  0.40911098150E+00 -0.40185161649E-01  0.36251623468E+01  0.36483953573E+01  0.00000000000E+00 0.  1.
</event>
<event>
 5    1  0.7220939E+001  0.1580533E+01  0.7818608E-02  0.3374767E+00
         11   -1    0    0    0    0  0.00000000000E+00  0.00000000000E+00  0.39999999674E+01  0.40000000000E+01  0.51100000000E-03 0. -1.
    9000002   -1    0    0    0    0 -0.00000000000E+00 -0.00000000000E+00  0.00000000000E+00  0.93800000000E+00  0.93800000000E+00 0.  1.
         11    1    1    2    0    0 -0.89543922331E-01 -0.45711164730E-01  0.12841735921E+01  0.12881031404E+01  0.51100000000E-03 0. -1.
    9000002    1    1    2    0    0  0.43851196756E-01 -0.27918447372E+00  0.68200077589E-01  0.98201942364E+00  0.93800000000E+00 0.  1.
         22    1    1    2    0    0  0.45692725574E-01  0.32489563845E+00  0.26476262977E+01  0.26678774360E+01  0.00000000000E+00 0. -1.
</event>
<event>
 5    1  0.7220939E+001  0.1599676E+01  0.7818608E-02  0.3353716E+00
         11   -1    0    0    0    0  0.00000000000E+00  0.00000000000E+00  0.39999999674E+01  0.40000000000E+01  0.51100000000E-03 0. -1.
    9000002   -1    0    0    0    0 -0.00000000000E+00 -0.00000000000E+00  0.00000000000E+00  0.93800000000E+00  0.93800000000E+00 0.  1.
         11    1    1    2    0    0  0.68537261951E-01 -0.33541464090E-01  0.77510107440E+00  0.77884807424E+00  0.51100000000E-03 0. -1.
    9000002    1    1    2    0    0 -0.34280406602E+00  0.16372484096E+00  0.97104578435E-01  0.10166581286E+01  0.93800000000E+00 0.  1.
         22    1    1    2    0    0  0.27426680407E+00 -0.13018337687E+00  0.31277943145E+01  0.31424937972E+01  0.00000000000E+00 0. -1.
</event>
<event>
 5    1  0.7220939E+001  0.1575043E+01  0.7818608E-02  0.3380905E+00
         11   -1    0    0    0    0  0.00000000000E+00  0.00000000000E+00  0.39999999674E+01  0.40000000000E+01  0.51100000000E-03 0. -1.
    9000002   -1    0    0    0    0 -0.00000000000E+00 -0.00000000000E+00  0.00000000000E+00  0.93800000000E+00  0.93800000000E+00 0.  1.
         11    1    1    2    0    0 -0.70940687784E-01  0.18995219694E+00  0.14293635049E+01  0.14436740313E+01  0.51100000000E-03 0. -1.
    9000002    1    1    2    0    0  0.27589027171E+00 -0.29130009251E-01  0.70553827786E-01  0.98070680740E+00  0.93800000000E+00 0.  1.
         22    1    1    2    0    0 -0.20494958393E+00 -0.16082218769E+00  0.25000826347E+01  0.25136191613E+01  0.00000000000E+00 0. -1.
</event>
<event>
 5    1  0.7220939E+001  0.1595746E+01  0.7818608E-02  0.3357994E+00
         11   -1    0    0    0    0  0.00000000000E+00  0.00000000000E+00  0.39999999674E+01  0.40000000000E+01  0.51100000000E-03 0. -1.
    9000002   -1    0    0    0    0 -0.00000000000E+00 -0.00000000000E+00  0.00000000000E+00  0.93800000000E+00  0.93800000000E+00 0. -1.
         11    1    1    2    0    0  0.50075869711E-01  0.14207252676E+00  0.13254168788E+01  0.13339499088E+01  0.51100000000E-03 0. -1.
    9000002    1    1    2    0    0  0.60194234147E-01 -0.38360048342E+00  0.10480078504E+00  0.10205880076E+01  0.93800000000E+00 0. -1.
         22    1    1    2    0    0 -0.11027010386E+00  0.24152795666E+00  0.25697823036E+01  0.25834620836E+01  0.00000000000E+00 0. -1.
</event>
<event>
 5    1  0.7220939E+001  0.1599426E+01  0.7818608E-02  0.3353986E+00
         11   -1    0    0    0    0  0.00000000000E+00  0.00000000000E+00  0.39999999674E+01  0.40000000000E+01  0.51100000000E-03 0.  1.
    9000002   -1    0    0    0    0 -0.00000000000E+00 -0.00000000000E+00  0.00000000000E+00  0.93800000000E+00  0.93800000000E+00 0. -1.
         11    1    1    2    0    0 -0.10668885622E+00  0.21756704920E-01  0.11371509170E+01  0.11423521066E+01  0.51100000000E-03 0.  1.
    9000002    1    1    2    0    0  0.35367873702E+00 -0.13279305193E+00  0.96209503328E-01  0.10157868439E+01  0.93800000000E+00 0. -1.
         22    1    1    2    0    0 -0.24698988080E+00  0.11103634701E+00  0.27666395470E+01  0.27798610495E+01  0.00000000000E+00 0.  1.
</event>
<event>
 5    1  0.7220939E+001  0.1599317E+01  0.7818608E-02  0.3354105E+00
         11   -1    0    0    0    0  0.00000000000E+00  0.00000000000E+00  0.39999999674E+01  0.40000000000E+01  0.51100000000E-03 0.  1.
    9000002   -1    0    0    0    0 -0.00000000000E+00 -0.00000000000E+00  0.00000000000E+00  0.93800000000E+00  0.93800000000E+00 0. -1.
         11    1    1    2    0    0  0.12753761318E+00 -0.74367631856E-01  0.10517696419E+01  0.10620809894E+01  0.51100000000E-03 0.  1.
    9000002    1    1    2    0    0 -0.50046482998E+00  0.20645811266E+00  0.20244710337E+00  0.11017798455E+01  0.93800000000E+00 0. -1.
         22    1    1    2    0    0  0.37292721679E+00 -0.13209048080E+00  0.27457832221E+01  0.27741391651E+01  0.00000000000E+00 0.  1.
</event>
<event>
 5    1  0.7220939E+001  0.1559230E+01  0.7818608E-02  0.3398839E+00
         11   -1    0    0    0    0  0.00000000000E+00  0.00000000000E+00  0.39999999674E+01  0.40000000000E+01  0.51100000000E-03 0. -1.
    9000002   -1    0    0    0    0 -0.00000000000E+00 -0.00000000000E+00  0.00000000000E+00  0.93800000000E+00  0.93800000000E+00 0. -1.
         11    1    1    2    0    0  0.11153225964E+00 -0.21443621483E+00  0.14148729052E+01  0.14353703126E+01  0.51100000000E-03 0. -1.
    9000002    1    1    2    0    0  0.13854524927E+00  0.13172576980E+00  0.55034891154E-01  0.95886354804E+00  0.93800000000E+00 0. -1.
         22    1    1    2    0    0 -0.25007750891E+00  0.82710445037E-01  0.25300921710E+01  0.25437661394E+01  0.00000000000E+00 0. -1.
</event>
<event>
 5    1  0.7220939E+001  0.1599639E+01  0.7818608E-02  0.3353756E+00
         11   -1    0    0    0    0  0.00000000000E+00  0.00000000000E+00  0.39999999674E+01  0.40000000000E+01  0.51100000000E-03 0. -1.
    9000002   -1    0    0    0    0 -0.00000000000E+00 -0.00000000000E+00  0.00000000000E+00  0.93800000000E+00  0.93800000000E+00 0.  1.
         11    1    1    2    0    0  0.23892424900E+00  0.14955422311E+00  0.14080422762E+01  0.14359786123E+01  0.51100000000E-03 0. -1.
    9000002    1    1    2    0    0 -0.62996454274E+00 -0.37587037087E+00  0.38826334205E+00  0.12524880373E+01  0.93800000000E+00 0.  1.
         22    1    1    2    0    0  0.39104029374E+00  0.22631614775E+00  0.22036943491E+01  0.22495333504E+01  0.00000000000E+00 0.  1.
</event>
<event>
 5    1  0.7220939E+001  0.1599668E+01  0.7818608E-02  0.3353724E+00
         11   -1    0    0    0    0  0.00000000000E+00  0.00000000000E+00  0.39999999674E+01  0.40000000000E+01  0.51100000000E-03 0.  1.
    9000002   -1    0    0    0    0 -0.00000000000E+00 -0.00000000000E+00  0.00000000000E+00  0.93800000000E+00  0.93800000000E+00 0. -1.
         11    1    1    2    0    0  0.86287234302E-01 -0.73585839639E-01  0.10334357091E+01  0.10396393550E+01  0.51100000000E-03 0.  1.
    9000002    1    1    2    0    0 -0.31269658945E+00  0.28109792348E+00  0.11958301490E+00  0.10348619701E+01  0.93800000000E+00 0. -1.
         22    1    1    2    0    0  0.22640935515E+00 -0.20751208384E+00  0.28469812434E+01  0.28634986749E+01  0.00000000000E+00 0.  1.
</event>
<event>
 5    1  0.7220939E+001  0.1599539E+01  0.7818608E-02  0.3353864E+00
         11   -1    0    0    0    0  0.00000000000E+00  0.00000000000E+00  0.39999999674E+01  0.40000000000E+01  0.51100000000E-03 0.  1.
    9000002   -1    0    0    0    0 -0.00000000000E+00 -0.00000000000E+00  0.00000000000E+00  0.93800000000E+00  0.93800000000E+00 0. -1.
         11    1    1    2    0    0 -0.74480781789E-02  0.12679161219E+00  0.14080245211E+01  0.14137414544E+01  0.51100000000E-03 0.  1.
    9000002    1    1    2    0    0 -0.11018692515E-01 -0.37217781724E+00  0.93308108271E-01  0.10135029069E+01  0.93800000000E+00 0. -1.
         22    1    1    2    0    0  0.18466770694E-01  0.24538620505E+00  0.24986673380E+01  0.25107556387E+01  0.00000000000E+00 0.  1.
</event>
<event>
 5    1  0.7220939E+001  0.1595441E+01  0.7818608E-02  0.3358326E+00
         11   -1    0    0    0    0  0.00000000000E+00  0.00000000000E+00  0.39999999674E+01  0.40000000000E+01  0.51100000000E-03 0.  1.
    9000002   -1    0    0    0    0 -0.00000000000E+00 -0.00000000000E+00  0.00000000000E+00  0.93800000000E+00  0.93800000000E+00 0. -1.
         11    1    1    2    0    0  0.19822771826E-01 -0.86883238314E-02  0.37167877210E+00  0.37230874285E+00  0.51100000000E-03 0.  1.
    9000002    1    1    2    0    0  0.67898260316E-01 -0.30551480851E+00  0.68769860122E-01  0.99122286376E+00  0.93800000000E+00 0. -1.
         22    1    1    2    0    0 -0.87721032142E-01  0.31420313235E+00  0.35595513351E+01  0.35744683934E+01  0.00000000000E+00 0.  1.
</event>
<event>
 5    1  0.7220939E+001  0.1539136E+01  0.7818608E-02  0.3422194E+00
         11   -1    0    0    0    0  0.00000000000E+00  0.00000000000E+00  0.39999999674E+01  0.40000000000E+01  0.51100000000E-03 0. -1.
    9000002   -1    0    0    0    0 -0.00000000000E+00 -0.00000000000E+00  0.00000000000E+00  0.93800000000E+00  0.93800000000E+00 0.  1.
         11    1    1    2    0    0 -0.25501917791E+00  0.13100890912E-01  0.13001190214E+01  0.13249589221E+01  0.51100000000E-03 0. -1.
    9000002    1    1    2    0    0 -0.63681721767E-01 -0.15429527448E+00  0.64727191815E-01  0.95493245980E+00  0.93800000000E+00 0.  1.
         22    1    1    2    0    0  0.31870089968E+00  0.14119438357E+00  0.26351537542E+01  0.26581086181E+01  0.00000000000E+00 0. -1.
</event>
<event>
 5    1  0.7220939E+001  0.1580466E+01  0.7818608E-02  0.3374842E+00
         11   -1    0    0    0    0  0.00000000000E+00  0.00000000000E+00  0.39999999674E+01  0.40000000000E+01  0.51100000000E-03 0. -1.
    9000002   -1    0    0    0    0 -0.00000000000E+00 -0.00000000000E+00  0.00000000000E+00  0.93800000000E+00  0.93800000000E+00 0.  1.
         11    1    1    2    0    0 -0.12122106737E+00 -0.80661962248E-01  0.40902370527E+00  0.43416765417E+00  0.51100000000E-03 0. -1.
    9000002    1    1    2    0    0  0.43817258882E+00  0.65937545362E-01  0.14991146755E+00  0.10481700366E+01  0.93800000000E+00 0.  1.
         22    1    1    2    0    0 -0.31695152144E+00  0.14724416886E-01  0.34410647945E+01  0.34556623093E+01  0.00000000000E+00 0.  1.
</event>
<event>
 5    1  0.7220939E+001  0.1599677E+01  0.7818608E-02  0.3353714E+00
         11   -1    0    0    0    0  0.00000000000E+00  0.00000000000E+00  0.39999999674E+01  0.40000000000E+01  0.51100000000E-03 0. -1.
    9000002   -1    0    0    0    0 -0.00000000000E+00 -0.00000000000E+00  0.00000000000E+00  0.93800000000E+00  0.93800000000E+00 0. -1.
         11    1    1    2    0    0  0.16692598356E-01 -0.10910279930E+00  0.11109746212E+01  0.11164438785E+01  0.51100000000E-03 0. -1.
    9000002    1    1    2    0    0 -0.56977904379E-01  0.38385241099E+00  0.10142272425E+00  0.10201567154E+01  0.93800000000E+00 0. -1.
         22    1    1    2    0    0  0.40285306023E-01 -0.27474961169E+00  0.27876026219E+01  0.28013994061E+01  0.00000000000E+00 0. -1.
</event>
<event>
 5    1  0.7220939E+001  0.1599523E+01  0.7818608E-02  0.3353881E+00
         11   -1    0    0    0    0  0.00000000000E+00  0.00000000000E+00  0.39999999674E+01  0.40000000000E+01  0.51100000000E-03 0.  1.
    9000002   -1    0    0    0    0 -0.00000000000E+00 -0.00000000000E+00  0.00000000000E+00  0.93800000000E+00  0.93800000000E+00 0.  1.
         11    1    1    2    0    0 -0.63968070532E-01 -0.11493559270E+00  0.12471936285E+01  0.12541109651E+01  0.51100000000E-03 0.  1.
    9000002    1    1    2    0    0  0.15627624428E+00  0.35895612251E+00  0.10340098115E+00  0.10216689901E+01  0.93800000000E+00 0.  1.
         22    1    1    2    0    0 -0.92308173745E-01 -0.24402052981E+00  0.26494053577E+01  0.26622200448E+01  0.00000000000E+00 0.  1.
</event>
<event>
 5    1  0.7220939E+001  0.1571864E+01  0.7818608E-02  0.3384479E+00
         11   -1    0    0    0    0  0.00000000000E+00  0.00000000000E+00  0.39999999674E+01  0.40000000000E+01  0.51100000000E-03 0.  1.
    9000002   -1    0    0    0    0 -0.00000000000E+00 -0.00000000000E+00  0.00000000000E+00  0.93800000000E+00  0.93800000000E+00 0.  1.
         11    1    1    2    0    0 -0.16671961844E+00  0.18462371563E+00  0.10452292816E+01  0.10744235011E+01  0.51100000000E-03 0.  1.
    9000002    1    1    2    0    0  0.78009743917E-02 -0.41963226423E+00  0.14298678267E+00  0.10375168974E+01  0.93800000000E+00 0.  1.
         22    1    1    2    0    0  0.15891864405E+00  0.23500854860E+00  0.28117839031E+01  0.28260596015E+01  0.00000000000E+00 0. -1.
</event>
<event>
 5    1  0.7220939E+001  0.1599670E+01  0.7818608E-02  0.3353722E+00
         11   -1    0    0    0    0  0.00000000000E+00  0.00000000000E+00  0.39999999674E+01  0.40000000000E+01  0.51100000000E-03 0.  1.
    9000002   -1    0    0    0    0 -0.00000000000E+00 -0.00000000000E+00  0.00000000000E+00  0.93800000000E+00  0.93800000000E+00 0.  1.
         11    1    1    2    0    0  0.11567613356E-02 -0.24343593358E-02  0.27861472627E-01  0.27996195815E-01  0.51100000000E-03 0. -1.
    9000002    1    1    2    0    0 -0.14085902161E+00  0.32439517600E+00  0.83902897503E-01  0.10059608295E+01  0.93800000000E+00 0.  1.
         22    1    1    2    0    0  0.13970226027E+00 -0.32196081667E+00  0.38882355972E+01  0.39040429747E+01  0.00000000000E+00 0.  1.
</event>
<event>
 5    1  0.7220939E+001  0.1599649E+01  0.7818608E-02  0.3353744E+00
         11   -1    0    0    0    0  0.00000000000E+00  0.00000000000E+00  0.39999999674E+01  0.40000000000E+01  0.51100000000E-03 0.  1.
    9000002   -1    0    0    0    0 -0.00000000000E+00 -0.00000000000E+00  0.00000000000E+00  0.93800000000E+00  0.93800000000E+00 0.  1.
         11    1    1    2    0    0 -0.22525880012E+00 -0.20086675797E+00  0.98035721813E+00  0.10257628955E+01  0.51100000000E-03 0.  1.
    9000002    1    1    2    0    0  0.74426177899E+00  0.67066652463E+00  0.80838649495E+00  0.15928125778E+01  0.93800000000E+00 0.  1.
         22    1    1    2    0    0 -0.51900297887E+00 -0.46979976666E+00  0.22112562543E+01  0.23194245267E+01  0.00000000000E+00 0.  1.
</event>
<event>
 5    1  0.7220939E+001  0.1599646E+01  0.7818608E-02  0.3353748E+00
         11   -1    0    0    0    0  0.00000000000E+00  0.00000000000E+00  0.39999999674E+01  0.40000000000E+01  0.51100000000E-03 0.  1.
    9000002   -1    0    0    0    0 -0.00000000000E+00 -0.00000000000E+00  0.00000000000E+00  0.93800000000E+00  0.93800000000E+00 0. -1.
         11    1    1    2    0    0 -0.13397500907E+00 -0.12457539757E-01  0.13058176677E+01  0.13127317074E+01  0.51100000000E-03 0.  1.
    9000002    1    1    2    0    0  0.40310377502E+00  0.55622742481E-01  0.11181805156E+00  0.10285590987E+01  0.93800000000E+00 0. -1.
         22    1    1    2    0    0 -0.26912876595E+00 -0.43165202724E-01  0.25823642481E+01  0.25967091939E+01  0.00000000000E+00 0.  1.
</event>
<event>
 5    1  0.7220939E+001  0.1599560E+01  0.7818608E-02  0.3353841E+00
         11   -1    0    0    0    0  0.00000000000E+00  0.00000000000E+00  0.39999999674E+01  0.40000000000E+01  0.51100000000E-03 0. -1.
    9000002   -1    0    0    0    0 -0.00000000000E+00 -0.00000000000E+00  0.00000000000E+00  0.93800000000E+00  0.93800000000E+00 0.  1.
         11    1    1    2    0    0  0.27475297636E-01 -0.26557628736E-01  0.44906282731E+00  0.45068601445E+00  0.51100000000E-03 0. -1.
    9000002    1    1    2    0    0 -0.26827663300E+00  0.29586047685E+00  0.10767852121E+00  0.10251558113E+01  0.93800000000E+00 0.  1.
         22    1    1    2    0    0  0.24080133537E+00 -0.26930284812E+00  0.34432586188E+01  0.34621581742E+01  0.00000000000E+00 0. -1.
</event>
<event>
 5    1  0.7220939E+001  0.1518798E+01  0.7818608E-02  0.3446505E+00
         11   -1    0    0    0    0  0.00000000000E+00  0.00000000000E+00  0.39999999674E+01  0.40000000000E+01  0.51100000000E-03 0. -1.
    9000002   -1    0    0    0    0 -0.00000000000E+00 -0.00000000000E+00  0.00000000000E+00  0.93800000000E+00  0.93800000000E+00 0. -1.
         11    1    1    2    0    0 -0.20013878696E-01 -0.25840926410E-01 -0.24068022453E-01  0.40593591169E-01  0.51100000000E-03 0. -1.
    9000002    1    1    2    0    0 -0.12512108257E+00  0.51590618681E+00  0.27321688921E+00  0.11118929568E+01  0.93800000000E+00 0. -1.
         22    1    1    2    0    0  0.14513496127E+00 -0.49006526040E+00  0.37508511006E+01  0.37855134520E+01  0.00000000000E+00 0. -1.
</event>
<event>
 5    1  0.7220939E+001  0.1599677E+01  0.7818608E-02  0.3353714E+00
         11   -1    0    0    0    0  0.00000000000E+00  0.00000000000E+00  0.39999999674E+01  0.40000000000E+01  0.51100000000E-03 0. -1.
    9000002   -1    0    0    0    0 -0.00000000000E+00 -0.00000000000E+00  0.00000000000E+00  0.93800000000E+00  0.93800000000E+00 0.  1.
         11    1    1    2    0    0 -0.56930461208E-01  0.11672611236E+00  0.10156242384E+01  0.10238939972E+01  0.51100000000E-03 0.  1.
    9000002    1    1    2    0    0  0.21376700668E+00 -0.44038231249E+00  0.16375782092E+00  0.10706509880E+01  0.93800000000E+00 0.  1.
         22    1    1    2    0    0 -0.15683654547E+00  0.32365620013E+00  0.28206179081E+01  0.28434550148E+01  0.00000000000E+00 0. -1.
</event>
<event>
 5    1  0.7220939E+001  0.1597965E+01  0.7818608E-02  0.3355575E+00
         11   -1    0    0    0    0  0.00000000000E+00  0.00000000000E+00  0.39999999674E+01  0.40000000000E+01  0.51100000000E-03 0. -1.
    9000002   -1    0    0    0    0 -0.00000000000E+00 -0.00000000000E+00  0.00000000000E+00  0.93800000000E+00  0.93800000000E+00 0.  1.
         11    1    1    2    0    0 -0.52770821434E-01  0.38111927283E-01  0.91037391302E+00  0.91269830789E+00  0.51100000000E-03 0. -1.
    9000002    1    1    2    0    0  0.33100886590E+00 -0.30632899284E+00  0.13965097356E+00  0.10501193816E+01  0.93800000000E+00 0.  1.
         22    1    1    2    0    0 -0.27823804447E+00  0.26821706555E+00  0.29499750808E+01  0.29751823105E+01  0.00000000000E+00 0. -1.
</event>
<event>
 5    1  0.7220939E+001  0.1599204E+01  0.7818608E-02  0.3354228E+00
         11   -1    0    0    0    0  0.00000000000E+00  0.00000000000E+00  0.39999999674E+01  0.40000000000E+01  0.51100000000E-03 0.  1.
    9000002   -1    0    0    0    0 -0.00000000000E+00 -0.00000000000E+00  0.00000000000E+00  0.93800000000E+00  0.93800000000E+00 0.  1.
         11    1    1    2    0    0  0.21182407498E+00 -0.47085597824E-01  0.95645982281E+00  0.98076610159E+00  0.51100000000E-03 0.  1.
    9000002    1    1    2    0    0 -0.84751572646E+00  0.15838669801E+00  0.56085177038E+00  0.13920373418E+01  0.93800000000E+00 0. -1.
         22    1    1    2    0    0  0.63569165148E+00 -0.11130110019E+00  0.24826883742E+01  0.25651965566E+01  0.00000000000E+00 0.  1.
</event>
<event>
 5    1  0.7220939E+001  0.1599334E+01  0.7818608E-02  0.3354087E+00
         11   -1    0    0    0    0  0.00000000000E+00  0.00000000000E+00  0.39999999674E+01  0.40000000000E+01  0.51100000000E-03 0.  1.
    9000002   -1    0    0    0    0 -0.00000000000E+00 -0.00000000000E+00  0.00000000000E+00  0.93800000000E+00  0.93800000000E+00 0. -1.
         11    1    1    2    0    0  0.19488239013E-02  0.36229031411E-01  0.47787873015E+00  0.47925429834E+00  0.51100000000E-03 0.  1.
    9000002    1    1    2    0    0 -0.11276524328E+00 -0.36587266053E+00  0.98940840492E-01  0.10179450347E+01  0.93800000000E+00 0. -1.
         22    1    1    2    0    0  0.11081641938E+00  0.32964362912E+00  0.34231803967E+01  0.34408006669E+01  0.00000000000E+00 0.  1.
</event>
<event>
 5    1  0.7220939E+001  0.1507705E+01  0.7818608E-02  0.3460062E+00
         11   -1    0    0    0    0  0.00000000000E+00  0.00000000000E+00  0.39999999674E+01  0.40000000000E+01  0.51100000000E-03 0. -1.
    9000002   -1    0    0    0    0 -0.00000000000E+00 -0.00000000000E+00  0.00000000000E+00  0.93800000000E+00  0.93800000000E+00 0. -1.
         11    1    1    2    0    0 -0.19976827508E+00  0.16808309231E+00  0.26978352151E+00  0.37542336002E+00  0.51100000000E-03 0. -1.
    9000002    1    1    2    0    0  0.42445475081E+00 -0.46758360588E+00  0.38208920405E+00  0.11935796680E+01  0.93800000000E+00 0. -1.
         22    1    1    2    0    0 -0.22468647573E+00  0.29950051357E+00  0.33481272418E+01  0.33689969720E+01  0.00000000000E+00 0. -1.
</event>
<event>
 5    1  0.7220939E+001  0.1599576E+01  0.7818608E-02  0.3353824E+00
         11   -1    0    0    0    0  0.00000000000E+00  0.00000000000E+00  0.39999999674E+01  0.40000000000E+01  0.51100000000E-03 0. -1.
    9000002   -1    0    0    0    0 -0.00000000000E+00 -0.00000000000E+00  0.00000000000E+00  0.93800000000E+00  0.93800000000E+00 0. -1.
         11    1    1    2    0    0 -0.25561385366E-01 -0.83794563715E-02  0.89904385405E-01  0.93843802923E-01  0.51100000000E-03 0. -1.
    9000002    1    1    2    0    0  0.87010702872E+00  0.20039941452E+00  0.60852065429E+00  0.14308695096E+01  0.93800000000E+00 0. -1.
         22    1    1    2    0    0 -0.84454564335E+00 -0.19201995814E+00  0.33015749277E+01  0.34132866875E+01  0.00000000000E+00 0. -1.
</event>
<event>
 5    1  0.7220939E+001  0.1599675E+01  0.7818608E-02  0.3353716E+00
         11   -1    0    0    0    0  0.00000000000E+00  0.00000000000E+00  0.39999999674E+01  0.40000000000E+01  0.51100000000E-03 0.  1.
    9000002   -1    0    0    0    0 -0.00000000000E+00 -0.00000000000E+00  0.00000000000E+00  0.93800000000E+00  0.93800000000E+00 0.  1.
         11    1    1    2    0    0  0.89658564644E-01 -0.65827632491E-01  0.11451823232E+01  0.11505714884E+01  0.51100000000E-03 0.  1.
    9000002    1    1    2    0    0 -0.30805635277E+00  0.22854008129E+00  0.99039079618E-01  0.10182249381E+01  0.93800000000E+00 0.  1.
         22    1    1    2    0    0  0.21839778812E+00 -0.16271244880E+00  0.27557785646E+01  0.27692035736E+01  0.00000000000E+00 0.  1.
</event>
<event>
 5    1  0.7220939E+001  0.1599675E+01  0.7818608E-02  0.3353716E+00
         11   -1    0    0    0    0  0.00000000000E+00  0.00000000000E+00  0.39999999674E+01  0.40000000000E+01  0.51100000000E-03 0.  1.
    9000002   -1    0    0    0    0 -0.00000000000E+00 -0.00000000000E+00  0.00000000000E+00  0.93800000000E+00  0.93800000000E+00 0.  1.
         11    1    1    2    0    0  0.10123105457E+00  0.11691817186E+00  0.14790198676E+01  0.14870835939E+01  0.51100000000E-03 0.  1.
    9000002    1    1    2    0    0 -0.26431612271E+00 -0.31118786869E+00  0.11256585522E+00  0.10291821870E+01  0.93800000000E+00 0.  1.
         22    1    1    2    0    0  0.16308506814E+00  0.19426969683E+00  0.24084142446E+01  0.24217342191E+01  0.00000000000E+00 0.  1.
</event>
<event>
 5    1  0.7220939E+001  0.1580836E+01  0.7818608E-02  0.3374430E+00
         11   -1    0    0    0    0  0.00000000000E+00  0.00000000000E+00  0.39999999674E+01  0.40000000000E+01  0.51100000000E-03 0. -1.
    9000002   -1    0    0    0    0 -0.00000000000E+00 -0.00000000000E+00  0.00000000000E+00  0.93800000000E+00  0.93800000000E+00 0. -1.
         11    1    1    2    0    0  0.17748035980E+00 -0.16888372452E+00  0.14755755821E+01  0.14957755681E+01  0.51100000000E-03 0. -1.
    9000002    1    1    2    0    0 -0.41620412734E+00  0.77231954686E+00  0.61201664102E+00  0.14227128055E+01  0.93800000000E+00 0. -1.
         22    1    1    2    0    0  0.23872376754E+00 -0.60343582234E+00  0.19124077443E+01  0.20195116264E+01  0.00000000000E+00 0.  1.
</event>
<event>
 5    1  0.7220939E+001  0.1599670E+01  0.7818608E-02  0.3353722E+00
         11   -1    0    0    0    0  0.00000000000E+00  0.00000000000E+00  0.39999999674E+01  0.40000000000E+01  0.51100000000E-03 0.  1.
    9000002   -1    0    0    0    0 -0.00000000000E+00 -0.00000000000E+00  0.00000000000E+00  0.93800000000E+00  0.93800000000E+00 0.  1.
         11    1    1    2    0    0 -0.82803792929E-01  0.93595265963E-03  0.67584431021E+00  0.68089877140E+00  0.51100000000E-03 0.  1.
    9000002    1    1    2    0    0  0.45845865878E+00 -0.68431543238E-02  0.14297349386E+00  0.10538105098E+01  0.93800000000E+00 0.  1.
         22    1    1    2    0    0 -0.37565486585E+00  0.59072016642E-02  0.31811821633E+01  0.32032907188E+01  0.00000000000E+00 0.  1.
</event>
<event>
 5    1  0.7220939E+001  0.1597540E+01  0.7818608E-02  0.3356037E+00
         11   -1    0    0    0    0  0.00000000000E+00  0.00000000000E+00  0.39999999674E+01  0.40000000000E+01  0.51100000000E-03 0.  1.
    9000002   -1    0    0    0    0 -0.00000000000E+00 -0.00000000000E+00  0.00000000000E+00  0.93800000000E+00  0.93800000000E+00 0. -1.
         11    1    1    2    0    0  0.29613958496E-02  0.96633053883E-02  0.23611808471E+00  0.23633484801E+00  0.51100000000E-03 0.  1.
    9000002    1    1    2    0    0 -0.39316180784E+00  0.11102882122E+00  0.11449536637E+00  0.10294934654E+01  0.93800000000E+00 0. -1.
         22    1    1    2    0    0  0.39020041199E+00 -0.12069212661E+00  0.36493865163E+01  0.36721716866E+01  0.00000000000E+00 0.  1.
</event>
<event>
 5    1  0.7220939E+001  0.1483693E+01  0.7818608E-02  0.3490156E+00
         11   -1    0    0    0    0  0.00000000000E+00  0.00000000000E+00  0.39999999674E+01  0.40000000000E+01  0.51100000000E-03 0. -1.
    9000002   -1    0    0    0    0 -0.00000000000E+00 -0.00000000000E+00  0.00000000000E+00  0.93800000000E+00  0.93800000000E+00 0. -1.
         11    1    1    2    0    0 -0.15418876766E+00  0.25185416264E+00  0.66952824594E+00  0.73176022613E+00  0.51100000000E-03 0. -1.
    9000002    1    1    2    0    0 -0.12153435340E+00  0.42110112767E-01  0.10148955189E+00  0.95220165396E+00  0.93800000000E+00 0. -1.
         22    1    1    2    0    0  0.27572312106E+00 -0.29396427541E+00  0.32289821695E+01  0.32540381199E+01  0.00000000000E+00 0. -1.
</event>
<event>
 5    1  0.7220939E+001  0.1599677E+01  0.7818608E-02  0.3353714E+00
         11   -1    0    0    0    0  0.00000000000E+00  0.00000000000E+00  0.39999999674E+01  0.40000000000E+01  0.51100000000E-03 0.  1.
    9000002   -1    0    0    0    0 -0.00000000000E+00 -0.00000000000E+00  0.00000000000E+00  0.93800000000E+00  0.93800000000E+00 0.  1.
         11    1    1    2    0    0  0.62230120527E-01  0.79309056429E-01  0.80367098703E+00  0.80996903080E+00  0.51100000000E-03 0.  1.
    9000002    1    1    2    0    0 -0.29639513024E+00 -0.37865894482E+00  0.15779632503E+00  0.10658219129E+01  0.93800000000E+00 0.  1.
         22    1    1    2    0    0  0.23416500972E+00  0.29934988840E+00  0.30385326553E+01  0.30622090563E+01  0.00000000000E+00 0.  1.
</event>
<event>
 5    1  0.7220939E+001  0.1599264E+01  0.7818608E-02  0.3354162E+00
         11   -1    0    0    0    0  0.00000000000E+00  0.00000000000E+00  0.39999999674E+01  0.40000000000E+01  0.51100000000E-03 0.  1.
    9000002   -1    0    0    0    0 -0.00000000000E+00 -0.00000000000E+00  0.00000000000E+00  0.93800000000E+00  0.93800000000E+00 0.  1.
         11    1    1    2    0    0 -0.10341267557E+00  0.15708451122E-01  0.85832662093E+00  0.86467669462E+00  0.51100000000E-03 0.  1.
    9000002    1    1    2    0    0  0.37740814165E+00 -0.73521474974E-01  0.99868534507E-01  0.10186559953E+01  0.93800000000E+00 0.  1.
         22    1    1    2    0    0 -0.27399546608E+00  0.57813023852E-01  0.30418048119E+01  0.30546673100E+01  0.00000000000E+00 0.  1.
</event>
<event>
 5    1  0.7220939E+001  0.1599639E+01  0.7818608E-02  0.3353755E+00
         11   -1    0    0    0    0  0.00000000000E+00  0.00000000000E+00  0.39999999674E+01  0.40000000000E+01  0.51100000000E-03 0.  1.
    9000002   -1    0    0    0    0 -0.00000000000E+00 -0.00000000000E+00  0.00000000000E+00  0.93800000000E+00  0.93800000000E+00 0. -1.
         11    1    1    2    0    0  0.34538981436E-01 -0.44207741775E-02  0.33239617860E+00  0.33421544720E+00  0.51100000000E-03 0.  1.
    9000002    1    1    2    0    0 -0.40784382585E+00  0.99701557363E-01  0.11924670425E+00  0.10345727443E+01  0.93800000000E+00 0. -1.
         22    1    1    2    0    0  0.37330484442E+00 -0.95280783185E-01  0.35483570845E+01  0.35692118085E+01  0.00000000000E+00 0.  1.
</event>
<event>
 5    1  0.7220939E+001  0.1599677E+01  0.7818608E-02  0.3353714E+00
         11   -1    0    0    0    0  0.00000000000E+00  0.00000000000E+00  0.39999999674E+01  0.40000000000E+01  0.51100000000E-03 0.  1.
    9000002   -1    0    0    0    0 -0.00000000000E+00 -0.00000000000E+00  0.00000000000E+00  0.93800000000E+00  0.93800000000E+00 0.  1.
         11    1    1    2    0    0  0.98224866937E-03  0.18371498505E+00  0.14815107518E+01  0.14928585095E+01  0.51100000000E-03 0.  1.
    9000002    1    1    2    0    0 -0.77643419962E-03 -0.47682072126E+00  0.15505295530E+00  0.10635995591E+01  0.93800000000E+00 0.  1.
         22    1    1    2    0    0 -0.20581446975E-03  0.29310573622E+00  0.23634362603E+01  0.23815419315E+01  0.00000000000E+00 0.  1.
</event>
<event>
 5    1  0.7220939E+001  0.1599650E+01  0.7818608E-02  0.3353743E+00
         11   -1    0    0    0    0  0.00000000000E+00  0.00000000000E+00  0.39999999674E+01  0.40000000000E+01  0.51100000000E-03 0.  1.
    9000002   -1    0    0    0    0 -0.00000000000E+00 -0.00000000000E+00  0.00000000000E+00  0.93800000000E+00  0.93800000000E+00 0. -1.
         11    1    1    2    0    0 -0.22252488711E+00 -0.25018792068E+00  0.13928429661E+01  0.14325233367E+01  0.51100000000E-03 0.  1.
    9000002    1    1    2    0    0  0.54628909369E+00  0.63664415105E+00  0.52564367263E+00  0.13637788749E+01  0.93800000000E+00 0. -1.
         22    1    1    2    0    0 -0.32376420658E+00 -0.38645623037E+00  0.20815133286E+01  0.21416977884E+01  0.00000000000E+00 0.  1.
</event>
<event>
 5    1  0.7220939E+001  0.1599658E+01  0.7818608E-02  0.3353734E+00
         11   -1    0    0    0    0  0.00000000000E+00  0.00000000000E+00  0.39999999674E+01  0.40000000000E+01  0.51100000000E-03 0. -1.
    9000002   -1    0    0    0    0 -0.00000000000E+00 -0.00000000000E+00  0.00000000000E+00  0.93800000000E+00  0.93800000000E+00 0. -1.
         11    1    1    2    0    0  0.96082831772E-01  0.77166004093E-01  0.13221621634E+01  0.13278928986E+01  0.51100000000E-03 0. -1.
    9000002    1    1    2    0    0 -0.29381162693E+00 -0.21736620515E+00  0.89734246118E-01  0.10106777796E+01  0.93800000000E+00 0. -1.
         22    1    1    2    0    0  0.19772879515E+00  0.14020020106E+00  0.25881035579E+01  0.25994293218E+01  0.00000000000E+00 0. -1.
</event>
<event>
 5    1  0.7220939E+001  0.1599676E+01  0.7818608E-02  0.3353715E+00
         11   -1    0    0    0    0  0.00000000000E+00  0.00000000000E+00  0.39999999674E+01  0.40000000000E+01  0.51100000000E-03 0.  1.
    9000002   -1    0    0    0    0 -0.00000000000E+00 -0.00000000000E+00  0.00000000000E+00  0.93800000000E+00  0.93800000000E+00 0.  1.
         11    1    1    2    0    0  0.15638382135E+00  0.69912425635E-01  0.73656864483E+00  0.75622567829E+00  0.51100000000E-03 0.  1.
    9000002    1    1    2    0    0 -0.74239963778E+00 -0.33653480031E+00  0.49198154033E+00  0.13365263671E+01  0.93800000000E+00 0.  1.
         22    1    1    2    0    0  0.58601581643E+00  0.26662237468E+00  0.27714497822E+01  0.28452479546E+01  0.00000000000E+00 0.  1.
</event>
<event>
 5    1  0.7220939E+001  0.1508454E+01  0.7818608E-02  0.3459140E+00
         11   -1    0    0    0    0  0.00000000000E+00  0.00000000000E+00  0.39999999674E+01  0.40000000000E+01  0.51100000000E-03 0.  1.
    9000002   -1    0    0    0    0 -0.00000000000E+00 -0.00000000000E+00  0.00000000000E+00  0.93800000000E+00  0.93800000000E+00 0. -1.
         11    1    1    2    0    0 -0.10500122238E+00  0.11848087516E+00  0.26142094962E+00  0.30562092287E+00  0.51100000000E-03 0.  1.
    9000002    1    1    2    0    0 -0.18221618651E+00  0.41179693390E+00  0.22128875112E+00  0.10637632090E+01  0.93800000000E+00 0. -1.
         22    1    1    2    0    0  0.28721740889E+00 -0.53027780906E+00  0.35172902666E+01  0.35686158682E+01  0.00000000000E+00 0.  1.
</event>
<event>
 5    1  0.7220939E+001  0.1599586E+01  0.7818608E-02  0.3353813E+00
         11   -1    0    0    0    0  0.00000000000E+00  0.00000000000E+00  0.39999999674E+01  0.40000000000E+01  0.51100000000E-03 0. -1.
    9000002   -1    0    0    0    0 -0.00000000000E+00 -0.00000000000E+00  0.00000000000E+00  0.93800000000E+00  0.93800000000E+00 0.  1.
         11    1    1    2    0    0 -0.28972945946E-01  0.10896644510E+00  0.57636680904E+00  0.58729215680E+00  0.51100000000E-03 0. -1.
    9000002    1    1    2    0    0  0.19381931998E+00 -0.64258942988E+00  0.31964358246E+00  0.11968722254E+01  0.93800000000E+00 0.  1.
         22    1    1    2    0    0 -0.16484637403E+00  0.53362298478E+00  0.31039895759E+01  0.31538356178E+01  0.00000000000E+00 0. -1.
</event>
<event>
 5    1  0.7220939E+001  0.1599673E+01  0.7818608E-02  0.3353718E+00
         11   -1    0    0    0    0  0.00000000000E+00  0.00000000000E+00  0.39999999674E+01  0.40000000000E+01  0.51100000000E-03 0.  1.
    9000002   -1    0    0    0    0 -0.00000000000E+00 -0.00000000000E+00  0.00000000000E+00  0.93800000000E+00  0.93800000000E+00 0.  1.
         11    1    1    2    0    0 -0.23065991691E-01  0.42210792836E-02  0.24358878627E+00  0.24471537631E+00  0.51100000000E-03 0.  1.
    9000002    1    1    2    0    0  0.35332774566E+00 -0.65974643395E-01  0.86720140086E-01  0.10082447779E+01  0.93800000000E+00 0.  1.
         22    1    1    2    0    0 -0.33026175397E+00  0.61753564112E-01  0.36696910410E+01  0.36850398458E+01  0.00000000000E+00 0.  1.
</event>
<event>
 5    1  0.7220939E+001  0.1580318E+01  0.7818608E-02  0.3375007E+00
         11   -1    0    0    0    0  0.00000000000E+00  0.00000000000E+00  0.39999999674E+01  0.40000000000E+01  0.51100000000E-03 0.  1.
    9000002   -1    0    0    0    0 -0.00000000000E+00 -0.00000000000E+00  0.00000000000E+00  0.93800000000E+00  0.93800000000E+00 0. -1.
         11    1    1    2    0    0 -0.15698104840E+00  0.44286393335E-01  0.50140292227E+00  0.52726604838E+00  0.51100000000E-03 0.  1.
    9000002    1    1    2    0    0  0.49157873868E+00  0.18744337287E+00  0.20841693754E+00  0.10954753736E+01  0.93800000000E+00 0. -1.
         22    1    1    2    0    0 -0.33459769029E+00 -0.23172976620E+00  0.32901801076E+01  0.33152585780E+01  0.00000000000E+00 0.  1.
</event>
<event>
 5    1  0.7220939E+001  0.1599416E+01  0.7818608E-02  0.3353998E+00
         11   -1    0    0    0    0  0.00000000000E+00  0.00000000000E+00  0.39999999674E+01  0.40000000000E+01  0.51100000000E-03 0. -1.
    9000002   -1    0    0    0    0 -0.00000000000E+00 -0.00000000000E+00  0.00000000000E+00  0.93800000000E+00  0.93800000000E+00 0.  1.
         11    1    1    2    0    0 -0.17223627123E-02  0.15588975050E+00  0.13378649830E+01  0.13469177981E+01  0.51100000000E-03 0. -1.
    9000002    1    1    2    0    0 -0.46663144612E-01 -0.43675166450E+00  0.13105367408E+00  0.10440060014E+01  0.93800000000E+00 0.  1.
         22    1    1    2    0    0  0.48385507324E-01  0.28086191400E+00  0.25310813102E+01  0.25470762005E+01  0.00000000000E+00 0. -1.
</event>
<event>
 5    1  0.7220939E+001  0.1596966E+01  0.7818608E-02  0.3356663E+00
         11   -1    0    0    0    0  0.00000000000E+00  0.00000000000E+00  0.39999999674E+01  0.40000000000E+01  0.51100000000E-03 0.  1.
    9000002   -1    0    0    0    0 -0.00000000000E+00 -0.00000000000E+00  0.00000000000E+00  0.93800000000E+00  0.93800000000E+00 0. -1.
         11    1    1    2    0    0  0.17371812482E+00  0.53382840354E-02  0.14198320784E+01  0.14304299620E+01  0.51100000000E-03 0.  1.
    9000002    1    1    2    0    0 -0.59410310148E+00 -0.10173505596E+00  0.25633732058E+00  0.11440547796E+01  0.93800000000E+00 0. -1.
         22    1    1    2    0    0  0.42038497665E+00  0.96396771921E-01  0.23238305683E+01  0.23635152584E+01  0.00000000000E+00 0.  1.
</event>
<event>
 5    1  0.7220939E+001  0.1598752E+01  0.7818608E-02  0.3354719E+00
         11   -1    0    0    0    0  0.00000000000E+00  0.00000000000E+00  0.39999999674E+01  0.40000000000E+01  0.51100000000E-03 0. -1.
    9000002   -1    0    0    0    0 -0.00000000000E+00 -0.00000000000E+00  0.00000000000E+00  0.93800000000E+00  0.93800000000E+00 0.  1.
         11    1    1    2    0    0 -0.32916833550E-01 -0.23854531311E-01  0.28126357477E+00  0.28418658696E+00  0.51100000000E-03 0. -1.
    9000002    1    1    2    0    0  0.47637482902E+00  0.55524781094E+00  0.38698700066E+00  0.12509340702E+01  0.93800000000E+00 0.  1.
         22    1    1    2    0    0 -0.44345799547E+00 -0.53139327963E+00  0.33317493919E+01  0.34028793428E+01  0.00000000000E+00 0. -1.
</event>
<event>
 5    1  0.7220939E+001  0.1453096E+01  0.7818608E-02  0.3530065E+00
         11   -1    0    0    0    0  0.00000000000E+00  0.00000000000E+00  0.39999999674E+01  0.40000000000E+01  0.51100000000E-03 0.  1.
    9000002   -1    0    0    0    0 -0.00000000000E+00 -0.00000000000E+00  0.00000000000E+00  0.93800000000E+00  0.93800000000E+00 0.  1.
         11    1    1    2    0    0  0.11077371958E+00 -0.54429407962E-01  0.14062158915E-01  0.12422311716E+00  0.51100000000E-03 0.  1.
    9000002    1    1    2    0    0 -0.21936388873E+00 -0.37612804188E+00  0.26649393338E+00  0.10679212687E+01  0.93800000000E+00 0.  1.
         22    1    1    2    0    0  0.10859016914E+00  0.43055744984E+00  0.37194438751E+01  0.37458556142E+01  0.00000000000E+00 0.  1.
</event>
<event>
 5    1  0.7220939E+001  0.1599638E+01  0.7818608E-02  0.3353756E+00
         11   -1    0    0    0    0  0.00000000000E+00  0.00000000000E+00  0.39999999674E+01  0.40000000000E+01  0.51100000000E-03 0.  1.
    9000002   -1    0    0    0    0 -0.00000000000E+00 -0.00000000000E+00  0.00000000000E+00  0.93800000000E+00  0.93800000000E+00 0.  1.
         11    1    1    2    0    0 -0.34108226697E-01 -0.67675242089E-01  0.64473388955E+00  0.64917282674E+00  0.51100000000E-03 0.  1.
    9000002    1    1    2    0    0  0.22693220545E+00  0.38103595391E+00  0.13349268426E+00  0.10461122888E+01  0.93800000000E+00 0.  1.
         22    1    1    2    0    0 -0.19282397875E+00 -0.31336071182E+00  0.32217733935E+01  0.32427148845E+01  0.00000000000E+00 0.  1.
</event>
<event>
 5    1  0.7220939E+001  0.1587895E+01  0.7818608E-02  0.3366607E+00
         11   -1    0    0    0    0  0.00000000000E+00  0.00000000000E+00  0.39999999674E+01  0.40000000000E+01  0.51100000000E-03 0.  1.
    9000002   -1    0    0    0    0 -0.00000000000E+00 -0.00000000000E+00  0.00000000000E+00  0.93800000000E+00  0.93800000000E+00 0. -1.
         11    1    1    2    0    0 -0.33506320994E+00 -0.28114972045E-01  0.99633281613E+00  0.10515403691E+01  0.51100000000E-03 0.  1.
    9000002    1    1    2    0    0  0.76746426900E+00  0.18822739714E+00  0.47365130480E+00  0.13147701380E+01  0.93800000000E+00 0. -1.
         22    1    1    2    0    0 -0.43240105906E+00 -0.16011242509E+00  0.25300158464E+01  0.25716894929E+01  0.00000000000E+00 0.  1.
</event>
<event>
 5    1  0.7220939E+001  0.1599187E+01  0.7818608E-02  0.3354247E+00
         11   -1    0    0    0    0  0.00000000000E+00  0.00000000000E+00  0.39999999674E+01  0.40000000000E+01  0.51100000000E-03 0.  1.
    9000002   -1    0    0    0    0 -0.00000000000E+00 -0.00000000000E+00  0.00000000000E+00  0.93800000000E+00  0.93800000000E+00 0.  1.
         11    1    1    2    0    0 -0.16945638223E+00 -0.12585232232E+00  0.14164579061E+01  0.14320989957E+01  0.51100000000E-03 0.  1.
    9000002    1    1    2    0    0  0.43986874910E+00  0.40148642980E+00  0.24770796646E+00  0.11383668593E+01  0.93800000000E+00 0.  1.
         22    1    1    2    0    0 -0.27041236687E+00 -0.27563410749E+00  0.23358340948E+01  0.23675341450E+01  0.00000000000E+00 0.  1.
</event>
<event>
 5    1  0.7220939E+001  0.1598482E+01  0.7818608E-02  0.3355012E+00
         11   -1    0    0    0    0  0.00000000000E+00  0.00000000000E+00  0.39999999674E+01  0.40000000000E+01  0.51100000000E-03 0. -1.
    9000002   -1    0    0    0    0 -0.00000000000E+00 -0.00000000000E+00  0.00000000000E+00  0.93800000000E+00  0.93800000000E+00 0.  1.
         11    1    1    2    0    0 -0.14011151052E+00  0.17674200903E+00  0.12326086030E+01  0.12530735024E+01  0.51100000000E-03 0. -1.
    9000002    1    1    2    0    0  0.31597990929E+00 -0.49395180004E+00  0.24037538285E+00  0.11320141380E+01  0.93800000000E+00 0.  1.
         22    1    1    2    0    0 -0.17586839877E+00  0.31720979101E+00  0.25270159815E+01  0.25529123597E+01  0.00000000000E+00 0. -1.
</event>
<event>
 5    1  0.7220939E+001  0.1595271E+01  0.7818608E-02  0.3358512E+00
         11   -1    0    0    0    0  0.00000000000E+00  0.00000000000E+00  0.39999999674E+01  0.40000000000E+01  0.51100000000E-03 0. -1.
    9000002   -1    0    0    0    0 -0.00000000000E+00 -0.00000000000E+00  0.00000000000E+00  0.93800000000E+00  0.93800000000E+00 0.  1.
         11    1    1    2    0    0  0.13904910475E+00 -0.88923730094E-01  0.13169062871E+01  0.13272092952E+01  0.51100000000E-03 0. -1.
    9000002    1    1    2    0    0 -0.25000673245E+00  0.41644498423E+00  0.16505713883E+00  0.10691200355E+01  0.93800000000E+00 0.  1.
         22    1    1    2    0    0  0.11095762770E+00 -0.32752125413E+00  0.25180365415E+01  0.25416706693E+01  0.00000000000E+00 0. -1.
</event>
<event>
 5    1  0.7220939E+001  0.1599667E+01  0.7818608E-02  0.3353725E+00
         11   -1    0    0    0    0  0.00000000000E+00  0.00000000000E+00  0.39999999674E+01  0.40000000000E+01  0.51100000000E-03 0.  1.
    9000002   -1    0    0    0    0 -0.00000000000E+00 -0.00000000000E+00  0.00000000000E+00  0.93800000000E+00  0.93800000000E+00 0. -1.
         11    1    1    2    0    0  0.17145189114E+00  0.35737184143E-01  0.63598013390E+00  0.65965437097E+00  0.51100000000E-03 0.  1.
    9000002    1    1    2    0    0 -0.89054026122E+00 -0.19227691907E+00  0.63843474702E+00  0.14551547329E+01  0.93800000000E+00 0. -1.
         22    1    1    2    0    0  0.71908837008E+00  0.15653973492E+00  0.27255850864E+01  0.28231908961E+01  0.00000000000E+00 0.  1.
</event>
<event>
 5    1  0.7220939E+001  0.1488841E+01  0.7818608E-02  0.3483615E+00
         11   -1    0    0    0    0  0.00000000000E+00  0.00000000000E+00  0.39999999674E+01  0.40000000000E+01  0.51100000000E-03 0. -1.
    9000002   -1    0    0    0    0 -0.00000000000E+00 -0.00000000000E+00  0.00000000000E+00  0.93800000000E+00  0.93800000000E+00 0. -1.
         11    1    1    2    0    0 -0.86055849443E-01  0.36200981638E+00  0.11970054551E+01  0.12535066961E+01  0.51100000000E-03 0. -1.
    9000002    1    1    2    0    0  0.95286652428E-01  0.13750891673E-01  0.91820353729E-01  0.94738778254E+00  0.93800000000E+00 0. -1.
         22    1    1    2    0    0 -0.92308029843E-02 -0.37576070805E+00  0.27111741585E+01  0.27371055214E+01  0.00000000000E+00 0. -1.
</event>
<event>
 5    1  0.7220939E+001  0.1599676E+01  0.7818608E-02  0.3353715E+00
         11   -1    0    0    0    0  0.00000000000E+00  0.00000000000E+00  0.39999999674E+01  0.40000000000E+01  0.51100000000E-03 0. -1.
    9000002   -1    0    0    0    0 -0.00000000000E+00 -0.00000000000E+00  0.00000000000E+00  0.93800000000E+00  0.93800000000E+00 0. -1.
         11    1    1    2    0    0 -0.35584393294E+00 -0.20358534658E+00  0.12062577855E+01  0.12740211945E+01  0.51100000000E-03 0. -1.
    9000002    1    1    2    0    0  0.90951914094E+00  0.52288873725E+00  0.91278533327E+00  0.16773964242E+01  0.93800000000E+00 0. -1.
         22    1    1    2    0    0 -0.55367520800E+00 -0.31930339068E+00  0.18809568486E+01  0.19865823813E+01  0.00000000000E+00 0. -1.
</event>
<event>
 5    1  0.7220939E+001  0.1597179E+01  0.7818608E-02  0.3356431E+00
         11   -1    0    0    0    0  0.00000000000E+00  0.00000000000E+00  0.39999999674E+01  0.40000000000E+01  0.51100000000E-03 0. -1.
    9000002   -1    0    0    0    0 -0.00000000000E+00 -0.00000000000E+00  0.00000000000E+00  0.93800000000E+00  0.93800000000E+00 0.  1.
         11    1    1    2    0    0  0.17645818979E+00 -0.12422807925E+00  0.14379399140E+01  0.14540431788E+01  0.51100000000E-03 0. -1.
    9000002    1    1    2    0    0 -0.42748085168E+00  0.18294319103E+00  0.14936317814E+00  0.10575260983E+01  0.93800000000E+00 0.  1.
         22    1    1    2    0    0  0.25102266189E+00 -0.58715111784E-01  0.24126968752E+01  0.24264307228E+01  0.00000000000E+00 0. -1.
</event>
<event>
 5    1  0.7220939E+001  0.1599676E+01  0.7818608E-02  0.3353715E+00
         11   -1    0    0    0    0  0.00000000000E+00  0.00000000000E+00  0.39999999674E+01  0.40000000000E+01  0.51100000000E-03 0.  1.
    9000002   -1    0    0    0    0 -0.00000000000E+00 -0.00000000000E+00  0.00000000000E+00  0.93800000000E+00  0.93800000000E+00 0.  1.
         11    1    1    2    0    0 -0.14909470870E+00 -0.43655393174E-01  0.13874815045E+01  0.13961519301E+01  0.51100000000E-03 0.  1.
    9000002    1    1    2    0    0  0.41849449727E+00  0.12162930800E+00  0.12873430443E+00  0.10422801226E+01  0.93800000000E+00 0.  1.
         22    1    1    2    0    0 -0.26939978857E+00 -0.77973914823E-01  0.24837841584E+01  0.24995679473E+01  0.00000000000E+00 0.  1.
</event>
<event>
 5    1  0.7220939E+001  0.1533574E+01  0.7818608E-02  0.3428773E+00
         11   -1    0    0    0    0  0.00000000000E+00  0.00000000000E+00  0.39999999674E+01  0.40000000000E+01  0.51100000000E-03 0.  1.
    9000002   -1    0    0    0    0 -0.00000000000E+00 -0.00000000000E+00  0.00000000000E+00  0.93800000000E+00  0.93800000000E+00 0. -1.
         11    1    1    2    0    0  0.25670043933E-01 -0.17947197405E+00  0.10614167660E+01  0.10767891868E+01  0.51100000000E-03 0.  1.
    9000002    1    1    2    0    0  0.23175036555E+00 -0.29783459159E+00  0.15209564675E+00  0.10224435249E+01  0.93800000000E+00 0. -1.
         22    1    1    2    0    0 -0.25742040948E+00  0.47730656564E+00  0.27864875546E+01  0.28387672883E+01  0.00000000000E+00 0.  1.
</event>
<event>
 5    1  0.7220939E+001  0.1599675E+01  0.7818608E-02  0.3353716E+00
         11   -1    0    0    0    0  0.00000000000E+00  0.00000000000E+00  0.39999999674E+01  0.40000000000E+01  0.51100000000E-03 0. -1.
    9000002   -1    0    0    0    0 -0.00000000000E+00 -0.00000000000E+00  0.00000000000E+00  0.93800000000E+00  0.93800000000E+00 0.  1.
         11    1    1    2    0    0  0.12539881057E+00  0.62207615886E-04  0.91320700009E+00  0.92177662787E+00  0.51100000000E-03 0. -1.
    9000002    1    1    2    0    0 -0.52155680862E+00  0.45969826006E-02  0.18692431171E+00  0.10894160524E+01  0.93800000000E+00 0.  1.
         22    1    1    2    0    0  0.39615799805E+00 -0.46591902164E-02  0.28998686556E+01  0.29268073198E+01  0.00000000000E+00 0. -1.
</event>
<event>
 5    1  0.7220939E+001  0.1599636E+01  0.7818608E-02  0.3353758E+00
         11   -1    0    0    0    0  0.00000000000E+00  0.00000000000E+00  0.39999999674E+01  0.40000000000E+01  0.51100000000E-03 0.  1.
    9000002   -1    0    0    0    0 -0.00000000000E+00 -0.00000000000E+00  0.00000000000E+00  0.93800000000E+00  0.93800000000E+00 0. -1.
         11    1    1    2    0    0  0.45848597834E-01 -0.83070621486E-01  0.10321813369E+01  0.10365333547E+01  0.51100000000E-03 0.  1.
    9000002    1    1    2    0    0 -0.19757190474E+00  0.32298830948E+00  0.96473313404E-01  0.10161236174E+01  0.93800000000E+00 0. -1.
         22    1    1    2    0    0  0.15172330690E+00 -0.23991768799E+00  0.28713453171E+01  0.28853430279E+01  0.00000000000E+00 0.  1.
</event>
<event>
 5    1  0.7220939E+001  0.1566505E+01  0.7818608E-02  0.3390540E+00
         11   -1    0    0    0    0  0.00000000000E+00  0.00000000000E+00  0.39999999674E+01  0.40000000000E+01  0.51100000000E-03 0.  1.
    9000002   -1    0    0    0    0 -0.00000000000E+00 -0.00000000000E+00  0.00000000000E+00  0.93800000000E+00  0.93800000000E+00 0. -1.
         11    1    1    2    0    0 -0.28523738105E-01 -0.14981162005E+00  0.85940214406E+00  0.87282840896E+00  0.51100000000E-03 0.  1.
    9000002    1    1    2    0    0  0.15532682006E+00 -0.14303451151E+00  0.54924013958E-01  0.96303994716E+00  0.93800000000E+00 0. -1.
         22    1    1    2    0    0 -0.12680308196E+00  0.29284613156E+00  0.30856738093E+01  0.31021316439E+01  0.00000000000E+00 0.  1.
</event>
<event>
 5    1  0.7220939E+001  0.1599665E+01  0.7818608E-02  0.3353727E+00
         11   -1    0    0    0    0  0.00000000000E+00  0.00000000000E+00  0.39999999674E+01  0.40000000000E+01  0.51100000000E-03 0. -1.
    9000002   -1    0    0    0    0 -0.00000000000E+00 -0.00000000000E+00  0.00000000000E+00  0.93800000000E+00  0.93800000000E+00 0.  1.
         11    1    1    2    0    0 -0.73879105210E-03  0.36696324266E-02  0.37409838490E-01  0.37600121691E-01  0.51100000000E-03 0. -1.
    9000002    1    1    2    0    0  0.12981593003E-01 -0.36075011137E+00  0.87491426384E-01  0.10088646660E+01  0.93800000000E+00 0.  1.
         22    1    1    2    0    0 -0.12242801950E-01  0.35708047894E+00  0.38750987025E+01  0.38915352123E+01  0.00000000000E+00 0. -1.
</event>
<event>
 5    1  0.7220939E+001  0.1599551E+01  0.7818608E-02  0.3353851E+00
         11   -1    0    0    0    0  0.00000000000E+00  0.00000000000E+00  0.39999999674E+01  0.40000000000E+01  0.51100000000E-03 0. -1.
    9000002   -1    0    0    0    0 -0.00000000000E+00 -0.00000000000E+00  0.00000000000E+00  0.93800000000E+00  0.93800000000E+00 0. -1.
         11    1    1    2    0    0 -0.10761970049E-01  0.89318451504E-01  0.97921084448E+00  0.98333501151E+00  0.51100000000E-03 0. -1.
    9000002    1    1    2    0    0  0.16056700164E-01 -0.39361561404E+00  0.10470316898E+00  0.10227403497E+01  0.93800000000E+00 0. -1.
         22    1    1    2    0    0 -0.52947301153E-02  0.30429716253E+00  0.29160859539E+01  0.29319246388E+01  0.00000000000E+00 0. -1.
</event>
<event>
 5    1  0.7220939E+001  0.1598989E+01  0.7818608E-02  0.3354461E+00
         11   -1    0    0    0    0  0.00000000000E+00  0.00000000000E+00  0.39999999674E+01  0.40000000000E+01  0.51100000000E-03 0. -1.
    9000002   -1    0    0    0    0 -0.00000000000E+00 -0.00000000000E+00  0.00000000000E+00  0.93800000000E+00  0.93800000000E+00 0. -1.
         11    1    1    2    0    0 -0.93872462881E-01 -0.75034228498E-01  0.14713638384E+01  0.14762635201E+01  0.51100000000E-03 0. -1.
    9000002    1    1    2    0    0  0.32885954872E+00  0.18316868181E+00  0.95863510227E-01  0.10152503048E+01  0.93800000000E+00 0. -1.
         22    1    1    2    0    0 -0.23498708584E+00 -0.10813445331E+00  0.24327726187E+01  0.24464861751E+01  0.00000000000E+00 0. -1.
</event>
<event>
 5    1  0.7220939E+001  0.1598523E+01  0.7818608E-02  0.3354968E+00
         11   -1    0    0    0    0  0.00000000000E+00  0.00000000000E+00  0.39999999674E+01  0.40000000000E+01  0.51100000000E-03 0. -1.
    9000002   -1    0    0    0    0 -0.00000000000E+00 -0.00000000000E+00  0.00000000000E+00  0.93800000000E+00  0.93800000000E+00 0. -1.
         11    1    1    2    0    0 -0.11625877598E-01  0.19236521706E+00  0.13958565007E+01  0.14090972889E+01  0.51100000000E-03 0. -1.
    9000002    1    1    2    0    0  0.60724307642E-01 -0.42789537866E+00  0.12751804585E+00  0.10406184453E+01  0.93800000000E+00 0. -1.
         22    1    1    2    0    0 -0.49098430045E-01  0.23553016160E+00  0.24766254208E+01  0.24882842659E+01  0.00000000000E+00 0. -1.
</event>
<event>
 5    1  0.7220939E+001  0.1493135E+01  0.7818608E-02  0.3478198E+00
         11   -1    0    0    0    0  0.00000000000E+00  0.00000000000E+00  0.39999999674E+01  0.40000000000E+01  0.51100000000E-03 0.  1.
    9000002   -1    0    0    0    0 -0.00000000000E+00 -0.00000000000E+00  0.00000000000E+00  0.93800000000E+00  0.93800000000E+00 0.  1.
         11    1    1    2    0    0 -0.20815412915E+00 -0.25783812641E+00  0.10586456363E+01  0.11092968428E+01  0.51100000000E-03 0.  1.
    9000002    1    1    2    0    0 -0.29384405717E-01 -0.65252415115E-01  0.85246575021E-01  0.94458048865E+00  0.93800000000E+00 0.  1.
         22    1    1    2    0    0  0.23753853487E+00  0.32309054153E+00  0.28561077560E+01  0.28841226686E+01  0.00000000000E+00 0.  1.
</event>
<event>
 5    1  0.7220939E+001  0.1594410E+01  0.7818608E-02  0.3359453E+00
         11   -1    0    0    0    0  0.00000000000E+00  0.00000000000E+00  0.39999999674E+01  0.40000000000E+01  0.51100000000E-03 0. -1.
    9000002   -1    0    0    0    0 -0.00000000000E+00 -0.00000000000E+00  0.00000000000E+00  0.93800000000E+00  0.93800000000E+00 0.  1.
         11    1    1    2    0    0  0.30325905458E-02 -0.29691032495E-01  0.12558219951E+01  0.12561766988E+01  0.51100000000E-03 0. -1.
    9000002    1    1    2    0    0 -0.11055466162E+00  0.32649269813E+00  0.83862964828E-01  0.10028443608E+01  0.93800000000E+00 0.  1.
         22    1    1    2    0    0  0.10752207107E+00 -0.29680166563E+00  0.26603150074E+01  0.26789789404E+01  0.00000000000E+00 0. -1.
</event>
<event>
 5    1  0.7220939E+001  0.1598960E+01  0.7818608E-02  0.3354493E+00
         11   -1    0    0    0    0  0.00000000000E+00  0.00000000000E+00  0.39999999674E+01  0.40000000000E+01  0.51100000000E-03 0.  1.
    9000002   -1    0    0    0    0 -0.00000000000E+00 -0.00000000000E+00  0.00000000000E+00  0.93800000000E+00  0.93800000000E+00 0.  1.
         11    1    1    2    0    0  0.17392426047E-01 -0.25743808252E-01  0.47003036079E+00  0.47105630379E+00  0.51100000000E-03 0.  1.
    9000002    1    1    2    0    0 -0.10183940411E+00  0.38234432614E+00  0.10613833975E+00  0.10235564445E+01  0.93800000000E+00 0.  1.
         22    1    1    2    0    0  0.84446978066E-01 -0.35660051789E+00  0.34238312668E+01  0.34433872517E+01  0.00000000000E+00 0.  1.
</event>
<event>
 5    1  0.7220939E+001  0.1598886E+01  0.7818608E-02  0.3354574E+00
         11   -1    0    0    0    0  0.00000000000E+00  0.00000000000E+00  0.39999999674E+01  0.40000000000E+01  0.51100000000E-03 0. -1.
    9000002   -1    0    0    0    0 -0.00000000000E+00 -0.00000000000E+00  0.00000000000E+00  0.93800000000E+00  0.93800000000E+00 0. -1.
         11    1    1    2    0    0  0.35989168783E-01  0.74195919564E-01  0.10630364113E+01  0.10662302414E+01  0.51100000000E-03 0. -1.
    9000002    1    1    2    0    0 -0.43572901154E-01 -0.33984387288E+00  0.79284152784E-01  0.10017596681E+01  0.93800000000E+00 0. -1.
         22    1    1    2    0    0  0.75837323711E-02  0.26564795332E+00  0.28576794032E+01  0.28700100905E+01  0.00000000000E+00 0. -1.
</event>
<event>
 5    1  0.7220939E+001  0.1599677E+01  0.7818608E-02  0.3353714E+00
         11   -1    0    0    0    0  0.00000000000E+00  0.00000000000E+00  0.39999999674E+01  0.40000000000E+01  0.51100000000E-03 0. -1.
    9000002   -1    0    0    0    0 -0.00000000000E+00 -0.00000000000E+00  0.00000000000E+00  0.93800000000E+00  0.93800000000E+00 0.  1.
         11    1    1    2    0    0 -0.10948404904E+00 -0.42584804759E-01  0.12852740360E+01  0.12906315630E+01  0.51100000000E-03 0. -1.
    9000002    1    1    2    0    0  0.33388187136E+00  0.13130076940E+00  0.86390996181E-01  0.10079803571E+01  0.93800000000E+00 0.  1.
         22    1    1    2    0    0 -0.22439782232E+00 -0.88715964637E-01  0.26283349352E+01  0.26393880799E+01  0.00000000000E+00 0.  1.
</event>
<event>
 5    1  0.7220939E+001  0.1599635E+01  0.7818608E-02  0.3353760E+00
         11   -1    0    0    0    0  0.00000000000E+00  0.00000000000E+00  0.39999999674E+01  0.40000000000E+01  0.51100000000E-03 0.  1.
    9000002   -1    0    0    0    0 -0.00000000000E+00 -0.00000000000E+00  0.00000000000E+00  0.93800000000E+00  0.93800000000E+00 0. -1.
         11    1    1    2    0    0  0.52543199426E-01  0.39859744928E-01  0.61258763474E+00  0.61612779391E+00  0.51100000000E-03 0.  1.
    9000002    1    1    2    0    0 -0.30385054218E+00 -0.23440411423E+00  0.99169562695E-01  0.10183069493E+01  0.93800000000E+00 0. -1.
         22    1    1    2    0    0  0.25130734276E+00  0.19454436930E+00  0.32882427699E+01  0.33035652568E+01  0.00000000000E+00 0.  1.
</event>
<event>
 5    1  0.7220939E+001  0.1599672E+01  0.7818608E-02  0.3353719E+00
         11   -1    0    0    0    0  0.00000000000E+00  0.00000000000E+00  0.39999999674E+01  0.40000000000E+01  0.51100000000E-03 0.  1.
    9000002   -1    0    0    0    0 -0.00000000000E+00 -0.00000000000E+00  0.00000000000E+00  0.93800000000E+00  0.93800000000E+00 0. -1.
         11    1    1    2    0    0 -0.27774714444E-01 -0.59061610953E-01  0.45937433120E+00  0.46398787262E+00  0.51100000000E-03 0.  1.
    9000002    1    1    2    0    0  0.22685743870E+00  0.47645612275E+00  0.19155611711E+00  0.10931662638E+01  0.93800000000E+00 0. -1.
         22    1    1    2    0    0 -0.19908272425E+00 -0.41739451180E+00  0.33490695190E+01  0.33808458635E+01  0.00000000000E+00 0.  1.
</event>
<event>
 5    1  0.7220939E+001  0.1597630E+01  0.7818608E-02  0.3355939E+00
         11   -1    0    0    0    0  0.00000000000E+00  0.00000000000E+00  0.39999999674E+01  0.40000000000E+01  0.51100000000E-03 0. -1.
    9000002   -1    0    0    0    0 -0.00000000000E+00 -0.00000000000E+00  0.00000000000E+00  0.93800000000E+00  0.93800000000E+00 0. -1.
         11    1    1    2    0    0 -0.83513412221E-01  0.40458764721E-01  0.59075730466E+00  0.59800155166E+00  0.51100000000E-03 0. -1.
    9000002    1    1    2    0    0  0.35439366386E+00 -0.43665366548E+00  0.22092138529E+00  0.11157560446E+01  0.93800000000E+00 0. -1.
         22    1    1    2    0    0 -0.27088025164E+00  0.39619490076E+00  0.31883212774E+01  0.32242424037E+01  0.00000000000E+00 0. -1.
</event>
<event>
 5    1  0.7220939E+001  0.1499702E+01  0.7818608E-02  0.3469977E+00
         11   -1    0    0    0    0  0.00000000000E+00  0.00000000000E+00  0.39999999674E+01  0.40000000000E+01  0.51100000000E-03 0.  1.
    9000002   -1    0    0    0    0 -0.00000000000E+00 -0.00000000000E+00  0.00000000000E+00  0.93800000000E+00  0.93800000000E+00 0.  1.
         11    1    1    2    0    0 -0.16974339065E+00  0.31430656405E-01  0.16813205930E+00  0.24097583970E+00  0.51100000000E-03 0.  1.
    9000002    1    1    2    0    0  0.23006411877E-02 -0.35212562447E+00  0.16868479923E+00  0.10160198373E+01  0.93800000000E+00 0.  1.
         22    1    1    2    0    0  0.16744274947E+00  0.32069496806E+00  0.36631831088E+01  0.36810043230E+01  0.00000000000E+00 0.  1.
</event>
<event>
 5    1  0.7220939E+001  0.1599523E+01  0.7818608E-02  0.3353882E+00
         11   -1    0    0    0    0  0.00000000000E+00  0.00000000000E+00  0.39999999674E+01  0.40000000000E+01  0.51100000000E-03 0. -1.
    9000002   -1    0    0    0    0 -0.00000000000E+00 -0.00000000000E+00  0.00000000000E+00  0.93800000000E+00  0.93800000000E+00 0.  1.
         11    1    1    2    0    0  0.21806511808E-01  0.32144060207E-01  0.34055267011E+00  0.34276106372E+00  0.51100000000E-03 0. -1.
    9000002    1    1    2    0    0 -0.15307869866E+00 -0.36083492926E+00  0.10365200192E+00  0.10218721406E+01  0.93800000000E+00 0.  1.
         22    1    1    2    0    0  0.13127218685E+00  0.32869086905E+00  0.35557952953E+01  0.35733667957E+01  0.00000000000E+00 0. -1.
</event>
<event>
 5    1  0.7220939E+001  0.1599676E+01  0.7818608E-02  0.3353715E+00
         11   -1    0    0    0    0  0.00000000000E+00  0.00000000000E+00  0.39999999674E+01  0.40000000000E+01  0.51100000000E-03 0. -1.
    9000002   -1    0    0    0    0 -0.00000000000E+00 -0.00000000000E+00  0.00000000000E+00  0.93800000000E+00  0.93800000000E+00 0.  1.
         11    1    1    2    0    0 -0.38588888274E-01  0.22561822782E-01  0.41023376095E+00  0.41266225644E+00  0.51100000000E-03 0.  1.
    9000002    1    1    2    0    0  0.36134734018E+00 -0.21257559125E+00  0.11885566546E+00  0.10342779856E+01  0.93800000000E+00 0.  1.
         22    1    1    2    0    0 -0.32275845191E+00  0.19001376847E+00  0.34709105410E+01  0.34910597580E+01  0.00000000000E+00 0. -1.
</event>
<event>
 5    1  0.7220939E+001  0.1479588E+01  0.7818608E-02  0.3495406E+00
         11   -1    0    0    0    0  0.00000000000E+00  0.00000000000E+00  0.39999999674E+01  0.40000000000E+01  0.51100000000E-03 0. -1.
    9000002   -1    0    0    0    0 -0.00000000000E+00 -0.00000000000E+00  0.00000000000E+00  0.93800000000E+00  0.93800000000E+00 0.  1.
         11    1    1    2    0    0  0.21558607215E+00 -0.30594366277E+00  0.13370027544E+01  0.13884003405E+01  0.51100000000E-03 0. -1.
    9000002    1    1    2    0    0  0.28929711033E+00 -0.20099360198E+00  0.24988388845E+00  0.10326554139E+01  0.93800000000E+00 0.  1.
         22    1    1    2    0    0 -0.50488318248E+00  0.50693726476E+00  0.24131133246E+01  0.25169442456E+01  0.00000000000E+00 0. -1.
</event>
<event>
 5    1  0.7220939E+001  0.1599671E+01  0.7818608E-02  0.3353720E+00
         11   -1    0    0    0    0  0.00000000000E+00  0.00000000000E+00  0.39999999674E+01  0.40000000000E+01  0.51100000000E-03 0. -1.
    9000002   -1    0    0    0    0 -0.00000000000E+00 -0.00000000000E+00  0.00000000000E+00  0.93800000000E+00  0.93800000000E+00 0. -1.
         11    1    1    2    0    0  0.88786096929E-01 -0.18940766683E+00  0.11600285072E+01  0.11787385774E+01  0.51100000000E-03 0. -1.
    9000002    1    1    2    0    0 -0.27478747210E+00  0.60614898438E+00  0.31374294853E+00  0.11921423505E+01  0.93800000000E+00 0. -1.
         22    1    1    2    0    0  0.18600137517E+00 -0.41674131754E+00  0.25262285116E+01  0.25671190721E+01  0.00000000000E+00 0. -1.
</event>
<event>
 5    1  0.7220939E+001  0.1599379E+01  0.7818608E-02  0.3354038E+00
         11   -1    0    0    0    0  0.00000000000E+00  0.00000000000E+00  0.39999999674E+01  0.40000000000E+01  0.51100000000E-03 0.  1.
    9000002   -1    0    0    0    0 -0.00000000000E+00 -0.00000000000E+00  0.00000000000E+00  0.93800000000E+00  0.93800000000E+00 0.  1.
         11    1    1    2    0    0  0.10961216775E+00  0.42556967684E-02  0.11022694850E+01  0.11077144113E+01  0.51100000000E-03 0.  1.
    9000002    1    1    2    0    0 -0.44128116204E+00 -0.48753063233E-01  0.13400963984E+00  0.10463787597E+01  0.93800000000E+00 0.  1.
         22    1    1    2    0    0  0.33166899429E+00  0.44497366465E-01  0.27637208425E+01  0.27839068290E+01  0.00000000000E+00 0.  1.
</event>
<event>
 5    1  0.7220939E+001  0.1598955E+01  0.7818608E-02  0.3354499E+00
         11   -1    0    0    0    0  0.00000000000E+00  0.00000000000E+00  0.39999999674E+01  0.40000000000E+01  0.51100000000E-03 0. -1.
    9000002   -1    0    0    0    0 -0.00000000000E+00 -0.00000000000E+00  0.00000000000E+00  0.93800000000E+00  0.93800000000E+00 0. -1.
         11    1    1    2    0    0 -0.77280413591E-01 -0.15717268330E-01  0.55456458406E+00  0.56014411883E+00  0.51100000000E-03 0. -1.
    9000002    1    1    2    0    0  0.38354373598E+00  0.12930651310E+00  0.11117492740E+00  0.10276331234E+01  0.93800000000E+00 0. -1.
         22    1    1    2    0    0 -0.30626332239E+00 -0.11358924477E+00  0.33342604559E+01  0.33502227578E+01  0.00000000000E+00 0. -1.
</event>
<event>
 5    1  0.7220939E+001  0.1577532E+01  0.7818608E-02  0.3378116E+00
         11   -1    0    0    0    0  0.00000000000E+00  0.00000000000E+00  0.39999999674E+01  0.40000000000E+01  0.51100000000E-03 0. -1.
    9000002   -1    0    0    0    0 -0.00000000000E+00 -0.00000000000E+00  0.00000000000E+00  0.93800000000E+00  0.93800000000E+00 0.  1.
         11    1    1    2    0    0  0.64252678712E-01 -0.34975376346E+00  0.10060885977E+01  0.10670851087E+01  0.51100000000E-03 0. -1.
    9000002    1    1    2    0    0 -0.40659828357E+00  0.67575130021E+00  0.48517733433E+00  0.13180299806E+01  0.93800000000E+00 0.  1.
         22    1    1    2    0    0  0.34234560486E+00 -0.32599753675E+00  0.25087340353E+01  0.25528849107E+01  0.00000000000E+00 0. -1.
</event>
<event>
 5    1  0.7220939E+001  0.1573197E+01  0.7818608E-02  0.3382979E+00
         11   -1    0    0    0    0  0.00000000000E+00  0.00000000000E+00  0.39999999674E+01  0.40000000000E+01  0.51100000000E-03 0. -1.
    9000002   -1    0    0    0    0 -0.00000000000E+00 -0.00000000000E+00  0.00000000000E+00  0.93800000000E+00  0.93800000000E+00 0. -1.
         11    1    1    2    0    0  0.66919086635E-02  0.72866111561E-01  0.11673603293E+00  0.13777450548E+00  0.51100000000E-03 0. -1.
    9000002    1    1    2    0    0  0.49332546674E+00 -0.19267152205E+00  0.21794201644E+00  0.10990154931E+01  0.93800000000E+00 0. -1.
         22    1    1    2    0    0 -0.50001737540E+00  0.11980541049E+00  0.36653219180E+01  0.37012100014E+01  0.00000000000E+00 0. -1.
</event>
<event>
 5    1  0.7220939E+001  0.1598633E+01  0.7818608E-02  0.3354848E+00
         11   -1    0    0    0    0  0.00000000000E+00  0.00000000000E+00  0.39999999674E+01  0.40000000000E+01  0.51100000000E-03 0.  1.
    9000002   -1    0    0    0    0 -0.00000000000E+00 -0.00000000000E+00  0.00000000000E+00  0.93800000000E+00  0.93800000000E+00 0.  1.
         11    1    1    2    0    0 -0.86031436058E-02 -0.77898869320E-01  0.80523840182E+00  0.80904350490E+00  0.51100000000E-03 0.  1.
    9000002    1    1    2    0    0  0.18361146518E+00  0.42464513070E+00  0.14655719064E+00  0.10561058978E+01  0.93800000000E+00 0.  1.
         22    1    1    2    0    0 -0.17500832158E+00 -0.34674626138E+00  0.30482043749E+01  0.30728505973E+01  0.00000000000E+00 0.  1.
</event>
<event>
 5    1  0.7220939E+001  0.1588141E+01  0.7818608E-02  0.3366336E+00
         11   -1    0    0    0    0  0.00000000000E+00  0.00000000000E+00  0.39999999674E+01  0.40000000000E+01  0.51100000000E-03 0.  1.
    9000002   -1    0    0    0    0 -0.00000000000E+00 -0.00000000000E+00  0.00000000000E+00  0.93800000000E+00  0.93800000000E+00 0. -1.
         11    1    1    2    0    0 -0.13309110367E+00 -0.11248965931E+00  0.56926494825E+00  0.59534024537E+00  0.51100000000E-03 0.  1.
    9000002    1    1    2    0    0  0.43631793552E+00  0.31128565042E+00  0.20872180900E+00  0.11003094522E+01  0.93800000000E+00 0. -1.
         22    1    1    2    0    0 -0.30322683186E+00 -0.19879599111E+00  0.32220132101E+01  0.32423503024E+01  0.00000000000E+00 0.  1.
</event>
<event>
 5    1  0.7220939E+001  0.1599655E+01  0.7818608E-02  0.3353737E+00
         11   -1    0    0    0    0  0.00000000000E+00  0.00000000000E+00  0.39999999674E+01  0.40000000000E+01  0.51100000000E-03 0. -1.
    9000002   -1    0    0    0    0 -0.00000000000E+00 -0.00000000000E+00  0.00000000000E+00  0.93800000000E+00  0.93800000000E+00 0.  1.
         11    1    1    2    0    0 -0.53386547569E-01 -0.78937821645E-01  0.92122693539E+00  0.92614287816E+00  0.51100000000E-03 0. -1.
    9000002    1    1    2    0    0  0.20588620419E+00  0.33160120105E+00  0.10265410524E+00  0.10211416899E+01  0.93800000000E+00 0.  1.
         22    1    1    2    0    0 -0.15249965663E+00 -0.25266337940E+00  0.29761189267E+01  0.29907154319E+01  0.00000000000E+00 0. -1.
</event>
<event>
 5    1  0.7220939E+001  0.1571135E+01  0.7818608E-02  0.3385301E+00
         11   -1    0    0    0    0  0.00000000000E+00  0.00000000000E+00  0.39999999674E+01  0.40000000000E+01  0.51100000000E-03 0. -1.
    9000002   -1    0    0    0    0 -0.00000000000E+00 -0.00000000000E+00  0.00000000000E+00  0.93800000000E+00  0.93800000000E+00 0.  1.
         11    1    1    2    0    0  0.19458546527E-01 -0.41569094414E-02 -0.31306240601E-02  0.20148867388E-01  0.51100000000E-03 0. -1.
    9000002    1    1    2    0    0 -0.17712217587E+00  0.55085752666E+00  0.26085186561E+00  0.11325652192E+01  0.93800000000E+00 0.  1.
         22    1    1    2    0    0  0.15766362935E+00 -0.54670061722E+00  0.37422787258E+01  0.37852859134E+01  0.00000000000E+00 0. -1.
</event>
<event>
 5    1  0.1021233E+002  0.1599600E+01  0.7818608E-02  0.3353797E+00
         11   -1    0    0    0    0  0.00000000000E+00  0.00000000000E+00  0.39999999674E+01  0.40000000000E+01  0.51100000000E-03 0.  1.
    9000002   -1    0    0    0    0 -0.00000000000E+00 -0.00000000000E+00  0.00000000000E+00  0.93800000000E+00  0.93800000000E+00 0.  1.
         11    1    1    2    0    0 -0.10023024461E+00  0.34395251157E-01  0.12842701870E+01  0.12886346687E+01  0.51100000000E-03 0.  1.
    9000002    1    1    2    0    0  0.33556108576E+00 -0.99547795155E-01  0.82206848760E-01  0.10045461521E+01  0.93800000000E+00 0.  1.
         22    1    1    2    0    0 -0.23533084115E+00  0.65152543998E-01  0.26335229316E+01  0.26448191791E+01  0.00000000000E+00 0.  1.
</event>
<event>
 5    1  0.7220939E+001  0.1599676E+01  0.7818608E-02  0.3353715E+00
         11   -1    0    0    0    0  0.00000000000E+00  0.00000000000E+00  0.39999999674E+01  0.40000000000E+01  0.51100000000E-03 0. -1.
    9000002   -1    0    0    0    0 -0.00000000000E+00 -0.00000000000E+00  0.00000000000E+00  0.93800000000E+00  0.93800000000E+00 0. -1.
         11    1    1    2    0    0  0.67879032454E-01  0.79517601042E-01  0.10994173608E+01  0.11043773840E+01  0.51100000000E-03 0. -1.
    9000002    1    1    2    0    0 -0.24483013229E+00 -0.28428021627E+00  0.94653091021E-01  0.10146724805E+01  0.93800000000E+00 0. -1.
         22    1    1    2    0    0  0.17695109984E+00  0.20476261522E+00  0.28059295155E+01  0.28189501355E+01  0.00000000000E+00 0. -1.
</event>
<event>
 5    1  0.7220939E+001  0.1599223E+01  0.7818608E-02  0.3354207E+00
         11   -1    0    0    0    0  0.00000000000E+00  0.00000000000E+00  0.39999999674E+01  0.40000000000E+01  0.51100000000E-03 0.  1.
    9000002   -1    0    0    0    0 -0.00000000000E+00 -0.00000000000E+00  0.00000000000E+00  0.93800000000E+00  0.93800000000E+00 0.  1.
         11    1    1    2    0    0 -0.22734863852E-01 -0.95061507248E-01  0.63137631557E+00  0.63889739175E+00  0.51100000000E-03 0.  1.
    9000002    1    1    2    0    0  0.13997573899E+00  0.46165898995E+00  0.15925510024E+00  0.10667372767E+01  0.93800000000E+00 0.  1.
         22    1    1    2    0    0 -0.11724087513E+00 -0.36659748270E+00  0.32093685515E+01  0.32323653316E+01  0.00000000000E+00 0.  1.
</event>
<event>
 5    1  0.8753286E+001  0.1583484E+01  0.7818608E-02  0.3371486E+00
         11   -1    0    0    0    0  0.00000000000E+00  0.00000000000E+00  0.39999999674E+01  0.40000000000E+01  0.51100000000E-03 0. -1.
    9000002   -1    0    0    0    0 -0.00000000000E+00 -0.00000000000E+00  0.00000000000E+00  0.93800000000E+00  0.93800000000E+00 0.  1.
         11    1    1    2    0    0 -0.80590957808E-01  0.80644529316E-01  0.14459012794E+01  0.14503893317E+01  0.51100000000E-03 0. -1.
    9000002    1    1    2    0    0 -0.15836088469E+00 -0.81560093540E-01  0.33125900910E-01  0.95533844473E+00  0.93800000000E+00 0.  1.
         22    1    1    2    0    0  0.23895184250E+00  0.91556422390E-03  0.25209727870E+01  0.25322722236E+01  0.00000000000E+00 0. -1.
</event>
<event>
 5    1  0.7220939E+001  0.1598178E+01  0.7818608E-02  0.3355344E+00
         11   -1    0    0    0    0  0.00000000000E+00  0.00000000000E+00  0.39999999674E+01  0.40000000000E+01  0.51100000000E-03 0. -1.
    9000002   -1    0    0    0    0 -0.00000000000E+00 -0.00000000000E+00  0.00000000000E+00  0.93800000000E+00  0.93800000000E+00 0. -1.
         11    1    1    2    0    0  0.14929617161E-01  0.46600048229E-01  0.66827221213E+00  0.67006154089E+00  0.51100000000E-03 0. -1.
    9000002    1    1    2    0    0 -0.28462772313E+00 -0.21526962269E+00  0.86670939450E-01  0.10073280513E+01  0.93800000000E+00 0. -1.
         22    1    1    2    0    0  0.26969810597E+00  0.16866957446E+00  0.32450568158E+01  0.32606104078E+01  0.00000000000E+00 0. -1.
</event>
<event>
 5    1  0.7220939E+001  0.1599676E+01  0.7818608E-02  0.3353716E+00
         11   -1    0    0    0    0  0.00000000000E+00  0.00000000000E+00  0.39999999674E+01  0.40000000000E+01  0.51100000000E-03 0.  1.
    9000002   -1    0    0    0    0 -0.00000000000E+00 -0.00000000000E+00  0.00000000000E+00  0.93800000000E+00  0.93800000000E+00 0. -1.
         11    1    1    2    0    0  0.13477200059E+00  0.29352826353E-01  0.10273664188E+01  0.10365843430E+01  0.51100000000E-03 0.  1.
    9000002    1    1    2    0    0 -0.49794482426E+00 -0.10608941415E+00  0.17771601911E+00  0.10819570210E+01  0.93800000000E+00 0. -1.
         22    1    1    2    0    0  0.36317282368E+00  0.76736587795E-01  0.27949175295E+01  0.28194586360E+01  0.00000000000E+00 0.  1.
</event>
<event>
 5    1  0.7220939E+001  0.1584883E+01  0.7818608E-02  0.3369937E+00
         11   -1    0    0    0    0  0.00000000000E+00  0.00000000000E+00  0.39999999674E+01  0.40000000000E+01  0.51100000000E-03 0. -1.
    9000002   -1    0    0    0    0 -0.00000000000E+00 -0.00000000000E+00  0.00000000000E+00  0.93800000000E+00  0.93800000000E+00 0. -1.
         11    1    1    2    0    0 -0.51639756304E-01  0.53803274533E-01  0.38981710326E+00  0.39688674946E+00  0.51100000000E-03 0. -1.
    9000002    1    1    2    0    0  0.14708682379E+00  0.25819829354E+00  0.70544547901E-01  0.98646917122E+00  0.93800000000E+00 0. -1.
         22    1    1    2    0    0 -0.95447067487E-01 -0.31200156808E+00  0.35396383162E+01  0.35546440793E+01  0.00000000000E+00 0. -1.
</event>
<event>
 5    1  0.7220939E+001  0.1599549E+01  0.7818608E-02  0.3353853E+00
         11   -1    0    0    0    0  0.00000000000E+00  0.00000000000E+00  0.39999999674E+01  0.40000000000E+01  0.51100000000E-03 0.  1.
    9000002   -1    0    0    0    0 -0.00000000000E+00 -0.00000000000E+00  0.00000000000E+00  0.93800000000E+00  0.93800000000E+00 0. -1.
         11    1    1    2    0    0 -0.11553633037E+00  0.24948947086E-01  0.11183279272E+01  0.11245571162E+01  0.51100000000E-03 0.  1.
    9000002    1    1    2    0    0  0.36050150894E+00 -0.86014176244E-01  0.92422334136E-01  0.10127910270E+01  0.93800000000E+00 0. -1.
         22    1    1    2    0    0 -0.24496517857E+00  0.61065229158E-01  0.27892497060E+01  0.28006518568E+01  0.00000000000E+00 0.  1.
</event>
<event>
 5    1  0.7220939E+001  0.1599336E+01  0.7818608E-02  0.3354084E+00
         11   -1    0    0    0    0  0.00000000000E+00  0.00000000000E+00  0.39999999674E+01  0.40000000000E+01  0.51100000000E-03 0. -1.
    9000002   -1    0    0    0    0 -0.00000000000E+00 -0.00000000000E+00  0.00000000000E+00  0.93800000000E+00  0.93800000000E+00 0. -1.
         11    1    1    2    0    0 -0.83971957093E-01 -0.95558630145E-01  0.10917893529E+01  0.10991755972E+01  0.51100000000E-03 0. -1.
    9000002    1    1    2    0    0  0.27131805100E+00  0.40242286790E+00  0.16116628849E+00  0.10683521058E+01  0.93800000000E+00 0. -1.
         22    1    1    2    0    0 -0.18734609391E+00 -0.30686423775E+00  0.27470443260E+01  0.27704722970E+01  0.00000000000E+00 0. -1.
</event>
<event>
 5    1  0.7220939E+001  0.1599676E+01  0.7818608E-02  0.3353715E+00
         11   -1    0    0    0    0  0.00000000000E+00  0.00000000000E+00  0.39999999674E+01  0.40000000000E+01  0.51100000000E-03 0.  1.
    9000002   -1    0    0    0    0 -0.00000000000E+00 -0.00000000000E+00  0.00000000000E+00  0.93800000000E+00  0.93800000000E+00 0.  1.
         11    1    1    2    0    0 -0.96243886992E-01  0.10782695208E+00  0.13430191778E+01  0.13507739672E+01  0.51100000000E-03 0.  1.
    9000002    1    1    2    0    0  0.27881734073E+00 -0.31432132198E+00  0.11939602930E+00  0.10347156202E+01  0.93800000000E+00 0.  1.
         22    1    1    2    0    0 -0.18257345373E+00  0.20649436990E+00  0.25375847602E+01  0.25525104125E+01  0.00000000000E+00 0.  1.
</event>
<event>
 5    1  0.7220939E+001  0.1599042E+01  0.7818608E-02  0.3354404E+00
         11   -1    0    0    0    0  0.00000000000E+00  0.00000000000E+00  0.39999999674E+01  0.40000000000E+01  0.51100000000E-03 0.  1.
    9000002   -1    0    0    0    0 -0.00000000000E+00 -0.00000000000E+00  0.00000000000E+00  0.93800000000E+00  0.93800000000E+00 0.  1.
         11    1    1    2    0    0 -0.78313538688E-01 -0.14388963762E+00  0.96747446398E+00  0.98124631858E+00  0.51100000000E-03 0.  1.
    9000002    1    1    2    0    0  0.20120073892E+00  0.55255682111E+00  0.24128112604E+00  0.11330760609E+01  0.93800000000E+00 0.  1.
         22    1    1    2    0    0 -0.12288720023E+00 -0.40866718349E+00  0.27912443773E+01  0.28236776206E+01  0.00000000000E+00 0.  1.
</event>
<event>
 5    1  0.7220939E+001  0.1595574E+01  0.7818608E-02  0.3358182E+00
         11   -1    0    0    0    0  0.00000000000E+00  0.00000000000E+00  0.39999999674E+01  0.40000000000E+01  0.51100000000E-03 0. -1.
    9000002   -1    0    0    0    0 -0.00000000000E+00 -0.00000000000E+00  0.00000000000E+00  0.93800000000E+00  0.93800000000E+00 0. -1.
         11    1    1    2    0    0 -0.18359623432E+00  0.17433934576E+00  0.13978644945E+01  0.14206080356E+01  0.51100000000E-03 0. -1.
    9000002    1    1    2    0    0  0.37516182615E+00 -0.31736306867E+00  0.16873774364E+00  0.10722789466E+01  0.93800000000E+00 0. -1.
         22    1    1    2    0    0 -0.19156559183E+00  0.14302372291E+00  0.24333977292E+01  0.24451130178E+01  0.00000000000E+00 0. -1.
</event>
<event>
 5    1  0.7220939E+001  0.1596853E+01  0.7818608E-02  0.3356787E+00
         11   -1    0    0    0    0  0.00000000000E+00  0.00000000000E+00  0.39999999674E+01  0.40000000000E+01  0.51100000000E-03 0. -1.
    9000002   -1    0    0    0    0 -0.00000000000E+00 -0.00000000000E+00  0.00000000000E+00  0.93800000000E+00  0.93800000000E+00 0.  1.
         11    1    1    2    0    0  0.12936557190E+00  0.77561837479E-01  0.13843051796E+01  0.13924986108E+01  0.51100000000E-03 0. -1.
    9000002    1    1    2    0    0 -0.22940414555E+00 -0.32573667718E+00  0.10939623291E+00  0.10249595995E+01  0.93800000000E+00 0.  1.
         22    1    1    2    0    0  0.10003857365E+00  0.24817483970E+00  0.25062985549E+01  0.25205417897E+01  0.00000000000E+00 0. -1.
</event>
<event>
 5    1  0.7220939E+001  0.1506163E+01  0.7818608E-02  0.3461963E+00
         11   -1    0    0    0    0  0.00000000000E+00  0.00000000000E+00  0.39999999674E+01  0.40000000000E+01  0.51100000000E-03 0.  1.
    9000002   -1    0    0    0    0 -0.00000000000E+00 -0.00000000000E+00  0.00000000000E+00  0.93800000000E+00  0.93800000000E+00 0.  1.
         11    1    1    2    0    0  0.34420529483E+00 -0.26259891427E+00  0.12836864391E+01  0.13547275039E+01  0.51100000000E-03 0.  1.
    9000002    1    1    2    0    0  0.90941343110E-02  0.58282047601E+00  0.33407436098E+00  0.11537816471E+01  0.93800000000E+00 0.  1.
         22    1    1    2    0    0 -0.35329942914E+00 -0.32022156174E+00  0.23822391673E+01  0.24294908490E+01  0.00000000000E+00 0. -1.
</event>
<event>
 5    1  0.7220939E+001  0.1599674E+01  0.7818608E-02  0.3353717E+00
         11   -1    0    0    0    0  0.00000000000E+00  0.00000000000E+00  0.39999999674E+01  0.40000000000E+01  0.51100000000E-03 0.  1.
    9000002   -1    0    0    0    0 -0.00000000000E+00 -0.00000000000E+00  0.00000000000E+00  0.93800000000E+00  0.93800000000E+00 0. -1.
         11    1    1    2    0    0  0.77257982672E-01  0.77631925899E-01  0.10436644558E+01  0.10493956686E+01  0.51100000000E-03 0.  1.
    9000002    1    1    2    0    0 -0.28582987862E+00 -0.28276872652E+00  0.10907240408E+00  0.10263516267E+01  0.93800000000E+00 0. -1.
         22    1    1    2    0    0  0.20857189595E+00  0.20513680062E+00  0.28472631075E+01  0.28622527047E+01  0.00000000000E+00 0.  1.
</event>
<event>
 5    1  0.7220939E+001  0.1599640E+01  0.7818608E-02  0.3353755E+00
         11   -1    0    0    0    0  0.00000000000E+00  0.00000000000E+00  0.39999999674E+01  0.40000000000E+01  0.51100000000E-03 0. -1.
    9000002   -1    0    0    0    0 -0.00000000000E+00 -0.00000000000E+00  0.00000000000E+00  0.93800000000E+00  0.93800000000E+00 0.  1.
         11    1    1    2    0    0  0.32798739860E-02  0.49603374638E-02  0.90214387571E-01  0.90411610797E-01  0.51100000000E-03 0. -1.
    9000002    1    1    2    0    0 -0.18951205481E+00 -0.29653370913E+00  0.83088576252E-01  0.10052834282E+01  0.93800000000E+00 0.  1.
         22    1    1    2    0    0  0.18623218082E+00  0.29157337167E+00  0.38266970035E+01  0.38423049610E+01  0.00000000000E+00 0. -1.
</event>
<event>
 5    1  0.7220939E+001  0.1594280E+01  0.7818608E-02  0.3359595E+00
         11   -1    0    0    0    0  0.00000000000E+00  0.00000000000E+00  0.39999999674E+01  0.40000000000E+01  0.51100000000E-03 0. -1.
    9000002   -1    0    0    0    0 -0.00000000000E+00 -0.00000000000E+00  0.00000000000E+00  0.93800000000E+00  0.93800000000E+00 0.  1.
         11    1    1    2    0    0  0.14138277605E+00 -0.17156289070E+00  0.14388715629E+01  0.14559445561E+01  0.51100000000E-03 0. -1.
    9000002    1    1    2    0    0 -0.14860977262E+00  0.45465777887E+00  0.16085812959E+00  0.10651375020E+01  0.93800000000E+00 0.  1.
         22    1    1    2    0    0  0.72269965678E-02 -0.28309488817E+00  0.24002702748E+01  0.24169179418E+01  0.00000000000E+00 0. -1.
</event>
<event>
 5    1  0.7220939E+001  0.1568086E+01  0.7818608E-02  0.3388747E+00
         11   -1    0    0    0    0  0.00000000000E+00  0.00000000000E+00  0.39999999674E+01  0.40000000000E+01  0.51100000000E-03 0.  1.
    9000002   -1    0    0    0    0 -0.00000000000E+00 -0.00000000000E+00  0.00000000000E+00  0.93800000000E+00  0.93800000000E+00 0.  1.
         11    1    1    2    0    0 -0.88976753024E-01  0.28334022796E+00  0.74209447978E+00  0.79931409684E+00  0.51100000000E-03 0.  1.
    9000002    1    1    2    0    0 -0.50365477109E-01 -0.67259956509E+00  0.35809073744E+00  0.12095452999E+01  0.93800000000E+00 0.  1.
         22    1    1    2    0    0  0.13934223013E+00  0.38925933713E+00  0.28998147501E+01  0.29291406033E+01  0.00000000000E+00 0.  1.
</event>
<event>
 5    1  0.7220939E+001  0.1598984E+01  0.7818608E-02  0.3354467E+00
         11   -1    0    0    0    0  0.00000000000E+00  0.00000000000E+00  0.39999999674E+01  0.40000000000E+01  0.51100000000E-03 0. -1.
    9000002   -1    0    0    0    0 -0.00000000000E+00 -0.00000000000E+00  0.00000000000E+00  0.93800000000E+00  0.93800000000E+00 0.  1.
         11    1    1    2    0    0 -0.21946678012E+00  0.56658425569E-01  0.13643201221E+01  0.13830204269E+01  0.51100000000E-03 0. -1.
    9000002    1    1    2    0    0  0.53239114289E+00 -0.12227074957E+00  0.20660467557E+00  0.11049524683E+01  0.93800000000E+00 0.  1.
         22    1    1    2    0    0 -0.31292436277E+00  0.65612323998E-01  0.24290751697E+01  0.24500271048E+01  0.00000000000E+00 0. -1.
</event>
<event>
 5    1  0.7220939E+001  0.1599677E+01  0.7818608E-02  0.3353714E+00
         11   -1    0    0    0    0  0.00000000000E+00  0.00000000000E+00  0.39999999674E+01  0.40000000000E+01  0.51100000000E-03 0. -1.
    9000002   -1    0    0    0    0 -0.00000000000E+00 -0.00000000000E+00  0.00000000000E+00  0.93800000000E+00  0.93800000000E+00 0. -1.
         11    1    1    2    0    0 -0.10442972265E+00 -0.50066413673E-01  0.11372979134E+01  0.11431793462E+01  0.51100000000E-03 0. -1.
    9000002    1    1    2    0    0  0.35612724231E+00  0.16973187882E+00  0.10490620636E+00  0.10229784140E+01  0.93800000000E+00 0. -1.
         22    1    1    2    0    0 -0.25169751966E+00 -0.11966546515E+00  0.27577958476E+01  0.27718422398E+01  0.00000000000E+00 0.  1.
</event>
<event>
 5    1  0.7220939E+001  0.1599546E+01  0.7818608E-02  0.3353857E+00
         11   -1    0    0    0    0  0.00000000000E+00  0.00000000000E+00  0.39999999674E+01  0.40000000000E+01  0.51100000000E-03 0.  1.
    9000002   -1    0    0    0    0 -0.00000000000E+00 -0.00000000000E+00  0.00000000000E+00  0.93800000000E+00  0.93800000000E+00 0. -1.
         11    1    1    2    0    0 -0.46364198206E-01  0.91852686845E-01  0.96981880595E+00  0.97526167384E+00  0.51100000000E-03 0.  1.
    9000002    1    1    2    0    0  0.21601103354E+00 -0.33133905173E+00  0.10557506974E+00  0.10234434177E+01  0.93800000000E+00 0. -1.
         22    1    1    2    0    0 -0.16964683533E+00  0.23948636488E+00  0.29246060917E+01  0.29392949085E+01  0.00000000000E+00 0.  1.
</event>
<event>
 5    1  0.7220939E+001  0.1599676E+01  0.7818608E-02  0.3353716E+00
         11   -1    0    0    0    0  0.00000000000E+00  0.00000000000E+00  0.39999999674E+01  0.40000000000E+01  0.51100000000E-03 0. -1.
    9000002   -1    0    0    0    0 -0.00000000000E+00 -0.00000000000E+00  0.00000000000E+00  0.93800000000E+00  0.93800000000E+00 0.  1.
         11    1    1    2    0    0  0.13236244426E-01  0.84499054653E-01  0.78387318740E+00  0.78852566442E+00  0.51100000000E-03 0. -1.
    9000002    1    1    2    0    0 -0.63638346947E-01 -0.42307181702E+00  0.12392494260E+00  0.10383838370E+01  0.93800000000E+00 0.  1.
         22    1    1    2    0    0  0.50402102521E-01  0.33857276237E+00  0.30922018374E+01  0.31110904986E+01  0.00000000000E+00 0. -1.
</event>
<event>
 5    1  0.7220939E+001  0.1579682E+01  0.7818608E-02  0.3375715E+00
         11   -1    0    0    0    0  0.00000000000E+00  0.00000000000E+00  0.39999999674E+01  0.40000000000E+01  0.51100000000E-03 0. -1.
    9000002   -1    0    0    0    0 -0.00000000000E+00 -0.00000000000E+00  0.00000000000E+00  0.93800000000E+00  0.93800000000E+00 0.  1.
         11    1    1    2    0    0  0.18240303575E+00  0.82419700682E-01  0.14784982807E+01  0.14919856909E+01  0.51100000000E-03 0. -1.
    9000002    1    1    2    0    0 -0.24871418006E+00  0.15022389868E+00  0.72013291509E-01  0.98460950496E+00  0.93800000000E+00 0.  1.
         22    1    1    2    0    0  0.66311144309E-01 -0.23264359936E+00  0.24494883951E+01  0.24614048042E+01  0.00000000000E+00 0. -1.
</event>
<event>
 5    1  0.7220939E+001  0.1599370E+01  0.7818608E-02  0.3354048E+00
         11   -1    0    0    0    0  0.00000000000E+00  0.00000000000E+00  0.39999999674E+01  0.40000000000E+01  0.51100000000E-03 0.  1.
    9000002   -1    0    0    0    0 -0.00000000000E+00 -0.00000000000E+00  0.00000000000E+00  0.93800000000E+00  0.93800000000E+00 0.  1.
         11    1    1    2    0    0 -0.18232652915E+00 -0.14025870305E-01  0.12323343269E+01  0.12458281754E+01  0.51100000000E-03 0.  1.
    9000002    1    1    2    0    0  0.60979447152E+00  0.63985661847E-01  0.26335449618E+00  0.11511485799E+01  0.93800000000E+00 0.  1.
         22    1    1    2    0    0 -0.42746794237E+00 -0.49959791542E-01  0.25043111443E+01  0.25410232446E+01  0.00000000000E+00 0.  1.
</event>
<event>
 5    1  0.7220939E+001  0.1599641E+01  0.7818608E-02  0.3353753E+00
         11   -1    0    0    0    0  0.00000000000E+00  0.00000000000E+00  0.39999999674E+01  0.40000000000E+01  0.51100000000E-03 0. -1.
    9000002   -1    0    0    0    0 -0.00000000000E+00 -0.00000000000E+00  0.00000000000E+00  0.93800000000E+00  0.93800000000E+00 0. -1.
         11    1    1    2    0    0 -0.37706830285E-01  0.15832341821E+00  0.13055152008E+01  0.13156208840E+01  0.51100000000E-03 0. -1.
    9000002    1    1    2    0    0  0.10274180314E+00 -0.44930037234E+00  0.14454331041E+00  0.10550656242E+01  0.93800000000E+00 0. -1.
         22    1    1    2    0    0 -0.65034972859E-01  0.29097695412E+00  0.25499414561E+01  0.25673134918E+01  0.00000000000E+00 0.  1.
</event>
<event>
 5    1  0.7220939E+001  0.1464227E+01  0.7818608E-02  0.3515337E+00
         11   -1    0    0    0    0  0.00000000000E+00  0.00000000000E+00  0.39999999674E+01  0.40000000000E+01  0.51100000000E-03 0.  1.
    9000002   -1    0    0    0    0 -0.00000000000E+00 -0.00000000000E+00  0.00000000000E+00  0.93800000000E+00  0.93800000000E+00 0. -1.
         11    1    1    2    0    0 -0.35727360536E+00 -0.23649694494E+00  0.11475302400E+01  0.12249086280E+01  0.51100000000E-03 0.  1.
    9000002    1    1    2    0    0 -0.11740077584E+00  0.39655124543E+00  0.23975416632E+00  0.10527876769E+01  0.93800000000E+00 0. -1.
         22    1    1    2    0    0  0.47467438120E+00 -0.16005430048E+00  0.26127155611E+01  0.26603036951E+01  0.00000000000E+00 0.  1.
</event>
<event>
 5    1  0.7220939E+001  0.1599596E+01  0.7818608E-02  0.3353801E+00
         11   -1    0    0    0    0  0.00000000000E+00  0.00000000000E+00  0.39999999674E+01  0.40000000000E+01  0.51100000000E-03 0. -1.
    9000002   -1    0    0    0    0 -0.00000000000E+00 -0.00000000000E+00  0.00000000000E+00  0.93800000000E+00  0.93800000000E+00 0.  1.
         11    1    1    2    0    0 -0.15463038088E-01 -0.54911131968E-01  0.40882664946E+00  0.41278787336E+00  0.51100000000E-03 0. -1.
    9000002    1    1    2    0    0  0.14994588311E+00  0.45356075926E+00  0.15572014395E+00  0.10640929910E+01  0.93800000000E+00 0.  1.
         22    1    1    2    0    0 -0.13448284502E+00 -0.39864962729E+00  0.34354531739E+01  0.34611191357E+01  0.00000000000E+00 0. -1.
</event>
<event>
 5    1  0.7220939E+001  0.1519442E+01  0.7818608E-02  0.3445725E+00
         11   -1    0    0    0    0  0.00000000000E+00  0.00000000000E+00  0.39999999674E+01  0.40000000000E+01  0.51100000000E-03 0. -1.
    9000002   -1    0    0    0    0 -0.00000000000E+00 -0.00000000000E+00  0.00000000000E+00  0.93800000000E+00  0.93800000000E+00 0. -1.
         11    1    1    2    0    0 -0.17169410186E+00 -0.37856596348E+00  0.12541533687E+01  0.13212463763E+01  0.51100000000E-03 0. -1.
    9000002    1    1    2    0    0  0.43985295137E+00  0.16957881182E+00  0.22570734728E+00  0.10737855460E+01  0.93800000000E+00 0. -1.
         22    1    1    2    0    0 -0.26815884951E+00  0.20898715166E+00  0.25201392513E+01  0.25429680777E+01  0.00000000000E+00 0. -1.
</event>
<event>
 5    1  0.7220939E+001  0.1526423E+01  0.7818608E-02  0.3437309E+00
         11   -1    0    0    0    0  0.00000000000E+00  0.00000000000E+00  0.39999999674E+01  0.40000000000E+01  0.51100000000E-03 0.  1.
    9000002   -1    0    0    0    0 -0.00000000000E+00 -0.00000000000E+00  0.00000000000E+00  0.93800000000E+00  0.93800000000E+00 0.  1.
         11    1    1    2    0    0 -0.20857259750E-01 -0.34790631095E+00  0.13093513318E+01  0.13549446474E+01  0.51100000000E-03 0.  1.
    9000002    1    1    2    0    0  0.12962509507E+00  0.12119352896E+00  0.77437411106E-01  0.95777402835E+00  0.93800000000E+00 0.  1.
         22    1    1    2    0    0 -0.10876783532E+00  0.22671278199E+00  0.26132112245E+01  0.26252813242E+01  0.00000000000E+00 0.  1.
</event>
<event>
 5    1  0.7220939E+001  0.1599595E+01  0.7818608E-02  0.3353803E+00
         11   -1    0    0    0    0  0.00000000000E+00  0.00000000000E+00  0.39999999674E+01  0.40000000000E+01  0.51100000000E-03 0. -1.
    9000002   -1    0    0    0    0 -0.00000000000E+00 -0.00000000000E+00  0.00000000000E+00  0.93800000000E+00  0.93800000000E+00 0. -1.
         11    1    1    2    0    0 -0.14462090828E+00 -0.19973912566E+00  0.13056230135E+01  0.13287071310E+01  0.51100000000E-03 0. -1.
    9000002    1    1    2    0    0  0.38110813907E+00  0.57634421482E+00  0.34046756446E+00  0.12137455376E+01  0.93800000000E+00 0. -1.
         22    1    1    2    0    0 -0.23648723078E+00 -0.37660508916E+00  0.23539093894E+01  0.23955473314E+01  0.00000000000E+00 0. -1.
</event>
<event>
 5    1  0.7220939E+001  0.1596630E+01  0.7818608E-02  0.3357030E+00
         11   -1    0    0    0    0  0.00000000000E+00  0.00000000000E+00  0.39999999674E+01  0.40000000000E+01  0.51100000000E-03 0.  1.
    9000002   -1    0    0    0    0 -0.00000000000E+00 -0.00000000000E+00  0.00000000000E+00  0.93800000000E+00  0.93800000000E+00 0. -1.
         11    1    1    2    0    0  0.37380810238E-01 -0.99413029912E-02  0.11984637584E+01  0.11990879016E+01  0.51100000000E-03 0.  1.
    9000002    1    1    2    0    0 -0.30384675604E+00 -0.54654220826E-01  0.66034980784E-01  0.98970427588E+00  0.93800000000E+00 0. -1.
         22    1    1    2    0    0  0.26646594580E+00  0.64595523817E-01  0.27355012282E+01  0.27492078225E+01  0.00000000000E+00 0.  1.
</event>
<event>
 5    1  0.7220939E+001  0.1596705E+01  0.7818608E-02  0.3356947E+00
         11   -1    0    0    0    0  0.00000000000E+00  0.00000000000E+00  0.39999999674E+01  0.40000000000E+01  0.51100000000E-03 0.  1.
    9000002   -1    0    0    0    0 -0.00000000000E+00 -0.00000000000E+00  0.00000000000E+00  0.93800000000E+00  0.93800000000E+00 0.  1.
         11    1    1    2    0    0 -0.35429972635E-02 -0.12374488079E+00  0.79564356595E+00  0.80521692327E+00  0.51100000000E-03 0.  1.
    9000002    1    1    2    0    0  0.21167031888E+00  0.42939937921E+00  0.15898032317E+00  0.10650384472E+01  0.93800000000E+00 0.  1.
         22    1    1    2    0    0 -0.20812732162E+00 -0.30565449841E+00  0.30453760782E+01  0.30677446296E+01  0.00000000000E+00 0.  1.
</event>
<event>
 5    1  0.7220939E+001  0.1598829E+01  0.7818608E-02  0.3354636E+00
         11   -1    0    0    0    0  0.00000000000E+00  0.00000000000E+00  0.39999999674E+01  0.40000000000E+01  0.51100000000E-03 0.  1.
    9000002   -1    0    0    0    0 -0.00000000000E+00 -0.00000000000E+00  0.00000000000E+00  0.93800000000E+00  0.93800000000E+00 0. -1.
         11    1    1    2    0    0  0.13106005086E+00 -0.34358999497E-02  0.11908852527E+01  0.11980803348E+01  0.51100000000E-03 0.  1.
    9000002    1    1    2    0    0 -0.43156584013E+00 -0.93773788817E-01  0.13303666436E+00  0.10452680766E+01  0.93800000000E+00 0. -1.
         22    1    1    2    0    0  0.30050578926E+00  0.97209688766E-01  0.26760780503E+01  0.26946515886E+01  0.00000000000E+00 0.  1.
</event>
<event>
 5    1  0.7220939E+001  0.1599586E+01  0.7818608E-02  0.3353813E+00
         11   -1    0    0    0    0  0.00000000000E+00  0.00000000000E+00  0.39999999674E+01  0.40000000000E+01  0.51100000000E-03 0. -1.
    9000002   -1    0    0    0    0 -0.00000000000E+00 -0.00000000000E+00  0.00000000000E+00  0.93800000000E+00  0.93800000000E+00 0. -1.
         11    1    1    2    0    0 -0.64806382696E-02 -0.25610906045E-02  0.12081707857E+00  0.12101894667E+00  0.51100000000E-03 0. -1.
    9000002    1    1    2    0    0  0.31228629891E+00  0.16002128053E+00  0.82640965859E-01  0.10048895820E+01  0.93800000000E+00 0. -1.
         22    1    1    2    0    0 -0.30580566064E+00 -0.15746018992E+00  0.37965419229E+01  0.38120914714E+01  0.00000000000E+00 0. -1.
</event>
<event>
 5    1  0.7220939E+001  0.1597647E+01  0.7818608E-02  0.3355921E+00
         11   -1    0    0    0    0  0.00000000000E+00  0.00000000000E+00  0.39999999674E+01  0.40000000000E+01  0.51100000000E-03 0. -1.
    9000002   -1    0    0    0    0 -0.00000000000E+00 -0.00000000000E+00  0.00000000000E+00  0.93800000000E+00  0.93800000000E+00 0.  1.
         11    1    1    2    0    0  0.94144273211E-02 -0.15048488276E+00  0.93756130503E+00  0.94960823143E+00  0.51100000000E-03 0. -1.
    9000002    1    1    2    0    0  0.76153767722E-01  0.46368536246E+00  0.15220276931E+00  0.10601005588E+01  0.93800000000E+00 0.  1.
         22    1    1    2    0    0 -0.85568195043E-01 -0.31320047969E+00  0.29102358930E+01  0.29282912098E+01  0.00000000000E+00 0. -1.
</event>
<event>
 5    1  0.7220939E+001  0.1599665E+01  0.7818608E-02  0.3353727E+00
         11   -1    0    0    0    0  0.00000000000E+00  0.00000000000E+00  0.39999999674E+01  0.40000000000E+01  0.51100000000E-03 0. -1.
    9000002   -1    0    0    0    0 -0.00000000000E+00 -0.00000000000E+00  0.00000000000E+00  0.93800000000E+00  0.93800000000E+00 0.  1.
         11    1    1    2    0    0 -0.90945503416E-01  0.33599140721E-01  0.93083726746E+00  0.93587299697E+00  0.51100000000E-03 0. -1.
    9000002    1    1    2    0    0  0.37009067869E+00 -0.12984795632E+00  0.10366747058E+00  0.10219679773E+01  0.93800000000E+00 0.  1.
         22    1    1    2    0    0 -0.27914517527E+00  0.96248815597E-01  0.29654952293E+01  0.29801590257E+01  0.00000000000E+00 0.  1.
</event>
<event>
 5    1  0.7220939E+001  0.1583929E+01  0.7818608E-02  0.3370993E+00
         11   -1    0    0    0    0  0.00000000000E+00  0.00000000000E+00  0.39999999674E+01  0.40000000000E+01  0.51100000000E-03 0.  1.
    9000002   -1    0    0    0    0 -0.00000000000E+00 -0.00000000000E+00  0.00000000000E+00  0.93800000000E+00  0.93800000000E+00 0.  1.
         11    1    1    2    0    0  0.33214011400E+00 -0.35112180542E+00  0.12990611741E+01  0.13860605228E+01  0.51100000000E-03 0.  1.
    9000002    1    1    2    0    0 -0.47480147017E+00  0.79530711046E+00  0.69063355714E+00  0.14882098462E+01  0.93800000000E+00 0.  1.
         22    1    1    2    0    0  0.14266135617E+00 -0.44418530504E+00  0.20103052361E+01  0.20637296310E+01  0.00000000000E+00 0.  1.
</event>
<event>
 5    1  0.7220939E+001  0.1553120E+01  0.7818608E-02  0.3405872E+00
         11   -1    0    0    0    0  0.00000000000E+00  0.00000000000E+00  0.39999999674E+01  0.40000000000E+01  0.51100000000E-03 0. -1.
    9000002   -1    0    0    0    0 -0.00000000000E+00 -0.00000000000E+00  0.00000000000E+00  0.93800000000E+00  0.93800000000E+00 0. -1.
         11    1    1    2    0    0  0.11277848170E+00 -0.29499497843E-01  0.31832375858E+00  0.33899776210E+00  0.51100000000E-03 0. -1.
    9000002    1    1    2    0    0  0.36548360433E+00  0.16398181037E+00  0.14807777182E+00  0.10306499530E+01  0.93800000000E+00 0. -1.
         22    1    1    2    0    0 -0.47826208603E+00 -0.13448231253E+00  0.35335984370E+01  0.35683522849E+01  0.00000000000E+00 0. -1.
</event>
<event>
 5    1  0.7220939E+001  0.1532542E+01  0.7818608E-02  0.3430000E+00
         11   -1    0    0    0    0  0.00000000000E+00  0.00000000000E+00  0.39999999674E+01  0.40000000000E+01  0.51100000000E-03 0.  1.
    9000002   -1    0    0    0    0 -0.00000000000E+00 -0.00000000000E+00  0.00000000000E+00  0.93800000000E+00  0.93800000000E+00 0. -1.
         11    1    1    2    0    0  0.13414650864E+00  0.36042669075E-01  0.23989020028E+00  0.27720376817E+00  0.51100000000E-03 0.  1.
    9000002    1    1    2    0    0  0.63487985318E-01  0.58225868718E+00  0.30765177388E+00  0.11478455981E+01  0.93800000000E+00 0. -1.
         22    1    1    2    0    0 -0.19763449396E+00 -0.61830135625E+00  0.34524579932E+01  0.35129506337E+01  0.00000000000E+00 0.  1.
</event>
<event>
 5    1  0.7220939E+001  0.1599664E+01  0.7818608E-02  0.3353729E+00
         11   -1    0    0    0    0  0.00000000000E+00  0.00000000000E+00  0.39999999674E+01  0.40000000000E+01  0.51100000000E-03 0.  1.
    9000002   -1    0    0    0    0 -0.00000000000E+00 -0.00000000000E+00  0.00000000000E+00  0.93800000000E+00  0.93800000000E+00 0. -1.
         11    1    1    2    0    0  0.39116214320E-01  0.34319430788E-01  0.45770731652E+00  0.46065621701E+00  0.51100000000E-03 0.  1.
    9000002    1    1    2    0    0 -0.34982723725E+00 -0.27609246293E+00  0.13481576754E+00  0.10471988518E+01  0.93800000000E+00 0. -1.
         22    1    1    2    0    0  0.31071102293E+00  0.24177303214E+00  0.34074768833E+01  0.34301449312E+01  0.00000000000E+00 0.  1.
</event>
<event>
 5    1  0.7220939E+001  0.1545171E+01  0.7818608E-02  0.3415111E+00
         11   -1    0    0    0    0  0.00000000000E+00  0.00000000000E+00  0.39999999674E+01  0.40000000000E+01  0.51100000000E-03 0.  1.
    9000002   -1    0    0    0    0 -0.00000000000E+00 -0.00000000000E+00  0.00000000000E+00  0.93800000000E+00  0.93800000000E+00 0. -1.
         11    1    1    2    0    0  0.79142006254E-01  0.51400782265E-01  0.12436063833E+00  0.15611318669E+00  0.51100000000E-03 0.  1.
    9000002    1    1    2    0    0  0.35759235265E+00 -0.42810239654E-01  0.13263496009E+00  0.10134796692E+01  0.93800000000E+00 0. -1.
         22    1    1    2    0    0 -0.43673435890E+00 -0.85905426110E-02  0.37430043689E+01  0.37684071441E+01  0.00000000000E+00 0.  1.
</event>
<event>
 5    1  0.7220939E+001  0.1599675E+01  0.7818608E-02  0.3353716E+00
         11   -1    0    0    0    0  0.00000000000E+00  0.00000000000E+00  0.39999999674E+01  0.40000000000E+01  0.51100000000E-03 0.  1.
    9000002   -1    0    0    0    0 -0.00000000000E+00 -0.00000000000E+00  0.00000000000E+00  0.93800000000E+00  0.93800000000E+00 0.  1.
         11    1    1    2    0    0 -0.20665968528E+00 -0.54393265043E-02  0.12681279517E+01  0.12848683103E+01  0.51100000000E-03 0.  1.
    9000002    1    1    2    0    0  0.61309340864E+00  0.18884750340E-01  0.26326833749E+00  0.11512577379E+01  0.93800000000E+00 0.  1.
         22    1    1    2    0    0 -0.40643372336E+00 -0.13445423836E-01  0.24686036782E+01  0.25018739519E+01  0.00000000000E+00 0.  1.
</event>
<event>
 5    1  0.7220939E+001  0.1599674E+01  0.7818608E-02  0.3353718E+00
         11   -1    0    0    0    0  0.00000000000E+00  0.00000000000E+00  0.39999999674E+01  0.40000000000E+01  0.51100000000E-03 0. -1.
    9000002   -1    0    0    0    0 -0.00000000000E+00 -0.00000000000E+00  0.00000000000E+00  0.93800000000E+00  0.93800000000E+00 0.  1.
         11    1    1    2    0    0  0.96391209156E-01  0.53303344049E-01  0.71777081546E+00  0.72617333766E+00  0.51100000000E-03 0. -1.
    9000002    1    1    2    0    0 -0.50434423412E+00 -0.28863895238E+00  0.23467007646E+00  0.11280911293E+01  0.93800000000E+00 0.  1.
         22    1    1    2    0    0  0.40795302497E+00  0.23533560833E+00  0.30475590754E+01  0.30837355330E+01  0.00000000000E+00 0. -1.
</event>
<event>
 5    1  0.7220939E+001  0.1596354E+01  0.7818608E-02  0.3357330E+00
         11   -1    0    0    0    0  0.00000000000E+00  0.00000000000E+00  0.39999999674E+01  0.40000000000E+01  0.51100000000E-03 0.  1.
    9000002   -1    0    0    0    0 -0.00000000000E+00 -0.00000000000E+00  0.00000000000E+00  0.93800000000E+00  0.93800000000E+00 0.  1.
         11    1    1    2    0    0  0.31746245920E-01  0.71159406836E-02  0.59883299354E+00  0.59971632962E+00  0.51100000000E-03 0.  1.
    9000002    1    1    2    0    0 -0.19847741066E+00 -0.37115261375E+00  0.12263193457E+00  0.10353888818E+01  0.93800000000E+00 0.  1.
         22    1    1    2    0    0  0.16673116474E+00  0.36403667307E+00  0.32785350393E+01  0.33028947886E+01  0.00000000000E+00 0.  1.
</event>
<event>
 5    1  0.7220939E+001  0.1599159E+01  0.7818608E-02  0.3354277E+00
         11   -1    0    0    0    0  0.00000000000E+00  0.00000000000E+00  0.39999999674E+01  0.40000000000E+01  0.51100000000E-03 0.  1.
    9000002   -1    0    0    0    0 -0.00000000000E+00 -0.00000000000E+00  0.00000000000E+00  0.93800000000E+00  0.93800000000E+00 0. -1.
         11    1    1    2    0    0 -0.16305457506E+00 -0.69424034230E-01  0.11648581384E+01  0.11782619551E+01  0.51100000000E-03 0.  1.
    9000002    1    1    2    0    0  0.46328428546E+00  0.27229351864E+00  0.19947073572E+00  0.10992764274E+01  0.93800000000E+00 0. -1.
         22    1    1    2    0    0 -0.30022971040E+00 -0.20286948441E+00  0.26356710932E+01  0.26604616175E+01  0.00000000000E+00 0.  1.
</event>
<event>
 5    1  0.7220939E+001  0.1599246E+01  0.7818608E-02  0.3354183E+00
         11   -1    0    0    0    0  0.00000000000E+00  0.00000000000E+00  0.39999999674E+01  0.40000000000E+01  0.51100000000E-03 0.  1.
    9000002   -1    0    0    0    0 -0.00000000000E+00 -0.00000000000E+00  0.00000000000E+00  0.93800000000E+00  0.93800000000E+00 0.  1.
         11    1    1    2    0    0 -0.20134766337E-02 -0.64831605498E-01  0.10118340176E+01  0.10139110077E+01  0.51100000000E-03 0.  1.
    9000002    1    1    2    0    0 -0.20881182301E-01  0.33160288751E+00  0.74225172195E-01  0.99787267473E+00  0.93800000000E+00 0.  1.
         22    1    1    2    0    0  0.22894658934E-01 -0.26677128201E+00  0.29139407775E+01  0.29262163176E+01  0.00000000000E+00 0.  1.
</event>
<event>
 5    1  0.7220939E+001  0.1597309E+01  0.7818608E-02  0.3356290E+00
         11   -1    0    0    0    0  0.00000000000E+00  0.00000000000E+00  0.39999999674E+01  0.40000000000E+01  0.51100000000E-03 0. -1.
    9000002   -1    0    0    0    0 -0.00000000000E+00 -0.00000000000E+00  0.00000000000E+00  0.93800000000E+00  0.93800000000E+00 0.  1.
         11    1    1    2    0    0  0.41690303189E-01  0.42147246286E-01  0.30808909969E+00  0.31374133648E+00  0.51100000000E-03 0. -1.
    9000002    1    1    2    0    0 -0.16094140293E+00 -0.36425208954E+00  0.10891281596E+00  0.10248354606E+01  0.93800000000E+00 0.  1.
         22    1    1    2    0    0  0.11925109974E+00  0.32210484325E+00  0.35829980517E+01  0.35994232029E+01  0.00000000000E+00 0. -1.
</event>
<event>
 5    1  0.7220939E+001  0.1597613E+01  0.7818608E-02  0.3355958E+00
         11   -1    0    0    0    0  0.00000000000E+00  0.00000000000E+00  0.39999999674E+01  0.40000000000E+01  0.51100000000E-03 0. -1.
    9000002   -1    0    0    0    0 -0.00000000000E+00 -0.00000000000E+00  0.00000000000E+00  0.93800000000E+00  0.93800000000E+00 0.  1.
         11    1    1    2    0    0 -0.89600509205E-02  0.50386227168E-01  0.11250297046E+01  0.11261932125E+01  0.51100000000E-03 0. -1.
    9000002    1    1    2    0    0  0.11213123624E+00 -0.32804193567E+00  0.82215968920E-01  0.10033884548E+01  0.93800000000E+00 0.  1.
         22    1    1    2    0    0 -0.10317118532E+00  0.27765570850E+00  0.27927542938E+01  0.28084183327E+01  0.00000000000E+00 0. -1.
</event>
<event>
 5    1  0.7220939E+001  0.1468699E+01  0.7818608E-02  0.3509487E+00
         11   -1    0    0    0    0  0.00000000000E+00  0.00000000000E+00  0.39999999674E+01  0.40000000000E+01  0.51100000000E-03 0.  1.
    9000002   -1    0    0    0    0 -0.00000000000E+00 -0.00000000000E+00  0.00000000000E+00  0.93800000000E+00  0.93800000000E+00 0.  1.
         11    1    1    2    0    0 -0.31456943951E+00 -0.54494214573E+00  0.96541179235E+00  0.11523610825E+01  0.51100000000E-03 0.  1.
    9000002    1    1    2    0    0 -0.64607702825E-01  0.93127780991E+00  0.94258559573E+00  0.16247350922E+01  0.93800000000E+00 0.  1.
         22    1    1    2    0    0  0.37917714233E+00 -0.38633566418E+00  0.20920025793E+01  0.21609038253E+01  0.00000000000E+00 0.  1.
</event>
<event>
 5    1  0.7220939E+001  0.1598423E+01  0.7818608E-02  0.3355077E+00
         11   -1    0    0    0    0  0.00000000000E+00  0.00000000000E+00  0.39999999674E+01  0.40000000000E+01  0.51100000000E-03 0. -1.
    9000002   -1    0    0    0    0 -0.00000000000E+00 -0.00000000000E+00  0.00000000000E+00  0.93800000000E+00  0.93800000000E+00 0.  1.
         11    1    1    2    0    0 -0.69616699937E-02  0.11393597785E-01  0.12451657064E+00  0.12523145134E+00  0.51100000000E-03 0. -1.
    9000002    1    1    2    0    0  0.45805588519E+00  0.45425012496E-01  0.14521911168E+00  0.10548986758E+01  0.93800000000E+00 0.  1.
         22    1    1    2    0    0 -0.45109421520E+00 -0.56818610281E-01  0.37302642850E+01  0.37578698729E+01  0.00000000000E+00 0. -1.
</event>
<event>
 5    1  0.7220939E+001  0.1599669E+01  0.7818608E-02  0.3353723E+00
         11   -1    0    0    0    0  0.00000000000E+00  0.00000000000E+00  0.39999999674E+01  0.40000000000E+01  0.51100000000E-03 0.  1.
    9000002   -1    0    0    0    0 -0.00000000000E+00 -0.00000000000E+00  0.00000000000E+00  0.93800000000E+00  0.93800000000E+00 0. -1.
         11    1    1    2    0    0  0.13348882830E+00 -0.54280934884E+00  0.12106973752E+01  0.13335102744E+01  0.51100000000E-03 0.  1.
    9000002    1    1    2    0    0 -0.28047712486E+00  0.11699088798E+01  0.13888996827E+01  0.20630658092E+01  0.93800000000E+00 0. -1.
         22    1    1    2    0    0  0.14698829656E+00 -0.62709953100E+00  0.14004029094E+01  0.15414239163E+01  0.00000000000E+00 0.  1.
</event>
<event>
 5    1  0.7220939E+001  0.1599647E+01  0.7818608E-02  0.3353747E+00
         11   -1    0    0    0    0  0.00000000000E+00  0.00000000000E+00  0.39999999674E+01  0.40000000000E+01  0.51100000000E-03 0. -1.
    9000002   -1    0    0    0    0 -0.00000000000E+00 -0.00000000000E+00  0.00000000000E+00  0.93800000000E+00  0.93800000000E+00 0.  1.
         11    1    1    2    0    0 -0.78150180597E-01 -0.89026152729E-01  0.10472062598E+01  0.10538853440E+01  0.51100000000E-03 0. -1.
    9000002    1    1    2    0    0  0.27724034844E+00  0.31210774157E+00  0.11784676329E+00  0.10334434250E+01  0.93800000000E+00 0.  1.
         22    1    1    2    0    0 -0.19909016785E+00 -0.22308158884E+00  0.28349469442E+01  0.28506712309E+01  0.00000000000E+00 0. -1.
</event>
<event>
 5    1  0.7220939E+001  0.1595272E+01  0.7818608E-02  0.3358511E+00
         11   -1    0    0    0    0  0.00000000000E+00  0.00000000000E+00  0.39999999674E+01  0.40000000000E+01  0.51100000000E-03 0.  1.
    9000002   -1    0    0    0    0 -0.00000000000E+00 -0.00000000000E+00  0.00000000000E+00  0.93800000000E+00  0.93800000000E+00 0.  1.
         11    1    1    2    0    0 -0.18424163643E+00  0.17386152308E+00  0.14651201935E+01  0.14868591905E+01  0.51100000000E-03 0.  1.
    9000002    1    1    2    0    0  0.60479047973E+00 -0.30136172040E+00  0.32904660087E+00  0.12019592657E+01  0.93800000000E+00 0.  1.
         22    1    1    2    0    0 -0.42054884330E+00  0.12750019732E+00  0.22058331730E+01  0.22491815438E+01  0.00000000000E+00 0.  1.
</event>
<event>
 5    1  0.7220939E+001  0.1584497E+01  0.7818608E-02  0.3370363E+00
         11   -1    0    0    0    0  0.00000000000E+00  0.00000000000E+00  0.39999999674E+01  0.40000000000E+01  0.51100000000E-03 0.  1.
    9000002   -1    0    0    0    0 -0.00000000000E+00 -0.00000000000E+00  0.00000000000E+00  0.93800000000E+00  0.93800000000E+00 0. -1.
         11    1    1    2    0    0  0.46575365682E-01 -0.16930392875E+00  0.73001567376E+00  0.75083701962E+00  0.51100000000E-03 0.  1.
    9000002    1    1    2    0    0 -0.54529044461E+00  0.34415608118E+00  0.30909214744E+00  0.11794774406E+01  0.93800000000E+00 0. -1.
         22    1    1    2    0    0  0.49871507893E+00 -0.17485215243E+00  0.29608921462E+01  0.30076855398E+01  0.00000000000E+00 0.  1.
</event>
<event>
 5    1  0.7220939E+001  0.1599492E+01  0.7818608E-02  0.3353915E+00
         11   -1    0    0    0    0  0.00000000000E+00  0.00000000000E+00  0.39999999674E+01  0.40000000000E+01  0.51100000000E-03 0. -1.
    9000002   -1    0    0    0    0 -0.00000000000E+00 -0.00000000000E+00  0.00000000000E+00  0.93800000000E+00  0.93800000000E+00 0.  1.
         11    1    1    2    0    0  0.50440359867E-01 -0.80352397364E-01  0.88395341688E+00  0.88903016934E+00  0.51100000000E-03 0. -1.
    9000002    1    1    2    0    0 -0.27494384903E+00  0.37475851489E+00  0.14721857632E+00  0.10571449162E+01  0.93800000000E+00 0.  1.
         22    1    1    2    0    0  0.22450348917E+00 -0.29440611753E+00  0.29688279742E+01  0.29918249145E+01  0.00000000000E+00 0. -1.
</event>
<event>
 5    1  0.7220939E+001  0.1599658E+01  0.7818608E-02  0.3353735E+00
         11   -1    0    0    0    0  0.00000000000E+00  0.00000000000E+00  0.39999999674E+01  0.40000000000E+01  0.51100000000E-03 0.  1.
    9000002   -1    0    0    0    0 -0.00000000000E+00 -0.00000000000E+00  0.00000000000E+00  0.93800000000E+00  0.93800000000E+00 0. -1.
         11    1    1    2    0    0 -0.98582369247E-01  0.24939124920E-01  0.10731668328E+01  0.10779739123E+01  0.51100000000E-03 0.  1.
    9000002    1    1    2    0    0  0.36984994507E+00 -0.77848062082E-01  0.96106700961E-01  0.10158394561E+01  0.93800000000E+00 0. -1.
         22    1    1    2    0    0 -0.27126757583E+00  0.52908937162E-01  0.28307264336E+01  0.28441866316E+01  0.00000000000E+00 0.  1.
</event>
<event>
 5    1  0.7220939E+001  0.1599538E+01  0.7818608E-02  0.3353865E+00
         11   -1    0    0    0    0  0.00000000000E+00  0.00000000000E+00  0.39999999674E+01  0.40000000000E+01  0.51100000000E-03 0.  1.
    9000002   -1    0    0    0    0 -0.00000000000E+00 -0.00000000000E+00  0.00000000000E+00  0.93800000000E+00  0.93800000000E+00 0. -1.
         11    1    1    2    0    0  0.19340934815E-01  0.17941567821E-01  0.35768902725E+00  0.35866094428E+00  0.51100000000E-03 0.  1.
    9000002    1    1    2    0    0 -0.30066240724E+00 -0.18721900152E+00  0.84265763320E-01  0.10061776963E+01  0.93800000000E+00 0. -1.
         22    1    1    2    0    0  0.28132147242E+00  0.16927743370E+00  0.35580451768E+01  0.35731613594E+01  0.00000000000E+00 0.  1.
</event>
<event>
 5    1  0.7220939E+001  0.1599409E+01  0.7818608E-02  0.3354005E+00
         11   -1    0    0    0    0  0.00000000000E+00  0.00000000000E+00  0.39999999674E+01  0.40000000000E+01  0.51100000000E-03 0.  1.
    9000002   -1    0    0    0    0 -0.00000000000E+00 -0.00000000000E+00  0.00000000000E+00  0.93800000000E+00  0.93800000000E+00 0. -1.
         11    1    1    2    0    0 -0.94958568185E-01 -0.61285604747E-01  0.12826507431E+01  0.12876203808E+01  0.51100000000E-03 0.  1.
    9000002    1    1    2    0    0  0.32655641313E+00  0.14419769395E+00  0.85727807382E-01  0.10072861177E+01  0.93800000000E+00 0. -1.
         22    1    1    2    0    0 -0.23159784494E+00 -0.82912089206E-01  0.26316214168E+01  0.26430935015E+01  0.00000000000E+00 0.  1.
</event>
<event>
 5    1  0.7220939E+001  0.1579673E+01  0.7818608E-02  0.3375726E+00
         11   -1    0    0    0    0  0.00000000000E+00  0.00000000000E+00  0.39999999674E+01  0.40000000000E+01  0.51100000000E-03 0.  1.
    9000002   -1    0    0    0    0 -0.00000000000E+00 -0.00000000000E+00  0.00000000000E+00  0.93800000000E+00  0.93800000000E+00 0. -1.
         11    1    1    2    0    0 -0.19436997997E+00  0.10355511371E+00  0.14034439095E+01  0.14206190267E+01  0.51100000000E-03 0.  1.
    9000002    1    1    2    0    0  0.46661165991E+00  0.16036732082E+00  0.18460740853E+00  0.10758103987E+01  0.93800000000E+00 0. -1.
         22    1    1    2    0    0 -0.27224167994E+00 -0.26392243453E+00  0.24119486493E+01  0.24415705746E+01  0.00000000000E+00 0.  1.
</event>
<event>
 5    1  0.7220939E+001  0.1599563E+01  0.7818608E-02  0.3353837E+00
         11   -1    0    0    0    0  0.00000000000E+00  0.00000000000E+00  0.39999999674E+01  0.40000000000E+01  0.51100000000E-03 0. -1.
    9000002   -1    0    0    0    0 -0.00000000000E+00 -0.00000000000E+00  0.00000000000E+00  0.93800000000E+00  0.93800000000E+00 0.  1.
         11    1    1    2    0    0  0.13759392360E+00  0.27407364797E-01  0.14132718517E+01  0.14202185886E+01  0.51100000000E-03 0. -1.
    9000002    1    1    2    0    0 -0.35839713112E+00 -0.10184877781E+00  0.93414739674E-01  0.10136034682E+01  0.93800000000E+00 0.  1.
         22    1    1    2    0    0  0.22080320752E+00  0.74441413009E-01  0.24933133760E+01  0.25041779432E+01  0.00000000000E+00 0. -1.
</event>
<event>
 5    1  0.7220939E+001  0.1470483E+01  0.7818608E-02  0.3507165E+00
         11   -1    0    0    0    0  0.00000000000E+00  0.00000000000E+00  0.39999999674E+01  0.40000000000E+01  0.51100000000E-03 0. -1.
    9000002   -1    0    0    0    0 -0.00000000000E+00 -0.00000000000E+00  0.00000000000E+00  0.93800000000E+00  0.93800000000E+00 0. -1.
         11    1    1    2    0    0 -0.24376059790E+00  0.12164559017E+00  0.41596390725E+00  0.49723546932E+00  0.51100000000E-03 0. -1.
    9000002    1    1    2    0    0  0.80386619721E-01  0.23812199819E+00  0.14825502059E+00  0.98233784707E+00  0.93800000000E+00 0. -1.
         22    1    1    2    0    0  0.16337397818E+00 -0.35976758836E+00  0.34357810395E+01  0.34584266836E+01  0.00000000000E+00 0. -1.
</event>
<event>
 5    1  0.7220939E+001  0.1599613E+01  0.7818608E-02  0.3353783E+00
         11   -1    0    0    0    0  0.00000000000E+00  0.00000000000E+00  0.39999999674E+01  0.40000000000E+01  0.51100000000E-03 0. -1.
    9000002   -1    0    0    0    0 -0.00000000000E+00 -0.00000000000E+00  0.00000000000E+00  0.93800000000E+00  0.93800000000E+00 0.  1.
         11    1    1    2    0    0  0.14095229856E+00 -0.18850413633E-01  0.11934989375E+01  0.12019412895E+01  0.51100000000E-03 0. -1.
    9000002    1    1    2    0    0 -0.47086016283E+00  0.37174519866E-01  0.15209111238E+00  0.10611630150E+01  0.93800000000E+00 0.  1.
         22    1    1    2    0    0  0.32990786427E+00 -0.18324106233E-01  0.26544099175E+01  0.26748956955E+01  0.00000000000E+00 0. -1.
</event>
<event>
 5    1  0.7839037E+001  0.1593477E+01  0.7818608E-02  0.3360474E+00
         11   -1    0    0    0    0  0.00000000000E+00  0.00000000000E+00  0.39999999674E+01  0.40000000000E+01  0.51100000000E-03 0. -1.
    9000002   -1    0    0    0    0 -0.00000000000E+00 -0.00000000000E+00  0.00000000000E+00  0.93800000000E+00  0.93800000000E+00 0.  1.
         11    1    1    2    0    0 -0.76326046586E-01  0.49239430907E-01  0.14394814983E+01  0.14423444221E+01  0.51100000000E-03 0. -1.
    9000002    1    1    2    0    0  0.11161791874E-01 -0.28746769305E+00  0.59987676108E-01  0.98295716154E+00  0.93800000000E+00 0.  1.
         22    1    1    2    0    0  0.65164254712E-01  0.23822826214E+00  0.25005307930E+01  0.25126984164E+01  0.00000000000E+00 0. -1.
</event>
<event>
 5    1  0.7220939E+001  0.1599258E+01  0.7818608E-02  0.3354169E+00
         11   -1    0    0    0    0  0.00000000000E+00  0.00000000000E+00  0.39999999674E+01  0.40000000000E+01  0.51100000000E-03 0. -1.
    9000002   -1    0    0    0    0 -0.00000000000E+00 -0.00000000000E+00  0.00000000000E+00  0.93800000000E+00  0.93800000000E+00 0. -1.
         11    1    1    2    0    0  0.11893218605E-01 -0.66341008606E-01  0.76964458134E+00  0.77259020236E+00  0.51100000000E-03 0. -1.
    9000002    1    1    2    0    0 -0.42120883156E-01  0.43153383375E+00  0.12773889219E+00  0.10412285258E+01  0.93800000000E+00 0. -1.
         22    1    1    2    0    0  0.30227664551E-01 -0.36519282514E+00  0.31026164938E+01  0.31241812718E+01  0.00000000000E+00 0. -1.
</event>
<event>
 5    1  0.7220939E+001  0.1488540E+01  0.7818608E-02  0.3483996E+00
         11   -1    0    0    0    0  0.00000000000E+00  0.00000000000E+00  0.39999999674E+01  0.40000000000E+01  0.51100000000E-03 0.  1.
    9000002   -1    0    0    0    0 -0.00000000000E+00 -0.00000000000E+00  0.00000000000E+00  0.93800000000E+00  0.93800000000E+00 0. -1.
         11    1    1    2    0    0 -0.17018600480E+00 -0.24631927118E+00  0.61382314469E+00  0.68294624508E+00  0.51100000000E-03 0.  1.
    9000002    1    1    2    0    0 -0.10552021780E+00  0.94283120735E-01  0.10004631075E+00  0.95387477559E+00  0.93800000000E+00 0. -1.
         22    1    1    2    0    0  0.27570622260E+00  0.15203615045E+00  0.32861305119E+01  0.33011789793E+01  0.00000000000E+00 0.  1.
</event>
<event>
 5    1  0.7220939E+001  0.1595900E+01  0.7818608E-02  0.3357826E+00
         11   -1    0    0    0    0  0.00000000000E+00  0.00000000000E+00  0.39999999674E+01  0.40000000000E+01  0.51100000000E-03 0.  1.
    9000002   -1    0    0    0    0 -0.00000000000E+00 -0.00000000000E+00  0.00000000000E+00  0.93800000000E+00  0.93800000000E+00 0. -1.
         11    1    1    2    0    0  0.13862572679E-01 -0.51682065312E-02  0.83818524008E+00  0.83831595422E+00  0.51100000000E-03 0.  1.
    9000002    1    1    2    0    0 -0.34693772404E+00  0.55054657988E-01  0.85800487236E-01  0.10052872840E+01  0.93800000000E+00 0. -1.
         22    1    1    2    0    0  0.33307515137E+00 -0.49886451457E-01  0.30760142400E+01  0.30943967618E+01  0.00000000000E+00 0.  1.
</event>
<event>
 5    1  0.7220939E+001  0.1599521E+01  0.7818608E-02  0.3353883E+00
         11   -1    0    0    0    0  0.00000000000E+00  0.00000000000E+00  0.39999999674E+01  0.40000000000E+01  0.51100000000E-03 0. -1.
    9000002   -1    0    0    0    0 -0.00000000000E+00 -0.00000000000E+00  0.00000000000E+00  0.93800000000E+00  0.93800000000E+00 0. -1.
         11    1    1    2    0    0  0.45756364386E-02  0.10956065129E-01  0.10851547823E+00  0.10916428880E+00  0.51100000000E-03 0. -1.
    9000002    1    1    2    0    0  0.10486422123E-01 -0.36945538630E+00  0.91928217289E-01  0.10123744587E+01  0.93800000000E+00 0. -1.
         22    1    1    2    0    0 -0.15062058562E-01  0.35849932117E+00  0.37995562718E+01  0.38164612525E+01  0.00000000000E+00 0. -1.
</event>
<event>
 5    1  0.7220939E+001  0.1572845E+01  0.7818608E-02  0.3383374E+00
         11   -1    0    0    0    0  0.00000000000E+00  0.00000000000E+00  0.39999999674E+01  0.40000000000E+01  0.51100000000E-03 0. -1.
    9000002   -1    0    0    0    0 -0.00000000000E+00 -0.00000000000E+00  0.00000000000E+00  0.93800000000E+00  0.93800000000E+00 0.  1.
         11    1    1    2    0    0  0.10824079115E+00  0.90539532189E-01  0.11360862236E+01  0.11448168606E+01  0.51100000000E-03 0. -1.
    9000002    1    1    2    0    0  0.13874469244E+00  0.30667675371E-01  0.33357671882E-01  0.94928780160E+00  0.93800000000E+00 0.  1.
         22    1    1    2    0    0 -0.24698548359E+00 -0.12120720756E+00  0.28305560719E+01  0.28438953378E+01  0.00000000000E+00 0. -1.
</event>
<event>
 5    1  0.7220939E+001  0.1599677E+01  0.7818608E-02  0.3353714E+00
         11   -1    0    0    0    0  0.00000000000E+00  0.00000000000E+00  0.39999999674E+01  0.40000000000E+01  0.51100000000E-03 0.  1.
    9000002   -1    0    0    0    0 -0.00000000000E+00 -0.00000000000E+00  0.00000000000E+00  0.93800000000E+00  0.93800000000E+00 0. -1.
         11    1    1    2    0    0  0.11368785402E+00  0.60100292238E-01  0.88509551314E+00  0.89438878671E+00  0.51100000000E-03 0.  1.
    9000002    1    1    2    0    0 -0.48581314057E+00 -0.25868166033E+00  0.20925019892E+00  0.11075018080E+01  0.93800000000E+00 0. -1.
         22    1    1    2    0    0  0.37212528654E+00  0.19858136809E+00  0.29056542553E+01  0.29361094053E+01  0.00000000000E+00 0. -1.
</event>
<event>
 5    1  0.7220939E+001  0.1599645E+01  0.7818608E-02  0.3353749E+00
         11   -1    0    0    0    0  0.00000000000E+00  0.00000000000E+00  0.39999999674E+01  0.40000000000E+01  0.51100000000E-03 0. -1.
    9000002   -1    0    0    0    0 -0.00000000000E+00 -0.00000000000E+00  0.00000000000E+00  0.93800000000E+00  0.93800000000E+00 0. -1.
         11    1    1    2    0    0  0.18760620243E+00  0.13110628664E+00  0.14281236497E+01  0.14463479407E+01  0.51100000000E-03 0. -1.
    9000002    1    1    2    0    0 -0.47782931261E+00 -0.33867946909E+00  0.23864001006E+00  0.11312902763E+01  0.93800000000E+00 0. -1.
         22    1    1    2    0    0  0.29022311018E+00  0.20757318245E+00  0.23332363076E+01  0.23603617830E+01  0.00000000000E+00 0. -1.
</event>
<event>
 5    1  0.7220939E+001  0.1598829E+01  0.7818608E-02  0.3354635E+00
         11   -1    0    0    0    0  0.00000000000E+00  0.00000000000E+00  0.39999999674E+01  0.40000000000E+01  0.51100000000E-03 0.  1.
    9000002   -1    0    0    0    0 -0.00000000000E+00 -0.00000000000E+00  0.00000000000E+00  0.93800000000E+00  0.93800000000E+00 0. -1.
         11    1    1    2    0    0  0.12378259283E-01 -0.51334572954E-01  0.24561095631E+00  0.25122392932E+00  0.51100000000E-03 0.  1.
    9000002    1    1    2    0    0 -0.26469937976E+00  0.52818687105E+00  0.24389158104E+00  0.11350657407E+01  0.93800000000E+00 0.  1.
         22    1    1    2    0    0  0.25232112048E+00 -0.47685229809E+00  0.35104974300E+01  0.35517103300E+01  0.00000000000E+00 0.  1.
</event>
<event>
 5    1  0.7220939E+001  0.1544843E+01  0.7818608E-02  0.3415494E+00
         11   -1    0    0    0    0  0.00000000000E+00  0.00000000000E+00  0.39999999674E+01  0.40000000000E+01  0.51100000000E-03 0. -1.
    9000002   -1    0    0    0    0 -0.00000000000E+00 -0.00000000000E+00  0.00000000000E+00  0.93800000000E+00  0.93800000000E+00 0. -1.
         11    1    1    2    0    0 -0.59988920804E-01 -0.13561787760E+00  0.38631758943E+00  0.41380239290E+00  0.51100000000E-03 0. -1.
    9000002    1    1    2    0    0 -0.23956493653E+00 -0.12149235596E+00  0.91524204894E-01  0.97998593431E+00  0.93800000000E+00 0. -1.
         22    1    1    2    0    0  0.29955385733E+00  0.25711023356E+00  0.35221581730E+01  0.35442116728E+01  0.00000000000E+00 0. -1.
</event>
<event>
 5    1  0.7220939E+001  0.1599614E+01  0.7818608E-02  0.3353783E+00
         11   -1    0    0    0    0  0.00000000000E+00  0.00000000000E+00  0.39999999674E+01  0.40000000000E+01  0.51100000000E-03 0. -1.
    9000002   -1    0    0    0    0 -0.00000000000E+00 -0.00000000000E+00  0.00000000000E+00  0.93800000000E+00  0.93800000000E+00 0.  1.
         11    1    1    2    0    0  0.17695070238E-01  0.11323052678E+00  0.71812596400E+00  0.72721346865E+00  0.51100000000E-03 0. -1.
    9000002    1    1    2    0    0 -0.54533102192E-01 -0.60119380088E+00  0.25450976883E+00  0.11441272079E+01  0.93800000000E+00 0.  1.
         22    1    1    2    0    0  0.36838031954E-01  0.48796327410E+00  0.30273642345E+01  0.30666593234E+01  0.00000000000E+00 0. -1.
</event>
<event>
 5    1  0.7220939E+001  0.1599672E+01  0.7818608E-02  0.3353720E+00
         11   -1    0    0    0    0  0.00000000000E+00  0.00000000000E+00  0.39999999674E+01  0.40000000000E+01  0.51100000000E-03 0.  1.
    9000002   -1    0    0    0    0 -0.00000000000E+00 -0.00000000000E+00  0.00000000000E+00  0.93800000000E+00  0.93800000000E+00 0.  1.
         11    1    1    2    0    0  0.19075295138E-01 -0.13527239830E-03  0.18901089571E+00  0.18997174790E+00  0.51100000000E-03 0.  1.
    9000002    1    1    2    0    0 -0.38345516117E+00  0.23318638523E-01  0.99353668680E-01  0.10184776733E+01  0.93800000000E+00 0.  1.
         22    1    1    2    0    0  0.36437986603E+00 -0.23183366125E-01  0.37116354030E+01  0.37295505788E+01  0.00000000000E+00 0.  1.
</event>
<event>
 5    1  0.7220939E+001  0.1595860E+01  0.7818608E-02  0.3357870E+00
         11   -1    0    0    0    0  0.00000000000E+00  0.00000000000E+00  0.39999999674E+01  0.40000000000E+01  0.51100000000E-03 0. -1.
    9000002   -1    0    0    0    0 -0.00000000000E+00 -0.00000000000E+00  0.00000000000E+00  0.93800000000E+00  0.93800000000E+00 0.  1.
         11    1    1    2    0    0  0.80401498849E-02  0.13981919136E-01  0.14409933952E+00  0.14500006498E+00  0.51100000000E-03 0. -1.
    9000002    1    1    2    0    0  0.47381361472E+00 -0.66835792071E-01  0.15957334961E+00  0.10650230131E+01  0.93800000000E+00 0.  1.
         22    1    1    2    0    0 -0.48185376461E+00  0.52853872935E-01  0.36963272782E+01  0.37279769219E+01  0.00000000000E+00 0. -1.
</event>
<event>
 5    1  0.7220939E+001  0.1599457E+01  0.7818608E-02  0.3353953E+00
         11   -1    0    0    0    0  0.00000000000E+00  0.00000000000E+00  0.39999999674E+01  0.40000000000E+01  0.51100000000E-03 0.  1.
    9000002   -1    0    0    0    0 -0.00000000000E+00 -0.00000000000E+00  0.00000000000E+00  0.93800000000E+00  0.93800000000E+00 0.  1.
         11    1    1    2    0    0 -0.60748196694E-02  0.71555714490E-02  0.80548894914E-01  0.81095568495E-01  0.51100000000E-03 0.  1.
    9000002    1    1    2    0    0  0.79355233812E-01 -0.46233772870E+00  0.15008198296E+00  0.10594442081E+01  0.93800000000E+00 0.  1.
         22    1    1    2    0    0 -0.73280414142E-01  0.45518215725E+00  0.37693690895E+01  0.37974602234E+01  0.00000000000E+00 0.  1.
</event>
<event>
 5    1  0.7220939E+001  0.1539149E+01  0.7818608E-02  0.3422178E+00
         11   -1    0    0    0    0  0.00000000000E+00  0.00000000000E+00  0.39999999674E+01  0.40000000000E+01  0.51100000000E-03 0.  1.
    9000002   -1    0    0    0    0 -0.00000000000E+00 -0.00000000000E+00  0.00000000000E+00  0.93800000000E+00  0.93800000000E+00 0.  1.
         11    1    1    2    0    0 -0.15872838807E-01  0.28752037481E+00  0.14568738837E+01  0.14850594894E+01  0.51100000000E-03 0.  1.
    9000002    1    1    2    0    0  0.46912691728E-01 -0.45453486526E-02  0.46708222500E-01  0.94034414918E+00  0.93800000000E+00 0.  1.
         22    1    1    2    0    0 -0.31039852921E-01 -0.28297502616E+00  0.24964178612E+01  0.25125963615E+01  0.00000000000E+00 0.  1.
</event>
<event>
 5    1  0.7220939E+001  0.1599675E+01  0.7818608E-02  0.3353716E+00
         11   -1    0    0    0    0  0.00000000000E+00  0.00000000000E+00  0.39999999674E+01  0.40000000000E+01  0.51100000000E-03 0.  1.
    9000002   -1    0    0    0    0 -0.00000000000E+00 -0.00000000000E+00  0.00000000000E+00  0.93800000000E+00  0.93800000000E+00 0. -1.
         11    1    1    2    0    0  0.11005115470E-02 -0.12573359656E+00  0.12995393862E+01  0.13056082973E+01  0.51100000000E-03 0.  1.
    9000002    1    1    2    0    0 -0.29838531084E-02  0.38216734211E+00  0.98303119044E-01  0.10176287555E+01  0.93800000000E+00 0. -1.
         22    1    1    2    0    0  0.18833415614E-02 -0.25643374554E+00  0.26021574621E+01  0.26147629473E+01  0.00000000000E+00 0.  1.
</event>
<event>
 5    1  0.7220939E+001  0.1570570E+01  0.7818608E-02  0.3385938E+00
         11   -1    0    0    0    0  0.00000000000E+00  0.00000000000E+00  0.39999999674E+01  0.40000000000E+01  0.51100000000E-03 0. -1.
    9000002   -1    0    0    0    0 -0.00000000000E+00 -0.00000000000E+00  0.00000000000E+00  0.93800000000E+00  0.93800000000E+00 0. -1.
         11    1    1    2    0    0  0.16803033877E+00 -0.25156351302E+00  0.76349760817E+00  0.82124737724E+00  0.51100000000E-03 0. -1.
    9000002    1    1    2    0    0 -0.29507629609E+00  0.56583581619E+00  0.31743665919E+00  0.11780705514E+01  0.93800000000E+00 0. -1.
         22    1    1    2    0    0  0.12704595732E+00 -0.31427230317E+00  0.29190657000E+01  0.29386820714E+01  0.00000000000E+00 0. -1.
</event>
<event>
 5    1  0.7220939E+001  0.1599675E+01  0.7818608E-02  0.3353716E+00
         11   -1    0    0    0    0  0.00000000000E+00  0.00000000000E+00  0.39999999674E+01  0.40000000000E+01  0.51100000000E-03 0. -1.
    9000002   -1    0    0    0    0 -0.00000000000E+00 -0.00000000000E+00  0.00000000000E+00  0.93800000000E+00  0.93800000000E+00 0. -1.
         11    1    1    2    0    0 -0.21134479032E+00  0.85657443287E-01  0.10078821881E+01  0.10333588845E+01  0.51100000000E-03 0. -1.
    9000002    1    1    2    0    0  0.73661321499E+00 -0.30390758276E+00  0.46722846764E+00  0.13164745680E+01  0.93800000000E+00 0. -1.
         22    1    1    2    0    0 -0.52526842467E+00  0.21825013948E+00  0.25248893116E+01  0.25881665474E+01  0.00000000000E+00 0. -1.
</event>
<event>
 5    1  0.7220939E+001  0.1598711E+01  0.7818608E-02  0.3354763E+00
         11   -1    0    0    0    0  0.00000000000E+00  0.00000000000E+00  0.39999999674E+01  0.40000000000E+01  0.51100000000E-03 0.  1.
    9000002   -1    0    0    0    0 -0.00000000000E+00 -0.00000000000E+00  0.00000000000E+00  0.93800000000E+00  0.93800000000E+00 0.  1.
         11    1    1    2    0    0 -0.44267858268E-01 -0.11124035155E+00  0.11768087649E+01  0.11828834217E+01  0.51100000000E-03 0.  1.
    9000002    1    1    2    0    0  0.17282725435E+00  0.47102763472E+00  0.17324936185E+00  0.10777734613E+01  0.93800000000E+00 0.  1.
         22    1    1    2    0    0 -0.12855939608E+00 -0.35978728317E+00  0.26499418406E+01  0.26773431170E+01  0.00000000000E+00 0.  1.
</event>
<event>
 5    1  0.7220939E+001  0.1598761E+01  0.7818608E-02  0.3354709E+00
         11   -1    0    0    0    0  0.00000000000E+00  0.00000000000E+00  0.39999999674E+01  0.40000000000E+01  0.51100000000E-03 0. -1.
    9000002   -1    0    0    0    0 -0.00000000000E+00 -0.00000000000E+00  0.00000000000E+00  0.93800000000E+00  0.93800000000E+00 0. -1.
         11    1    1    2    0    0 -0.19506267661E+00  0.12187659618E-01  0.85359595046E+00  0.87568504304E+00  0.51100000000E-03 0. -1.
    9000002    1    1    2    0    0  0.80078989878E+00  0.78416712658E-01  0.47884604322E+00  0.13253494543E+01  0.93800000000E+00 0. -1.
         22    1    1    2    0    0 -0.60572722217E+00 -0.90604372276E-01  0.26675579737E+01  0.27369655027E+01  0.00000000000E+00 0. -1.
</event>
<event>
 5    1  0.7220939E+001  0.1599654E+01  0.7818608E-02  0.3353740E+00
         11   -1    0    0    0    0  0.00000000000E+00  0.00000000000E+00  0.39999999674E+01  0.40000000000E+01  0.51100000000E-03 0.  1.
    9000002   -1    0    0    0    0 -0.00000000000E+00 -0.00000000000E+00  0.00000000000E+00  0.93800000000E+00  0.93800000000E+00 0.  1.
         11    1    1    2    0    0  0.51777118501E-01  0.46530041786E-01  0.78473526527E+00  0.78781699173E+00  0.51100000000E-03 0.  1.
    9000002    1    1    2    0    0 -0.27101257655E+00 -0.25098470489E+00  0.91706175956E-01  0.10122722763E+01  0.93800000000E+00 0.  1.
         22    1    1    2    0    0  0.21923545805E+00  0.20445466311E+00  0.31235585261E+01  0.31379107319E+01  0.00000000000E+00 0.  1.
</event>
<event>
 5    1  0.7220939E+001  0.1598602E+01  0.7818608E-02  0.3354882E+00
         11   -1    0    0    0    0  0.00000000000E+00  0.00000000000E+00  0.39999999674E+01  0.40000000000E+01  0.51100000000E-03 0.  1.
    9000002   -1    0    0    0    0 -0.00000000000E+00 -0.00000000000E+00  0.00000000000E+00  0.93800000000E+00  0.93800000000E+00 0.  1.
         11    1    1    2    0    0  0.16361358480E+00 -0.17583184910E+00  0.10870184687E+01  0.11132365682E+01  0.51100000000E-03 0.  1.
    9000002    1    1    2    0    0 -0.59958100158E+00  0.63649719246E+00  0.58059894316E+00  0.14076807828E+01  0.93800000000E+00 0.  1.
         22    1    1    2    0    0  0.43596741678E+00 -0.46066534336E+00  0.23323825555E+01  0.24170826490E+01  0.00000000000E+00 0.  1.
</event>
<event>
 5    1  0.7220939E+001  0.1599636E+01  0.7818608E-02  0.3353759E+00
         11   -1    0    0    0    0  0.00000000000E+00  0.00000000000E+00  0.39999999674E+01  0.40000000000E+01  0.51100000000E-03 0. -1.
    9000002   -1    0    0    0    0 -0.00000000000E+00 -0.00000000000E+00  0.00000000000E+00  0.93800000000E+00  0.93800000000E+00 0. -1.
         11    1    1    2    0    0 -0.10028154815E-01  0.10609292630E+00  0.69110033028E+00  0.69926833228E+00  0.51100000000E-03 0. -1.
    9000002    1    1    2    0    0  0.28079515192E-01 -0.59512697327E+00  0.24747732355E+00  0.11384434985E+01  0.93800000000E+00 0. -1.
         22    1    1    2    0    0 -0.18051360377E-01  0.48903404697E+00  0.30614223135E+01  0.31002881693E+01  0.00000000000E+00 0. -1.
</event>
<event>
 5    1  0.7220939E+001  0.1599624E+01  0.7818608E-02  0.3353772E+00
         11   -1    0    0    0    0  0.00000000000E+00  0.00000000000E+00  0.39999999674E+01  0.40000000000E+01  0.51100000000E-03 0.  1.
    9000002   -1    0    0    0    0 -0.00000000000E+00 -0.00000000000E+00  0.00000000000E+00  0.93800000000E+00  0.93800000000E+00 0.  1.
         11    1    1    2    0    0 -0.31518426960E-02 -0.13721699291E-01  0.11827298082E+00  0.11910910233E+00  0.51100000000E-03 0.  1.
    9000002    1    1    2    0    0  0.62630297794E-02  0.43737735431E+00  0.12976250034E+00  0.10430822029E+01  0.93800000000E+00 0.  1.
         22    1    1    2    0    0 -0.31111870833E-02 -0.42365565502E+00  0.37519644862E+01  0.37758086947E+01  0.00000000000E+00 0.  1.
</event>
<event>
 5    1  0.7220939E+001  0.1599675E+01  0.7818608E-02  0.3353716E+00
         11   -1    0    0    0    0  0.00000000000E+00  0.00000000000E+00  0.39999999674E+01  0.40000000000E+01  0.51100000000E-03 0.  1.
    9000002   -1    0    0    0    0 -0.00000000000E+00 -0.00000000000E+00  0.00000000000E+00  0.93800000000E+00  0.93800000000E+00 0.  1.
         11    1    1    2    0    0 -0.32828458703E+00  0.20842322157E+00  0.13495845245E+01  0.14044891097E+01  0.51100000000E-03 0.  1.
    9000002    1    1    2    0    0  0.80353442569E+00 -0.50505096474E+00  0.70528067166E+00  0.15093074160E+01  0.93800000000E+00 0.  1.
         22    1    1    2    0    0 -0.47524983866E+00  0.29662774316E+00  0.19451347712E+01  0.20242034743E+01  0.00000000000E+00 0.  1.
</event>
<event>
 5    1  0.7220939E+001  0.1598935E+01  0.7818608E-02  0.3354520E+00
         11   -1    0    0    0    0  0.00000000000E+00  0.00000000000E+00  0.39999999674E+01  0.40000000000E+01  0.51100000000E-03 0.  1.
    9000002   -1    0    0    0    0 -0.00000000000E+00 -0.00000000000E+00  0.00000000000E+00  0.93800000000E+00  0.93800000000E+00 0.  1.
         11    1    1    2    0    0  0.26669388700E+00 -0.17070862103E+00  0.12717604148E+01  0.13105883703E+01  0.51100000000E-03 0.  1.
    9000002    1    1    2    0    0 -0.71797850395E+00  0.53922332663E+00  0.61770974621E+00  0.14379375017E+01  0.93800000000E+00 0.  1.
         22    1    1    2    0    0  0.45128461695E+00 -0.36851470560E+00  0.21105298064E+01  0.21894741280E+01  0.00000000000E+00 0.  1.
</event>
<event>
 5    1  0.7220939E+001  0.1578751E+01  0.7818608E-02  0.3376754E+00
         11   -1    0    0    0    0  0.00000000000E+00  0.00000000000E+00  0.39999999674E+01  0.40000000000E+01  0.51100000000E-03 0.  1.
    9000002   -1    0    0    0    0 -0.00000000000E+00 -0.00000000000E+00  0.00000000000E+00  0.93800000000E+00  0.93800000000E+00 0.  1.
         11    1    1    2    0    0  0.20673731403E+00 -0.68808685601E-02  0.13362978178E+01  0.13522129205E+01  0.51100000000E-03 0.  1.
    9000002    1    1    2    0    0 -0.28160304376E+00  0.37952877434E+00  0.17085883177E+00  0.10641330298E+01  0.93800000000E+00 0.  1.
         22    1    1    2    0    0  0.74865729729E-01 -0.37264790578E+00  0.24928433178E+01  0.25216540497E+01  0.00000000000E+00 0.  1.
</event>
<event>
 5    1  0.7220939E+001  0.1599663E+01  0.7818608E-02  0.3353729E+00
         11   -1    0    0    0    0  0.00000000000E+00  0.00000000000E+00  0.39999999674E+01  0.40000000000E+01  0.51100000000E-03 0.  1.
    9000002   -1    0    0    0    0 -0.00000000000E+00 -0.00000000000E+00  0.00000000000E+00  0.93800000000E+00  0.93800000000E+00 0. -1.
         11    1    1    2    0    0 -0.76087526459E-01  0.40442265745E-02  0.71427457025E+00  0.71832728633E+00  0.51100000000E-03 0.  1.
    9000002    1    1    2    0    0  0.40540062183E+00 -0.51473915888E-02  0.11096483446E+00  0.10278780834E+01  0.93800000000E+00 0. -1.
         22    1    1    2    0    0 -0.32931309537E+00  0.11031650143E-02  0.31747605626E+01  0.31917946303E+01  0.00000000000E+00 0.  1.
</event>
<event>
 5    1  0.7220939E+001  0.1598928E+01  0.7818608E-02  0.3354527E+00
         11   -1    0    0    0    0  0.00000000000E+00  0.00000000000E+00  0.39999999674E+01  0.40000000000E+01  0.51100000000E-03 0. -1.
    9000002   -1    0    0    0    0 -0.00000000000E+00 -0.00000000000E+00  0.00000000000E+00  0.93800000000E+00  0.93800000000E+00 0.  1.
         11    1    1    2    0    0  0.19234892822E+00 -0.53895317139E-01  0.12521041761E+01  0.12679384624E+01  0.51100000000E-03 0. -1.
    9000002    1    1    2    0    0 -0.50978830664E+00  0.10711978713E+00  0.18711888655E+00  0.10891355490E+01  0.93800000000E+00 0.  1.
         22    1    1    2    0    0  0.31743937841E+00 -0.53224469994E-01  0.25607769047E+01  0.25809259886E+01  0.00000000000E+00 0. -1.
</event>
<event>
 5    1  0.7220939E+001  0.1599672E+01  0.7818608E-02  0.3353720E+00
         11   -1    0    0    0    0  0.00000000000E+00  0.00000000000E+00  0.39999999674E+01  0.40000000000E+01  0.51100000000E-03 0.  1.
    9000002   -1    0    0    0    0 -0.00000000000E+00 -0.00000000000E+00  0.00000000000E+00  0.93800000000E+00  0.93800000000E+00 0.  1.
         11    1    1    2    0    0  0.22409750609E-02  0.19199458178E-01  0.15616526301E+00  0.15735784587E+00  0.51100000000E-03 0.  1.
    9000002    1    1    2    0    0 -0.78537946231E-01 -0.46525877564E+00  0.15171646618E+00  0.10608938794E+01  0.93800000000E+00 0.  1.
         22    1    1    2    0    0  0.76296971170E-01  0.44605931746E+00  0.36921182382E+01  0.37197482747E+01  0.00000000000E+00 0.  1.
</event>
<event>
 5    1  0.7220939E+001  0.1599677E+01  0.7818608E-02  0.3353714E+00
         11   -1    0    0    0    0  0.00000000000E+00  0.00000000000E+00  0.39999999674E+01  0.40000000000E+01  0.51100000000E-03 0.  1.
    9000002   -1    0    0    0    0 -0.00000000000E+00 -0.00000000000E+00  0.00000000000E+00  0.93800000000E+00  0.93800000000E+00 0. -1.
         11    1    1    2    0    0  0.70556775446E-01 -0.77711142203E-01  0.10891008081E+01  0.10941472075E+01  0.51100000000E-03 0.  1.
    9000002    1    1    2    0    0 -0.25228781375E+00  0.27641763310E+00  0.94170458473E-01  0.10142819747E+01  0.93800000000E+00 0. -1.
         22    1    1    2    0    0  0.18173103831E+00 -0.19870649090E+00  0.28167287007E+01  0.28295708179E+01  0.00000000000E+00 0.  1.
</event>
<event>
 5    1  0.7220939E+001  0.1599655E+01  0.7818608E-02  0.3353737E+00
         11   -1    0    0    0    0  0.00000000000E+00  0.00000000000E+00  0.39999999674E+01  0.40000000000E+01  0.51100000000E-03 0. -1.
    9000002   -1    0    0    0    0 -0.00000000000E+00 -0.00000000000E+00  0.00000000000E+00  0.93800000000E+00  0.93800000000E+00 0. -1.
         11    1    1    2    0    0 -0.17759640160E+00  0.72357385571E-02  0.12862682049E+01  0.12984910450E+01  0.51100000000E-03 0. -1.
    9000002    1    1    2    0    0  0.52477607600E+00 -0.58556920491E-02  0.18937502376E+00  0.10913895357E+01  0.93800000000E+00 0. -1.
         22    1    1    2    0    0 -0.34717967441E+00 -0.13800465080E-02  0.25243567387E+01  0.25481194193E+01  0.00000000000E+00 0. -1.
</event>
<event>
 5    1  0.7220939E+001  0.1599675E+01  0.7818608E-02  0.3353716E+00
         11   -1    0    0    0    0  0.00000000000E+00  0.00000000000E+00  0.39999999674E+01  0.40000000000E+01  0.51100000000E-03 0. -1.
    9000002   -1    0    0    0    0 -0.00000000000E+00 -0.00000000000E+00  0.00000000000E+00  0.93800000000E+00  0.93800000000E+00 0. -1.
         11    1    1    2    0    0 -0.30014236545E+00  0.21062378846E+00  0.95480967436E+00  0.10227949918E+01  0.51100000000E-03 0. -1.
    9000002    1    1    2    0    0  0.91225108963E+00 -0.64057626406E+00  0.10830552568E+01  0.18153216492E+01  0.93800000000E+00 0. -1.
         22    1    1    2    0    0 -0.61210872418E+00  0.42995247560E+00  0.19621350362E+01  0.20998833591E+01  0.00000000000E+00 0. -1.
</event>
<event>
 5    1  0.7220939E+001  0.1599646E+01  0.7818608E-02  0.3353747E+00
         11   -1    0    0    0    0  0.00000000000E+00  0.00000000000E+00  0.39999999674E+01  0.40000000000E+01  0.51100000000E-03 0. -1.
    9000002   -1    0    0    0    0 -0.00000000000E+00 -0.00000000000E+00  0.00000000000E+00  0.93800000000E+00  0.93800000000E+00 0.  1.
         11    1    1    2    0    0  0.55452435035E-02  0.15576869301E-01  0.10060336060E+00  0.10195433227E+00  0.51100000000E-03 0. -1.
    9000002    1    1    2    0    0 -0.21222307593E+00 -0.50779615550E+00  0.20925334455E+00  0.11074865831E+01  0.93800000000E+00 0.  1.
         22    1    1    2    0    0  0.20667783243E+00  0.49221928620E+00  0.36901432622E+01  0.37285590847E+01  0.00000000000E+00 0. -1.
</event>
<event>
 5    1  0.7220939E+001  0.1598997E+01  0.7818608E-02  0.3354453E+00
         11   -1    0    0    0    0  0.00000000000E+00  0.00000000000E+00  0.39999999674E+01  0.40000000000E+01  0.51100000000E-03 0.  1.
    9000002   -1    0    0    0    0 -0.00000000000E+00 -0.00000000000E+00  0.00000000000E+00  0.93800000000E+00  0.93800000000E+00 0.  1.
         11    1    1    2    0    0 -0.19607429221E-01  0.68395101645E-01  0.48417360028E+00  0.48937376058E+00  0.51100000000E-03 0.  1.
    9000002    1    1    2    0    0  0.27256429433E+00 -0.42460678860E+00  0.17502566265E+00  0.10793795449E+01  0.93800000000E+00 0.  1.
         22    1    1    2    0    0 -0.25295686510E+00  0.35621168695E+00  0.33408007044E+01  0.33692466945E+01  0.00000000000E+00 0.  1.
</event>
<event>
 5    1  0.7220939E+001  0.1599649E+01  0.7818608E-02  0.3353744E+00
         11   -1    0    0    0    0  0.00000000000E+00  0.00000000000E+00  0.39999999674E+01  0.40000000000E+01  0.51100000000E-03 0. -1.
    9000002   -1    0    0    0    0 -0.00000000000E+00 -0.00000000000E+00  0.00000000000E+00  0.93800000000E+00  0.93800000000E+00 0.  1.
         11    1    1    2    0    0  0.82419244389E-02  0.89473228656E-01  0.83850101182E+00  0.84330160435E+00  0.51100000000E-03 0. -1.
    9000002    1    1    2    0    0 -0.18950297782E-01 -0.40079006793E+00  0.10863238757E+00  0.10259808906E+01  0.93800000000E+00 0.  1.
         22    1    1    2    0    0  0.10708373343E-01  0.31131683927E+00  0.30528665680E+01  0.30687175050E+01  0.00000000000E+00 0. -1.
</event>
<event>
 5    1  0.7531106E+001  0.1583779E+01  0.7818608E-02  0.3371159E+00
         11   -1    0    0    0    0  0.00000000000E+00  0.00000000000E+00  0.39999999674E+01  0.40000000000E+01  0.51100000000E-03 0.  1.
    9000002   -1    0    0    0    0 -0.00000000000E+00 -0.00000000000E+00  0.00000000000E+00  0.93800000000E+00  0.93800000000E+00 0.  1.
         11    1    1    2    0    0  0.68114362089E-01  0.50069838722E-01  0.87987557543E+00  0.88392751085E+00  0.51100000000E-03 0.  1.
    9000002    1    1    2    0    0  0.63692650297E-01  0.20499533331E+00  0.42607613900E-01  0.96319221817E+00  0.93800000000E+00 0.  1.
         22    1    1    2    0    0 -0.13180701239E+00 -0.25506517203E+00  0.30775167780E+01  0.30908802710E+01  0.00000000000E+00 0.  1.
</event>
<event>
 5    1  0.7220939E+001  0.1599133E+01  0.7818608E-02  0.3354305E+00
         11   -1    0    0    0    0  0.00000000000E+00  0.00000000000E+00  0.39999999674E+01  0.40000000000E+01  0.51100000000E-03 0.  1.
    9000002   -1    0    0    0    0 -0.00000000000E+00 -0.00000000000E+00  0.00000000000E+00  0.93800000000E+00  0.93800000000E+00 0. -1.
         11    1    1    2    0    0  0.27287042263E-01  0.15796727596E+00  0.12544202762E+01  0.12646219725E+01  0.51100000000E-03 0.  1.
    9000002    1    1    2    0    0 -0.14213856777E+00 -0.53114846822E+00  0.20932124517E+00  0.11072404668E+01  0.93800000000E+00 0. -1.
         22    1    1    2    0    0  0.11485152551E+00  0.37318119226E+00  0.25362584460E+01  0.25661375606E+01  0.00000000000E+00 0.  1.
</event>
<event>
 5    1  0.7220939E+001  0.1585275E+01  0.7818608E-02  0.3369502E+00
         11   -1    0    0    0    0  0.00000000000E+00  0.00000000000E+00  0.39999999674E+01  0.40000000000E+01  0.51100000000E-03 0.  1.
    9000002   -1    0    0    0    0 -0.00000000000E+00 -0.00000000000E+00  0.00000000000E+00  0.93800000000E+00  0.93800000000E+00 0. -1.
         11    1    1    2    0    0 -0.44367258002E-01 -0.10699480956E+00  0.11987549159E+01  0.12043379727E+01  0.51100000000E-03 0.  1.
    9000002    1    1    2    0    0  0.27879125566E+00 -0.64278264101E-01  0.65816075981E-01  0.98286927682E+00  0.93800000000E+00 0. -1.
         22    1    1    2    0    0 -0.23442399766E+00  0.17127307366E+00  0.27354289754E+01  0.27507927505E+01  0.00000000000E+00 0.  1.
</event>
<event>
 5    1  0.7220939E+001  0.1599371E+01  0.7818608E-02  0.3354047E+00
         11   -1    0    0    0    0  0.00000000000E+00  0.00000000000E+00  0.39999999674E+01  0.40000000000E+01  0.51100000000E-03 0.  1.
    9000002   -1    0    0    0    0 -0.00000000000E+00 -0.00000000000E+00  0.00000000000E+00  0.93800000000E+00  0.93800000000E+00 0.  1.
         11    1    1    2    0    0  0.66872886138E-01 -0.95526495379E-01  0.97446043237E+00  0.98141259907E+00  0.51100000000E-03 0.  1.
    9000002    1    1    2    0    0 -0.19326649386E+00  0.38441741133E+00  0.12564134952E+00  0.10395953215E+01  0.93800000000E+00 0.  1.
         22    1    1    2    0    0  0.12639360772E+00 -0.28889091595E+00  0.28998981855E+01  0.29169920794E+01  0.00000000000E+00 0.  1.
</event>
<event>
 5    1  0.7220939E+001  0.1599340E+01  0.7818608E-02  0.3354080E+00
         11   -1    0    0    0    0  0.00000000000E+00  0.00000000000E+00  0.39999999674E+01  0.40000000000E+01  0.51100000000E-03 0. -1.
    9000002   -1    0    0    0    0 -0.00000000000E+00 -0.00000000000E+00  0.00000000000E+00  0.93800000000E+00  0.93800000000E+00 0. -1.
         11    1    1    2    0    0 -0.11495324741E+00  0.11119759393E-01  0.10551528826E+01  0.10614545515E+01  0.51100000000E-03 0. -1.
    9000002    1    1    2    0    0  0.39122962905E+00 -0.10571864511E+00  0.11113801424E+00  0.10278291263E+01  0.93800000000E+00 0. -1.
         22    1    1    2    0    0 -0.27627638165E+00  0.94598885716E-01  0.28337090705E+01  0.28487163222E+01  0.00000000000E+00 0. -1.
</event>
<event>
 5    1  0.7220939E+001  0.1599563E+01  0.7818608E-02  0.3353838E+00
         11   -1    0    0    0    0  0.00000000000E+00  0.00000000000E+00  0.39999999674E+01  0.40000000000E+01  0.51100000000E-03 0.  1.
    9000002   -1    0    0    0    0 -0.00000000000E+00 -0.00000000000E+00  0.00000000000E+00  0.93800000000E+00  0.93800000000E+00 0. -1.
         11    1    1    2    0    0  0.51813195017E-02  0.46668118659E-01  0.35671457353E+00  0.35979203362E+00  0.51100000000E-03 0.  1.
    9000002    1    1    2    0    0 -0.12829207681E+00 -0.46823153146E+00  0.16106531660E+00  0.10684033228E+01  0.93800000000E+00 0. -1.
         22    1    1    2    0    0  0.12311075731E+00  0.42156341280E+00  0.34822200772E+01  0.35098046435E+01  0.00000000000E+00 0.  1.
</event>
<event>
 5    1  0.7220939E+001  0.1468701E+01  0.7818608E-02  0.3509484E+00
         11   -1    0    0    0    0  0.00000000000E+00  0.00000000000E+00  0.39999999674E+01  0.40000000000E+01  0.51100000000E-03 0. -1.
    9000002   -1    0    0    0    0 -0.00000000000E+00 -0.00000000000E+00  0.00000000000E+00  0.93800000000E+00  0.93800000000E+00 0. -1.
         11    1    1    2    0    0 -0.83554033487E-01  0.45148586448E+00  0.84837695702E+00  0.96465770337E+00  0.51100000000E-03 0. -1.
    9000002    1    1    2    0    0 -0.12055876904E-01 -0.16383918913E+00  0.15906414250E+00  0.96547088278E+00  0.93800000000E+00 0. -1.
         22    1    1    2    0    0  0.95609910391E-01 -0.28764667535E+00  0.29925588678E+01  0.30078714139E+01  0.00000000000E+00 0. -1.
</event>
<event>
 5    1  0.7220939E+001  0.1599673E+01  0.7818608E-02  0.3353719E+00
         11   -1    0    0    0    0  0.00000000000E+00  0.00000000000E+00  0.39999999674E+01  0.40000000000E+01  0.51100000000E-03 0.  1.
    9000002   -1    0    0    0    0 -0.00000000000E+00 -0.00000000000E+00  0.00000000000E+00  0.93800000000E+00  0.93800000000E+00 0.  1.
         11    1    1    2    0    0 -0.13887098536E-01 -0.54890770602E-02  0.15540590240E+00  0.15612250669E+00  0.51100000000E-03 0. -1.
    9000002    1    1    2    0    0  0.36073335801E+00  0.11938192810E+00  0.97148450324E-01  0.10166919011E+01  0.93800000000E+00 0.  1.
         22    1    1    2    0    0 -0.34684625948E+00 -0.11389285104E+00  0.37474456146E+01  0.37651855922E+01  0.00000000000E+00 0.  1.
</event>
<event>
 5    1  0.7220939E+001  0.1599213E+01  0.7818608E-02  0.3354218E+00
         11   -1    0    0    0    0  0.00000000000E+00  0.00000000000E+00  0.39999999674E+01  0.40000000000E+01  0.51100000000E-03 0. -1.
    9000002   -1    0    0    0    0 -0.00000000000E+00 -0.00000000000E+00  0.00000000000E+00  0.93800000000E+00  0.93800000000E+00 0.  1.
         11    1    1    2    0    0 -0.57096676644E-01  0.60206767682E-01  0.81426873704E+00  0.81848562760E+00  0.51100000000E-03 0. -1.
    9000002    1    1    2    0    0  0.27812583110E+00 -0.38447860262E+00  0.15391863412E+00  0.10624089230E+01  0.93800000000E+00 0.  1.
         22    1    1    2    0    0 -0.22102915446E+00  0.32427183494E+00  0.30318125962E+01  0.30571054494E+01  0.00000000000E+00 0. -1.
</event>
<event>
 5    1  0.9028896E+001  0.1598228E+01  0.7818608E-02  0.3355288E+00
         11   -1    0    0    0    0  0.00000000000E+00  0.00000000000E+00  0.39999999674E+01  0.40000000000E+01  0.51100000000E-03 0.  1.
    9000002   -1    0    0    0    0 -0.00000000000E+00 -0.00000000000E+00  0.00000000000E+00  0.93800000000E+00  0.93800000000E+00 0. -1.
         11    1    1    2    0    0  0.61137192278E-01 -0.14750275657E-01  0.12456811120E+01  0.12472678224E+01  0.51100000000E-03 0.  1.
    9000002    1    1    2    0    0 -0.26307199405E+00  0.16186574843E+00  0.64840910200E-01  0.98967456176E+00  0.93800000000E+00 0. -1.
         22    1    1    2    0    0  0.20193480177E+00 -0.14711547277E+00  0.26894779452E+01  0.27010576158E+01  0.00000000000E+00 0.  1.
</event>
<event>
 5    1  0.7220939E+001  0.1599359E+01  0.7818608E-02  0.3354060E+00
         11   -1    0    0    0    0  0.00000000000E+00  0.00000000000E+00  0.39999999674E+01  0.40000000000E+01  0.51100000000E-03 0.  1.
    9000002   -1    0    0    0    0 -0.00000000000E+00 -0.00000000000E+00  0.00000000000E+00  0.93800000000E+00  0.93800000000E+00 0. -1.
         11    1    1    2    0    0 -0.19960394587E-01  0.47215955449E-02  0.21886754957E+00  0.21982715072E+00  0.51100000000E-03 0.  1.
    9000002    1    1    2    0    0  0.39578598579E+00 -0.25232162113E+00  0.15035158185E+00  0.10596048061E+01  0.93800000000E+00 0. -1.
         22    1    1    2    0    0 -0.37582559120E+00  0.24760002558E+00  0.36307808359E+01  0.36585680431E+01  0.00000000000E+00 0.  1.
</event>
<event>
 5    1  0.7220939E+001  0.1584969E+01  0.7818608E-02  0.3369840E+00
         11   -1    0    0    0    0  0.00000000000E+00  0.00000000000E+00  0.39999999674E+01  0.40000000000E+01  0.51100000000E-03 0.  1.
    9000002   -1    0    0    0    0 -0.00000000000E+00 -0.00000000000E+00  0.00000000000E+00  0.93800000000E+00  0.93800000000E+00 0.  1.
         11    1    1    2    0    0  0.13655660631E+00 -0.23358472526E+00  0.13348182852E+01  0.13619653616E+01  0.51100000000E-03 0.  1.
    9000002    1    1    2    0    0 -0.43398098481E+00  0.27024222068E+00  0.19277233309E+00  0.10855300666E+01  0.93800000000E+00 0.  1.
         22    1    1    2    0    0  0.29742437850E+00 -0.36657495421E-01  0.24724093491E+01  0.24905045718E+01  0.00000000000E+00 0.  1.
</event>
<event>
 5    1  0.7220939E+001  0.1541778E+01  0.7818608E-02  0.3419086E+00
         11   -1    0    0    0    0  0.00000000000E+00  0.00000000000E+00  0.39999999674E+01  0.40000000000E+01  0.51100000000E-03 0.  1.
    9000002   -1    0    0    0    0 -0.00000000000E+00 -0.00000000000E+00  0.00000000000E+00  0.93800000000E+00  0.93800000000E+00 0.  1.
         11    1    1    2    0    0 -0.19581462769E+00  0.21390671676E-02  0.68939417555E+00  0.71666765968E+00  0.51100000000E-03 0.  1.
    9000002    1    1    2    0    0 -0.14103198500E+00  0.59382834243E-01  0.59518147419E-01  0.95226191338E+00  0.93800000000E+00 0.  1.
         22    1    1    2    0    0  0.33684661268E+00 -0.61521901411E-01  0.32510876444E+01  0.32690704269E+01  0.00000000000E+00 0.  1.
</event>
<event>
 5    1  0.7220939E+001  0.1572465E+01  0.7818608E-02  0.3383802E+00
         11   -1    0    0    0    0  0.00000000000E+00  0.00000000000E+00  0.39999999674E+01  0.40000000000E+01  0.51100000000E-03 0.  1.
    9000002   -1    0    0    0    0 -0.00000000000E+00 -0.00000000000E+00  0.00000000000E+00  0.93800000000E+00  0.93800000000E+00 0.  1.
         11    1    1    2    0    0 -0.16323962897E+00  0.45161807243E-01  0.10871120939E+01  0.11002271271E+01  0.51100000000E-03 0.  1.
    9000002    1    1    2    0    0  0.22413790478E+00 -0.66681101111E+00  0.38533126989E+00  0.12341794490E+01  0.93800000000E+00 0.  1.
         22    1    1    2    0    0 -0.60898275805E-01  0.62164920387E+00  0.25275566036E+01  0.26035934239E+01  0.00000000000E+00 0.  1.
</event>
<event>
 5    1  0.7220939E+001  0.1512206E+01  0.7818608E-02  0.3454536E+00
         11   -1    0    0    0    0  0.00000000000E+00  0.00000000000E+00  0.39999999674E+01  0.40000000000E+01  0.51100000000E-03 0. -1.
    9000002   -1    0    0    0    0 -0.00000000000E+00 -0.00000000000E+00  0.00000000000E+00  0.93800000000E+00  0.93800000000E+00 0. -1.
         11    1    1    2    0    0  0.29235592324E+00  0.80541218900E-01  0.35122999312E+00  0.46402763171E+00  0.51100000000E-03 0. -1.
    9000002    1    1    2    0    0 -0.66835199073E+00 -0.18925979899E+00  0.44936332336E+00  0.12507138168E+01  0.93800000000E+00 0. -1.
         22    1    1    2    0    0  0.37599606749E+00  0.10871858009E+00  0.31994066509E+01  0.32232585515E+01  0.00000000000E+00 0. -1.
</event>
<event>
 5    1  0.7220939E+001  0.1579497E+01  0.7818608E-02  0.3375922E+00
         11   -1    0    0    0    0  0.00000000000E+00  0.00000000000E+00  0.39999999674E+01  0.40000000000E+01  0.51100000000E-03 0.  1.
    9000002   -1    0    0    0    0 -0.00000000000E+00 -0.00000000000E+00  0.00000000000E+00  0.93800000000E+00  0.93800000000E+00 0. -1.
         11    1    1    2    0    0  0.91702212017E-01 -0.19524293542E-02  0.70869917338E+00  0.71461030439E+00  0.51100000000E-03 0.  1.
    9000002    1    1    2    0    0  0.42768041157E-01 -0.46389004958E+00  0.16562330092E+00  0.10603292702E+01  0.93800000000E+00 0. -1.
         22    1    1    2    0    0 -0.13447025317E+00  0.46584247894E+00  0.31256774931E+01  0.31630604254E+01  0.00000000000E+00 0.  1.
</event>
<event>
 5    1  0.7220939E+001  0.1599676E+01  0.7818608E-02  0.3353715E+00
         11   -1    0    0    0    0  0.00000000000E+00  0.00000000000E+00  0.39999999674E+01  0.40000000000E+01  0.51100000000E-03 0.  1.
    9000002   -1    0    0    0    0 -0.00000000000E+00 -0.00000000000E+00  0.00000000000E+00  0.93800000000E+00  0.93800000000E+00 0. -1.
         11    1    1    2    0    0 -0.61092777466E-01 -0.12350116463E+00  0.14507053453E+01  0.14572340667E+01  0.51100000000E-03 0.  1.
    9000002    1    1    2    0    0  0.16228063885E+00  0.33158149150E+00  0.91577854602E-01  0.10121817004E+01  0.93800000000E+00 0. -1.
         22    1    1    2    0    0 -0.10118786138E+00 -0.20808032687E+00  0.24577167674E+01  0.24685842329E+01  0.00000000000E+00 0. -1.
</event>
<event>
 5    1  0.7220939E+001  0.1481233E+01  0.7818608E-02  0.3493298E+00
         11   -1    0    0    0    0  0.00000000000E+00  0.00000000000E+00  0.39999999674E+01  0.40000000000E+01  0.51100000000E-03 0. -1.
    9000002   -1    0    0    0    0 -0.00000000000E+00 -0.00000000000E+00  0.00000000000E+00  0.93800000000E+00  0.93800000000E+00 0.  1.
         11    1    1    2    0    0 -0.28881668108E+00  0.30406687567E+00  0.63372275059E+00  0.75991876269E+00  0.51100000000E-03 0. -1.
    9000002    1    1    2    0    0  0.22139973421E+00  0.32847684654E-01  0.18950042624E+00  0.98277730145E+00  0.93800000000E+00 0.  1.
         22    1    1    2    0    0  0.67416946874E-01 -0.33691456032E+00  0.31767767905E+01  0.31953039359E+01  0.00000000000E+00 0. -1.
</event>
<event>
 5    1  0.7220939E+001  0.1599655E+01  0.7818608E-02  0.3353738E+00
         11   -1    0    0    0    0  0.00000000000E+00  0.00000000000E+00  0.39999999674E+01  0.40000000000E+01  0.51100000000E-03 0.  1.
    9000002   -1    0    0    0    0 -0.00000000000E+00 -0.00000000000E+00  0.00000000000E+00  0.93800000000E+00  0.93800000000E+00 0. -1.
         11    1    1    2    0    0 -0.29211710157E-01 -0.86094568678E-01  0.62257709544E+00  0.62918049846E+00  0.51100000000E-03 0.  1.
    9000002    1    1    2    0    0  0.16263600419E+00  0.50593788616E+00  0.19441973043E+00  0.10954755342E+01  0.93800000000E+00 0. -1.
         22    1    1    2    0    0 -0.13342429403E+00 -0.41984331748E+00  0.31830031415E+01  0.32133439673E+01  0.00000000000E+00 0.  1.
</event>
<event>
 5    1  0.7220939E+001  0.1549129E+01  0.7818608E-02  0.3410497E+00
         11   -1    0    0    0    0  0.00000000000E+00  0.00000000000E+00  0.39999999674E+01  0.40000000000E+01  0.51100000000E-03 0.  1.
    9000002   -1    0    0    0    0 -0.00000000000E+00 -0.00000000000E+00  0.00000000000E+00  0.93800000000E+00  0.93800000000E+00 0.  1.
         11    1    1    2    0    0 -0.24733871903E+00  0.10122883619E-01  0.49210282553E+00  0.55085784620E+00  0.51100000000E-03 0.  1.
    9000002    1    1    2    0    0  0.47909546312E+00  0.23148075002E+00  0.24341315694E+00  0.11055359630E+01  0.93800000000E+00 0.  1.
         22    1    1    2    0    0 -0.23175674409E+00 -0.24160363364E+00  0.32644839849E+01  0.32816061908E+01  0.00000000000E+00 0.  1.
</event>
<event>
 5    1  0.7220939E+001  0.1599610E+01  0.7818608E-02  0.3353786E+00
         11   -1    0    0    0    0  0.00000000000E+00  0.00000000000E+00  0.39999999674E+01  0.40000000000E+01  0.51100000000E-03 0.  1.
    9000002   -1    0    0    0    0 -0.00000000000E+00 -0.00000000000E+00  0.00000000000E+00  0.93800000000E+00  0.93800000000E+00 0. -1.
         11    1    1    2    0    0 -0.68764924121E-01  0.17610269278E-01  0.33190865389E+00  0.33941471981E+00  0.51100000000E-03 0.  1.
    9000002    1    1    2    0    0  0.74618648162E+00 -0.24832509729E+00  0.45359581562E+00  0.13053937273E+01  0.93800000000E+00 0. -1.
         22    1    1    2    0    0 -0.67742155750E+00  0.23071482801E+00  0.32144954978E+01  0.32931915529E+01  0.00000000000E+00 0.  1.
</event>
<event>
 5    1  0.7220939E+001  0.1599674E+01  0.7818608E-02  0.3353717E+00
         11   -1    0    0    0    0  0.00000000000E+00  0.00000000000E+00  0.39999999674E+01  0.40000000000E+01  0.51100000000E-03 0. -1.
    9000002   -1    0    0    0    0 -0.00000000000E+00 -0.00000000000E+00  0.00000000000E+00  0.93800000000E+00  0.93800000000E+00 0. -1.
         11    1    1    2    0    0  0.40297346995E-01 -0.26027804798E-01  0.41145800994E+00  0.41424543192E+00  0.51100000000E-03 0. -1.
    9000002    1    1    2    0    0 -0.38876589758E+00  0.24660356580E+00  0.14418088430E+00  0.10547911496E+01  0.93800000000E+00 0. -1.
         22    1    1    2    0    0  0.34846855058E+00 -0.22057576100E+00  0.34443610731E+01  0.34689634185E+01  0.00000000000E+00 0. -1.
</event>
<event>
 5    1  0.7220939E+001  0.1595630E+01  0.7818608E-02  0.3358120E+00
         11   -1    0    0    0    0  0.00000000000E+00  0.00000000000E+00  0.39999999674E+01  0.40000000000E+01  0.51100000000E-03 0.  1.
    9000002   -1    0    0    0    0 -0.00000000000E+00 -0.00000000000E+00  0.00000000000E+00  0.93800000000E+00  0.93800000000E+00 0.  1.
         11    1    1    2    0    0 -0.10182314560E+00  0.10442572164E-01  0.41082968721E+00  0.42338905667E+00  0.51100000000E-03 0.  1.
    9000002    1    1    2    0    0  0.51935223481E+00  0.42619369351E-01  0.19028892270E+00  0.10897692547E+01  0.93800000000E+00 0.  1.
         22    1    1    2    0    0 -0.41752908921E+00 -0.53061941515E-01  0.33988813574E+01  0.34248416886E+01  0.00000000000E+00 0.  1.
</event>
<event>
 5    1  0.7220939E+001  0.1599634E+01  0.7818608E-02  0.3353760E+00
         11   -1    0    0    0    0  0.00000000000E+00  0.00000000000E+00  0.39999999674E+01  0.40000000000E+01  0.51100000000E-03 0.  1.
    9000002   -1    0    0    0    0 -0.00000000000E+00 -0.00000000000E+00  0.00000000000E+00  0.93800000000E+00  0.93800000000E+00 0.  1.
         11    1    1    2    0    0  0.20042143181E-01  0.91482854050E-01  0.10644892194E+01  0.10686011227E+01  0.51100000000E-03 0.  1.
    9000002    1    1    2    0    0 -0.85172230115E-01 -0.35892506342E+00  0.91474896040E-01  0.10120736962E+01  0.93800000000E+00 0.  1.
         22    1    1    2    0    0  0.65130086935E-01  0.26744220937E+00  0.28440358519E+01  0.28573251811E+01  0.00000000000E+00 0.  1.
</event>
<event>
 5    1  0.7220939E+001  0.1599218E+01  0.7818608E-02  0.3354212E+00
         11   -1    0    0    0    0  0.00000000000E+00  0.00000000000E+00  0.39999999674E+01  0.40000000000E+01  0.51100000000E-03 0.  1.
    9000002   -1    0    0    0    0 -0.00000000000E+00 -0.00000000000E+00  0.00000000000E+00  0.93800000000E+00  0.93800000000E+00 0. -1.
         11    1    1    2    0    0  0.74997887376E-01 -0.28041989479E-01  0.70014929330E+00  0.70471294178E+00  0.51100000000E-03 0.  1.
    9000002    1    1    2    0    0 -0.49456746580E+00  0.84244424285E-01  0.17276153652E+00  0.10776755772E+01  0.93800000000E+00 0. -1.
         22    1    1    2    0    0  0.41956957843E+00 -0.56202434806E-01  0.31270891375E+01  0.31556114810E+01  0.00000000000E+00 0.  1.
</event>
<event>
 5    1  0.7220939E+001  0.1599446E+01  0.7818608E-02  0.3353965E+00
         11   -1    0    0    0    0  0.00000000000E+00  0.00000000000E+00  0.39999999674E+01  0.40000000000E+01  0.51100000000E-03 0.  1.
    9000002   -1    0    0    0    0 -0.00000000000E+00 -0.00000000000E+00  0.00000000000E+00  0.93800000000E+00  0.93800000000E+00 0.  1.
         11    1    1    2    0    0  0.26339234497E-01  0.50056189094E-01  0.35856734057E+00  0.36300162008E+00  0.51100000000E-03 0.  1.
    9000002    1    1    2    0    0 -0.18534172395E+00 -0.47073945062E+00  0.17559506452E+00  0.10801040745E+01  0.93800000000E+00 0.  1.
         22    1    1    2    0    0  0.15900248946E+00  0.42068326152E+00  0.34658375623E+01  0.34948943054E+01  0.00000000000E+00 0.  1.
</event>
<event>
 5    1  0.7220939E+001  0.1599658E+01  0.7818608E-02  0.3353735E+00
         11   -1    0    0    0    0  0.00000000000E+00  0.00000000000E+00  0.39999999674E+01  0.40000000000E+01  0.51100000000E-03 0. -1.
    9000002   -1    0    0    0    0 -0.00000000000E+00 -0.00000000000E+00  0.00000000000E+00  0.93800000000E+00  0.93800000000E+00 0. -1.
         11    1    1    2    0    0 -0.23930963643E-01 -0.19205231492E-01  0.24777442257E+00  0.24966769422E+00  0.51100000000E-03 0. -1.
    9000002    1    1    2    0    0  0.33876680139E+00  0.27991305119E+00  0.13097571911E+00  0.10440847192E+01  0.93800000000E+00 0. -1.
         22    1    1    2    0    0 -0.31483583775E+00 -0.26070781970E+00  0.36212498257E+01  0.36442475865E+01  0.00000000000E+00 0. -1.
</event>
<event>
 5    1  0.7220939E+001  0.1599676E+01  0.7818608E-02  0.3353715E+00
         11   -1    0    0    0    0  0.00000000000E+00  0.00000000000E+00  0.39999999674E+01  0.40000000000E+01  0.51100000000E-03 0. -1.
    9000002   -1    0    0    0    0 -0.00000000000E+00 -0.00000000000E+00  0.00000000000E+00  0.93800000000E+00  0.93800000000E+00 0.  1.
         11    1    1    2    0    0  0.81702108508E-01  0.16486840637E-01  0.77002790090E+00  0.77452584187E+00  0.51100000000E-03 0. -1.
    9000002    1    1    2    0    0 -0.41588511990E+00 -0.80424784891E-01  0.12140886123E+00  0.10363458354E+01  0.93800000000E+00 0.  1.
         22    1    1    2    0    0  0.33418301139E+00  0.63937944254E-01  0.31085632052E+01  0.31271283227E+01  0.00000000000E+00 0. -1.
</event>
<event>
 5    1  0.7220939E+001  0.1585699E+01  0.7818608E-02  0.3369034E+00
         11   -1    0    0    0    0  0.00000000000E+00  0.00000000000E+00  0.39999999674E+01  0.40000000000E+01  0.51100000000E-03 0. -1.
    9000002   -1    0    0    0    0 -0.00000000000E+00 -0.00000000000E+00  0.00000000000E+00  0.93800000000E+00  0.93800000000E+00 0.  1.
         11    1    1    2    0    0 -0.53996632111E-01  0.68206079223E-01  0.13168570987E+01  0.13197274662E+01  0.51100000000E-03 0. -1.
    9000002    1    1    2    0    0  0.19987305480E+00  0.19573443106E+00  0.63023600462E-01  0.98085533069E+00  0.93800000000E+00 0.  1.
         22    1    1    2    0    0 -0.14587642269E+00 -0.26394051028E+00  0.26201192682E+01  0.26374172031E+01  0.00000000000E+00 0. -1.
</event>
<event>
 5    1  0.7220939E+001  0.1599666E+01  0.7818608E-02  0.3353726E+00
         11   -1    0    0    0    0  0.00000000000E+00  0.00000000000E+00  0.39999999674E+01  0.40000000000E+01  0.51100000000E-03 0.  1.
    9000002   -1    0    0    0    0 -0.00000000000E+00 -0.00000000000E+00  0.00000000000E+00  0.93800000000E+00  0.93800000000E+00 0.  1.
         11    1    1    2    0    0 -0.92486270533E-01 -0.59394756099E-01  0.96141360356E+00  0.96767650871E+00  0.51100000000E-03 0.  1.
    9000002    1    1    2    0    0  0.37391170806E+00  0.25200598666E+00  0.13811737180E+00  0.10498749407E+01  0.93800000000E+00 0.  1.
         22    1    1    2    0    0 -0.28142543753E+00 -0.19261123056E+00  0.29004689920E+01  0.29204485506E+01  0.00000000000E+00 0.  1.
</event>
<event>
 5    1  0.7220939E+001  0.1591315E+01  0.7818608E-02  0.3362844E+00
         11   -1    0    0    0    0  0.00000000000E+00  0.00000000000E+00  0.39999999674E+01  0.40000000000E+01  0.51100000000E-03 0. -1.
    9000002   -1    0    0    0    0 -0.00000000000E+00 -0.00000000000E+00  0.00000000000E+00  0.93800000000E+00  0.93800000000E+00 0.  1.
         11    1    1    2    0    0  0.68435925644E-01 -0.12858776363E+00  0.12524552359E+01  0.12608975644E+01  0.51100000000E-03 0. -1.
    9000002    1    1    2    0    0  0.72144526544E-01  0.53265130517E+00  0.20693269165E+00  0.11007213019E+01  0.93800000000E+00 0.  1.
         22    1    1    2    0    0 -0.14058045219E+00 -0.40406354154E+00  0.25406120398E+01  0.25763811337E+01  0.00000000000E+00 0. -1.
</event>
<event>
 5    1  0.7220939E+001  0.1598712E+01  0.7818608E-02  0.3354762E+00
         11   -1    0    0    0    0  0.00000000000E+00  0.00000000000E+00  0.39999999674E+01  0.40000000000E+01  0.51100000000E-03 0.  1.
    9000002   -1    0    0    0    0 -0.00000000000E+00 -0.00000000000E+00  0.00000000000E+00  0.93800000000E+00  0.93800000000E+00 0. -1.
         11    1    1    2    0    0 -0.92659157136E-01 -0.90478205601E-02  0.53020223054E+00  0.53831426588E+00  0.51100000000E-03 0.  1.
    9000002    1    1    2    0    0  0.65809119606E+00  0.24266124711E+00  0.35281435080E+00  0.12232295244E+01  0.93800000000E+00 0. -1.
         22    1    1    2    0    0 -0.56543203892E+00 -0.23361342655E+00  0.31169833860E+01  0.31764562097E+01  0.00000000000E+00 0.  1.
</event>
<event>
 5    1  0.7220939E+001  0.1599674E+01  0.7818608E-02  0.3353717E+00
         11   -1    0    0    0    0  0.00000000000E+00  0.00000000000E+00  0.39999999674E+01  0.40000000000E+01  0.51100000000E-03 0. -1.
    9000002   -1    0    0    0    0 -0.00000000000E+00 -0.00000000000E+00  0.00000000000E+00  0.93800000000E+00  0.93800000000E+00 0. -1.
         11    1    1    2    0    0 -0.83337426939E-01 -0.91453288959E-01  0.11279922486E+01  0.11347579499E+01  0.51100000000E-03 0. -1.
    9000002    1    1    2    0    0  0.28618622810E+00  0.30815069534E+00  0.11962220286E+00  0.10348975213E+01  0.93800000000E+00 0. -1.
         22    1    1    2    0    0 -0.20284880116E+00 -0.21669740638E+00  0.27523855159E+01  0.27683445288E+01  0.00000000000E+00 0. -1.
</event>
<event>
 5    1  0.7220939E+001  0.1599677E+01  0.7818608E-02  0.3353714E+00
         11   -1    0    0    0    0  0.00000000000E+00  0.00000000000E+00  0.39999999674E+01  0.40000000000E+01  0.51100000000E-03 0.  1.
    9000002   -1    0    0    0    0 -0.00000000000E+00 -0.00000000000E+00  0.00000000000E+00  0.93800000000E+00  0.93800000000E+00 0.  1.
         11    1    1    2    0    0  0.59576256011E-01 -0.10837475924E+00  0.13103501861E+01  0.13161733511E+01  0.51100000000E-03 0. -1.
    9000002    1    1    2    0    0 -0.17820373951E+00  0.32315448516E+00  0.91511500706E-01  0.10121283263E+01  0.93800000000E+00 0.  1.
         22    1    1    2    0    0  0.11862748350E+00 -0.21477972591E+00  0.25981382805E+01  0.26096983227E+01  0.00000000000E+00 0.  1.
</event>
<event>
 5    1  0.7220939E+001  0.1599163E+01  0.7818608E-02  0.3354272E+00
         11   -1    0    0    0    0  0.00000000000E+00  0.00000000000E+00  0.39999999674E+01  0.40000000000E+01  0.51100000000E-03 0.  1.
    9000002   -1    0    0    0    0 -0.00000000000E+00 -0.00000000000E+00  0.00000000000E+00  0.93800000000E+00  0.93800000000E+00 0.  1.
         11    1    1    2    0    0 -0.33693752905E-01 -0.12437288621E+00  0.13424532348E+01  0.13486233101E+01  0.51100000000E-03 0.  1.
    9000002    1    1    2    0    0  0.48863721526E-01  0.41693506816E+00  0.11961048737E+00  0.10345884124E+01  0.93800000000E+00 0.  1.
         22    1    1    2    0    0 -0.15169968621E-01 -0.29256218195E+00  0.25379362452E+01  0.25547882775E+01  0.00000000000E+00 0.  1.
</event>
<event>
 5    1  0.7220939E+001  0.1599677E+01  0.7818608E-02  0.3353714E+00
         11   -1    0    0    0    0  0.00000000000E+00  0.00000000000E+00  0.39999999674E+01  0.40000000000E+01  0.51100000000E-03 0. -1.
    9000002   -1    0    0    0    0 -0.00000000000E+00 -0.00000000000E+00  0.00000000000E+00  0.93800000000E+00  0.93800000000E+00 0. -1.
         11    1    1    2    0    0 -0.38068966449E+00 -0.17229227787E+00  0.13897330274E+01  0.14511951620E+01  0.51100000000E-03 0. -1.
    9000002    1    1    2    0    0  0.88908248137E+00  0.40362908978E+00  0.75704495223E+00  0.15512398785E+01  0.93800000000E+00 0. -1.
         22    1    1    2    0    0 -0.50839281689E+00 -0.23133681191E+00  0.18532219877E+01  0.19355649595E+01  0.00000000000E+00 0. -1.
</event>
<event>
 5    1  0.7220939E+001  0.1586477E+01  0.7818608E-02  0.3368173E+00
         11   -1    0    0    0    0  0.00000000000E+00  0.00000000000E+00  0.39999999674E+01  0.40000000000E+01  0.51100000000E-03 0.  1.
    9000002   -1    0    0    0    0 -0.00000000000E+00 -0.00000000000E+00  0.00000000000E+00  0.93800000000E+00  0.93800000000E+00 0. -1.
         11    1    1    2    0    0  0.72503389584E-01 -0.17973876237E-01  0.14421712611E+01  0.14441045701E+01  0.51100000000E-03 0.  1.
    9000002    1    1    2    0    0 -0.18184390196E+00  0.40665128039E+00  0.14613146889E+00  0.10486328598E+01  0.93800000000E+00 0. -1.
         22    1    1    2    0    0  0.10934051237E+00 -0.38867740415E+00  0.24116972373E+01  0.24452625701E+01  0.00000000000E+00 0.  1.
</event>
<event>
 5    1  0.7220939E+001  0.1599677E+01  0.7818608E-02  0.3353714E+00
         11   -1    0    0    0    0  0.00000000000E+00  0.00000000000E+00  0.39999999674E+01  0.40000000000E+01  0.51100000000E-03 0.  1.
    9000002   -1    0    0    0    0 -0.00000000000E+00 -0.00000000000E+00  0.00000000000E+00  0.93800000000E+00  0.93800000000E+00 0.  1.
         11    1    1    2    0    0  0.14657492573E+00  0.36183262619E-01  0.13660874779E+01  0.13744048514E+01  0.51100000000E-03 0.  1.
    9000002    1    1    2    0    0 -0.41539160463E+00 -0.10327448388E+00  0.12404661927E+00  0.10384832054E+01  0.93800000000E+00 0.  1.
         22    1    1    2    0    0  0.26881667890E+00  0.67091221261E-01  0.25098658702E+01  0.25251119431E+01  0.00000000000E+00 0.  1.
</event>
<event>
 5    1  0.7220939E+001  0.1599659E+01  0.7818608E-02  0.3353733E+00
         11   -1    0    0    0    0  0.00000000000E+00  0.00000000000E+00  0.39999999674E+01  0.40000000000E+01  0.51100000000E-03 0. -1.
    9000002   -1    0    0    0    0 -0.00000000000E+00 -0.00000000000E+00  0.00000000000E+00  0.93800000000E+00  0.93800000000E+00 0.  1.
         11    1    1    2    0    0 -0.11277217295E+00  0.43833287928E-02  0.12654724031E+01  0.12704949590E+01  0.51100000000E-03 0. -1.
    9000002    1    1    2    0    0  0.36312462454E+00 -0.15801477979E-01  0.88729569900E-01  0.10098644049E+01  0.93800000000E+00 0.  1.
         22    1    1    2    0    0 -0.25035245159E+00  0.11418149187E-01  0.26457979943E+01  0.26576406362E+01  0.00000000000E+00 0. -1.
</event>
<event>
 5    1  0.7220939E+001  0.1589812E+01  0.7818608E-02  0.3364496E+00
         11   -1    0    0    0    0  0.00000000000E+00  0.00000000000E+00  0.39999999674E+01  0.40000000000E+01  0.51100000000E-03 0. -1.
    9000002   -1    0    0    0    0 -0.00000000000E+00 -0.00000000000E+00  0.00000000000E+00  0.93800000000E+00  0.93800000000E+00 0.  1.
         11    1    1    2    0    0 -0.18115004981E+00  0.36725200308E-01  0.14834613489E+01  0.14949320773E+01  0.51100000000E-03 0. -1.
    9000002    1    1    2    0    0  0.25252934237E+00 -0.30415468923E+00  0.11357904159E+00  0.10242193820E+01  0.93800000000E+00 0.  1.
         22    1    1    2    0    0 -0.71379292554E-01  0.26742948892E+00  0.24029595768E+01  0.24188485407E+01  0.00000000000E+00 0. -1.
</event>
<event>
 5    1  0.7220939E+001  0.1590332E+01  0.7818608E-02  0.3363923E+00
         11   -1    0    0    0    0  0.00000000000E+00  0.00000000000E+00  0.39999999674E+01  0.40000000000E+01  0.51100000000E-03 0.  1.
    9000002   -1    0    0    0    0 -0.00000000000E+00 -0.00000000000E+00  0.00000000000E+00  0.93800000000E+00  0.93800000000E+00 0.  1.
         11    1    1    2    0    0 -0.18813076779E-01 -0.41936083536E-01  0.77167421211E+00  0.77304198962E+00  0.51100000000E-03 0.  1.
    9000002    1    1    2    0    0 -0.51377221094E-02 -0.24651472223E+00  0.47540277737E-01  0.97103037155E+00  0.93800000000E+00 0.  1.
         22    1    1    2    0    0  0.23950798888E-01  0.28845080577E+00  0.31807854775E+01  0.31939276388E+01  0.00000000000E+00 0.  1.
</event>
<event>
 5    1  0.7220939E+001  0.1599676E+01  0.7818608E-02  0.3353716E+00
         11   -1    0    0    0    0  0.00000000000E+00  0.00000000000E+00  0.39999999674E+01  0.40000000000E+01  0.51100000000E-03 0. -1.
    9000002   -1    0    0    0    0 -0.00000000000E+00 -0.00000000000E+00  0.00000000000E+00  0.93800000000E+00  0.93800000000E+00 0. -1.
         11    1    1    2    0    0 -0.31187066301E-01  0.24829804242E-01  0.20022237963E+00  0.20415291991E+00  0.51100000000E-03 0.  1.
    9000002    1    1    2    0    0  0.55739586578E+00 -0.44929546367E+00  0.36791504848E+00  0.12360267181E+01  0.93800000000E+00 0. -1.
         22    1    1    2    0    0 -0.52620879948E+00  0.42446565942E+00  0.34318625393E+01  0.34978203620E+01  0.00000000000E+00 0. -1.
</event>
<event>
 5    1  0.7220939E+001  0.1590123E+01  0.7818608E-02  0.3364153E+00
         11   -1    0    0    0    0  0.00000000000E+00  0.00000000000E+00  0.39999999674E+01  0.40000000000E+01  0.51100000000E-03 0. -1.
    9000002   -1    0    0    0    0 -0.00000000000E+00 -0.00000000000E+00  0.00000000000E+00  0.93800000000E+00  0.93800000000E+00 0.  1.
         11    1    1    2    0    0 -0.76863769139E-01 -0.32557329605E-01  0.73349371146E+00  0.73822849077E+00  0.51100000000E-03 0. -1.
    9000002    1    1    2    0    0  0.25204683035E+00 -0.28980687291E+00  0.10720834561E+00  0.10192415109E+01  0.93800000000E+00 0.  1.
         22    1    1    2    0    0 -0.17518306121E+00  0.32236420251E+00  0.31592979103E+01  0.31805299983E+01  0.00000000000E+00 0. -1.
</event>
<event>
 5    1  0.7220939E+001  0.1529541E+01  0.7818608E-02  0.3433576E+00
         11   -1    0    0    0    0  0.00000000000E+00  0.00000000000E+00  0.39999999674E+01  0.40000000000E+01  0.51100000000E-03 0.  1.
    9000002   -1    0    0    0    0 -0.00000000000E+00 -0.00000000000E+00  0.00000000000E+00  0.93800000000E+00  0.93800000000E+00 0. -1.
         11    1    1    2    0    0 -0.93803829814E-01  0.27714994886E+00  0.13647711511E+01  0.13957835823E+01  0.51100000000E-03 0.  1.
    9000002    1    1    2    0    0 -0.13487316027E+00 -0.23248914461E-01  0.65850653014E-01  0.95021660156E+00  0.93800000000E+00 0. -1.
         22    1    1    2    0    0  0.22867699008E+00 -0.25390103440E+00  0.25693781632E+01  0.25919998161E+01  0.00000000000E+00 0. -1.
</event>
<event>
 5    1  0.7220939E+001  0.1504118E+01  0.7818608E-02  0.3464492E+00
         11   -1    0    0    0    0  0.00000000000E+00  0.00000000000E+00  0.39999999674E+01  0.40000000000E+01  0.51100000000E-03 0.  1.
    9000002   -1    0    0    0    0 -0.00000000000E+00 -0.00000000000E+00  0.00000000000E+00  0.93800000000E+00  0.93800000000E+00 0. -1.
         11    1    1    2    0    0 -0.15898267872E+00 -0.20358541446E+00  0.61416079563E+00  0.66627040841E+00  0.51100000000E-03 0.  1.
    9000002    1    1    2    0    0 -0.94031501141E-01 -0.48893693376E-01  0.80802200156E-01  0.94742045155E+00  0.93800000000E+00 0. -1.
         22    1    1    2    0    0  0.25301417986E+00  0.25247910784E+00  0.33050369716E+01  0.33243091400E+01  0.00000000000E+00 0.  1.
</event>
<event>
 5    1  0.7220939E+001  0.1540236E+01  0.7818608E-02  0.3420899E+00
         11   -1    0    0    0    0  0.00000000000E+00  0.00000000000E+00  0.39999999674E+01  0.40000000000E+01  0.51100000000E-03 0.  1.
    9000002   -1    0    0    0    0 -0.00000000000E+00 -0.00000000000E+00  0.00000000000E+00  0.93800000000E+00  0.93800000000E+00 0. -1.
         11    1    1    2    0    0  0.54250547908E-01 -0.24449012826E+00  0.11182000069E+01  0.11459014186E+01  0.51100000000E-03 0.  1.
    9000002    1    1    2    0    0 -0.49617281139E-01 -0.60633922774E-01  0.48608777517E-01  0.94252064191E+00  0.93800000000E+00 0. -1.
         22    1    1    2    0    0 -0.46332667693E-02  0.30512405104E+00  0.28331911830E+01  0.28495779395E+01  0.00000000000E+00 0.  1.
</event>
<event>
 5    1  0.7220939E+001  0.1534792E+01  0.7818608E-02  0.3427329E+00
         11   -1    0    0    0    0  0.00000000000E+00  0.00000000000E+00  0.39999999674E+01  0.40000000000E+01  0.51100000000E-03 0.  1.
    9000002   -1    0    0    0    0 -0.00000000000E+00 -0.00000000000E+00  0.00000000000E+00  0.93800000000E+00  0.93800000000E+00 0.  1.
         11    1    1    2    0    0 -0.23693985305E+00 -0.38171908655E-01  0.86241164304E+00  0.89518249075E+00  0.51100000000E-03 0.  1.
    9000002    1    1    2    0    0 -0.52821975732E-01 -0.72758854899E-01  0.54198900409E-01  0.94385673325E+00  0.93800000000E+00 0.  1.
         22    1    1    2    0    0  0.28976182879E+00  0.11093076355E+00  0.30833894239E+01  0.30989607760E+01  0.00000000000E+00 0.  1.
</event>
<event>
 5    1  0.7220939E+001  0.1599222E+01  0.7818608E-02  0.3354208E+00
         11   -1    0    0    0    0  0.00000000000E+00  0.00000000000E+00  0.39999999674E+01  0.40000000000E+01  0.51100000000E-03 0. -1.
    9000002   -1    0    0    0    0 -0.00000000000E+00 -0.00000000000E+00  0.00000000000E+00  0.93800000000E+00  0.93800000000E+00 0. -1.
         11    1    1    2    0    0  0.17592298530E+00 -0.98658269875E-01  0.12383232237E+01  0.12546421874E+01  0.51100000000E-03 0. -1.
    9000002    1    1    2    0    0 -0.47013389462E+00  0.27428296299E+00  0.20483178500E+00  0.11036562340E+01  0.93800000000E+00 0. -1.
         22    1    1    2    0    0  0.29421090932E+00 -0.17562469312E+00  0.25568449587E+01  0.25797015786E+01  0.00000000000E+00 0. -1.
</event>
<event>
 5    1  0.7220939E+001  0.1579110E+01  0.7818608E-02  0.3376354E+00
         11   -1    0    0    0    0  0.00000000000E+00  0.00000000000E+00  0.39999999674E+01  0.40000000000E+01  0.51100000000E-03 0.  1.
    9000002   -1    0    0    0    0 -0.00000000000E+00 -0.00000000000E+00  0.00000000000E+00  0.93800000000E+00  0.93800000000E+00 0. -1.
         11    1    1    2    0    0  0.84977181374E-01  0.42343721907E+00  0.13991411258E+01  0.14642801476E+01  0.51100000000E-03 0.  1.
    9000002    1    1    2    0    0  0.19414090484E+00 -0.98502530045E+00  0.85412503839E+00  0.16178192466E+01  0.93800000000E+00 0. -1.
         22    1    1    2    0    0 -0.27911808622E+00  0.56158808138E+00  0.17467338032E+01  0.18559006058E+01  0.00000000000E+00 0. -1.
</event>
<event>
 5    1  0.7220939E+001  0.1596870E+01  0.7818608E-02  0.3356768E+00
         11   -1    0    0    0    0  0.00000000000E+00  0.00000000000E+00  0.39999999674E+01  0.40000000000E+01  0.51100000000E-03 0. -1.
    9000002   -1    0    0    0    0 -0.00000000000E+00 -0.00000000000E+00  0.00000000000E+00  0.93800000000E+00  0.93800000000E+00 0. -1.
         11    1    1    2    0    0 -0.16277277017E-01 -0.13026163538E+00  0.72112415309E+00  0.73297568083E+00  0.51100000000E-03 0. -1.
    9000002    1    1    2    0    0  0.14657553612E+00  0.43499504766E+00  0.14574662848E+00  0.10544150791E+01  0.93800000000E+00 0. -1.
         22    1    1    2    0    0 -0.13029825910E+00 -0.30473341228E+00  0.31331291858E+01  0.31506092401E+01  0.00000000000E+00 0. -1.
</event>
<event>
 5    1  0.7220939E+001  0.1589200E+01  0.7818608E-02  0.3365170E+00
         11   -1    0    0    0    0  0.00000000000E+00  0.00000000000E+00  0.39999999674E+01  0.40000000000E+01  0.51100000000E-03 0.  1.
    9000002   -1    0    0    0    0 -0.00000000000E+00 -0.00000000000E+00  0.00000000000E+00  0.93800000000E+00  0.93800000000E+00 0.  1.
         11    1    1    2    0    0  0.62418131724E-02 -0.30527401237E+00  0.10745182699E+01  0.11170590657E+01  0.51100000000E-03 0.  1.
    9000002    1    1    2    0    0 -0.32247002872E+00  0.77322838926E+00  0.53858105888E+00  0.13681310677E+01  0.93800000000E+00 0.  1.
         22    1    1    2    0    0  0.31622821555E+00 -0.46795437689E+00  0.23869006386E+01  0.24528098666E+01  0.00000000000E+00 0.  1.
</event>
<event>
 5    1  0.7220939E+001  0.1597626E+01  0.7818608E-02  0.3355944E+00
         11   -1    0    0    0    0  0.00000000000E+00  0.00000000000E+00  0.39999999674E+01  0.40000000000E+01  0.51100000000E-03 0.  1.
    9000002   -1    0    0    0    0 -0.00000000000E+00 -0.00000000000E+00  0.00000000000E+00  0.93800000000E+00  0.93800000000E+00 0.  1.
         11    1    1    2    0    0 -0.50977554687E-01 -0.18454207677E-01  0.63368516368E+00  0.63600032756E+00  0.51100000000E-03 0.  1.
    9000002    1    1    2    0    0  0.39529708635E+00 -0.11954610924E+00  0.11695999521E+00  0.10315399649E+01  0.93800000000E+00 0.  1.
         22    1    1    2    0    0 -0.34431953166E+00  0.13800031692E+00  0.32493548085E+01  0.32704597075E+01  0.00000000000E+00 0.  1.
</event>
<event>
 5    1  0.7220939E+001  0.1599653E+01  0.7818608E-02  0.3353741E+00
         11   -1    0    0    0    0  0.00000000000E+00  0.00000000000E+00  0.39999999674E+01  0.40000000000E+01  0.51100000000E-03 0.  1.
    9000002   -1    0    0    0    0 -0.00000000000E+00 -0.00000000000E+00  0.00000000000E+00  0.93800000000E+00  0.93800000000E+00 0. -1.
         11    1    1    2    0    0 -0.11503872583E-01 -0.10466822560E+00  0.69754337861E+00  0.70544652717E+00  0.51100000000E-03 0.  1.
    9000002    1    1    2    0    0  0.73952069214E-01  0.54629188255E+00  0.20998053679E+00  0.11080792189E+01  0.93800000000E+00 0. -1.
         22    1    1    2    0    0 -0.62448196631E-01 -0.44162365695E+00  0.30924760520E+01  0.31244742539E+01  0.00000000000E+00 0.  1.
</event>
<event>
 5    1  0.7220939E+001  0.1599211E+01  0.7818608E-02  0.3354220E+00
         11   -1    0    0    0    0  0.00000000000E+00  0.00000000000E+00  0.39999999674E+01  0.40000000000E+01  0.51100000000E-03 0.  1.
    9000002   -1    0    0    0    0 -0.00000000000E+00 -0.00000000000E+00  0.00000000000E+00  0.93800000000E+00  0.93800000000E+00 0. -1.
         11    1    1    2    0    0 -0.79160162233E-01 -0.11090679238E+00  0.12346706693E+01  0.12421668852E+01  0.51100000000E-03 0.  1.
    9000002    1    1    2    0    0  0.29569340155E+00  0.28875184984E+00  0.11580854883E+00  0.10315366394E+01  0.93800000000E+00 0. -1.
         22    1    1    2    0    0 -0.21653323932E+00 -0.17784505746E+00  0.26495207492E+01  0.26642964754E+01  0.00000000000E+00 0.  1.
</event>
<event>
 5    1  0.7220939E+001  0.1599670E+01  0.7818608E-02  0.3353722E+00
         11   -1    0    0    0    0  0.00000000000E+00  0.00000000000E+00  0.39999999674E+01  0.40000000000E+01  0.51100000000E-03 0.  1.
    9000002   -1    0    0    0    0 -0.00000000000E+00 -0.00000000000E+00  0.00000000000E+00  0.93800000000E+00  0.93800000000E+00 0.  1.
         11    1    1    2    0    0 -0.10418853335E+00  0.73675967287E-01  0.89554391360E+00  0.90458971967E+00  0.51100000000E-03 0.  1.
    9000002    1    1    2    0    0  0.43393329788E+00 -0.32090309138E+00  0.20080382153E+00  0.11006557481E+01  0.93800000000E+00 0.  1.
         22    1    1    2    0    0 -0.32974476453E+00  0.24722712410E+00  0.29036522322E+01  0.29327545322E+01  0.00000000000E+00 0.  1.
</event>
<event>
 5    1  0.7220939E+001  0.1599677E+01  0.7818608E-02  0.3353714E+00
         11   -1    0    0    0    0  0.00000000000E+00  0.00000000000E+00  0.39999999674E+01  0.40000000000E+01  0.51100000000E-03 0.  1.
    9000002   -1    0    0    0    0 -0.00000000000E+00 -0.00000000000E+00  0.00000000000E+00  0.93800000000E+00  0.93800000000E+00 0.  1.
         11    1    1    2    0    0 -0.83165723706E-01 -0.35336308127E-01  0.66217869049E+00  0.66831584714E+00  0.51100000000E-03 0. -1.
    9000002    1    1    2    0    0  0.47788111639E+00  0.20447065277E+00  0.18558355057E+00  0.10883307693E+01  0.93800000000E+00 0.  1.
         22    1    1    2    0    0 -0.39471539268E+00 -0.16913434464E+00  0.31522377263E+01  0.31813533835E+01  0.00000000000E+00 0.  1.
</event>
<event>
 5    1  0.7220939E+001  0.1599669E+01  0.7818608E-02  0.3353723E+00
         11   -1    0    0    0    0  0.00000000000E+00  0.00000000000E+00  0.39999999674E+01  0.40000000000E+01  0.51100000000E-03 0. -1.
    9000002   -1    0    0    0    0 -0.00000000000E+00 -0.00000000000E+00  0.00000000000E+00  0.93800000000E+00  0.93800000000E+00 0. -1.
         11    1    1    2    0    0  0.11208712775E-02 -0.28062244848E-02  0.30997192291E-01  0.31148327390E-01  0.51100000000E-03 0.  1.
    9000002    1    1    2    0    0 -0.14609416766E+00  0.39410928143E+00  0.11949171561E+00  0.10347888198E+01  0.93800000000E+00 0. -1.
         22    1    1    2    0    0  0.14497329638E+00 -0.39130305695E+00  0.38495110595E+01  0.38720628528E+01  0.00000000000E+00 0. -1.
</event>
<event>
 5    1  0.7220939E+001  0.1598689E+01  0.7818608E-02  0.3354787E+00
         11   -1    0    0    0    0  0.00000000000E+00  0.00000000000E+00  0.39999999674E+01  0.40000000000E+01  0.51100000000E-03 0.  1.
    9000002   -1    0    0    0    0 -0.00000000000E+00 -0.00000000000E+00  0.00000000000E+00  0.93800000000E+00  0.93800000000E+00 0.  1.
         11    1    1    2    0    0 -0.83251830801E-02 -0.20940692830E-01  0.92525422719E-01  0.95231487754E-01  0.51100000000E-03 0.  1.
    9000002    1    1    2    0    0  0.50760161115E+00  0.39678486178E+00  0.29354710208E+00  0.11752070130E+01  0.93800000000E+00 0.  1.
         22    1    1    2    0    0 -0.49927642807E+00 -0.37584416895E+00  0.36139274426E+01  0.36675614993E+01  0.00000000000E+00 0.  1.
</event>
<event>
 5    1  0.7220939E+001  0.1599673E+01  0.7818608E-02  0.3353719E+00
         11   -1    0    0    0    0  0.00000000000E+00  0.00000000000E+00  0.39999999674E+01  0.40000000000E+01  0.51100000000E-03 0.  1.
    9000002   -1    0    0    0    0 -0.00000000000E+00 -0.00000000000E+00  0.00000000000E+00  0.93800000000E+00  0.93800000000E+00 0.  1.
         11    1    1    2    0    0  0.73310699108E-02 -0.58138131851E-02  0.71004532422E-01  0.71620177012E-01  0.51100000000E-03 0. -1.
    9000002    1    1    2    0    0 -0.37611600079E+00  0.29939689380E+00  0.15770731297E+00  0.10657473165E+01  0.93800000000E+00 0.  1.
         22    1    1    2    0    0  0.36878493088E+00 -0.29358308062E+00  0.37712881220E+01  0.38006325065E+01  0.00000000000E+00 0.  1.
</event>
<event>
 5    1  0.7220939E+001  0.1599675E+01  0.7818608E-02  0.3353716E+00
         11   -1    0    0    0    0  0.00000000000E+00  0.00000000000E+00  0.39999999674E+01  0.40000000000E+01  0.51100000000E-03 0. -1.
    9000002   -1    0    0    0    0 -0.00000000000E+00 -0.00000000000E+00  0.00000000000E+00  0.93800000000E+00  0.93800000000E+00 0.  1.
         11    1    1    2    0    0  0.69825751009E-01  0.54540145604E-01  0.46538279567E+00  0.47374219848E+00  0.51100000000E-03 0. -1.
    9000002    1    1    2    0    0 -0.55471459969E+00 -0.43135275650E+00  0.35314593361E+00  0.12240627182E+01  0.93800000000E+00 0.  1.
         22    1    1    2    0    0  0.48488884868E+00  0.37681261090E+00  0.31814712381E+01  0.32401950833E+01  0.00000000000E+00 0. -1.
</event>
<event>
 5    1  0.7220939E+001  0.1582884E+01  0.7818608E-02  0.3372153E+00
         11   -1    0    0    0    0  0.00000000000E+00  0.00000000000E+00  0.39999999674E+01  0.40000000000E+01  0.51100000000E-03 0.  1.
    9000002   -1    0    0    0    0 -0.00000000000E+00 -0.00000000000E+00  0.00000000000E+00  0.93800000000E+00  0.93800000000E+00 0.  1.
         11    1    1    2    0    0 -0.12147978076E+00 -0.21672827742E+00  0.81028277707E+00  0.84751809615E+00  0.51100000000E-03 0.  1.
    9000002    1    1    2    0    0  0.19743280234E+00  0.52374376743E+00  0.23297727261E+00  0.11168749504E+01  0.93800000000E+00 0.  1.
         22    1    1    2    0    0 -0.75953021575E-01 -0.30701549000E+00  0.29567399177E+01  0.29736069534E+01  0.00000000000E+00 0.  1.
</event>
<event>
 5    1  0.7220939E+001  0.1599445E+01  0.7818608E-02  0.3353966E+00
         11   -1    0    0    0    0  0.00000000000E+00  0.00000000000E+00  0.39999999674E+01  0.40000000000E+01  0.51100000000E-03 0. -1.
    9000002   -1    0    0    0    0 -0.00000000000E+00 -0.00000000000E+00  0.00000000000E+00  0.93800000000E+00  0.93800000000E+00 0. -1.
         11    1    1    2    0    0 -0.20094789764E-01 -0.77198748500E-01  0.70859459658E+00  0.71307083152E+00  0.51100000000E-03 0. -1.
    9000002    1    1    2    0    0  0.75415308159E-01  0.48747122760E+00  0.16658470514E+00  0.10728047960E+01  0.93800000000E+00 0. -1.
         22    1    1    2    0    0 -0.55320518395E-01 -0.41027247910E+00  0.31248206656E+01  0.31521243724E+01  0.00000000000E+00 0. -1.
</event>
<event>
 5    1  0.7734314E+001  0.1579365E+01  0.7818608E-02  0.3376069E+00
         11   -1    0    0    0    0  0.00000000000E+00  0.00000000000E+00  0.39999999674E+01  0.40000000000E+01  0.51100000000E-03 0.  1.
    9000002   -1    0    0    0    0 -0.00000000000E+00 -0.00000000000E+00  0.00000000000E+00  0.93800000000E+00  0.93800000000E+00 0.  1.
         11    1    1    2    0    0  0.12194844102E+00 -0.35478518146E-01  0.10684732293E+01  0.10759950978E+01  0.51100000000E-03 0.  1.
    9000002    1    1    2    0    0  0.60500161978E-02 -0.19809941515E+00  0.41370720542E-01  0.95960174942E+00  0.93800000000E+00 0.  1.
         22    1    1    2    0    0 -0.12799845721E+00  0.23357793330E+00  0.28901560175E+01  0.29024031528E+01  0.00000000000E+00 0.  1.
</event>
<event>
 5    1  0.9564219E+001  0.1599668E+01  0.7818608E-02  0.3353723E+00
         11   -1    0    0    0    0  0.00000000000E+00  0.00000000000E+00  0.39999999674E+01  0.40000000000E+01  0.51100000000E-03 0.  1.
    9000002   -1    0    0    0    0 -0.00000000000E+00 -0.00000000000E+00  0.00000000000E+00  0.93800000000E+00  0.93800000000E+00 0.  1.
         11    1    1    2    0    0  0.11156594908E+00 -0.60355317427E-01  0.14155578367E+01  0.14212297406E+01  0.51100000000E-03 0.  1.
    9000002    1    1    2    0    0 -0.31751396017E+00  0.16407263333E+00  0.85725393428E-01  0.10074362446E+01  0.93800000000E+00 0.  1.
         22    1    1    2    0    0  0.20594801110E+00 -0.10371731590E+00  0.24987167372E+01  0.25093340148E+01  0.00000000000E+00 0.  1.
</event>
<event>
 5    1  0.7220939E+001  0.1529000E+01  0.7818608E-02  0.3434223E+00
         11   -1    0    0    0    0  0.00000000000E+00  0.00000000000E+00  0.39999999674E+01  0.40000000000E+01  0.51100000000E-03 0.  1.
    9000002   -1    0    0    0    0 -0.00000000000E+00 -0.00000000000E+00  0.00000000000E+00  0.93800000000E+00  0.93800000000E+00 0.  1.
         11    1    1    2    0    0 -0.38411225663E-01 -0.21447098025E+00  0.70812895872E+00  0.74089142722E+00  0.51100000000E-03 0.  1.
    9000002    1    1    2    0    0 -0.62637544661E-01 -0.15238076991E+00  0.72267107646E-01  0.95509679922E+00  0.93800000000E+00 0.  1.
         22    1    1    2    0    0  0.10104877032E+00  0.36685175017E+00  0.32196039010E+01  0.32420117736E+01  0.00000000000E+00 0.  1.
</event>
<event>
 5    1  0.7220939E+001  0.1599605E+01  0.7818608E-02  0.3353792E+00
         11   -1    0    0    0    0  0.00000000000E+00  0.00000000000E+00  0.39999999674E+01  0.40000000000E+01  0.51100000000E-03 0. -1.
    9000002   -1    0    0    0    0 -0.00000000000E+00 -0.00000000000E+00  0.00000000000E+00  0.93800000000E+00  0.93800000000E+00 0. -1.
         11    1    1    2    0    0  0.67839602465E-01 -0.19372077479E-01  0.45604352219E+00  0.46146879017E+00  0.51100000000E-03 0. -1.
    9000002    1    1    2    0    0 -0.53227112551E+00  0.11613046801E+00  0.20486538081E+00  0.11039079042E+01  0.93800000000E+00 0. -1.
         22    1    1    2    0    0  0.46443152304E+00 -0.96758390532E-01  0.33390910644E+01  0.33726233057E+01  0.00000000000E+00 0. -1.
</event>
<event>
 5    1  0.7220939E+001  0.1599675E+01  0.7818608E-02  0.3353716E+00
         11   -1    0    0    0    0  0.00000000000E+00  0.00000000000E+00  0.39999999674E+01  0.40000000000E+01  0.51100000000E-03 0.  1.
    9000002   -1    0    0    0    0 -0.00000000000E+00 -0.00000000000E+00  0.00000000000E+00  0.93800000000E+00  0.93800000000E+00 0. -1.
         11    1    1    2    0    0  0.50197005051E-01 -0.46205324323E-01  0.59182594312E+00  0.59574564991E+00  0.51100000000E-03 0.  1.
    9000002    1    1    2    0    0 -0.32430333503E+00  0.30802502810E+00  0.13581929980E+00  0.10480185844E+01  0.93800000000E+00 0. -1.
         22    1    1    2    0    0  0.27410632998E+00 -0.26181970378E+00  0.32723547244E+01  0.32942357657E+01  0.00000000000E+00 0.  1.
</event>
<event>
 5    1  0.7220939E+001  0.1578876E+01  0.7818608E-02  0.3376615E+00
         11   -1    0    0    0    0  0.00000000000E+00  0.00000000000E+00  0.39999999674E+01  0.40000000000E+01  0.51100000000E-03 0.  1.
    9000002   -1    0    0    0    0 -0.00000000000E+00 -0.00000000000E+00  0.00000000000E+00  0.93800000000E+00  0.93800000000E+00 0. -1.
         11    1    1    2    0    0 -0.90541106119E-01 -0.11318437834E+00  0.97041024017E+00  0.98117515803E+00  0.51100000000E-03 0.  1.
    9000002    1    1    2    0    0 -0.19325933342E+00  0.22531317848E+00  0.75200928077E-01  0.98671899644E+00  0.93800000000E+00 0. -1.
         22    1    1    2    0    0  0.28380043954E+00 -0.11212880013E+00  0.29543887991E+01  0.29701058455E+01  0.00000000000E+00 0.  1.
</event>
<event>
 5    1  0.7220939E+001  0.1599661E+01  0.7818608E-02  0.3353732E+00
         11   -1    0    0    0    0  0.00000000000E+00  0.00000000000E+00  0.39999999674E+01  0.40000000000E+01  0.51100000000E-03 0. -1.
    9000002   -1    0    0    0    0 -0.00000000000E+00 -0.00000000000E+00  0.00000000000E+00  0.93800000000E+00  0.93800000000E+00 0. -1.
         11    1    1    2    0    0  0.20956591899E-01 -0.88658125717E-01  0.78355549063E+00  0.78883389253E+00  0.51100000000E-03 0. -1.
    9000002    1    1    2    0    0 -0.90168153570E-01  0.42410942931E+00  0.12739813508E+00  0.10411884502E+01  0.93800000000E+00 0. -1.
         22    1    1    2    0    0  0.69211561671E-01 -0.33545130360E+00  0.30890463417E+01  0.31079776573E+01  0.00000000000E+00 0. -1.
</event>
<event>
 5    1  0.7220939E+001  0.1599670E+01  0.7818608E-02  0.3353722E+00
         11   -1    0    0    0    0  0.00000000000E+00  0.00000000000E+00  0.39999999674E+01  0.40000000000E+01  0.51100000000E-03 0.  1.
    9000002   -1    0    0    0    0 -0.00000000000E+00 -0.00000000000E+00  0.00000000000E+00  0.93800000000E+00  0.93800000000E+00 0. -1.
         11    1    1    2    0    0 -0.74805723383E-01 -0.61875334029E-01  0.11070513836E+01  0.11112999057E+01  0.51100000000E-03 0.  1.
    9000002    1    1    2    0    0  0.27412370159E+00  0.22325419339E+00  0.83843412503E-01  0.10059124994E+01  0.93800000000E+00 0. -1.
         22    1    1    2    0    0 -0.19931797821E+00 -0.16137885936E+00  0.28091051712E+01  0.28207875949E+01  0.00000000000E+00 0.  1.
</event>
<event>
 5    1  0.7220939E+001  0.1599664E+01  0.7818608E-02  0.3353728E+00
         11   -1    0    0    0    0  0.00000000000E+00  0.00000000000E+00  0.39999999674E+01  0.40000000000E+01  0.51100000000E-03 0. -1.
    9000002   -1    0    0    0    0 -0.00000000000E+00 -0.00000000000E+00  0.00000000000E+00  0.93800000000E+00  0.93800000000E+00 0.  1.
         11    1    1    2    0    0 -0.36698478142E-01  0.85378360882E-02  0.27082253987E+00  0.27343149446E+00  0.51100000000E-03 0. -1.
    9000002    1    1    2    0    0  0.49752975220E+00 -0.97517930971E-01  0.17618251031E+00  0.10807080448E+01  0.93800000000E+00 0.  1.
         22    1    1    2    0    0 -0.46083127406E+00  0.88980094883E-01  0.35529949172E+01  0.35838604607E+01  0.00000000000E+00 0. -1.
</event>
<event>
 5    1  0.7220939E+001  0.1599654E+01  0.7818608E-02  0.3353739E+00
         11   -1    0    0    0    0  0.00000000000E+00  0.00000000000E+00  0.39999999674E+01  0.40000000000E+01  0.51100000000E-03 0.  1.
    9000002   -1    0    0    0    0 -0.00000000000E+00 -0.00000000000E+00  0.00000000000E+00  0.93800000000E+00  0.93800000000E+00 0.  1.
         11    1    1    2    0    0  0.96213159438E-01  0.96786059492E-02  0.56593537584E+00  0.57413740360E+00  0.51100000000E-03 0.  1.
    9000002    1    1    2    0    0 -0.63182107865E+00 -0.90872029895E-01  0.28675113594E+00  0.11702674118E+01  0.93800000000E+00 0.  1.
         22    1    1    2    0    0  0.53560791921E+00  0.81193423946E-01  0.31473134556E+01  0.31935951846E+01  0.00000000000E+00 0.  1.
</event>
<event>
 5    1  0.7220939E+001  0.1573503E+01  0.7818608E-02  0.3382634E+00
         11   -1    0    0    0    0  0.00000000000E+00  0.00000000000E+00  0.39999999674E+01  0.40000000000E+01  0.51100000000E-03 0. -1.
    9000002   -1    0    0    0    0 -0.00000000000E+00 -0.00000000000E+00  0.00000000000E+00  0.93800000000E+00  0.93800000000E+00 0. -1.
         11    1    1    2    0    0 -0.25027026425E-01 -0.36829434449E+00  0.95721700431E+00  0.10259296909E+01  0.51100000000E-03 0. -1.
    9000002    1    1    2    0    0  0.11942861316E+00  0.71551646173E+00  0.40977047879E+00  0.12545847305E+01  0.93800000000E+00 0. -1.
         22    1    1    2    0    0 -0.94401586730E-01 -0.34722211725E+00  0.26330124843E+01  0.26574855786E+01  0.00000000000E+00 0. -1.
</event>
<event>
 5    1  0.7220939E+001  0.1598597E+01  0.7818608E-02  0.3354887E+00
         11   -1    0    0    0    0  0.00000000000E+00  0.00000000000E+00  0.39999999674E+01  0.40000000000E+01  0.51100000000E-03 0. -1.
    9000002   -1    0    0    0    0 -0.00000000000E+00 -0.00000000000E+00  0.00000000000E+00  0.93800000000E+00  0.93800000000E+00 0.  1.
         11    1    1    2    0    0 -0.90855370778E-01 -0.15676458530E+00  0.12004532638E+01  0.12140503010E+01  0.51100000000E-03 0. -1.
    9000002    1    1    2    0    0  0.38141001905E+00  0.42782433435E+00  0.22897216549E+00  0.11228443865E+01  0.93800000000E+00 0.  1.
         22    1    1    2    0    0 -0.29055464827E+00 -0.27105974905E+00  0.25705745381E+01  0.26011053126E+01  0.00000000000E+00 0. -1.
</event>
<event>
 5    1  0.7220939E+001  0.1589569E+01  0.7818608E-02  0.3364763E+00
         11   -1    0    0    0    0  0.00000000000E+00  0.00000000000E+00  0.39999999674E+01  0.40000000000E+01  0.51100000000E-03 0.  1.
    9000002   -1    0    0    0    0 -0.00000000000E+00 -0.00000000000E+00  0.00000000000E+00  0.93800000000E+00  0.93800000000E+00 0. -1.
         11    1    1    2    0    0  0.27913061287E-01  0.27618812329E-03  0.11484458614E+01  0.11487851727E+01  0.51100000000E-03 0.  1.
    9000002    1    1    2    0    0  0.32144433505E-01 -0.35440811007E+00  0.93181315635E-01  0.10075540336E+01  0.93800000000E+00 0. -1.
         22    1    1    2    0    0 -0.60057494791E-01  0.35413192194E+00  0.27583727903E+01  0.27816607937E+01  0.00000000000E+00 0.  1.
</event>
<event>
 5    1  0.7220939E+001  0.1599667E+01  0.7818608E-02  0.3353724E+00
         11   -1    0    0    0    0  0.00000000000E+00  0.00000000000E+00  0.39999999674E+01  0.40000000000E+01  0.51100000000E-03 0.  1.
    9000002   -1    0    0    0    0 -0.00000000000E+00 -0.00000000000E+00  0.00000000000E+00  0.93800000000E+00  0.93800000000E+00 0.  1.
         11    1    1    2    0    0  0.34563812101E+00  0.47303974000E-01  0.13372383084E+01  0.13819949100E+01  0.51100000000E-03 0.  1.
    9000002    1    1    2    0    0 -0.87407005688E+00 -0.12720660889E+00  0.59295870286E+00  0.14183173160E+01  0.93800000000E+00 0.  1.
         22    1    1    2    0    0  0.52843193588E+00  0.79902634886E-01  0.20698029561E+01  0.21376877740E+01  0.00000000000E+00 0.  1.
</event>
<event>
 5    1  0.7220939E+001  0.1578647E+01  0.7818608E-02  0.3376871E+00
         11   -1    0    0    0    0  0.00000000000E+00  0.00000000000E+00  0.39999999674E+01  0.40000000000E+01  0.51100000000E-03 0. -1.
    9000002   -1    0    0    0    0 -0.00000000000E+00 -0.00000000000E+00  0.00000000000E+00  0.93800000000E+00  0.93800000000E+00 0.  1.
         11    1    1    2    0    0  0.77761284269E-01  0.70955020945E-01  0.51961419089E+00  0.53017035076E+00  0.51100000000E-03 0. -1.
    9000002    1    1    2    0    0 -0.14492059243E+00  0.24165350175E+00  0.69372263778E-01  0.98186297618E+00  0.93800000000E+00 0.  1.
         22    1    1    2    0    0  0.67159308162E-01 -0.31260852269E+00  0.34110135127E+01  0.34259666731E+01  0.00000000000E+00 0. -1.
</event>
<event>
 5    1  0.7220939E+001  0.1596673E+01  0.7818608E-02  0.3356983E+00
         11   -1    0    0    0    0  0.00000000000E+00  0.00000000000E+00  0.39999999674E+01  0.40000000000E+01  0.51100000000E-03 0.  1.
    9000002   -1    0    0    0    0 -0.00000000000E+00 -0.00000000000E+00  0.00000000000E+00  0.93800000000E+00  0.93800000000E+00 0.  1.
         11    1    1    2    0    0  0.21590517429E+00  0.67447393175E-01  0.87029405889E+00  0.89920865498E+00  0.51100000000E-03 0.  1.
    9000002    1    1    2    0    0 -0.71913104044E+00 -0.12061929474E+00  0.38659819040E+00  0.12494001074E+01  0.93800000000E+00 0.  1.
         22    1    1    2    0    0  0.50322586615E+00  0.53171901569E-01  0.27431077181E+01  0.27893912376E+01  0.00000000000E+00 0.  1.
</event>
<event>
 5    1  0.7220939E+001  0.1597245E+01  0.7818608E-02  0.3356359E+00
         11   -1    0    0    0    0  0.00000000000E+00  0.00000000000E+00  0.39999999674E+01  0.40000000000E+01  0.51100000000E-03 0. -1.
    9000002   -1    0    0    0    0 -0.00000000000E+00 -0.00000000000E+00  0.00000000000E+00  0.93800000000E+00  0.93800000000E+00 0.  1.
         11    1    1    2    0    0 -0.88662969168E-02 -0.24654369625E-01  0.33606068143E+00  0.33708083880E+00  0.51100000000E-03 0. -1.
    9000002    1    1    2    0    0  0.34914090711E+00 -0.12076230527E-01  0.83786834360E-01  0.10044448427E+01  0.93800000000E+00 0.  1.
         22    1    1    2    0    0 -0.34027461019E+00  0.36730600152E-01  0.35801524516E+01  0.35964743185E+01  0.00000000000E+00 0. -1.
</event>
<event>
 5    1  0.7220939E+001  0.1599661E+01  0.7818608E-02  0.3353732E+00
         11   -1    0    0    0    0  0.00000000000E+00  0.00000000000E+00  0.39999999674E+01  0.40000000000E+01  0.51100000000E-03 0. -1.
    9000002   -1    0    0    0    0 -0.00000000000E+00 -0.00000000000E+00  0.00000000000E+00  0.93800000000E+00  0.93800000000E+00 0. -1.
         11    1    1    2    0    0  0.45135960220E-01 -0.13712961848E+00  0.12867681449E+01  0.12948414215E+01  0.51100000000E-03 0. -1.
    9000002    1    1    2    0    0 -0.12562682616E+00  0.40425765529E+00  0.12126688911E+00  0.10362219886E+01  0.93800000000E+00 0. -1.
         22    1    1    2    0    0  0.80490865943E-01 -0.26712803681E+00  0.25919649334E+01  0.26069365898E+01  0.00000000000E+00 0. -1.
</event>
<event>
 5    1  0.7220939E+001  0.1570783E+01  0.7818608E-02  0.3385698E+00
         11   -1    0    0    0    0  0.00000000000E+00  0.00000000000E+00  0.39999999674E+01  0.40000000000E+01  0.51100000000E-03 0. -1.
    9000002   -1    0    0    0    0 -0.00000000000E+00 -0.00000000000E+00  0.00000000000E+00  0.93800000000E+00  0.93800000000E+00 0. -1.
         11    1    1    2    0    0 -0.11634853760E+00  0.14474206105E-01  0.71994560580E+00  0.72943020315E+00  0.51100000000E-03 0. -1.
    9000002    1    1    2    0    0 -0.19736627930E+00  0.15177180460E+00  0.63581319789E-01  0.97256090457E+00  0.93800000000E+00 0. -1.
         22    1    1    2    0    0  0.31371481690E+00 -0.16624601071E+00  0.32164730418E+01  0.32360088923E+01  0.00000000000E+00 0. -1.
</event>
<event>
 5    1  0.7220939E+001  0.1599625E+01  0.7818608E-02  0.3353770E+00
         11   -1    0    0    0    0  0.00000000000E+00  0.00000000000E+00  0.39999999674E+01  0.40000000000E+01  0.51100000000E-03 0. -1.
    9000002   -1    0    0    0    0 -0.00000000000E+00 -0.00000000000E+00  0.00000000000E+00  0.93800000000E+00  0.93800000000E+00 0.  1.
         11    1    1    2    0    0  0.32544295070E-01  0.85363348877E-01  0.33339738800E+00  0.34568788223E+00  0.51100000000E-03 0. -1.
    9000002    1    1    2    0    0 -0.36011734097E+00 -0.87927013629E+00  0.70735439446E+00  0.15109582096E+01  0.93800000000E+00 0.  1.
         22    1    1    2    0    0  0.32757304590E+00  0.79390678741E+00  0.29592481849E+01  0.30813539082E+01  0.00000000000E+00 0. -1.
</event>
<event>
 5    1  0.7220939E+001  0.1596755E+01  0.7818608E-02  0.3356893E+00
         11   -1    0    0    0    0  0.00000000000E+00  0.00000000000E+00  0.39999999674E+01  0.40000000000E+01  0.51100000000E-03 0. -1.
    9000002   -1    0    0    0    0 -0.00000000000E+00 -0.00000000000E+00  0.00000000000E+00  0.93800000000E+00  0.93800000000E+00 0.  1.
         11    1    1    2    0    0 -0.12427121263E+00  0.84468006757E-01  0.12799471920E+01  0.12887370771E+01  0.51100000000E-03 0. -1.
    9000002    1    1    2    0    0  0.31334244746E+00 -0.42545139369E+00  0.19477461425E+00  0.10940628538E+01  0.93800000000E+00 0.  1.
         22    1    1    2    0    0 -0.18907123484E+00  0.34098338694E+00  0.25252781611E+01  0.25552000690E+01  0.00000000000E+00 0. -1.
</event>
<event>
 5    1  0.7220939E+001  0.1498201E+01  0.7818608E-02  0.3471848E+00
         11   -1    0    0    0    0  0.00000000000E+00  0.00000000000E+00  0.39999999674E+01  0.40000000000E+01  0.51100000000E-03 0.  1.
    9000002   -1    0    0    0    0 -0.00000000000E+00 -0.00000000000E+00  0.00000000000E+00  0.93800000000E+00  0.93800000000E+00 0. -1.
         11    1    1    2    0    0 -0.19840060600E+00  0.16029309380E+00  0.68886119245E+00  0.73456564034E+00  0.51100000000E-03 0.  1.
    9000002    1    1    2    0    0 -0.37287756307E-01  0.29100359630E+00  0.14123929158E+00  0.99290785440E+00  0.93800000000E+00 0. -1.
         22    1    1    2    0    0  0.23568836231E+00 -0.45129669011E+00  0.31698994833E+01  0.32105265053E+01  0.00000000000E+00 0.  1.
</event>
<event>
 5    1  0.7220939E+001  0.1599315E+01  0.7818608E-02  0.3354108E+00
         11   -1    0    0    0    0  0.00000000000E+00  0.00000000000E+00  0.39999999674E+01  0.40000000000E+01  0.51100000000E-03 0. -1.
    9000002   -1    0    0    0    0 -0.00000000000E+00 -0.00000000000E+00  0.00000000000E+00  0.93800000000E+00  0.93800000000E+00 0. -1.
         11    1    1    2    0    0  0.99740469842E-01 -0.17701995631E+00  0.70599558489E+00  0.73465247108E+00  0.51100000000E-03 0. -1.
    9000002    1    1    2    0    0 -0.41404175224E+00  0.78698317668E+00  0.60304826820E+00  0.14262833894E+01  0.93800000000E+00 0. -1.
         22    1    1    2    0    0  0.31430128240E+00 -0.60996322037E+00  0.26909561143E+01  0.27770641396E+01  0.00000000000E+00 0. -1.
</event>
<event>
 5    1  0.7220939E+001  0.1599674E+01  0.7818608E-02  0.3353717E+00
         11   -1    0    0    0    0  0.00000000000E+00  0.00000000000E+00  0.39999999674E+01  0.40000000000E+01  0.51100000000E-03 0. -1.
    9000002   -1    0    0    0    0 -0.00000000000E+00 -0.00000000000E+00  0.00000000000E+00  0.93800000000E+00  0.93800000000E+00 0. -1.
         11    1    1    2    0    0 -0.20491058051E-02  0.83546388408E-02  0.90119981121E-01  0.90531049608E-01  0.51100000000E-03 0. -1.
    9000002    1    1    2    0    0  0.87360802016E-01 -0.37577946705E+00  0.10022009149E+00  0.10191811342E+01  0.93800000000E+00 0. -1.
         22    1    1    2    0    0 -0.85311696211E-01  0.36742482821E+00  0.38096598947E+01  0.38282878162E+01  0.00000000000E+00 0. -1.
</event>
<event>
 5    1  0.7220939E+001  0.1599671E+01  0.7818608E-02  0.3353721E+00
         11   -1    0    0    0    0  0.00000000000E+00  0.00000000000E+00  0.39999999674E+01  0.40000000000E+01  0.51100000000E-03 0.  1.
    9000002   -1    0    0    0    0 -0.00000000000E+00 -0.00000000000E+00  0.00000000000E+00  0.93800000000E+00  0.93800000000E+00 0.  1.
         11    1    1    2    0    0 -0.93774764766E-01 -0.81685767184E-01  0.13884253217E+01  0.13939840050E+01  0.51100000000E-03 0.  1.
    9000002    1    1    2    0    0  0.26196851638E+00  0.23806998023E+00  0.84060340117E-01  0.10060889423E+01  0.93800000000E+00 0.  1.
         22    1    1    2    0    0 -0.16819375162E+00 -0.15638421304E+00  0.25275143055E+01  0.25379270527E+01  0.00000000000E+00 0.  1.
</event>
<event>
 5    1  0.7220939E+001  0.1599674E+01  0.7818608E-02  0.3353717E+00
         11   -1    0    0    0    0  0.00000000000E+00  0.00000000000E+00  0.39999999674E+01  0.40000000000E+01  0.51100000000E-03 0. -1.
    9000002   -1    0    0    0    0 -0.00000000000E+00 -0.00000000000E+00  0.00000000000E+00  0.93800000000E+00  0.93800000000E+00 0. -1.
         11    1    1    2    0    0 -0.10159318220E+00  0.83030476801E-01  0.12616406033E+01  0.12684449172E+01  0.51100000000E-03 0. -1.
    9000002    1    1    2    0    0  0.31458533162E+00 -0.25021978363E+00  0.10901482732E+00  0.10263050733E+01  0.93800000000E+00 0. -1.
         22    1    1    2    0    0 -0.21299214943E+00  0.16718930683E+00  0.26293445367E+01  0.26432500095E+01  0.00000000000E+00 0.  1.
</event>
<event>
 5    1  0.7220939E+001  0.1590142E+01  0.7818608E-02  0.3364133E+00
         11   -1    0    0    0    0  0.00000000000E+00  0.00000000000E+00  0.39999999674E+01  0.40000000000E+01  0.51100000000E-03 0. -1.
    9000002   -1    0    0    0    0 -0.00000000000E+00 -0.00000000000E+00  0.00000000000E+00  0.93800000000E+00  0.93800000000E+00 0. -1.
         11    1    1    2    0    0  0.15652510489E+00  0.14756310477E+00  0.81790845154E+00  0.84572423081E+00  0.51100000000E-03 0. -1.
    9000002    1    1    2    0    0 -0.31664948188E+00 -0.47457133412E+00  0.23495765149E+00  0.11227350282E+01  0.93800000000E+00 0. -1.
         22    1    1    2    0    0  0.16012437699E+00  0.32700822934E+00  0.29471338643E+01  0.29695407410E+01  0.00000000000E+00 0. -1.
</event>
<event>
 5    1  0.7220939E+001  0.1456581E+01  0.7818608E-02  0.3525427E+00
         11   -1    0    0    0    0  0.00000000000E+00  0.00000000000E+00  0.39999999674E+01  0.40000000000E+01  0.51100000000E-03 0. -1.
    9000002   -1    0    0    0    0 -0.00000000000E+00 -0.00000000000E+00  0.00000000000E+00  0.93800000000E+00  0.93800000000E+00 0.  1.
         11    1    1    2    0    0  0.30170277760E-01  0.36963545694E+00  0.70170949702E+00  0.79368576655E+00  0.51100000000E-03 0. -1.
    9000002    1    1    2    0    0  0.24611166418E-01 -0.75106689321E-01  0.11656208339E+00  0.94851328065E+00  0.93800000000E+00 0.  1.
         22    1    1    2    0    0 -0.54781444178E-01 -0.29452876762E+00  0.31817283870E+01  0.31958009528E+01  0.00000000000E+00 0. -1.
</event>
<event>
 5    1  0.7220939E+001  0.1599528E+01  0.7818608E-02  0.3353876E+00
         11   -1    0    0    0    0  0.00000000000E+00  0.00000000000E+00  0.39999999674E+01  0.40000000000E+01  0.51100000000E-03 0.  1.
    9000002   -1    0    0    0    0 -0.00000000000E+00 -0.00000000000E+00  0.00000000000E+00  0.93800000000E+00  0.93800000000E+00 0.  1.
         11    1    1    2    0    0 -0.16900849403E+00 -0.10271189804E+00  0.10967370583E+01  0.11144263283E+01  0.51100000000E-03 0.  1.
    9000002    1    1    2    0    0  0.52799697531E+00  0.34218199141E+00  0.27813861872E+00  0.11632172679E+01  0.93800000000E+00 0.  1.
         22    1    1    2    0    0 -0.35898848128E+00 -0.23947009338E+00  0.26251242903E+01  0.26603564038E+01  0.00000000000E+00 0.  1.
</event>
<event>
 5    1  0.7220939E+001  0.1577444E+01  0.7818608E-02  0.3378214E+00
         11   -1    0    0    0    0  0.00000000000E+00  0.00000000000E+00  0.39999999674E+01  0.40000000000E+01  0.51100000000E-03 0.  1.
    9000002   -1    0    0    0    0 -0.00000000000E+00 -0.00000000000E+00  0.00000000000E+00  0.93800000000E+00  0.93800000000E+00 0. -1.
         11    1    1    2    0    0  0.13415662481E+00 -0.39634996750E-01  0.11837130941E+01  0.11919504533E+01  0.51100000000E-03 0.  1.
    9000002    1    1    2    0    0 -0.17373950429E+00 -0.34190844284E+00  0.11753089442E+00  0.10201687653E+01  0.93800000000E+00 0. -1.
         22    1    1    2    0    0  0.39582879481E-01  0.38154343959E+00  0.26987559789E+01  0.27258807814E+01  0.00000000000E+00 0.  1.
</event>
<event>
 5    1  0.7220939E+001  0.1519569E+01  0.7818608E-02  0.3445571E+00
         11   -1    0    0    0    0  0.00000000000E+00  0.00000000000E+00  0.39999999674E+01  0.40000000000E+01  0.51100000000E-03 0. -1.
    9000002   -1    0    0    0    0 -0.00000000000E+00 -0.00000000000E+00  0.00000000000E+00  0.93800000000E+00  0.93800000000E+00 0.  1.
         11    1    1    2    0    0  0.24659129920E+00  0.24582008780E+00  0.11173865557E+01  0.11703793233E+01  0.51100000000E-03 0. -1.
    9000002    1    1    2    0    0  0.68696917723E-01 -0.30028917034E+00  0.12923036065E+00  0.99570946487E+00  0.93800000000E+00 0.  1.
         22    1    1    2    0    0 -0.31528821692E+00  0.54469082535E-01  0.27533830511E+01  0.27719112119E+01  0.00000000000E+00 0. -1.
</event>
<event>
 5    1  0.7220939E+001  0.1599498E+01  0.7818608E-02  0.3353908E+00
         11   -1    0    0    0    0  0.00000000000E+00  0.00000000000E+00  0.39999999674E+01  0.40000000000E+01  0.51100000000E-03 0. -1.
    9000002   -1    0    0    0    0 -0.00000000000E+00 -0.00000000000E+00  0.00000000000E+00  0.93800000000E+00  0.93800000000E+00 0. -1.
         11    1    1    2    0    0 -0.98183304250E-01  0.14191841772E+00  0.13872739211E+01  0.13979663772E+01  0.51100000000E-03 0. -1.
    9000002    1    1    2    0    0  0.25971948802E+00 -0.35479613180E+00  0.13126653349E+00  0.10442267045E+01  0.93800000000E+00 0. -1.
         22    1    1    2    0    0 -0.16153618377E+00  0.21287771409E+00  0.24814595128E+01  0.24958069183E+01  0.00000000000E+00 0. -1.
</event>
<event>
 5    1  0.7220939E+001  0.1599674E+01  0.7818608E-02  0.3353717E+00
         11   -1    0    0    0    0  0.00000000000E+00  0.00000000000E+00  0.39999999674E+01  0.40000000000E+01  0.51100000000E-03 0.  1.
    9000002   -1    0    0    0    0 -0.00000000000E+00 -0.00000000000E+00  0.00000000000E+00  0.93800000000E+00  0.93800000000E+00 0. -1.
         11    1    1    2    0    0 -0.59775520726E-01 -0.64030997968E-03  0.39099232508E+00  0.39553606949E+00  0.51100000000E-03 0.  1.
    9000002    1    1    2    0    0  0.56870488679E+00 -0.91754112824E-03  0.22420617384E+00  0.11196153351E+01  0.93800000000E+00 0. -1.
         22    1    1    2    0    0 -0.50892936607E+00  0.15578511079E-02  0.33848014684E+01  0.34228485954E+01  0.00000000000E+00 0.  1.
</event>
<event>
 5    1  0.7220939E+001  0.1599675E+01  0.7818608E-02  0.3353716E+00
         11   -1    0    0    0    0  0.00000000000E+00  0.00000000000E+00  0.39999999674E+01  0.40000000000E+01  0.51100000000E-03 0. -1.
    9000002   -1    0    0    0    0 -0.00000000000E+00 -0.00000000000E+00  0.00000000000E+00  0.93800000000E+00  0.93800000000E+00 0. -1.
         11    1    1    2    0    0 -0.61945928432E-01  0.14915247196E+00  0.14345078101E+01  0.14435708075E+01  0.51100000000E-03 0. -1.
    9000002    1    1    2    0    0  0.16501550899E+00 -0.39937113841E+00  0.12649765601E+00  0.10404677224E+01  0.93800000000E+00 0. -1.
         22    1    1    2    0    0 -0.10306958056E+00  0.25021866645E+00  0.24389945013E+01  0.24539614701E+01  0.00000000000E+00 0. -1.
</event>
<event>
 5    1  0.7220939E+001  0.1599639E+01  0.7818608E-02  0.3353755E+00
         11   -1    0    0    0    0  0.00000000000E+00  0.00000000000E+00  0.39999999674E+01  0.40000000000E+01  0.51100000000E-03 0. -1.
    9000002   -1    0    0    0    0 -0.00000000000E+00 -0.00000000000E+00  0.00000000000E+00  0.93800000000E+00  0.93800000000E+00 0. -1.
         11    1    1    2    0    0 -0.28642768129E-01 -0.21750420893E+00  0.14103426814E+01  0.14273034818E+01  0.51100000000E-03 0. -1.
    9000002    1    1    2    0    0  0.91700808015E-01  0.58981271152E+00  0.24845498721E+00  0.11392374439E+01  0.93800000000E+00 0. -1.
         22    1    1    2    0    0 -0.63058039886E-01 -0.37230850259E+00  0.23412022988E+01  0.23714590744E+01  0.00000000000E+00 0. -1.
</event>
<event>
 5    1  0.7220939E+001  0.1599660E+01  0.7818608E-02  0.3353733E+00
         11   -1    0    0    0    0  0.00000000000E+00  0.00000000000E+00  0.39999999674E+01  0.40000000000E+01  0.51100000000E-03 0.  1.
    9000002   -1    0    0    0    0 -0.00000000000E+00 -0.00000000000E+00  0.00000000000E+00  0.93800000000E+00  0.93800000000E+00 0. -1.
         11    1    1    2    0    0  0.73280415214E-02 -0.10532405808E-01  0.14922871342E+00  0.14978017824E+00  0.51100000000E-03 0.  1.
    9000002    1    1    2    0    0 -0.23932781571E+00  0.26498160082E+00  0.85566594770E-01  0.10073026826E+01  0.93800000000E+00 0. -1.
         22    1    1    2    0    0  0.23199977419E+00 -0.25444919501E+00  0.37652046592E+01  0.37809171392E+01  0.00000000000E+00 0.  1.
</event>
<event>
 5    1  0.7220939E+001  0.1599648E+01  0.7818608E-02  0.3353745E+00
         11   -1    0    0    0    0  0.00000000000E+00  0.00000000000E+00  0.39999999674E+01  0.40000000000E+01  0.51100000000E-03 0. -1.
    9000002   -1    0    0    0    0 -0.00000000000E+00 -0.00000000000E+00  0.00000000000E+00  0.93800000000E+00  0.93800000000E+00 0. -1.
         11    1    1    2    0    0 -0.12491818567E+00  0.42487947799E-01  0.56496068240E+00  0.58016429793E+00  0.51100000000E-03 0. -1.
    9000002    1    1    2    0    0  0.78714122058E+00 -0.23722852519E+00  0.50174348193E+00  0.13444177907E+01  0.93800000000E+00 0. -1.
         22    1    1    2    0    0 -0.66222303491E+00  0.19474057739E+00  0.29332958030E+01  0.30134179114E+01  0.00000000000E+00 0. -1.
</event>
<event>
 5    1  0.7220939E+001  0.1568143E+01  0.7818608E-02  0.3388683E+00
         11   -1    0    0    0    0  0.00000000000E+00  0.00000000000E+00  0.39999999674E+01  0.40000000000E+01  0.51100000000E-03 0. -1.
    9000002   -1    0    0    0    0 -0.00000000000E+00 -0.00000000000E+00  0.00000000000E+00  0.93800000000E+00  0.93800000000E+00 0. -1.
         11    1    1    2    0    0 -0.31099327938E-01  0.67198357643E-01  0.73155310391E+00  0.73529109367E+00  0.51100000000E-03 0. -1.
    9000002    1    1    2    0    0 -0.35898942091E+00  0.35531736793E+00  0.20391361196E+00  0.10846882490E+01  0.93800000000E+00 0. -1.
         22    1    1    2    0    0  0.39008874885E+00 -0.42251572558E+00  0.30645332515E+01  0.31180206574E+01  0.00000000000E+00 0. -1.
</event>
<event>
 5    1  0.7220939E+001  0.1582998E+01  0.7818608E-02  0.3372026E+00
         11   -1    0    0    0    0  0.00000000000E+00  0.00000000000E+00  0.39999999674E+01  0.40000000000E+01  0.51100000000E-03 0.  1.
    9000002   -1    0    0    0    0 -0.00000000000E+00 -0.00000000000E+00  0.00000000000E+00  0.93800000000E+00  0.93800000000E+00 0. -1.
         11    1    1    2    0    0  0.17142839047E-01 -0.43834433405E-01  0.13678352657E+01  0.13686449173E+01  0.51100000000E-03 0.  1.
    9000002    1    1    2    0    0  0.12422322830E-01 -0.29536191737E+00  0.71417828303E-01  0.98607174310E+00  0.93800000000E+00 0. -1.
         22    1    1    2    0    0 -0.29565161877E-01  0.33919635078E+00  0.25607468734E+01  0.25832833396E+01  0.00000000000E+00 0.  1.
</event>
<event>
 5    1  0.7220939E+001  0.1597964E+01  0.7818608E-02  0.3355576E+00
         11   -1    0    0    0    0  0.00000000000E+00  0.00000000000E+00  0.39999999674E+01  0.40000000000E+01  0.51100000000E-03 0.  1.
    9000002   -1    0    0    0    0 -0.00000000000E+00 -0.00000000000E+00  0.00000000000E+00  0.93800000000E+00  0.93800000000E+00 0.  1.
         11    1    1    2    0    0 -0.85687029962E-01 -0.94030728646E-02  0.55882081177E+00  0.56543049588E+00  0.51100000000E-03 0.  1.
    9000002    1    1    2    0    0  0.42372978623E+00  0.24142645342E+00  0.16400691250E+00  0.10698485554E+01  0.93800000000E+00 0.  1.
         22    1    1    2    0    0 -0.33804275627E+00 -0.23202338056E+00  0.32771722431E+01  0.33027209487E+01  0.00000000000E+00 0.  1.
</event>
<event>
 5    1  0.7220939E+001  0.1559183E+01  0.7818608E-02  0.3398892E+00
         11   -1    0    0    0    0  0.00000000000E+00  0.00000000000E+00  0.39999999674E+01  0.40000000000E+01  0.51100000000E-03 0.  1.
    9000002   -1    0    0    0    0 -0.00000000000E+00 -0.00000000000E+00  0.00000000000E+00  0.93800000000E+00  0.93800000000E+00 0. -1.
         11    1    1    2    0    0  0.16784084755E+00 -0.10827614482E+00  0.11815445807E+01  0.11983080284E+01  0.51100000000E-03 0.  1.
    9000002    1    1    2    0    0  0.89635604508E-01  0.71558384391E-02  0.35443824762E-01  0.94296660192E+00  0.93800000000E+00 0. -1.
         22    1    1    2    0    0 -0.25747645206E+00  0.10112030638E+00  0.27830115619E+01  0.27967253696E+01  0.00000000000E+00 0.  1.
</event>
<event>
 5    1  0.7220939E+001  0.1599153E+01  0.7818608E-02  0.3354283E+00
         11   -1    0    0    0    0  0.00000000000E+00  0.00000000000E+00  0.39999999674E+01  0.40000000000E+01  0.51100000000E-03 0.  1.
    9000002   -1    0    0    0    0 -0.00000000000E+00 -0.00000000000E+00  0.00000000000E+00  0.93800000000E+00  0.93800000000E+00 0.  1.
         11    1    1    2    0    0 -0.37352906345E-01 -0.13656859203E+00  0.14824783371E+01  0.14892241272E+01  0.51100000000E-03 0.  1.
    9000002    1    1    2    0    0  0.15895278133E+00  0.32393206346E+00  0.87830214807E-01  0.10088389936E+01  0.93800000000E+00 0.  1.
         22    1    1    2    0    0 -0.12159987498E+00 -0.18736347143E+00  0.24296914155E+01  0.24399368792E+01  0.00000000000E+00 0.  1.
</event>
<event>
 5    1  0.7220939E+001  0.1599599E+01  0.7818608E-02  0.3353799E+00
         11   -1    0    0    0    0  0.00000000000E+00  0.00000000000E+00  0.39999999674E+01  0.40000000000E+01  0.51100000000E-03 0. -1.
    9000002   -1    0    0    0    0 -0.00000000000E+00 -0.00000000000E+00  0.00000000000E+00  0.93800000000E+00  0.93800000000E+00 0. -1.
         11    1    1    2    0    0 -0.44646121194E-01 -0.38081068511E-01  0.57609075799E+00  0.57907190096E+00  0.51100000000E-03 0. -1.
    9000002    1    1    2    0    0  0.30689533765E+00  0.20737648081E+00  0.92264610160E-01  0.10126927033E+01  0.93800000000E+00 0. -1.
         22    1    1    2    0    0 -0.26224921646E+00 -0.16929541230E+00  0.33316445992E+01  0.33462353957E+01  0.00000000000E+00 0. -1.
</event>
<event>
 5    1  0.7220939E+001  0.1599667E+01  0.7818608E-02  0.3353725E+00
         11   -1    0    0    0    0  0.00000000000E+00  0.00000000000E+00  0.39999999674E+01  0.40000000000E+01  0.51100000000E-03 0. -1.
    9000002   -1    0    0    0    0 -0.00000000000E+00 -0.00000000000E+00  0.00000000000E+00  0.93800000000E+00  0.93800000000E+00 0. -1.
         11    1    1    2    0    0 -0.87405130842E-02 -0.12722309407E-01  0.12701154937E+00  0.12794705358E+00  0.51100000000E-03 0. -1.
    9000002    1    1    2    0    0  0.28540870761E+00  0.35396690074E+00  0.14052824682E+00  0.10518283536E+01  0.93800000000E+00 0. -1.
         22    1    1    2    0    0 -0.27666819453E+00 -0.34124459133E+00  0.37324601712E+01  0.37582245929E+01  0.00000000000E+00 0. -1.
</event>
<event>
 5    1  0.7220939E+001  0.1599655E+01  0.7818608E-02  0.3353738E+00
         11   -1    0    0    0    0  0.00000000000E+00  0.00000000000E+00  0.39999999674E+01  0.40000000000E+01  0.51100000000E-03 0. -1.
    9000002   -1    0    0    0    0 -0.00000000000E+00 -0.00000000000E+00  0.00000000000E+00  0.93800000000E+00  0.93800000000E+00 0.  1.
         11    1    1    2    0    0 -0.57800279521E-01  0.42275250120E-01  0.72835590855E+00  0.73186792506E+00  0.51100000000E-03 0. -1.
    9000002    1    1    2    0    0  0.30471006125E+00 -0.24898520205E+00  0.10437555336E+00  0.10225361159E+01  0.93800000000E+00 0.  1.
         22    1    1    2    0    0 -0.24690978173E+00  0.20670995193E+00  0.31672685055E+01  0.31835959590E+01  0.00000000000E+00 0. -1.
</event>
<event>
 5    1  0.7220939E+001  0.1571601E+01  0.7818608E-02  0.3384776E+00
         11   -1    0    0    0    0  0.00000000000E+00  0.00000000000E+00  0.39999999674E+01  0.40000000000E+01  0.51100000000E-03 0. -1.
    9000002   -1    0    0    0    0 -0.00000000000E+00 -0.00000000000E+00  0.00000000000E+00  0.93800000000E+00  0.93800000000E+00 0. -1.
         11    1    1    2    0    0 -0.32465568061E-01 -0.11930436957E+00  0.19952789755E+00  0.23473216382E+00  0.51100000000E-03 0. -1.
    9000002    1    1    2    0    0  0.27531948954E+00  0.47486766908E+00  0.23504006944E+00  0.11119298353E+01  0.93800000000E+00 0. -1.
         22    1    1    2    0    0 -0.24285392148E+00 -0.35556329951E+00  0.35654320004E+01  0.35913380008E+01  0.00000000000E+00 0. -1.
</event>
<event>
 5    1  0.7220939E+001  0.1575797E+01  0.7818608E-02  0.3380059E+00
         11   -1    0    0    0    0  0.00000000000E+00  0.00000000000E+00  0.39999999674E+01  0.40000000000E+01  0.51100000000E-03 0. -1.
    9000002   -1    0    0    0    0 -0.00000000000E+00 -0.00000000000E+00  0.00000000000E+00  0.93800000000E+00  0.93800000000E+00 0.  1.
         11    1    1    2    0    0  0.11713933935E+00 -0.29436329294E-01  0.12124164556E+01  0.12184178451E+01  0.51100000000E-03 0. -1.
    9000002    1    1    2    0    0  0.17716637646E+00  0.90489856464E-01  0.44305700171E-01  0.95988714656E+00  0.93800000000E+00 0.  1.
         22    1    1    2    0    0 -0.29430571580E+00 -0.61053527170E-01  0.27432778116E+01  0.27596950083E+01  0.00000000000E+00 0. -1.
</event>
<event>
 5    1  0.7220939E+001  0.1568534E+01  0.7818608E-02  0.3388240E+00
         11   -1    0    0    0    0  0.00000000000E+00  0.00000000000E+00  0.39999999674E+01  0.40000000000E+01  0.51100000000E-03 0.  1.
    9000002   -1    0    0    0    0 -0.00000000000E+00 -0.00000000000E+00  0.00000000000E+00  0.93800000000E+00  0.93800000000E+00 0.  1.
         11    1    1    2    0    0  0.76152095501E-01  0.67678860013E-01  0.64689260610E+00  0.65486630291E+00  0.51100000000E-03 0.  1.
    9000002    1    1    2    0    0  0.43680735994E+00 -0.85278898194E-01  0.16173309868E+00  0.10507496159E+01  0.93800000000E+00 0.  1.
         22    1    1    2    0    0 -0.51295945544E+00  0.17600038182E-01  0.31913742626E+01  0.32323840812E+01  0.00000000000E+00 0.  1.
</event>
<event>
 5    1  0.7220939E+001  0.1599618E+01  0.7818608E-02  0.3353778E+00
         11   -1    0    0    0    0  0.00000000000E+00  0.00000000000E+00  0.39999999674E+01  0.40000000000E+01  0.51100000000E-03 0. -1.
    9000002   -1    0    0    0    0 -0.00000000000E+00 -0.00000000000E+00  0.00000000000E+00  0.93800000000E+00  0.93800000000E+00 0.  1.
         11    1    1    2    0    0  0.13384691544E+00 -0.23464056879E-01  0.12849169527E+01  0.12920825806E+01  0.51100000000E-03 0. -1.
    9000002    1    1    2    0    0 -0.42554904760E+00  0.85115745135E-01  0.12767044722E+00  0.10413838990E+01  0.93800000000E+00 0.  1.
         22    1    1    2    0    0  0.29170213215E+00 -0.61651688256E-01  0.25874125674E+01  0.26045335204E+01  0.00000000000E+00 0. -1.
</event>
<event>
 5    1  0.7220939E+001  0.1599677E+01  0.7818608E-02  0.3353715E+00
         11   -1    0    0    0    0  0.00000000000E+00  0.00000000000E+00  0.39999999674E+01  0.40000000000E+01  0.51100000000E-03 0.  1.
    9000002   -1    0    0    0    0 -0.00000000000E+00 -0.00000000000E+00  0.00000000000E+00  0.93800000000E+00  0.93800000000E+00 0. -1.
         11    1    1    2    0    0 -0.84635616101E-01  0.71598555173E-01  0.90543793098E+00  0.91219934696E+00  0.51100000000E-03 0.  1.
    9000002    1    1    2    0    0  0.35752642540E+00 -0.30581936335E+00  0.15080558177E+00  0.10601589274E+01  0.93800000000E+00 0.  1.
         22    1    1    2    0    0 -0.27289080930E+00  0.23422080818E+00  0.29437564546E+01  0.29656417256E+01  0.00000000000E+00 0.  1.
</event>
<event>
 5    1  0.7220939E+001  0.1495377E+01  0.7818608E-02  0.3475382E+00
         11   -1    0    0    0    0  0.00000000000E+00  0.00000000000E+00  0.39999999674E+01  0.40000000000E+01  0.51100000000E-03 0.  1.
    9000002   -1    0    0    0    0 -0.00000000000E+00 -0.00000000000E+00  0.00000000000E+00  0.93800000000E+00  0.93800000000E+00 0.  1.
         11    1    1    2    0    0  0.17207803699E+00 -0.20506802186E+00  0.66688825941E+00  0.71861252151E+00  0.51100000000E-03 0.  1.
    9000002    1    1    2    0    0 -0.14638249819E+00 -0.30410367337E+00  0.16489832951E+00  0.10104169135E+01  0.93800000000E+00 0.  1.
         22    1    1    2    0    0 -0.25695538794E-01  0.50917169523E+00  0.31682133784E+01  0.32089705650E+01  0.00000000000E+00 0.  1.
</event>
<event>
 5    1  0.8390239E+001  0.1599612E+01  0.7818608E-02  0.3353784E+00
         11   -1    0    0    0    0  0.00000000000E+00  0.00000000000E+00  0.39999999674E+01  0.40000000000E+01  0.51100000000E-03 0. -1.
    9000002   -1    0    0    0    0 -0.00000000000E+00 -0.00000000000E+00  0.00000000000E+00  0.93800000000E+00  0.93800000000E+00 0. -1.
         11    1    1    2    0    0 -0.10519313050E+00  0.55774917193E-01  0.14314368039E+01  0.14363801798E+01  0.51100000000E-03 0. -1.
    9000002    1    1    2    0    0  0.30213923827E+00 -0.17399491882E+00  0.81548867598E-01  0.10040202034E+01  0.93800000000E+00 0. -1.
         22    1    1    2    0    0 -0.19694610778E+00  0.11822000163E+00  0.24870142958E+01  0.24975996168E+01  0.00000000000E+00 0. -1.
</event>
<event>
 5    1  0.7220939E+001  0.1599552E+01  0.7818608E-02  0.3353850E+00
         11   -1    0    0    0    0  0.00000000000E+00  0.00000000000E+00  0.39999999674E+01  0.40000000000E+01  0.51100000000E-03 0. -1.
    9000002   -1    0    0    0    0 -0.00000000000E+00 -0.00000000000E+00  0.00000000000E+00  0.93800000000E+00  0.93800000000E+00 0.  1.
         11    1    1    2    0    0  0.10385955536E+00  0.12850288347E+00  0.12287802331E+01  0.12398390705E+01  0.51100000000E-03 0. -1.
    9000002    1    1    2    0    0 -0.30956842920E+00 -0.43504464010E+00  0.19644505282E+00  0.10970556549E+01  0.93800000000E+00 0.  1.
         22    1    1    2    0    0  0.20570887384E+00  0.30654175663E+00  0.25747746814E+01  0.26011052746E+01  0.00000000000E+00 0. -1.
</event>
<event>
 5    1  0.7220939E+001  0.1599671E+01  0.7818608E-02  0.3353720E+00
         11   -1    0    0    0    0  0.00000000000E+00  0.00000000000E+00  0.39999999674E+01  0.40000000000E+01  0.51100000000E-03 0. -1.
    9000002   -1    0    0    0    0 -0.00000000000E+00 -0.00000000000E+00  0.00000000000E+00  0.93800000000E+00  0.93800000000E+00 0. -1.
         11    1    1    2    0    0 -0.11276512745E+00  0.34324177936E-01  0.84763625639E+00  0.85579296996E+00  0.51100000000E-03 0. -1.
    9000002    1    1    2    0    0  0.50969987903E+00 -0.14380370558E+00  0.19299796848E+00  0.10943334447E+01  0.93800000000E+00 0. -1.
         22    1    1    2    0    0 -0.39693475158E+00  0.10947952765E+00  0.29593657425E+01  0.29878735853E+01  0.00000000000E+00 0. -1.
</event>
<event>
 5    1  0.7220939E+001  0.1599572E+01  0.7818608E-02  0.3353828E+00
         11   -1    0    0    0    0  0.00000000000E+00  0.00000000000E+00  0.39999999674E+01  0.40000000000E+01  0.51100000000E-03 0. -1.
    9000002   -1    0    0    0    0 -0.00000000000E+00 -0.00000000000E+00  0.00000000000E+00  0.93800000000E+00  0.93800000000E+00 0.  1.
         11    1    1    2    0    0 -0.11264049094E-01 -0.13859457716E+00  0.12567578288E+01  0.12644270785E+01  0.51100000000E-03 0. -1.
    9000002    1    1    2    0    0  0.30914891779E-02  0.44275915686E+00  0.13310025269E+00  0.10457556625E+01  0.93800000000E+00 0.  1.
         22    1    1    2    0    0  0.81725599160E-02 -0.30416457970E+00  0.26101418859E+01  0.26278172590E+01  0.00000000000E+00 0. -1.
</event>
<event>
 5    1  0.7220939E+001  0.1599657E+01  0.7818608E-02  0.3353736E+00
         11   -1    0    0    0    0  0.00000000000E+00  0.00000000000E+00  0.39999999674E+01  0.40000000000E+01  0.51100000000E-03 0.  1.
    9000002   -1    0    0    0    0 -0.00000000000E+00 -0.00000000000E+00  0.00000000000E+00  0.93800000000E+00  0.93800000000E+00 0. -1.
         11    1    1    2    0    0  0.24896699219E-02 -0.67677708924E-02  0.91949464637E-01  0.92233217157E-01  0.51100000000E-03 0.  1.
    9000002    1    1    2    0    0 -0.90499350462E-01  0.35270519716E+00  0.89061883881E-01  0.10101322229E+01  0.93800000000E+00 0. -1.
         22    1    1    2    0    0  0.88009680540E-01 -0.34593742626E+00  0.38189886188E+01  0.38356345600E+01  0.00000000000E+00 0.  1.
</event>
<event>
 5    1  0.7220939E+001  0.1599503E+01  0.7818608E-02  0.3353903E+00
         11   -1    0    0    0    0  0.00000000000E+00  0.00000000000E+00  0.39999999674E+01  0.40000000000E+01  0.51100000000E-03 0.  1.
    9000002   -1    0    0    0    0 -0.00000000000E+00 -0.00000000000E+00  0.00000000000E+00  0.93800000000E+00  0.93800000000E+00 0.  1.
         11    1    1    2    0    0 -0.37838901817E-01  0.90801035998E-01  0.11109941218E+01  0.11153406701E+01  0.51100000000E-03 0.  1.
    9000002    1    1    2    0    0  0.93841158363E-01 -0.35122754406E+00  0.88896258559E-01  0.10099076668E+01  0.93800000000E+00 0.  1.
         22    1    1    2    0    0 -0.56002256546E-01  0.26042650807E+00  0.28001095870E+01  0.28127516631E+01  0.00000000000E+00 0.  1.
</event>
<event>
 5    1  0.7220939E+001  0.1599677E+01  0.7818608E-02  0.3353715E+00
         11   -1    0    0    0    0  0.00000000000E+00  0.00000000000E+00  0.39999999674E+01  0.40000000000E+01  0.51100000000E-03 0.  1.
    9000002   -1    0    0    0    0 -0.00000000000E+00 -0.00000000000E+00  0.00000000000E+00  0.93800000000E+00  0.93800000000E+00 0. -1.
         11    1    1    2    0    0  0.13855128545E+00 -0.82887330405E-01  0.71430425723E+00  0.73232342668E+00  0.51100000000E-03 0.  1.
    9000002    1    1    2    0    0 -0.68351396018E+00  0.40772317850E+00  0.46595062252E+00  0.13154404231E+01  0.93800000000E+00 0. -1.
         22    1    1    2    0    0  0.54496267473E+00 -0.32483584810E+00  0.28197450876E+01  0.28902361502E+01  0.00000000000E+00 0.  1.
</event>
<event>
 5    1  0.7220939E+001  0.1598536E+01  0.7818608E-02  0.3354954E+00
         11   -1    0    0    0    0  0.00000000000E+00  0.00000000000E+00  0.39999999674E+01  0.40000000000E+01  0.51100000000E-03 0. -1.
    9000002   -1    0    0    0    0 -0.00000000000E+00 -0.00000000000E+00  0.00000000000E+00  0.93800000000E+00  0.93800000000E+00 0.  1.
         11    1    1    2    0    0  0.25827477054E-01  0.12145347735E-01  0.44383804520E+00  0.44475503317E+00  0.51100000000E-03 0. -1.
    9000002    1    1    2    0    0 -0.34790536453E+00  0.85996286562E-01  0.87120870605E-01  0.10079025499E+01  0.93800000000E+00 0.  1.
         22    1    1    2    0    0  0.32207788747E+00 -0.98141634297E-01  0.34690410516E+01  0.34853424169E+01  0.00000000000E+00 0. -1.
</event>
<event>
 5    1  0.7220939E+001  0.1595841E+01  0.7818608E-02  0.3357890E+00
         11   -1    0    0    0    0  0.00000000000E+00  0.00000000000E+00  0.39999999674E+01  0.40000000000E+01  0.51100000000E-03 0.  1.
    9000002   -1    0    0    0    0 -0.00000000000E+00 -0.00000000000E+00  0.00000000000E+00  0.93800000000E+00  0.93800000000E+00 0.  1.
         11    1    1    2    0    0 -0.25795322714E-01  0.22623542024E+00  0.13859009308E+01  0.14044819384E+01  0.51100000000E-03 0.  1.
    9000002    1    1    2    0    0 -0.15912370179E-01 -0.44979716849E+00  0.14090489530E+00  0.10498899399E+01  0.93800000000E+00 0.  1.
         22    1    1    2    0    0  0.41707692894E-01  0.22356174825E+00  0.24731941412E+01  0.24836281217E+01  0.00000000000E+00 0.  1.
</event>
<event>
 5    1  0.7220939E+001  0.1572420E+01  0.7818608E-02  0.3383853E+00
         11   -1    0    0    0    0  0.00000000000E+00  0.00000000000E+00  0.39999999674E+01  0.40000000000E+01  0.51100000000E-03 0.  1.
    9000002   -1    0    0    0    0 -0.00000000000E+00 -0.00000000000E+00  0.00000000000E+00  0.93800000000E+00  0.93800000000E+00 0.  1.
         11    1    1    2    0    0 -0.15832423381E-01  0.97849122033E-01  0.30130398127E+00  0.31718995344E+00  0.51100000000E-03 0.  1.
    9000002    1    1    2    0    0  0.34098896189E+00  0.11123839323E+00  0.10874792527E+00  0.10101076990E+01  0.93800000000E+00 0.  1.
         22    1    1    2    0    0 -0.32515653851E+00 -0.20908751527E+00  0.35899480608E+01  0.36107023476E+01  0.00000000000E+00 0.  1.
</event>
<event>
 5    1  0.7220939E+001  0.1599381E+01  0.7818608E-02  0.3354035E+00
         11   -1    0    0    0    0  0.00000000000E+00  0.00000000000E+00  0.39999999674E+01  0.40000000000E+01  0.51100000000E-03 0. -1.
    9000002   -1    0    0    0    0 -0.00000000000E+00 -0.00000000000E+00  0.00000000000E+00  0.93800000000E+00  0.93800000000E+00 0. -1.
         11    1    1    2    0    0  0.12233632210E+00 -0.10020117958E+00  0.13890611796E+01  0.13980335024E+01  0.51100000000E-03 0. -1.
    9000002    1    1    2    0    0 -0.38422485109E+00  0.30659397208E+00  0.16544099850E+00  0.10718410908E+01  0.93800000000E+00 0. -1.
         22    1    1    2    0    0  0.26188852899E+00 -0.20639279249E+00  0.24454977893E+01  0.24681254068E+01  0.00000000000E+00 0.  1.
</event>
<event>
 5    1  0.7220939E+001  0.1546993E+01  0.7818608E-02  0.3412985E+00
         11   -1    0    0    0    0  0.00000000000E+00  0.00000000000E+00  0.39999999674E+01  0.40000000000E+01  0.51100000000E-03 0.  1.
    9000002   -1    0    0    0    0 -0.00000000000E+00 -0.00000000000E+00  0.00000000000E+00  0.93800000000E+00  0.93800000000E+00 0.  1.
         11    1    1    2    0    0 -0.24005457941E+00 -0.73638207732E-01  0.13249786803E+01  0.13485612894E+01  0.51100000000E-03 0.  1.
    9000002    1    1    2    0    0 -0.59743623076E-01  0.29510771676E+00  0.10295500908E+00  0.99050572885E+00  0.93800000000E+00 0.  1.
         22    1    1    2    0    0  0.29979820249E+00 -0.22146950903E+00  0.25720662779E+01  0.25989329818E+01  0.00000000000E+00 0.  1.
</event>
<event>
 5    1  0.7220939E+001  0.1599675E+01  0.7818608E-02  0.3353716E+00
         11   -1    0    0    0    0  0.00000000000E+00  0.00000000000E+00  0.39999999674E+01  0.40000000000E+01  0.51100000000E-03 0.  1.
    9000002   -1    0    0    0    0 -0.00000000000E+00 -0.00000000000E+00  0.00000000000E+00  0.93800000000E+00  0.93800000000E+00 0.  1.
         11    1    1    2    0    0 -0.51258869430E-01  0.17416685838E-01  0.38939887189E+00  0.39314444571E+00  0.51100000000E-03 0.  1.
    9000002    1    1    2    0    0  0.49372585605E+00 -0.16903166712E+00  0.18713594942E+00  0.10895874398E+01  0.93800000000E+00 0.  1.
         22    1    1    2    0    0 -0.44246698662E+00  0.15161498128E+00  0.34234651460E+01  0.34552681145E+01  0.00000000000E+00 0.  1.
</event>
<event>
 5    1  0.7220939E+001  0.1599672E+01  0.7818608E-02  0.3353720E+00
         11   -1    0    0    0    0  0.00000000000E+00  0.00000000000E+00  0.39999999674E+01  0.40000000000E+01  0.51100000000E-03 0.  1.
    9000002   -1    0    0    0    0 -0.00000000000E+00 -0.00000000000E+00  0.00000000000E+00  0.93800000000E+00  0.93800000000E+00 0. -1.
         11    1    1    2    0    0  0.12727305374E-01 -0.34804429048E-01  0.32237407287E+00  0.32449751396E+00  0.51100000000E-03 0.  1.
    9000002    1    1    2    0    0 -0.15561072010E+00  0.40111706826E+00  0.12537166068E+00  0.10395535830E+01  0.93800000000E+00 0. -1.
         22    1    1    2    0    0  0.14288341473E+00 -0.36631263922E+00  0.35522542338E+01  0.35739489030E+01  0.00000000000E+00 0.  1.
</event>
<event>
 5    1  0.7220939E+001  0.1599421E+01  0.7818608E-02  0.3353992E+00
         11   -1    0    0    0    0  0.00000000000E+00  0.00000000000E+00  0.39999999674E+01  0.40000000000E+01  0.51100000000E-03 0.  1.
    9000002   -1    0    0    0    0 -0.00000000000E+00 -0.00000000000E+00  0.00000000000E+00  0.93800000000E+00  0.93800000000E+00 0.  1.
         11    1    1    2    0    0 -0.13723042233E+00 -0.24420356501E-02  0.60675564562E+00  0.62208586784E+00  0.51100000000E-03 0.  1.
    9000002    1    1    2    0    0  0.78933388965E+00 -0.69597861456E-01  0.46166539825E+00  0.13118196490E+01  0.93800000000E+00 0.  1.
         22    1    1    2    0    0 -0.65210346732E+00  0.72039897107E-01  0.29315789235E+01  0.30040944831E+01  0.00000000000E+00 0.  1.
</event>
<event>
 5    1  0.7220939E+001  0.1599677E+01  0.7818608E-02  0.3353714E+00
         11   -1    0    0    0    0  0.00000000000E+00  0.00000000000E+00  0.39999999674E+01  0.40000000000E+01  0.51100000000E-03 0.  1.
    9000002   -1    0    0    0    0 -0.00000000000E+00 -0.00000000000E+00  0.00000000000E+00  0.93800000000E+00  0.93800000000E+00 0. -1.
         11    1    1    2    0    0 -0.15082675879E+00  0.63116067483E-02  0.11463069835E+01  0.11562043544E+01  0.51100000000E-03 0.  1.
    9000002    1    1    2    0    0  0.50176717398E+00 -0.21752580043E-01  0.17274016729E+00  0.10779270091E+01  0.93800000000E+00 0. -1.
         22    1    1    2    0    0 -0.35094041520E+00  0.15440973295E-01  0.26809528165E+01  0.27038686364E+01  0.00000000000E+00 0.  1.
</event>
<event>
 5    1  0.7220939E+001  0.1592487E+01  0.7818608E-02  0.3361559E+00
         11   -1    0    0    0    0  0.00000000000E+00  0.00000000000E+00  0.39999999674E+01  0.40000000000E+01  0.51100000000E-03 0. -1.
    9000002   -1    0    0    0    0 -0.00000000000E+00 -0.00000000000E+00  0.00000000000E+00  0.93800000000E+00  0.93800000000E+00 0. -1.
         11    1    1    2    0    0 -0.37589841049E-01  0.14831554947E-01  0.75298503678E-01  0.85458159057E-01  0.51100000000E-03 0. -1.
    9000002    1    1    2    0    0  0.66755746503E+00  0.18761118423E+00  0.35106731035E+00  0.12181638568E+01  0.93800000000E+00 0. -1.
         22    1    1    2    0    0 -0.62996762398E+00 -0.20244273917E+00  0.35736341533E+01  0.36343779842E+01  0.00000000000E+00 0. -1.
</event>
<event>
 5    1  0.7220939E+001  0.1594836E+01  0.7818608E-02  0.3358987E+00
         11   -1    0    0    0    0  0.00000000000E+00  0.00000000000E+00  0.39999999674E+01  0.40000000000E+01  0.51100000000E-03 0.  1.
    9000002   -1    0    0    0    0 -0.00000000000E+00 -0.00000000000E+00  0.00000000000E+00  0.93800000000E+00  0.93800000000E+00 0.  1.
         11    1    1    2    0    0 -0.17257638381E+00 -0.11307846139E+00  0.14680900434E+01  0.14825174479E+01  0.51100000000E-03 0.  1.
    9000002    1    1    2    0    0  0.57248235492E+00  0.12591958032E+00  0.24378348610E+00  0.11326368242E+01  0.93800000000E+00 0.  1.
         22    1    1    2    0    0 -0.39990597111E+00 -0.12841118925E-01  0.22881264379E+01  0.23228457279E+01  0.00000000000E+00 0.  1.
</event>
<event>
 5    1  0.7220939E+001  0.1599595E+01  0.7818608E-02  0.3353803E+00
         11   -1    0    0    0    0  0.00000000000E+00  0.00000000000E+00  0.39999999674E+01  0.40000000000E+01  0.51100000000E-03 0.  1.
    9000002   -1    0    0    0    0 -0.00000000000E+00 -0.00000000000E+00  0.00000000000E+00  0.93800000000E+00  0.93800000000E+00 0.  1.
         11    1    1    2    0    0  0.44114994459E-01  0.30864154773E-01  0.50505859127E+00  0.50792043720E+00  0.51100000000E-03 0.  1.
    9000002    1    1    2    0    0 -0.39330782304E+00 -0.23545325335E+00  0.14296690002E+00  0.10537612693E+01  0.93800000000E+00 0.  1.
         22    1    1    2    0    0  0.34919282858E+00  0.20458909858E+00  0.33519744761E+01  0.33763182935E+01  0.00000000000E+00 0.  1.
</event>
<event>
 5    1  0.7220939E+001  0.1599379E+01  0.7818608E-02  0.3354038E+00
         11   -1    0    0    0    0  0.00000000000E+00  0.00000000000E+00  0.39999999674E+01  0.40000000000E+01  0.51100000000E-03 0.  1.
    9000002   -1    0    0    0    0 -0.00000000000E+00 -0.00000000000E+00  0.00000000000E+00  0.93800000000E+00  0.93800000000E+00 0. -1.
         11    1    1    2    0    0 -0.34245966896E-03  0.69137783587E-01  0.37488182165E+00  0.38120439625E+00  0.51100000000E-03 0.  1.
    9000002    1    1    2    0    0  0.80388141386E-01 -0.59246128495E+00  0.24959156354E+00  0.11400055158E+01  0.93800000000E+00 0. -1.
         22    1    1    2    0    0 -0.80045681717E-01  0.52332350137E+00  0.33755265822E+01  0.34167900880E+01  0.00000000000E+00 0.  1.
</event>
<event>
 5    1  0.7220939E+001  0.1538544E+01  0.7818608E-02  0.3422892E+00
         11   -1    0    0    0    0  0.00000000000E+00  0.00000000000E+00  0.39999999674E+01  0.40000000000E+01  0.51100000000E-03 0.  1.
    9000002   -1    0    0    0    0 -0.00000000000E+00 -0.00000000000E+00  0.00000000000E+00  0.93800000000E+00  0.93800000000E+00 0. -1.
         11    1    1    2    0    0 -0.21285138786E-01  0.16383845767E+00  0.13133783589E+01  0.13237292292E+01  0.51100000000E-03 0.  1.
    9000002    1    1    2    0    0  0.90284005821E-05  0.34552384594E+00  0.13084313503E+00  0.10081421795E+01  0.93800000000E+00 0. -1.
         22    1    1    2    0    0  0.21276110385E-01 -0.50936230361E+00  0.25557784734E+01  0.26061285913E+01  0.00000000000E+00 0.  1.
</event>
<event>
 5    1  0.7220939E+001  0.1599677E+01  0.7818608E-02  0.3353715E+00
         11   -1    0    0    0    0  0.00000000000E+00  0.00000000000E+00  0.39999999674E+01  0.40000000000E+01  0.51100000000E-03 0. -1.
    9000002   -1    0    0    0    0 -0.00000000000E+00 -0.00000000000E+00  0.00000000000E+00  0.93800000000E+00  0.93800000000E+00 0.  1.
         11    1    1    2    0    0  0.45805930363E-01 -0.80182093332E-02  0.47741980229E+00  0.47967948015E+00  0.51100000000E-03 0. -1.
    9000002    1    1    2    0    0 -0.37513225425E+00  0.62486175061E-01  0.97315967808E-01  0.10168299405E+01  0.93800000000E+00 0.  1.
         22    1    1    2    0    0  0.32932632389E+00 -0.54467965728E-01  0.34252641973E+01  0.34414905794E+01  0.00000000000E+00 0. -1.
</event>
<event>
 5    1  0.7220939E+001  0.1599674E+01  0.7818608E-02  0.3353718E+00
         11   -1    0    0    0    0  0.00000000000E+00  0.00000000000E+00  0.39999999674E+01  0.40000000000E+01  0.51100000000E-03 0.  1.
    9000002   -1    0    0    0    0 -0.00000000000E+00 -0.00000000000E+00  0.00000000000E+00  0.93800000000E+00  0.93800000000E+00 0. -1.
         11    1    1    2    0    0 -0.88662555695E-01 -0.11991126175E+00  0.12972379753E+01  0.13057819057E+01  0.51100000000E-03 0.  1.
    9000002    1    1    2    0    0  0.25915525786E+00  0.35432274579E+00  0.13067644921E+00  0.10438517089E+01  0.93800000000E+00 0. -1.
         22    1    1    2    0    0 -0.17049270216E+00 -0.23441148404E+00  0.25720855428E+01  0.25883663854E+01  0.00000000000E+00 0.  1.
</event>
<event>
 5    1  0.7220939E+001  0.1599592E+01  0.7818608E-02  0.3353807E+00
         11   -1    0    0    0    0  0.00000000000E+00  0.00000000000E+00  0.39999999674E+01  0.40000000000E+01  0.51100000000E-03 0. -1.
    9000002   -1    0    0    0    0 -0.00000000000E+00 -0.00000000000E+00  0.00000000000E+00  0.93800000000E+00  0.93800000000E+00 0. -1.
         11    1    1    2    0    0  0.11191020079E+00 -0.64664556991E-01  0.14770051283E+01  0.14826495905E+01  0.51100000000E-03 0. -1.
    9000002    1    1    2    0    0 -0.32376648340E+00  0.16298332981E+00  0.88290197430E-01  0.10094689002E+01  0.93800000000E+00 0. -1.
         22    1    1    2    0    0  0.21185628261E+00 -0.98318772824E-01  0.24347046416E+01  0.24458815093E+01  0.00000000000E+00 0. -1.
</event>
<event>
 5    1  0.7220939E+001  0.1599661E+01  0.7818608E-02  0.3353732E+00
         11   -1    0    0    0    0  0.00000000000E+00  0.00000000000E+00  0.39999999674E+01  0.40000000000E+01  0.51100000000E-03 0.  1.
    9000002   -1    0    0    0    0 -0.00000000000E+00 -0.00000000000E+00  0.00000000000E+00  0.93800000000E+00  0.93800000000E+00 0. -1.
         11    1    1    2    0    0 -0.31678301399E-01 -0.87186299897E-01  0.10533438803E+01  0.10574207096E+01  0.51100000000E-03 0.  1.
    9000002    1    1    2    0    0  0.11583912731E+00  0.33984299735E+00  0.86537489031E-01  0.10080896306E+01  0.93800000000E+00 0. -1.
         22    1    1    2    0    0 -0.84160825914E-01 -0.25265669745E+00  0.28601185980E+01  0.28724896599E+01  0.00000000000E+00 0. -1.
</event>
<event>
 5    1  0.7220939E+001  0.1596164E+01  0.7818608E-02  0.3357537E+00
         11   -1    0    0    0    0  0.00000000000E+00  0.00000000000E+00  0.39999999674E+01  0.40000000000E+01  0.51100000000E-03 0.  1.
    9000002   -1    0    0    0    0 -0.00000000000E+00 -0.00000000000E+00  0.00000000000E+00  0.93800000000E+00  0.93800000000E+00 0. -1.
         11    1    1    2    0    0  0.72963288482E-01 -0.24417978090E-01  0.52292260608E+00  0.52855292279E+00  0.51100000000E-03 0.  1.
    9000002    1    1    2    0    0 -0.39490809456E+00 -0.14974254807E+00  0.12365039273E+00  0.10361026269E+01  0.93800000000E+00 0. -1.
         22    1    1    2    0    0  0.32194480608E+00  0.17416052616E+00  0.33534269686E+01  0.33733444503E+01  0.00000000000E+00 0.  1.
</event>
<event>
 5    1  0.7220939E+001  0.1546745E+01  0.7818608E-02  0.3413273E+00
         11   -1    0    0    0    0  0.00000000000E+00  0.00000000000E+00  0.39999999674E+01  0.40000000000E+01  0.51100000000E-03 0.  1.
    9000002   -1    0    0    0    0 -0.00000000000E+00 -0.00000000000E+00  0.00000000000E+00  0.93800000000E+00  0.93800000000E+00 0. -1.
         11    1    1    2    0    0  0.13044882581E+00  0.69334926523E-01  0.51644016313E+00  0.53715447629E+00  0.51100000000E-03 0.  1.
    9000002    1    1    2    0    0  0.42919353112E+00 -0.32952618923E+00  0.25324522210E+00  0.11121023959E+01  0.93800000000E+00 0. -1.
         22    1    1    2    0    0 -0.55964235693E+00  0.26019126271E+00  0.32303145821E+01  0.32887431278E+01  0.00000000000E+00 0.  1.
</event>
<event>
 5    1  0.7220939E+001  0.1599675E+01  0.7818608E-02  0.3353717E+00
         11   -1    0    0    0    0  0.00000000000E+00  0.00000000000E+00  0.39999999674E+01  0.40000000000E+01  0.51100000000E-03 0.  1.
    9000002   -1    0    0    0    0 -0.00000000000E+00 -0.00000000000E+00  0.00000000000E+00  0.93800000000E+00  0.93800000000E+00 0.  1.
         11    1    1    2    0    0 -0.11152966471E-01  0.15860461539E+00  0.96679197000E+00  0.97977894806E+00  0.51100000000E-03 0.  1.
    9000002    1    1    2    0    0  0.38171065866E-01 -0.60957604662E+00  0.26087930472E+00  0.11493224084E+01  0.93800000000E+00 0.  1.
         22    1    1    2    0    0 -0.27018099395E-01  0.45097143124E+00  0.27723286926E+01  0.28088986435E+01  0.00000000000E+00 0.  1.
</event>
<event>
 5    1  0.7220939E+001  0.1546492E+01  0.7818608E-02  0.3413568E+00
         11   -1    0    0    0    0  0.00000000000E+00  0.00000000000E+00  0.39999999674E+01  0.40000000000E+01  0.51100000000E-03 0.  1.
    9000002   -1    0    0    0    0 -0.00000000000E+00 -0.00000000000E+00  0.00000000000E+00  0.93800000000E+00  0.93800000000E+00 0.  1.
         11    1    1    2    0    0 -0.73358568112E-01  0.26229769077E+00  0.13570641005E+00  0.30429927530E+00  0.51100000000E-03 0.  1.
    9000002    1    1    2    0    0  0.22624770575E+00  0.21494229384E+00  0.29817143650E+00  0.10325397908E+01  0.93800000000E+00 0.  1.
         22    1    1    2    0    0 -0.15288913763E+00 -0.47723998461E+00  0.35661221208E+01  0.36011609339E+01  0.00000000000E+00 0.  1.
</event>
<event>
 5    1  0.7220939E+001  0.1599676E+01  0.7818608E-02  0.3353715E+00
         11   -1    0    0    0    0  0.00000000000E+00  0.00000000000E+00  0.39999999674E+01  0.40000000000E+01  0.51100000000E-03 0. -1.
    9000002   -1    0    0    0    0 -0.00000000000E+00 -0.00000000000E+00  0.00000000000E+00  0.93800000000E+00  0.93800000000E+00 0.  1.
         11    1    1    2    0    0 -0.14043519575E+00 -0.76583024386E-01  0.13724911279E+01  0.13817811553E+01  0.51100000000E-03 0. -1.
    9000002    1    1    2    0    0  0.39663011279E+00  0.21313399678E+00  0.13770494785E+00  0.10495466639E+01  0.93800000000E+00 0.  1.
         22    1    1    2    0    0 -0.25619491704E+00 -0.13655097239E+00  0.24898038916E+01  0.25066721809E+01  0.00000000000E+00 0. -1.
</event>
<event>
 5    1  0.7220939E+001  0.1541688E+01  0.7818608E-02  0.3419192E+00
         11   -1    0    0    0    0  0.00000000000E+00  0.00000000000E+00  0.39999999674E+01  0.40000000000E+01  0.51100000000E-03 0.  1.
    9000002   -1    0    0    0    0 -0.00000000000E+00 -0.00000000000E+00  0.00000000000E+00  0.93800000000E+00  0.93800000000E+00 0.  1.
         11    1    1    2    0    0  0.29821828261E+00  0.65175558408E-02  0.14551640487E+01  0.14854222606E+01  0.51100000000E-03 0.  1.
    9000002    1    1    2    0    0 -0.53788509692E-01  0.59664748923E-01  0.47706798638E-01  0.94264151440E+00  0.93800000000E+00 0.  1.
         22    1    1    2    0    0 -0.24442977292E+00 -0.66182304764E-01  0.24971291201E+01  0.25099362250E+01  0.00000000000E+00 0.  1.
</event>
<event>
 5    1  0.7220939E+001  0.1599675E+01  0.7818608E-02  0.3353716E+00
         11   -1    0    0    0    0  0.00000000000E+00  0.00000000000E+00  0.39999999674E+01  0.40000000000E+01  0.51100000000E-03 0.  1.
    9000002   -1    0    0    0    0 -0.00000000000E+00 -0.00000000000E+00  0.00000000000E+00  0.93800000000E+00  0.93800000000E+00 0.  1.
         11    1    1    2    0    0  0.11092320525E-01  0.15430068982E-01  0.17210271562E+00  0.17314945120E+00  0.51100000000E-03 0. -1.
    9000002    1    1    2    0    0 -0.24025897197E+00 -0.34503447420E+00  0.11956114781E+00  0.10348487958E+01  0.93800000000E+00 0.  1.
         22    1    1    2    0    0  0.22916665145E+00  0.32960440522E+00  0.37083361039E+01  0.37300017531E+01  0.00000000000E+00 0.  1.
</event>
<event>
 5    1  0.7220939E+001  0.1599105E+01  0.7818608E-02  0.3354335E+00
         11   -1    0    0    0    0  0.00000000000E+00  0.00000000000E+00  0.39999999674E+01  0.40000000000E+01  0.51100000000E-03 0.  1.
    9000002   -1    0    0    0    0 -0.00000000000E+00 -0.00000000000E+00  0.00000000000E+00  0.93800000000E+00  0.93800000000E+00 0.  1.
         11    1    1    2    0    0  0.87746072931E-02  0.26275042433E-01  0.12298179726E+00  0.12606409151E+00  0.51100000000E-03 0.  1.
    9000002    1    1    2    0    0 -0.66044940213E-01 -0.56295065393E+00  0.22317831138E+00  0.11184488954E+01  0.93800000000E+00 0.  1.
         22    1    1    2    0    0  0.57270332920E-01  0.53667561149E+00  0.36538398587E+01  0.36934870131E+01  0.00000000000E+00 0.  1.
</event>
<event>
 5    1  0.7220939E+001  0.1599619E+01  0.7818608E-02  0.3353777E+00
         11   -1    0    0    0    0  0.00000000000E+00  0.00000000000E+00  0.39999999674E+01  0.40000000000E+01  0.51100000000E-03 0.  1.
    9000002   -1    0    0    0    0 -0.00000000000E+00 -0.00000000000E+00  0.00000000000E+00  0.93800000000E+00  0.93800000000E+00 0.  1.
         11    1    1    2    0    0  0.83178675630E-01 -0.79588913893E-01  0.12836028030E+01  0.12887550210E+01  0.51100000000E-03 0.  1.
    9000002    1    1    2    0    0 -0.26721886865E+00  0.26427713995E+00  0.95037387221E-01  0.10149504596E+01  0.93800000000E+00 0.  1.
         22    1    1    2    0    0  0.18404019302E+00 -0.18468822606E+00  0.26213597772E+01  0.26342945194E+01  0.00000000000E+00 0.  1.
</event>
<event>
 5    1  0.7220939E+001  0.1599676E+01  0.7818608E-02  0.3353715E+00
         11   -1    0    0    0    0  0.00000000000E+00  0.00000000000E+00  0.39999999674E+01  0.40000000000E+01  0.51100000000E-03 0.  1.
    9000002   -1    0    0    0    0 -0.00000000000E+00 -0.00000000000E+00  0.00000000000E+00  0.93800000000E+00  0.93800000000E+00 0. -1.
         11    1    1    2    0    0  0.18633707908E-01 -0.10386520983E-01  0.20447898004E+00  0.20558941920E+00  0.51100000000E-03 0.  1.
    9000002    1    1    2    0    0 -0.34896758669E+00  0.20321236822E+00  0.11005184383E+00  0.10271460712E+01  0.93800000000E+00 0. -1.
         22    1    1    2    0    0  0.33033387878E+00 -0.19282584724E+00  0.36854691435E+01  0.37052645096E+01  0.00000000000E+00 0. -1.
</event>
<event>
 5    1  0.7220939E+001  0.1599674E+01  0.7818608E-02  0.3353717E+00
         11   -1    0    0    0    0  0.00000000000E+00  0.00000000000E+00  0.39999999674E+01  0.40000000000E+01  0.51100000000E-03 0. -1.
    9000002   -1    0    0    0    0 -0.00000000000E+00 -0.00000000000E+00  0.00000000000E+00  0.93800000000E+00  0.93800000000E+00 0.  1.
         11    1    1    2    0    0  0.10022441201E+00 -0.53704023951E-01  0.10720698843E+01  0.10780830918E+01  0.51100000000E-03 0. -1.
    9000002    1    1    2    0    0 -0.36493855589E+00  0.20059533840E+00  0.11722957992E+00  0.10329595412E+01  0.93800000000E+00 0.  1.
         22    1    1    2    0    0  0.26471414389E+00 -0.14689131445E+00  0.28107005031E+01  0.28269573669E+01  0.00000000000E+00 0. -1.
</event>
<event>
 5    1  0.7220939E+001  0.1599663E+01  0.7818608E-02  0.3353729E+00
         11   -1    0    0    0    0  0.00000000000E+00  0.00000000000E+00  0.39999999674E+01  0.40000000000E+01  0.51100000000E-03 0.  1.
    9000002   -1    0    0    0    0 -0.00000000000E+00 -0.00000000000E+00  0.00000000000E+00  0.93800000000E+00  0.93800000000E+00 0. -1.
         11    1    1    2    0    0  0.16484085016E-01 -0.43372728981E-01  0.40949808961E+00  0.41211875133E+00  0.51100000000E-03 0.  1.
    9000002    1    1    2    0    0 -0.17033474685E+00  0.38888307689E+00  0.12198764212E+00  0.10368070979E+01  0.93800000000E+00 0. -1.
         22    1    1    2    0    0  0.15385066183E+00 -0.34551034791E+00  0.34685142356E+01  0.34890741507E+01  0.00000000000E+00 0.  1.
</event>
<event>
 5    1  0.7220939E+001  0.1559381E+01  0.7818608E-02  0.3398665E+00
         11   -1    0    0    0    0  0.00000000000E+00  0.00000000000E+00  0.39999999674E+01  0.40000000000E+01  0.51100000000E-03 0.  1.
    9000002   -1    0    0    0    0 -0.00000000000E+00 -0.00000000000E+00  0.00000000000E+00  0.93800000000E+00  0.93800000000E+00 0. -1.
         11    1    1    2    0    0 -0.13988899179E+00 -0.91050079290E-01  0.91974443295E+00  0.93476688539E+00  0.51100000000E-03 0.  1.
    9000002    1    1    2    0    0 -0.22743950641E+00  0.99786010422E-01  0.72403921764E-01  0.97302225300E+00  0.93800000000E+00 0. -1.
         22    1    1    2    0    0  0.36732849820E+00 -0.87359311322E-02  0.30078516126E+01  0.30302108616E+01  0.00000000000E+00 0.  1.
</event>
<event>
 5    1  0.7220939E+001  0.1599676E+01  0.7818608E-02  0.3353715E+00
         11   -1    0    0    0    0  0.00000000000E+00  0.00000000000E+00  0.39999999674E+01  0.40000000000E+01  0.51100000000E-03 0. -1.
    9000002   -1    0    0    0    0 -0.00000000000E+00 -0.00000000000E+00  0.00000000000E+00  0.93800000000E+00  0.93800000000E+00 0.  1.
         11    1    1    2    0    0 -0.55294339298E-01 -0.51288624020E-01  0.82259609089E+00  0.82604635269E+00  0.51100000000E-03 0. -1.
    9000002    1    1    2    0    0  0.26610695244E+00  0.24207942431E+00  0.86869651396E-01  0.10083678367E+01  0.93800000000E+00 0.  1.
         22    1    1    2    0    0 -0.21081261314E+00 -0.19079080029E+00  0.30905342251E+01  0.31035858106E+01  0.00000000000E+00 0. -1.
</event>
<event>
 5    1  0.7220939E+001  0.1599626E+01  0.7818608E-02  0.3353769E+00
         11   -1    0    0    0    0  0.00000000000E+00  0.00000000000E+00  0.39999999674E+01  0.40000000000E+01  0.51100000000E-03 0. -1.
    9000002   -1    0    0    0    0 -0.00000000000E+00 -0.00000000000E+00  0.00000000000E+00  0.93800000000E+00  0.93800000000E+00 0. -1.
         11    1    1    2    0    0 -0.11974169673E+00  0.84181339139E-01  0.11084089473E+01  0.11180318543E+01  0.51100000000E-03 0. -1.
    9000002    1    1    2    0    0  0.38776561354E+00 -0.29523208424E+00  0.16230497401E+00  0.10694442759E+01  0.93800000000E+00 0. -1.
         22    1    1    2    0    0 -0.26802391681E+00  0.21105074510E+00  0.27292860461E+01  0.27505238698E+01  0.00000000000E+00 0. -1.
</event>
<event>
 5    1  0.7220939E+001  0.1599677E+01  0.7818608E-02  0.3353715E+00
         11   -1    0    0    0    0  0.00000000000E+00  0.00000000000E+00  0.39999999674E+01  0.40000000000E+01  0.51100000000E-03 0.  1.
    9000002   -1    0    0    0    0 -0.00000000000E+00 -0.00000000000E+00  0.00000000000E+00  0.93800000000E+00  0.93800000000E+00 0. -1.
         11    1    1    2    0    0  0.10080013703E-02  0.95483452038E-01  0.89127400722E+00  0.89637476691E+00  0.51100000000E-03 0.  1.
    9000002    1    1    2    0    0 -0.16902834219E-02 -0.41524049603E+00  0.11653907246E+00  0.10324015120E+01  0.93800000000E+00 0. -1.
         22    1    1    2    0    0  0.68228205158E-03  0.31975704399E+00  0.29921868877E+01  0.30092237211E+01  0.00000000000E+00 0.  1.
</event>
<event>
 5    1  0.7220939E+001  0.1599677E+01  0.7818608E-02  0.3353714E+00
         11   -1    0    0    0    0  0.00000000000E+00  0.00000000000E+00  0.39999999674E+01  0.40000000000E+01  0.51100000000E-03 0. -1.
    9000002   -1    0    0    0    0 -0.00000000000E+00 -0.00000000000E+00  0.00000000000E+00  0.93800000000E+00  0.93800000000E+00 0. -1.
         11    1    1    2    0    0  0.53913135063E-01  0.30701154830E+00  0.13582587810E+01  0.13935673267E+01  0.51100000000E-03 0. -1.
    9000002    1    1    2    0    0 -0.13970946428E+00 -0.79585304936E+00  0.48226282765E+00  0.13286542987E+01  0.93800000000E+00 0. -1.
         22    1    1    2    0    0  0.85796329219E-01  0.48884150106E+00  0.21594783587E+01  0.22157783746E+01  0.00000000000E+00 0. -1.
</event>
<event>
 5    1  0.7220939E+001  0.1598561E+01  0.7818608E-02  0.3354927E+00
         11   -1    0    0    0    0  0.00000000000E+00  0.00000000000E+00  0.39999999674E+01  0.40000000000E+01  0.51100000000E-03 0. -1.
    9000002   -1    0    0    0    0 -0.00000000000E+00 -0.00000000000E+00  0.00000000000E+00  0.93800000000E+00  0.93800000000E+00 0.  1.
         11    1    1    2    0    0 -0.10206247627E+00 -0.93089905807E-02  0.13021625336E+01  0.13061894700E+01  0.51100000000E-03 0. -1.
    9000002    1    1    2    0    0  0.38856088292E+00 -0.49712837224E-01  0.10432086965E+00  0.10218501699E+01  0.93800000000E+00 0.  1.
         22    1    1    2    0    0 -0.28649840665E+00  0.59021827805E-01  0.25935165641E+01  0.26099603601E+01  0.00000000000E+00 0. -1.
</event>
<event>
 5    1  0.7220939E+001  0.1599669E+01  0.7818608E-02  0.3353723E+00
         11   -1    0    0    0    0  0.00000000000E+00  0.00000000000E+00  0.39999999674E+01  0.40000000000E+01  0.51100000000E-03 0. -1.
    9000002   -1    0    0    0    0 -0.00000000000E+00 -0.00000000000E+00  0.00000000000E+00  0.93800000000E+00  0.93800000000E+00 0.  1.
         11    1    1    2    0    0  0.44756274439E-01 -0.89923125341E-01  0.99540208789E+00  0.10004573306E+01  0.51100000000E-03 0. -1.
    9000002    1    1    2    0    0 -0.18614054589E+00  0.35463799529E+00  0.10821793057E+00  0.10256566341E+01  0.93800000000E+00 0.  1.
         22    1    1    2    0    0  0.14138427145E+00 -0.26471486995E+00  0.28963799489E+01  0.29118860354E+01  0.00000000000E+00 0. -1.
</event>
<event>
 5    1  0.7220939E+001  0.1599365E+01  0.7818608E-02  0.3354053E+00
         11   -1    0    0    0    0  0.00000000000E+00  0.00000000000E+00  0.39999999674E+01  0.40000000000E+01  0.51100000000E-03 0.  1.
    9000002   -1    0    0    0    0 -0.00000000000E+00 -0.00000000000E+00  0.00000000000E+00  0.93800000000E+00  0.93800000000E+00 0.  1.
         11    1    1    2    0    0  0.14885991803E-01 -0.12974539979E-01  0.22311976068E+00  0.22399245560E+00  0.51100000000E-03 0.  1.
    9000002    1    1    2    0    0 -0.14546495168E+00  0.35554901856E+00  0.99601689284E-01  0.10184987252E+01  0.93800000000E+00 0.  1.
         22    1    1    2    0    0  0.13057895987E+00 -0.34257447858E+00  0.36772785174E+01  0.36955088192E+01  0.00000000000E+00 0.  1.
</event>
<event>
 5    1  0.7220939E+001  0.1343833E+01  0.7818608E-02  0.3701364E+00
         11   -1    0    0    0    0  0.00000000000E+00  0.00000000000E+00  0.39999999674E+01  0.40000000000E+01  0.51100000000E-03 0. -1.
    9000002   -1    0    0    0    0 -0.00000000000E+00 -0.00000000000E+00  0.00000000000E+00  0.93800000000E+00  0.93800000000E+00 0. -1.
         11    1    1    2    0    0  0.30659361207E+00  0.48865959439E+00  0.43480988687E+00  0.72239029686E+00  0.51100000000E-03 0. -1.
    9000002    1    1    2    0    0 -0.11870654152E+00 -0.73443398929E+00  0.81550824562E+00  0.14485793821E+01  0.93800000000E+00 0. -1.
         22    1    1    2    0    0 -0.18788707054E+00  0.24577439490E+00  0.27496818349E+01  0.27670303210E+01  0.00000000000E+00 0. -1.
</event>
<event>
 5    1  0.7220939E+001  0.1599675E+01  0.7818608E-02  0.3353717E+00
         11   -1    0    0    0    0  0.00000000000E+00  0.00000000000E+00  0.39999999674E+01  0.40000000000E+01  0.51100000000E-03 0. -1.
    9000002   -1    0    0    0    0 -0.00000000000E+00 -0.00000000000E+00  0.00000000000E+00  0.93800000000E+00  0.93800000000E+00 0.  1.
         11    1    1    2    0    0  0.55645393592E-01  0.73770151493E-01  0.64305310655E+00  0.64965837487E+00  0.51100000000E-03 0. -1.
    9000002    1    1    2    0    0 -0.32700981983E+00 -0.42811435102E+00  0.20003246907E+00  0.11000337761E+01  0.93800000000E+00 0.  1.
         22    1    1    2    0    0  0.27136442624E+00  0.35434419953E+00  0.31569143917E+01  0.31883078491E+01  0.00000000000E+00 0. -1.
</event>
<event>
 5    1  0.7220939E+001  0.1599442E+01  0.7818608E-02  0.3353969E+00
         11   -1    0    0    0    0  0.00000000000E+00  0.00000000000E+00  0.39999999674E+01  0.40000000000E+01  0.51100000000E-03 0. -1.
    9000002   -1    0    0    0    0 -0.00000000000E+00 -0.00000000000E+00  0.00000000000E+00  0.93800000000E+00  0.93800000000E+00 0. -1.
         11    1    1    2    0    0  0.10439659436E+00  0.65437979500E-01  0.13120577383E+01  0.13178302424E+01  0.51100000000E-03 0. -1.
    9000002    1    1    2    0    0 -0.27890602110E+00 -0.23565447646E+00  0.89737100726E-01  0.10105534860E+01  0.93800000000E+00 0. -1.
         22    1    1    2    0    0  0.17450942674E+00  0.17021649696E+00  0.25982051283E+01  0.26096162715E+01  0.00000000000E+00 0. -1.
</event>
<event>
 5    1  0.7220939E+001  0.1599677E+01  0.7818608E-02  0.3353714E+00
         11   -1    0    0    0    0  0.00000000000E+00  0.00000000000E+00  0.39999999674E+01  0.40000000000E+01  0.51100000000E-03 0.  1.
    9000002   -1    0    0    0    0 -0.00000000000E+00 -0.00000000000E+00  0.00000000000E+00  0.93800000000E+00  0.93800000000E+00 0.  1.
         11    1    1    2    0    0  0.12323156114E+00  0.46651603983E-01  0.84633174609E+00  0.85652791862E+00  0.51100000000E-03 0.  1.
    9000002    1    1    2    0    0 -0.54698358865E+00 -0.20816027482E+00  0.23823795818E+00  0.11309832320E+01  0.93800000000E+00 0.  1.
         22    1    1    2    0    0  0.42375202752E+00  0.16150867083E+00  0.29154302631E+01  0.29504888494E+01  0.00000000000E+00 0.  1.
</event>
<event>
 5    1  0.7220939E+001  0.1599463E+01  0.7818608E-02  0.3353946E+00
         11   -1    0    0    0    0  0.00000000000E+00  0.00000000000E+00  0.39999999674E+01  0.40000000000E+01  0.51100000000E-03 0. -1.
    9000002   -1    0    0    0    0 -0.00000000000E+00 -0.00000000000E+00  0.00000000000E+00  0.93800000000E+00  0.93800000000E+00 0. -1.
         11    1    1    2    0    0  0.39590380405E-01  0.13513126223E-01  0.53385024235E+00  0.53548701681E+00  0.51100000000E-03 0. -1.
    9000002    1    1    2    0    0 -0.30401020210E+00 -0.18658327271E+00  0.85549184079E-01  0.10071733632E+01  0.93800000000E+00 0. -1.
         22    1    1    2    0    0  0.26441982169E+00  0.17307014649E+00  0.33806005409E+01  0.33953396200E+01  0.00000000000E+00 0. -1.
</event>
<event>
 5    1  0.7220939E+001  0.1599676E+01  0.7818608E-02  0.3353715E+00
         11   -1    0    0    0    0  0.00000000000E+00  0.00000000000E+00  0.39999999674E+01  0.40000000000E+01  0.51100000000E-03 0. -1.
    9000002   -1    0    0    0    0 -0.00000000000E+00 -0.00000000000E+00  0.00000000000E+00  0.93800000000E+00  0.93800000000E+00 0. -1.
         11    1    1    2    0    0  0.85187802684E-01  0.37080884565E-01  0.57476197966E+00  0.58222293678E+00  0.51100000000E-03 0. -1.
    9000002    1    1    2    0    0 -0.55340101496E+00 -0.23629132205E+00  0.25272228485E+00  0.11427155488E+01  0.93800000000E+00 0. -1.
         22    1    1    2    0    0  0.46821321228E+00  0.19921043748E+00  0.31725157029E+01  0.32130615144E+01  0.00000000000E+00 0. -1.
</event>
<event>
 5    1  0.7220939E+001  0.1597555E+01  0.7818608E-02  0.3356021E+00
         11   -1    0    0    0    0  0.00000000000E+00  0.00000000000E+00  0.39999999674E+01  0.40000000000E+01  0.51100000000E-03 0. -1.
    9000002   -1    0    0    0    0 -0.00000000000E+00 -0.00000000000E+00  0.00000000000E+00  0.93800000000E+00  0.93800000000E+00 0. -1.
         11    1    1    2    0    0  0.31996019791E+00  0.68722806361E-01  0.12274171312E+01  0.12702954096E+01  0.51100000000E-03 0. -1.
    9000002    1    1    2    0    0 -0.82006938925E+00 -0.72854364650E-01  0.50622779508E+00  0.13468229810E+01  0.93800000000E+00 0. -1.
         22    1    1    2    0    0  0.50010919134E+00  0.41315582890E-02  0.22663550410E+01  0.23208816095E+01  0.00000000000E+00 0. -1.
</event>
<event>
 5    1  0.7220939E+001  0.1599674E+01  0.7818608E-02  0.3353717E+00
         11   -1    0    0    0    0  0.00000000000E+00  0.00000000000E+00  0.39999999674E+01  0.40000000000E+01  0.51100000000E-03 0.  1.
    9000002   -1    0    0    0    0 -0.00000000000E+00 -0.00000000000E+00  0.00000000000E+00  0.93800000000E+00  0.93800000000E+00 0.  1.
         11    1    1    2    0    0  0.12844613369E+00 -0.27186089568E+00  0.11143839180E+01  0.11542350427E+01  0.51100000000E-03 0.  1.
    9000002    1    1    2    0    0 -0.38932901582E+00  0.82535245432E+00  0.64097228050E+00  0.14572141987E+01  0.93800000000E+00 0.  1.
         22    1    1    2    0    0  0.26088288213E+00 -0.55349155864E+00  0.22446437688E+01  0.23265507587E+01  0.00000000000E+00 0.  1.
</event>
<event>
 5    1  0.7220939E+001  0.1559638E+01  0.7818608E-02  0.3398371E+00
         11   -1    0    0    0    0  0.00000000000E+00  0.00000000000E+00  0.39999999674E+01  0.40000000000E+01  0.51100000000E-03 0.  1.
    9000002   -1    0    0    0    0 -0.00000000000E+00 -0.00000000000E+00  0.00000000000E+00  0.93800000000E+00  0.93800000000E+00 0. -1.
         11    1    1    2    0    0 -0.72537721977E-01  0.84676031478E-01  0.33247879912E+00  0.35067672350E+00  0.51100000000E-03 0.  1.
    9000002    1    1    2    0    0 -0.92498179957E-01  0.28130443860E+00  0.90437587391E-01  0.98778087534E+00  0.93800000000E+00 0. -1.
         22    1    1    2    0    0  0.16503590193E+00 -0.36598047008E+00  0.35770835808E+01  0.35995424012E+01  0.00000000000E+00 0.  1.
</event>
<event>
 5    1  0.7220939E+001  0.1598038E+01  0.7818608E-02  0.3355495E+00
         11   -1    0    0    0    0  0.00000000000E+00  0.00000000000E+00  0.39999999674E+01  0.40000000000E+01  0.51100000000E-03 0.  1.
    9000002   -1    0    0    0    0 -0.00000000000E+00 -0.00000000000E+00  0.00000000000E+00  0.93800000000E+00  0.93800000000E+00 0. -1.
         11    1    1    2    0    0 -0.10005595484E+00  0.34887360869E-01  0.89173773074E+00  0.89801156095E+00  0.51100000000E-03 0.  1.
    9000002    1    1    2    0    0  0.28200785228E+00 -0.24072275959E+00  0.93735415824E-01  0.10129690044E+01  0.93800000000E+00 0. -1.
         22    1    1    2    0    0 -0.18195189744E+00  0.20583539873E+00  0.30145268208E+01  0.30270194346E+01  0.00000000000E+00 0.  1.
</event>
<event>
 5    1  0.7220939E+001  0.1534988E+01  0.7818608E-02  0.3427095E+00
         11   -1    0    0    0    0  0.00000000000E+00  0.00000000000E+00  0.39999999674E+01  0.40000000000E+01  0.51100000000E-03 0.  1.
    9000002   -1    0    0    0    0 -0.00000000000E+00 -0.00000000000E+00  0.00000000000E+00  0.93800000000E+00  0.93800000000E+00 0. -1.
         11    1    1    2    0    0  0.31821949843E+00 -0.11314706015E-01  0.12295873199E+01  0.12701483812E+01  0.51100000000E-03 0.  1.
    9000002    1    1    2    0    0 -0.15808637392E+00 -0.27442743846E+00  0.11999303816E+00  0.99726829379E+00  0.93800000000E+00 0. -1.
         22    1    1    2    0    0 -0.16013312451E+00  0.28574214448E+00  0.26504196093E+01  0.26705833250E+01  0.00000000000E+00 0.  1.
</event>
<event>
 5    1  0.7220939E+001  0.1599649E+01  0.7818608E-02  0.3353744E+00
         11   -1    0    0    0    0  0.00000000000E+00  0.00000000000E+00  0.39999999674E+01  0.40000000000E+01  0.51100000000E-03 0.  1.
    9000002   -1    0    0    0    0 -0.00000000000E+00 -0.00000000000E+00  0.00000000000E+00  0.93800000000E+00  0.93800000000E+00 0.  1.
         11    1    1    2    0    0  0.34202396271E-02  0.79775229152E-01  0.60416537199E+00  0.60941926706E+00  0.51100000000E-03 0.  1.
    9000002    1    1    2    0    0 -0.47902210728E-01 -0.49284231834E+00  0.16773471939E+00  0.10738561862E+01  0.93800000000E+00 0.  1.
         22    1    1    2    0    0  0.44481971101E-01  0.41306708919E+00  0.32280998760E+01  0.32547245467E+01  0.00000000000E+00 0.  1.
</event>
<event>
 5    1  0.7220939E+001  0.1596063E+01  0.7818608E-02  0.3357647E+00
         11   -1    0    0    0    0  0.00000000000E+00  0.00000000000E+00  0.39999999674E+01  0.40000000000E+01  0.51100000000E-03 0. -1.
    9000002   -1    0    0    0    0 -0.00000000000E+00 -0.00000000000E+00  0.00000000000E+00  0.93800000000E+00  0.93800000000E+00 0. -1.
         11    1    1    2    0    0 -0.91628431772E-01 -0.30679907988E-01  0.85212372738E+00  0.85758505942E+00  0.51100000000E-03 0. -1.
    9000002    1    1    2    0    0  0.40944713710E+00 -0.13282637507E+00  0.12857329790E+00  0.10400312000E+01  0.93800000000E+00 0. -1.
         22    1    1    2    0    0 -0.31781870533E+00  0.16350628306E+00  0.30193029421E+01  0.30403837406E+01  0.00000000000E+00 0. -1.
</event>
<event>
 5    1  0.7220939E+001  0.1599653E+01  0.7818608E-02  0.3353740E+00
         11   -1    0    0    0    0  0.00000000000E+00  0.00000000000E+00  0.39999999674E+01  0.40000000000E+01  0.51100000000E-03 0.  1.
    9000002   -1    0    0    0    0 -0.00000000000E+00 -0.00000000000E+00  0.00000000000E+00  0.93800000000E+00  0.93800000000E+00 0.  1.
         11    1    1    2    0    0 -0.19044919626E-02 -0.64054547250E-01  0.26311697619E+00  0.27080881890E+00  0.51100000000E-03 0.  1.
    9000002    1    1    2    0    0 -0.48110225706E-02  0.82291771746E+00  0.50288537972E+00  0.13453454652E+01  0.93800000000E+00 0.  1.
         22    1    1    2    0    0  0.67155145332E-02 -0.75886317021E+00  0.32339976115E+01  0.33218457159E+01  0.00000000000E+00 0.  1.
</event>
<event>
 5    1  0.7220939E+001  0.1599660E+01  0.7818608E-02  0.3353732E+00
         11   -1    0    0    0    0  0.00000000000E+00  0.00000000000E+00  0.39999999674E+01  0.40000000000E+01  0.51100000000E-03 0.  1.
    9000002   -1    0    0    0    0 -0.00000000000E+00 -0.00000000000E+00  0.00000000000E+00  0.93800000000E+00  0.93800000000E+00 0. -1.
         11    1    1    2    0    0 -0.68500540929E-01  0.67943558207E-01  0.99973516076E+00  0.10043800595E+01  0.51100000000E-03 0.  1.
    9000002    1    1    2    0    0  0.26585346101E+00 -0.28165100538E+00  0.10103359893E+00  0.10198319174E+01  0.93800000000E+00 0. -1.
         22    1    1    2    0    0 -0.19735292008E+00  0.21370744717E+00  0.28992312077E+01  0.29137880231E+01  0.00000000000E+00 0.  1.
</event>
<event>
 5    1  0.7220939E+001  0.1594231E+01  0.7818608E-02  0.3359649E+00
         11   -1    0    0    0    0  0.00000000000E+00  0.00000000000E+00  0.39999999674E+01  0.40000000000E+01  0.51100000000E-03 0.  1.
    9000002   -1    0    0    0    0 -0.00000000000E+00 -0.00000000000E+00  0.00000000000E+00  0.93800000000E+00  0.93800000000E+00 0. -1.
         11    1    1    2    0    0  0.23401702377E-03 -0.61388183443E-01  0.24371426402E+00  0.25132741083E+00  0.51100000000E-03 0.  1.
    9000002    1    1    2    0    0 -0.24808646996E+00  0.32941482244E+00  0.11948080800E+00  0.10315913364E+01  0.93800000000E+00 0. -1.
         22    1    1    2    0    0  0.24785245293E+00 -0.26802663900E+00  0.36368048953E+01  0.36550812528E+01  0.00000000000E+00 0.  1.
</event>
<event>
 5    1  0.7220939E+001  0.1599676E+01  0.7818608E-02  0.3353715E+00
         11   -1    0    0    0    0  0.00000000000E+00  0.00000000000E+00  0.39999999674E+01  0.40000000000E+01  0.51100000000E-03 0. -1.
    9000002   -1    0    0    0    0 -0.00000000000E+00 -0.00000000000E+00  0.00000000000E+00  0.93800000000E+00  0.93800000000E+00 0.  1.
         11    1    1    2    0    0  0.58864665793E-01  0.43673165838E-02  0.60084457519E+00  0.60373718371E+00  0.51100000000E-03 0. -1.
    9000002    1    1    2    0    0 -0.37919558777E+00 -0.30701955673E-01  0.97387126740E-01  0.10168874846E+01  0.93800000000E+00 0.  1.
         22    1    1    2    0    0  0.32033092197E+00  0.26334639089E-01  0.33017682654E+01  0.33173753317E+01  0.00000000000E+00 0. -1.
</event>
<event>
 5    1  0.7220939E+001  0.1599566E+01  0.7818608E-02  0.3353835E+00
         11   -1    0    0    0    0  0.00000000000E+00  0.00000000000E+00  0.39999999674E+01  0.40000000000E+01  0.51100000000E-03 0. -1.
    9000002   -1    0    0    0    0 -0.00000000000E+00 -0.00000000000E+00  0.00000000000E+00  0.93800000000E+00  0.93800000000E+00 0. -1.
         11    1    1    2    0    0 -0.14929313666E-01 -0.30345589431E-01  0.27658175480E+00  0.27864218528E+00  0.51100000000E-03 0. -1.
    9000002    1    1    2    0    0  0.12932503139E+00  0.38282777411E+00  0.11028781744E+00  0.10272728318E+01  0.93800000000E+00 0. -1.
         22    1    1    2    0    0 -0.11439571772E+00 -0.35248218468E+00  0.36131303951E+01  0.36320849829E+01  0.00000000000E+00 0. -1.
</event>
<event>
 5    1  0.7220939E+001  0.1580785E+01  0.7818608E-02  0.3374487E+00
         11   -1    0    0    0    0  0.00000000000E+00  0.00000000000E+00  0.39999999674E+01  0.40000000000E+01  0.51100000000E-03 0.  1.
    9000002   -1    0    0    0    0 -0.00000000000E+00 -0.00000000000E+00  0.00000000000E+00  0.93800000000E+00  0.93800000000E+00 0.  1.
         11    1    1    2    0    0  0.21206910230E-01  0.75241188898E-01  0.12948543182E+01  0.12972119858E+01  0.51100000000E-03 0.  1.
    9000002    1    1    2    0    0  0.12207349642E+00  0.20587836493E+00  0.52537998953E-01  0.96948031492E+00  0.93800000000E+00 0.  1.
         22    1    1    2    0    0 -0.14328040665E+00 -0.28111955383E+00  0.26526076502E+01  0.26713076993E+01  0.00000000000E+00 0. -1.
</event>
<event>
 5    1  0.7220939E+001  0.1596046E+01  0.7818608E-02  0.3357666E+00
         11   -1    0    0    0    0  0.00000000000E+00  0.00000000000E+00  0.39999999674E+01  0.40000000000E+01  0.51100000000E-03 0. -1.
    9000002   -1    0    0    0    0 -0.00000000000E+00 -0.00000000000E+00  0.00000000000E+00  0.93800000000E+00  0.93800000000E+00 0.  1.
         11    1    1    2    0    0  0.17248770379E-01  0.37175285614E-01  0.53009826563E+00  0.53168031211E+00  0.51100000000E-03 0. -1.
    9000002    1    1    2    0    0 -0.32673898358E+00  0.33082477306E-01  0.75042502198E-01  0.99665851265E+00  0.93800000000E+00 0.  1.
         22    1    1    2    0    0  0.30949021320E+00 -0.70257762920E-01  0.33948591995E+01  0.34096611752E+01  0.00000000000E+00 0. -1.
</event>
<event>
 5    1  0.7220939E+001  0.1562939E+01  0.7818608E-02  0.3394597E+00
         11   -1    0    0    0    0  0.00000000000E+00  0.00000000000E+00  0.39999999674E+01  0.40000000000E+01  0.51100000000E-03 0. -1.
    9000002   -1    0    0    0    0 -0.00000000000E+00 -0.00000000000E+00  0.00000000000E+00  0.93800000000E+00  0.93800000000E+00 0. -1.
         11    1    1    2    0    0  0.69896998983E-01  0.12537101940E+00  0.45436139721E+00  0.47649556490E+00  0.51100000000E-03 0. -1.
    9000002    1    1    2    0    0  0.34786736532E+00 -0.21172856375E+00  0.14336209418E+00  0.10325877099E+01  0.93800000000E+00 0. -1.
         22    1    1    2    0    0 -0.41776436430E+00  0.86357544356E-01  0.34022764760E+01  0.34289167252E+01  0.00000000000E+00 0. -1.
</event>
<event>
 5    1  0.7220939E+001  0.1562146E+01  0.7818608E-02  0.3395502E+00
         11   -1    0    0    0    0  0.00000000000E+00  0.00000000000E+00  0.39999999674E+01  0.40000000000E+01  0.51100000000E-03 0.  1.
    9000002   -1    0    0    0    0 -0.00000000000E+00 -0.00000000000E+00  0.00000000000E+00  0.93800000000E+00  0.93800000000E+00 0.  1.
         11    1    1    2    0    0  0.82088679576E-01 -0.18119614286E+00  0.59841196480E+00  0.63060901852E+00  0.51100000000E-03 0.  1.
    9000002    1    1    2    0    0  0.22274946315E+00  0.36382031543E+00  0.15574430220E+00  0.10421529796E+01  0.93800000000E+00 0.  1.
         22    1    1    2    0    0 -0.30483814273E+00 -0.18262417257E+00  0.32458437004E+01  0.32652380019E+01  0.00000000000E+00 0.  1.
</event>
<event>
 5    1  0.7220939E+001  0.1582091E+01  0.7818608E-02  0.3373034E+00
         11   -1    0    0    0    0  0.00000000000E+00  0.00000000000E+00  0.39999999674E+01  0.40000000000E+01  0.51100000000E-03 0. -1.
    9000002   -1    0    0    0    0 -0.00000000000E+00 -0.00000000000E+00  0.00000000000E+00  0.93800000000E+00  0.93800000000E+00 0.  1.
         11    1    1    2    0    0 -0.67447610133E-01 -0.34026479603E-01  0.13899685245E+01  0.13920200220E+01  0.51100000000E-03 0. -1.
    9000002    1    1    2    0    0 -0.23946678839E+00  0.13540213377E+00  0.64094277331E-01  0.97960714419E+00  0.93800000000E+00 0.  1.
         22    1    1    2    0    0  0.30691439852E+00 -0.10137565417E+00  0.25459371655E+01  0.25663728338E+01  0.00000000000E+00 0. -1.
</event>
<event>
 5    1  0.7220939E+001  0.1598670E+01  0.7818608E-02  0.3354809E+00
         11   -1    0    0    0    0  0.00000000000E+00  0.00000000000E+00  0.39999999674E+01  0.40000000000E+01  0.51100000000E-03 0.  1.
    9000002   -1    0    0    0    0 -0.00000000000E+00 -0.00000000000E+00  0.00000000000E+00  0.93800000000E+00  0.93800000000E+00 0. -1.
         11    1    1    2    0    0  0.43017261225E-01 -0.46821706493E-01  0.40709126857E+00  0.41202708531E+00  0.51100000000E-03 0.  1.
    9000002    1    1    2    0    0 -0.31980809863E+00  0.24196937465E+00  0.10933428401E+00  0.10259748456E+01  0.93800000000E+00 0. -1.
         22    1    1    2    0    0  0.27679083740E+00 -0.19514766816E+00  0.34835744148E+01  0.34999980691E+01  0.00000000000E+00 0.  1.
</event>
<event>
 5    1  0.7220939E+001  0.1570672E+01  0.7818608E-02  0.3385824E+00
         11   -1    0    0    0    0  0.00000000000E+00  0.00000000000E+00  0.39999999674E+01  0.40000000000E+01  0.51100000000E-03 0.  1.
    9000002   -1    0    0    0    0 -0.00000000000E+00 -0.00000000000E+00  0.00000000000E+00  0.93800000000E+00  0.93800000000E+00 0.  1.
         11    1    1    2    0    0  0.10285553129E+00  0.10326092365E+00  0.11199777668E+01  0.11294213287E+01  0.51100000000E-03 0.  1.
    9000002    1    1    2    0    0 -0.27903097771E-01  0.19467282781E+00  0.47633622026E-01  0.95957753970E+00  0.93800000000E+00 0.  1.
         22    1    1    2    0    0 -0.74952433515E-01 -0.29793375146E+00  0.28323885786E+01  0.28490011316E+01  0.00000000000E+00 0.  1.
</event>
<event>
 5    1  0.7220939E+001  0.1599184E+01  0.7818608E-02  0.3354249E+00
         11   -1    0    0    0    0  0.00000000000E+00  0.00000000000E+00  0.39999999674E+01  0.40000000000E+01  0.51100000000E-03 0.  1.
    9000002   -1    0    0    0    0 -0.00000000000E+00 -0.00000000000E+00  0.00000000000E+00  0.93800000000E+00  0.93800000000E+00 0.  1.
         11    1    1    2    0    0 -0.21646827929E-01  0.13480880149E+00  0.11508170423E+01  0.11588883139E+01  0.51100000000E-03 0.  1.
    9000002    1    1    2    0    0 -0.34831339203E-02 -0.42376498922E+00  0.12193645568E+00  0.10364851169E+01  0.93800000000E+00 0.  1.
         22    1    1    2    0    0  0.25129961850E-01  0.28895618773E+00  0.27272464694E+01  0.27426265692E+01  0.00000000000E+00 0.  1.
</event>
<event>
 5    1  0.7220939E+001  0.1599674E+01  0.7818608E-02  0.3353717E+00
         11   -1    0    0    0    0  0.00000000000E+00  0.00000000000E+00  0.39999999674E+01  0.40000000000E+01  0.51100000000E-03 0.  1.
    9000002   -1    0    0    0    0 -0.00000000000E+00 -0.00000000000E+00  0.00000000000E+00  0.93800000000E+00  0.93800000000E+00 0. -1.
         11    1    1    2    0    0 -0.10270154528E+00  0.44618788713E-01  0.10969729299E+01  0.11026732579E+01  0.51100000000E-03 0.  1.
    9000002    1    1    2    0    0  0.36951080423E+00 -0.15436242276E+00  0.10817881707E+00  0.10256279289E+01  0.93800000000E+00 0. -1.
         22    1    1    2    0    0 -0.26680925895E+00  0.10974363404E+00  0.27948482204E+01  0.28096988132E+01  0.00000000000E+00 0.  1.
</event>
<event>
 5    1  0.7220939E+001  0.1599677E+01  0.7818608E-02  0.3353714E+00
         11   -1    0    0    0    0  0.00000000000E+00  0.00000000000E+00  0.39999999674E+01  0.40000000000E+01  0.51100000000E-03 0.  1.
    9000002   -1    0    0    0    0 -0.00000000000E+00 -0.00000000000E+00  0.00000000000E+00  0.93800000000E+00  0.93800000000E+00 0. -1.
         11    1    1    2    0    0  0.28220369930E-01  0.14799715337E+00  0.11602614662E+01  0.11700027683E+01  0.51100000000E-03 0.  1.
    9000002    1    1    2    0    0 -0.92074529127E-01 -0.48749170948E+00  0.16837775052E+00  0.10743932951E+01  0.93800000000E+00 0. -1.
         22    1    1    2    0    0  0.63854159197E-01  0.33949455611E+00  0.26713607506E+01  0.26936039366E+01  0.00000000000E+00 0. -1.
</event>
<event>
 5    1  0.7220939E+001  0.1599674E+01  0.7818608E-02  0.3353717E+00
         11   -1    0    0    0    0  0.00000000000E+00  0.00000000000E+00  0.39999999674E+01  0.40000000000E+01  0.51100000000E-03 0.  1.
    9000002   -1    0    0    0    0 -0.00000000000E+00 -0.00000000000E+00  0.00000000000E+00  0.93800000000E+00  0.93800000000E+00 0. -1.
         11    1    1    2    0    0  0.46285909556E-01 -0.11361480683E-01  0.49103640362E+00  0.49334417952E+00  0.51100000000E-03 0.  1.
    9000002    1    1    2    0    0 -0.36343129099E+00  0.99006929441E-01  0.95429665343E-01  0.10153006926E+01  0.93800000000E+00 0. -1.
         22    1    1    2    0    0  0.31714538144E+00 -0.87645448759E-01  0.34135338984E+01  0.34293551279E+01  0.00000000000E+00 0.  1.
</event>
<event>
 5    1  0.7220939E+001  0.1599641E+01  0.7818608E-02  0.3353753E+00
         11   -1    0    0    0    0  0.00000000000E+00  0.00000000000E+00  0.39999999674E+01  0.40000000000E+01  0.51100000000E-03 0. -1.
    9000002   -1    0    0    0    0 -0.00000000000E+00 -0.00000000000E+00  0.00000000000E+00  0.93800000000E+00  0.93800000000E+00 0. -1.
         11    1    1    2    0    0  0.15679624452E-02  0.55287251157E-02  0.45565303212E-01  0.45929111525E-01  0.51100000000E-03 0. -1.
    9000002    1    1    2    0    0 -0.34611148174E-01 -0.53941214261E+00  0.20147227943E+00  0.11011804895E+01  0.93800000000E+00 0. -1.
         22    1    1    2    0    0  0.33043185729E-01  0.53388341750E+00  0.37529623847E+01  0.37908903989E+01  0.00000000000E+00 0. -1.
</event>
<event>
 5    1  0.7220939E+001  0.1599568E+01  0.7818608E-02  0.3353833E+00
         11   -1    0    0    0    0  0.00000000000E+00  0.00000000000E+00  0.39999999674E+01  0.40000000000E+01  0.51100000000E-03 0. -1.
    9000002   -1    0    0    0    0 -0.00000000000E+00 -0.00000000000E+00  0.00000000000E+00  0.93800000000E+00  0.93800000000E+00 0.  1.
         11    1    1    2    0    0  0.28248339342E+00 -0.29984742687E-01  0.11767738645E+01  0.12105754589E+01  0.51100000000E-03 0. -1.
    9000002    1    1    2    0    0 -0.84426769398E+00  0.11986916267E+00  0.54609500674E+00  0.13802971824E+01  0.93800000000E+00 0.  1.
         22    1    1    2    0    0  0.56178430056E+00 -0.89884419988E-01  0.22771310961E+01  0.23471273587E+01  0.00000000000E+00 0. -1.
</event>
<event>
 5    1  0.7220939E+001  0.1599265E+01  0.7818608E-02  0.3354161E+00
         11   -1    0    0    0    0  0.00000000000E+00  0.00000000000E+00  0.39999999674E+01  0.40000000000E+01  0.51100000000E-03 0. -1.
    9000002   -1    0    0    0    0 -0.00000000000E+00 -0.00000000000E+00  0.00000000000E+00  0.93800000000E+00  0.93800000000E+00 0. -1.
         11    1    1    2    0    0  0.82911499687E-01  0.13641657976E+00  0.11094655816E+01  0.11208915817E+01  0.51100000000E-03 0. -1.
    9000002    1    1    2    0    0 -0.33763066345E+00 -0.41340294698E+00  0.19656688587E+00  0.10969863272E+01  0.93800000000E+00 0. -1.
         22    1    1    2    0    0  0.25471916376E+00  0.27698636722E+00  0.26939674999E+01  0.27201220911E+01  0.00000000000E+00 0. -1.
</event>
<event>
 5    1  0.7220939E+001  0.1598926E+01  0.7818608E-02  0.3354530E+00
         11   -1    0    0    0    0  0.00000000000E+00  0.00000000000E+00  0.39999999674E+01  0.40000000000E+01  0.51100000000E-03 0. -1.
    9000002   -1    0    0    0    0 -0.00000000000E+00 -0.00000000000E+00  0.00000000000E+00  0.93800000000E+00  0.93800000000E+00 0.  1.
         11    1    1    2    0    0  0.76411938856E-01 -0.13853608155E+00  0.10247109032E+01  0.10368527989E+01  0.51100000000E-03 0. -1.
    9000002    1    1    2    0    0 -0.21997146029E+00  0.59343556873E+00  0.28228926979E+00  0.11662265858E+01  0.93800000000E+00 0.  1.
         22    1    1    2    0    0  0.14355952143E+00 -0.45489948718E+00  0.26929997944E+01  0.27349206153E+01  0.00000000000E+00 0. -1.
</event>
<event>
 5    1  0.7220939E+001  0.1597732E+01  0.7818608E-02  0.3355828E+00
         11   -1    0    0    0    0  0.00000000000E+00  0.00000000000E+00  0.39999999674E+01  0.40000000000E+01  0.51100000000E-03 0.  1.
    9000002   -1    0    0    0    0 -0.00000000000E+00 -0.00000000000E+00  0.00000000000E+00  0.93800000000E+00  0.93800000000E+00 0. -1.
         11    1    1    2    0    0 -0.41797256502E-01  0.13140581079E+00  0.10444229812E+01  0.10534866504E+01  0.51100000000E-03 0.  1.
    9000002    1    1    2    0    0  0.23631347687E+00 -0.33325103431E+00  0.11433195561E+00  0.10294737040E+01  0.93800000000E+00 0. -1.
         22    1    1    2    0    0 -0.19451622037E+00  0.20184522352E+00  0.28412450305E+01  0.28550396456E+01  0.00000000000E+00 0.  1.
</event>
<event>
 5    1  0.7220939E+001  0.1597799E+01  0.7818608E-02  0.3355756E+00
         11   -1    0    0    0    0  0.00000000000E+00  0.00000000000E+00  0.39999999674E+01  0.40000000000E+01  0.51100000000E-03 0. -1.
    9000002   -1    0    0    0    0 -0.00000000000E+00 -0.00000000000E+00  0.00000000000E+00  0.93800000000E+00  0.93800000000E+00 0. -1.
         11    1    1    2    0    0 -0.22642326919E-01 -0.39253084689E-01  0.21057802312E+00  0.21539926779E+00  0.51100000000E-03 0. -1.
    9000002    1    1    2    0    0  0.74677015076E-03  0.55821481971E+00  0.21735400315E+00  0.11129650063E+01  0.93800000000E+00 0. -1.
         22    1    1    2    0    0  0.21895556768E-01 -0.51896173502E+00  0.35720679411E+01  0.36096357259E+01  0.00000000000E+00 0. -1.
</event>
<event>
 5    1  0.7220939E+001  0.1531890E+01  0.7818608E-02  0.3430776E+00
         11   -1    0    0    0    0  0.00000000000E+00  0.00000000000E+00  0.39999999674E+01  0.40000000000E+01  0.51100000000E-03 0. -1.
    9000002   -1    0    0    0    0 -0.00000000000E+00 -0.00000000000E+00  0.00000000000E+00  0.93800000000E+00  0.93800000000E+00 0. -1.
         11    1    1    2    0    0 -0.25112729024E-01 -0.79045995209E-01  0.52676617828E-01  0.98254799905E-01  0.51100000000E-03 0. -1.
    9000002    1    1    2    0    0  0.21360234545E+00 -0.23728984423E+00  0.12382239139E+00  0.99855316171E+00  0.93800000000E+00 0. -1.
         22    1    1    2    0    0 -0.18848961643E+00  0.31633583944E+00  0.38235009581E+01  0.38411920384E+01  0.00000000000E+00 0. -1.
</event>
<event>
 5    1  0.7220939E+001  0.1595535E+01  0.7818608E-02  0.3358224E+00
         11   -1    0    0    0    0  0.00000000000E+00  0.00000000000E+00  0.39999999674E+01  0.40000000000E+01  0.51100000000E-03 0. -1.
    9000002   -1    0    0    0    0 -0.00000000000E+00 -0.00000000000E+00  0.00000000000E+00  0.93800000000E+00  0.93800000000E+00 0. -1.
         11    1    1    2    0    0  0.11358788092E+00 -0.10051395994E+00  0.11736189609E+01  0.11833794781E+01  0.51100000000E-03 0. -1.
    9000002    1    1    2    0    0 -0.14509579823E+00  0.37912847126E+00  0.11470913524E+00  0.10284908235E+01  0.93800000000E+00 0. -1.
         22    1    1    2    0    0  0.31507917303E-01 -0.27861451133E+00  0.27116718713E+01  0.27261296983E+01  0.00000000000E+00 0. -1.
</event>
<event>
 5    1  0.7220939E+001  0.1599355E+01  0.7818608E-02  0.3354064E+00
         11   -1    0    0    0    0  0.00000000000E+00  0.00000000000E+00  0.39999999674E+01  0.40000000000E+01  0.51100000000E-03 0.  1.
    9000002   -1    0    0    0    0 -0.00000000000E+00 -0.00000000000E+00  0.00000000000E+00  0.93800000000E+00  0.93800000000E+00 0. -1.
         11    1    1    2    0    0  0.14734965166E+00  0.11242711290E+00  0.94702812460E+00  0.96499445877E+00  0.51100000000E-03 0.  1.
    9000002    1    1    2    0    0 -0.63011890860E+00 -0.42265992234E+00  0.41884215237E+00  0.12770920082E+01  0.93800000000E+00 0. -1.
         22    1    1    2    0    0  0.48276925694E+00  0.31023280944E+00  0.26341296904E+01  0.26959135330E+01  0.00000000000E+00 0.  1.
</event>
<event>
 5    1  0.7220939E+001  0.1550477E+01  0.7818608E-02  0.3408932E+00
         11   -1    0    0    0    0  0.00000000000E+00  0.00000000000E+00  0.39999999674E+01  0.40000000000E+01  0.51100000000E-03 0.  1.
    9000002   -1    0    0    0    0 -0.00000000000E+00 -0.00000000000E+00  0.00000000000E+00  0.93800000000E+00  0.93800000000E+00 0. -1.
         11    1    1    2    0    0 -0.36755749002E-01  0.11705422845E+00  0.28559361891E+00  0.31083219551E+00  0.51100000000E-03 0.  1.
    9000002    1    1    2    0    0 -0.21910537306E+00  0.18219510487E+00  0.93343866901E-01  0.98476357479E+00  0.93800000000E+00 0. -1.
         22    1    1    2    0    0  0.25586112206E+00 -0.29924933331E+00  0.36210624815E+01  0.36424042297E+01  0.00000000000E+00 0.  1.
</event>
<event>
 5    1  0.7220939E+001  0.1585724E+01  0.7818608E-02  0.3369005E+00
         11   -1    0    0    0    0  0.00000000000E+00  0.00000000000E+00  0.39999999674E+01  0.40000000000E+01  0.51100000000E-03 0. -1.
    9000002   -1    0    0    0    0 -0.00000000000E+00 -0.00000000000E+00  0.00000000000E+00  0.93800000000E+00  0.93800000000E+00 0.  1.
         11    1    1    2    0    0 -0.55751900027E-01 -0.70169350724E-01  0.86527970053E+00  0.86990875005E+00  0.51100000000E-03 0. -1.
    9000002    1    1    2    0    0 -0.22891875625E+00  0.87157491141E-01  0.50558497114E-01  0.97077308721E+00  0.93800000000E+00 0.  1.
         22    1    1    2    0    0  0.28467065628E+00 -0.16988140417E-01  0.30841617697E+01  0.30973181627E+01  0.00000000000E+00 0. -1.
</event>
<event>
 5    1  0.7220939E+001  0.1573484E+01  0.7818608E-02  0.3382655E+00
         11   -1    0    0    0    0  0.00000000000E+00  0.00000000000E+00  0.39999999674E+01  0.40000000000E+01  0.51100000000E-03 0. -1.
    9000002   -1    0    0    0    0 -0.00000000000E+00 -0.00000000000E+00  0.00000000000E+00  0.93800000000E+00  0.93800000000E+00 0.  1.
         11    1    1    2    0    0 -0.13996369284E+00 -0.78153639722E-01  0.96736658025E+00  0.98055912031E+00  0.51100000000E-03 0. -1.
    9000002    1    1    2    0    0  0.11870698169E+00 -0.19438686137E+00  0.54507764787E-01  0.96679506401E+00  0.93800000000E+00 0.  1.
         22    1    1    2    0    0  0.21256711152E-01  0.27254050109E+00  0.29781256223E+01  0.29906458157E+01  0.00000000000E+00 0. -1.
</event>
<event>
 5    1  0.7220939E+001  0.1595985E+01  0.7818608E-02  0.3357732E+00
         11   -1    0    0    0    0  0.00000000000E+00  0.00000000000E+00  0.39999999674E+01  0.40000000000E+01  0.51100000000E-03 0.  1.
    9000002   -1    0    0    0    0 -0.00000000000E+00 -0.00000000000E+00  0.00000000000E+00  0.93800000000E+00  0.93800000000E+00 0.  1.
         11    1    1    2    0    0  0.40399259160E-01  0.10621576797E+00  0.13278775596E+01  0.13327313923E+01  0.51100000000E-03 0.  1.
    9000002    1    1    2    0    0 -0.30490460243E+00 -0.22977010205E+00  0.10113480294E+00  0.10177589915E+01  0.93800000000E+00 0.  1.
         22    1    1    2    0    0  0.26450534327E+00  0.12355433408E+00  0.25709876048E+01  0.25875096162E+01  0.00000000000E+00 0.  1.
</event>
<event>
 5    1  0.7220939E+001  0.1530549E+01  0.7818608E-02  0.3432374E+00
         11   -1    0    0    0    0  0.00000000000E+00  0.00000000000E+00  0.39999999674E+01  0.40000000000E+01  0.51100000000E-03 0. -1.
    9000002   -1    0    0    0    0 -0.00000000000E+00 -0.00000000000E+00  0.00000000000E+00  0.93800000000E+00  0.93800000000E+00 0.  1.
         11    1    1    2    0    0  0.94466928842E-01  0.28747636120E+00  0.11856354771E+01  0.12236414526E+01  0.51100000000E-03 0. -1.
    9000002    1    1    2    0    0 -0.23772729575E+00  0.10718561305E-01  0.92124632953E-01  0.97209058359E+00  0.93800000000E+00 0.  1.
         22    1    1    2    0    0  0.14326036691E+00 -0.29819492250E+00  0.27222398573E+01  0.27422679638E+01  0.00000000000E+00 0. -1.
</event>
<event>
 5    1  0.7220939E+001  0.1599677E+01  0.7818608E-02  0.3353714E+00
         11   -1    0    0    0    0  0.00000000000E+00  0.00000000000E+00  0.39999999674E+01  0.40000000000E+01  0.51100000000E-03 0. -1.
    9000002   -1    0    0    0    0 -0.00000000000E+00 -0.00000000000E+00  0.00000000000E+00  0.93800000000E+00  0.93800000000E+00 0. -1.
         11    1    1    2    0    0  0.44978086374E-01 -0.10449440936E+00  0.12105842462E+01  0.12159180022E+01  0.51100000000E-03 0. -1.
    9000002    1    1    2    0    0 -0.14542721454E+00  0.33892906973E+00  0.91399473460E-01  0.10120374760E+01  0.93800000000E+00 0. -1.
         22    1    1    2    0    0  0.10044912817E+00 -0.23443466036E+00  0.26980162477E+01  0.27100445218E+01  0.00000000000E+00 0. -1.
</event>
<event>
 5    1  0.7220939E+001  0.1598433E+01  0.7818608E-02  0.3355066E+00
         11   -1    0    0    0    0  0.00000000000E+00  0.00000000000E+00  0.39999999674E+01  0.40000000000E+01  0.51100000000E-03 0. -1.
    9000002   -1    0    0    0    0 -0.00000000000E+00 -0.00000000000E+00  0.00000000000E+00  0.93800000000E+00  0.93800000000E+00 0. -1.
         11    1    1    2    0    0  0.70040994728E-01 -0.36142255225E-01  0.86106466506E+00  0.86466445636E+00  0.51100000000E-03 0. -1.
    9000002    1    1    2    0    0 -0.29474173793E+00  0.32012640979E+00  0.12939291641E+00  0.10420845154E+01  0.93800000000E+00 0. -1.
         22    1    1    2    0    0  0.22470074320E+00 -0.28398415457E+00  0.30095423859E+01  0.30312510283E+01  0.00000000000E+00 0. -1.
</event>
<event>
 5    1  0.8449800E+001  0.1534477E+01  0.7818608E-02  0.3427702E+00
         11   -1    0    0    0    0  0.00000000000E+00  0.00000000000E+00  0.39999999674E+01  0.40000000000E+01  0.51100000000E-03 0. -1.
    9000002   -1    0    0    0    0 -0.00000000000E+00 -0.00000000000E+00  0.00000000000E+00  0.93800000000E+00  0.93800000000E+00 0.  1.
         11    1    1    2    0    0 -0.21238619629E+00  0.73951130934E-01  0.82506844206E+00  0.85516949276E+00  0.51100000000E-03 0. -1.
    9000002    1    1    2    0    0 -0.14692201321E+00 -0.58120649046E-01  0.66363962561E-01  0.95352622583E+00  0.93800000000E+00 0.  1.
         22    1    1    2    0    0  0.35930820950E+00 -0.15830481889E-01  0.31085675627E+01  0.31293042814E+01  0.00000000000E+00 0. -1.
</event>
<event>
 5    1  0.7220939E+001  0.1599674E+01  0.7818608E-02  0.3353717E+00
         11   -1    0    0    0    0  0.00000000000E+00  0.00000000000E+00  0.39999999674E+01  0.40000000000E+01  0.51100000000E-03 0. -1.
    9000002   -1    0    0    0    0 -0.00000000000E+00 -0.00000000000E+00  0.00000000000E+00  0.93800000000E+00  0.93800000000E+00 0. -1.
         11    1    1    2    0    0 -0.54258899734E-01  0.51761353242E-01  0.76206760858E+00  0.76574837059E+00  0.51100000000E-03 0. -1.
    9000002    1    1    2    0    0  0.27709622613E+00 -0.25673249401E+00  0.95986666499E-01  0.10157516095E+01  0.93800000000E+00 0. -1.
         22    1    1    2    0    0 -0.22283732639E+00  0.20497114077E+00  0.31419456923E+01  0.31565000199E+01  0.00000000000E+00 0. -1.
</event>
<event>
 5    1  0.7220939E+001  0.1494579E+01  0.7818608E-02  0.3476383E+00
         11   -1    0    0    0    0  0.00000000000E+00  0.00000000000E+00  0.39999999674E+01  0.40000000000E+01  0.51100000000E-03 0. -1.
    9000002   -1    0    0    0    0 -0.00000000000E+00 -0.00000000000E+00  0.00000000000E+00  0.93800000000E+00  0.93800000000E+00 0. -1.
         11    1    1    2    0    0  0.15908075014E+00  0.15614248676E+00  0.52206634724E+00  0.56766248183E+00  0.51100000000E-03 0. -1.
    9000002    1    1    2    0    0 -0.17412779496E+00  0.58475541209E+00  0.37499699531E+00  0.11801381815E+01  0.93800000000E+00 0. -1.
         22    1    1    2    0    0  0.15047044813E-01 -0.74089789885E+00  0.31029366248E+01  0.31901993367E+01  0.00000000000E+00 0. -1.
</event>
<event>
 5    1  0.7220939E+001  0.1599673E+01  0.7818608E-02  0.3353719E+00
         11   -1    0    0    0    0  0.00000000000E+00  0.00000000000E+00  0.39999999674E+01  0.40000000000E+01  0.51100000000E-03 0.  1.
    9000002   -1    0    0    0    0 -0.00000000000E+00 -0.00000000000E+00  0.00000000000E+00  0.93800000000E+00  0.93800000000E+00 0. -1.
         11    1    1    2    0    0 -0.32445430089E-01 -0.21645442785E-01  0.34813529291E+00  0.35031368003E+00  0.51100000000E-03 0.  1.
    9000002    1    1    2    0    0  0.36336008365E+00  0.22581826749E+00  0.12391686743E+00  0.10383755729E+01  0.93800000000E+00 0. -1.
         22    1    1    2    0    0 -0.33091465356E+00 -0.20417282471E+00  0.35279478070E+01  0.35493107471E+01  0.00000000000E+00 0.  1.
</event>
<event>
 5    1  0.7220939E+001  0.1486896E+01  0.7818608E-02  0.3486081E+00
         11   -1    0    0    0    0  0.00000000000E+00  0.00000000000E+00  0.39999999674E+01  0.40000000000E+01  0.51100000000E-03 0.  1.
    9000002   -1    0    0    0    0 -0.00000000000E+00 -0.00000000000E+00  0.00000000000E+00  0.93800000000E+00  0.93800000000E+00 0.  1.
         11    1    1    2    0    0 -0.30377865035E+00  0.14009004760E+00  0.12591169161E+01  0.13027978966E+01  0.51100000000E-03 0.  1.
    9000002    1    1    2    0    0 -0.17388360027E+00 -0.72588491248E-01  0.11297831582E+00  0.96338605727E+00  0.93800000000E+00 0.  1.
         22    1    1    2    0    0  0.47766225063E+00 -0.67501556353E-01  0.26279047354E+01  0.26718160461E+01  0.00000000000E+00 0.  1.
</event>
<event>
 5    1  0.7220939E+001  0.1597846E+01  0.7818608E-02  0.3355705E+00
         11   -1    0    0    0    0  0.00000000000E+00  0.00000000000E+00  0.39999999674E+01  0.40000000000E+01  0.51100000000E-03 0.  1.
    9000002   -1    0    0    0    0 -0.00000000000E+00 -0.00000000000E+00  0.00000000000E+00  0.93800000000E+00  0.93800000000E+00 0. -1.
         11    1    1    2    0    0 -0.12450510493E+00  0.63003998520E-01  0.77853963470E+00  0.79094579391E+00  0.51100000000E-03 0.  1.
    9000002    1    1    2    0    0  0.42515214291E+00 -0.22770699123E+00  0.16039449288E+00  0.10668529476E+01  0.93800000000E+00 0. -1.
         22    1    1    2    0    0 -0.30064703798E+00  0.16470299271E+00  0.30610658398E+01  0.30802012585E+01  0.00000000000E+00 0.  1.
</event>
<event>
 5    1  0.7220939E+001  0.1563013E+01  0.7818608E-02  0.3394513E+00
         11   -1    0    0    0    0  0.00000000000E+00  0.00000000000E+00  0.39999999674E+01  0.40000000000E+01  0.51100000000E-03 0. -1.
    9000002   -1    0    0    0    0 -0.00000000000E+00 -0.00000000000E+00  0.00000000000E+00  0.93800000000E+00  0.93800000000E+00 0.  1.
         11    1    1    2    0    0 -0.30972001782E+00  0.20500481163E-01  0.78922689685E+00  0.84807199872E+00  0.51100000000E-03 0. -1.
    9000002    1    1    2    0    0  0.57526599216E+00  0.11779932462E+00  0.27681880374E+00  0.11407367324E+01  0.93800000000E+00 0.  1.
         22    1    1    2    0    0 -0.26554597434E+00 -0.13829980578E+00  0.29339542668E+01  0.29491912689E+01  0.00000000000E+00 0. -1.
</event>
<event>
 5    1  0.7220939E+001  0.1599676E+01  0.7818608E-02  0.3353715E+00
         11   -1    0    0    0    0  0.00000000000E+00  0.00000000000E+00  0.39999999674E+01  0.40000000000E+01  0.51100000000E-03 0. -1.
    9000002   -1    0    0    0    0 -0.00000000000E+00 -0.00000000000E+00  0.00000000000E+00  0.93800000000E+00  0.93800000000E+00 0. -1.
         11    1    1    2    0    0  0.23929567467E-01  0.25556197909E-01  0.18077780901E+00  0.18413750515E+00  0.51100000000E-03 0.  1.
    9000002    1    1    2    0    0 -0.48541532472E+00 -0.51432987132E+00  0.35815595738E+00  0.12281217138E+01  0.93800000000E+00 0. -1.
         22    1    1    2    0    0  0.46148575725E+00  0.48877367341E+00  0.34610662010E+01  0.35257407811E+01  0.00000000000E+00 0. -1.
</event>
<event>
 5    1  0.7220939E+001  0.1533802E+01  0.7818608E-02  0.3428503E+00
         11   -1    0    0    0    0  0.00000000000E+00  0.00000000000E+00  0.39999999674E+01  0.40000000000E+01  0.51100000000E-03 0. -1.
    9000002   -1    0    0    0    0 -0.00000000000E+00 -0.00000000000E+00  0.00000000000E+00  0.93800000000E+00  0.93800000000E+00 0. -1.
         11    1    1    2    0    0 -0.17384325366E+00  0.27470421972E+00  0.14434460319E+01  0.14796014981E+01  0.51100000000E-03 0. -1.
    9000002    1    1    2    0    0  0.22918447909E+00  0.27261216379E-01  0.87056816779E-01  0.96989256556E+00  0.93800000000E+00 0. -1.
         22    1    1    2    0    0 -0.55341225427E-01 -0.30196543610E+00  0.24694971187E+01  0.24885059363E+01  0.00000000000E+00 0. -1.
</event>
<event>
 5    1  0.7220939E+001  0.1599672E+01  0.7818608E-02  0.3353719E+00
         11   -1    0    0    0    0  0.00000000000E+00  0.00000000000E+00  0.39999999674E+01  0.40000000000E+01  0.51100000000E-03 0. -1.
    9000002   -1    0    0    0    0 -0.00000000000E+00 -0.00000000000E+00  0.00000000000E+00  0.93800000000E+00  0.93800000000E+00 0.  1.
         11    1    1    2    0    0 -0.22000754262E-01 -0.56542346349E-01  0.60790075450E+00  0.61092115576E+00  0.51100000000E-03 0. -1.
    9000002    1    1    2    0    0  0.12912542331E+00  0.36443138949E+00  0.10066413553E+00  0.10195395435E+01  0.93800000000E+00 0.  1.
         22    1    1    2    0    0 -0.10712466905E+00 -0.30788904314E+00  0.32914350773E+01  0.33075393007E+01  0.00000000000E+00 0. -1.
</event>
<event>
 5    1  0.7220939E+001  0.1599676E+01  0.7818608E-02  0.3353715E+00
         11   -1    0    0    0    0  0.00000000000E+00  0.00000000000E+00  0.39999999674E+01  0.40000000000E+01  0.51100000000E-03 0. -1.
    9000002   -1    0    0    0    0 -0.00000000000E+00 -0.00000000000E+00  0.00000000000E+00  0.93800000000E+00  0.93800000000E+00 0.  1.
         11    1    1    2    0    0  0.85946223144E-01  0.26652674274E-01  0.74566508208E+00  0.75107509217E+00  0.51100000000E-03 0. -1.
    9000002    1    1    2    0    0 -0.44712497298E+00 -0.13615586297E+00  0.14876466658E+00  0.10585055912E+01  0.93800000000E+00 0.  1.
         22    1    1    2    0    0  0.36117874984E+00  0.10950318870E+00  0.31055702187E+01  0.31284193167E+01  0.00000000000E+00 0. -1.
</event>
<event>
 5    1  0.7220939E+001  0.1596303E+01  0.7818608E-02  0.3357386E+00
         11   -1    0    0    0    0  0.00000000000E+00  0.00000000000E+00  0.39999999674E+01  0.40000000000E+01  0.51100000000E-03 0. -1.
    9000002   -1    0    0    0    0 -0.00000000000E+00 -0.00000000000E+00  0.00000000000E+00  0.93800000000E+00  0.93800000000E+00 0.  1.
         11    1    1    2    0    0 -0.53021639318E-01 -0.81804827219E-01  0.35707282279E+00  0.37014130530E+00  0.51100000000E-03 0. -1.
    9000002    1    1    2    0    0  0.42628153107E+00  0.43693998518E+00  0.26397322412E+00  0.11498514502E+01  0.93800000000E+00 0.  1.
         22    1    1    2    0    0 -0.37325989176E+00 -0.35513515796E+00  0.33789539205E+01  0.34180072445E+01  0.00000000000E+00 0. -1.
</event>
<event>
 5    1  0.7220939E+001  0.1599015E+01  0.7818608E-02  0.3354433E+00
         11   -1    0    0    0    0  0.00000000000E+00  0.00000000000E+00  0.39999999674E+01  0.40000000000E+01  0.51100000000E-03 0. -1.
    9000002   -1    0    0    0    0 -0.00000000000E+00 -0.00000000000E+00  0.00000000000E+00  0.93800000000E+00  0.93800000000E+00 0.  1.
         11    1    1    2    0    0  0.14693557773E+00 -0.13036223538E+00  0.14439156978E+01  0.14572155571E+01  0.51100000000E-03 0. -1.
    9000002    1    1    2    0    0 -0.35829249687E+00  0.27577353062E+00  0.13945852412E+00  0.10505794751E+01  0.93800000000E+00 0.  1.
         22    1    1    2    0    0  0.21135691913E+00 -0.14541129523E+00  0.24166257454E+01  0.24302049678E+01  0.00000000000E+00 0. -1.
</event>
<event>
 5    1  0.7220939E+001  0.1599676E+01  0.7818608E-02  0.3353715E+00
         11   -1    0    0    0    0  0.00000000000E+00  0.00000000000E+00  0.39999999674E+01  0.40000000000E+01  0.51100000000E-03 0. -1.
    9000002   -1    0    0    0    0 -0.00000000000E+00 -0.00000000000E+00  0.00000000000E+00  0.93800000000E+00  0.93800000000E+00 0.  1.
         11    1    1    2    0    0  0.18548808166E-01 -0.13950719007E+00  0.94330193472E+00  0.95374268833E+00  0.51100000000E-03 0.  1.
    9000002    1    1    2    0    0 -0.71443705411E-01  0.55713979597E+00  0.21841463204E+00  0.11149250678E+01  0.93800000000E+00 0.  1.
         22    1    1    2    0    0  0.52894897245E-01 -0.41763260591E+00  0.28382834006E+01  0.28693322439E+01  0.00000000000E+00 0. -1.
</event>
<event>
 5    1  0.7220939E+001  0.1599673E+01  0.7818608E-02  0.3353719E+00
         11   -1    0    0    0    0  0.00000000000E+00  0.00000000000E+00  0.39999999674E+01  0.40000000000E+01  0.51100000000E-03 0. -1.
    9000002   -1    0    0    0    0 -0.00000000000E+00 -0.00000000000E+00  0.00000000000E+00  0.93800000000E+00  0.93800000000E+00 0. -1.
         11    1    1    2    0    0 -0.23707764987E-01 -0.82637299095E-01  0.91762336921E+00  0.92164195334E+00  0.51100000000E-03 0. -1.
    9000002    1    1    2    0    0  0.92083811247E-01  0.35204333903E+00  0.88927549430E-01  0.10100326974E+01  0.93800000000E+00 0. -1.
         22    1    1    2    0    0 -0.68376046260E-01 -0.26940603994E+00  0.29934490487E+01  0.30063253492E+01  0.00000000000E+00 0. -1.
</event>
<event>
 5    1  0.7220939E+001  0.1599674E+01  0.7818608E-02  0.3353717E+00
         11   -1    0    0    0    0  0.00000000000E+00  0.00000000000E+00  0.39999999674E+01  0.40000000000E+01  0.51100000000E-03 0.  1.
    9000002   -1    0    0    0    0 -0.00000000000E+00 -0.00000000000E+00  0.00000000000E+00  0.93800000000E+00  0.93800000000E+00 0.  1.
         11    1    1    2    0    0 -0.78056618088E-01 -0.71961711114E-01  0.11764564344E+01  0.11812372017E+01  0.51100000000E-03 0.  1.
    9000002    1    1    2    0    0  0.26599665155E+00  0.24013071392E+00  0.86187776589E-01  0.10078141253E+01  0.93800000000E+00 0.  1.
         22    1    1    2    0    0 -0.18794003346E+00 -0.16816900281E+00  0.27373557564E+01  0.27489486730E+01  0.00000000000E+00 0.  1.
</event>
<event>
 5    1  0.7220939E+001  0.1598270E+01  0.7818608E-02  0.3355244E+00
         11   -1    0    0    0    0  0.00000000000E+00  0.00000000000E+00  0.39999999674E+01  0.40000000000E+01  0.51100000000E-03 0.  1.
    9000002   -1    0    0    0    0 -0.00000000000E+00 -0.00000000000E+00  0.00000000000E+00  0.93800000000E+00  0.93800000000E+00 0.  1.
         11    1    1    2    0    0  0.41630489964E-01  0.36105542845E-01  0.31200234151E+00  0.31683186416E+00  0.51100000000E-03 0.  1.
    9000002    1    1    2    0    0 -0.30278149308E+00 -0.23237636076E+00  0.99193354493E-01  0.10175257870E+01  0.93800000000E+00 0.  1.
         22    1    1    2    0    0  0.26115100312E+00  0.19627081791E+00  0.35888042714E+01  0.36036423489E+01  0.00000000000E+00 0.  1.
</event>
<event>
 5    1  0.7220939E+001  0.1590842E+01  0.7818608E-02  0.3363363E+00
         11   -1    0    0    0    0  0.00000000000E+00  0.00000000000E+00  0.39999999674E+01  0.40000000000E+01  0.51100000000E-03 0.  1.
    9000002   -1    0    0    0    0 -0.00000000000E+00 -0.00000000000E+00  0.00000000000E+00  0.93800000000E+00  0.93800000000E+00 0.  1.
         11    1    1    2    0    0  0.11518083082E-01 -0.37362328779E-01  0.28220132689E+00  0.28489727951E+00  0.51100000000E-03 0.  1.
    9000002    1    1    2    0    0  0.27922474449E+00 -0.16422172053E+00  0.77205233871E-01  0.99535917114E+00  0.93800000000E+00 0.  1.
         22    1    1    2    0    0 -0.29074282757E+00  0.20158404931E+00  0.36405934066E+01  0.36577435494E+01  0.00000000000E+00 0.  1.
</event>
<event>
 5    1  0.7220939E+001  0.1599663E+01  0.7818608E-02  0.3353729E+00
         11   -1    0    0    0    0  0.00000000000E+00  0.00000000000E+00  0.39999999674E+01  0.40000000000E+01  0.51100000000E-03 0. -1.
    9000002   -1    0    0    0    0 -0.00000000000E+00 -0.00000000000E+00  0.00000000000E+00  0.93800000000E+00  0.93800000000E+00 0.  1.
         11    1    1    2    0    0 -0.10949249300E+00  0.93855523295E-01  0.14545402646E+01  0.14616720247E+01  0.51100000000E-03 0. -1.
    9000002    1    1    2    0    0  0.28220911513E+00 -0.25309101888E+00  0.96685766355E-01  0.10163115595E+01  0.93800000000E+00 0.  1.
         22    1    1    2    0    0 -0.17271662213E+00  0.15923549558E+00  0.24487739364E+01  0.24600164158E+01  0.00000000000E+00 0. -1.
</event>
<event>
 5    1  0.7220939E+001  0.1599638E+01  0.7818608E-02  0.3353756E+00
         11   -1    0    0    0    0  0.00000000000E+00  0.00000000000E+00  0.39999999674E+01  0.40000000000E+01  0.51100000000E-03 0.  1.
    9000002   -1    0    0    0    0 -0.00000000000E+00 -0.00000000000E+00  0.00000000000E+00  0.93800000000E+00  0.93800000000E+00 0.  1.
         11    1    1    2    0    0 -0.64000112080E-01  0.11246707989E+00  0.74170782670E+00  0.75291142887E+00  0.51100000000E-03 0.  1.
    9000002    1    1    2    0    0  0.30921698641E+00 -0.53796376339E+00  0.26987550763E+00  0.11565884942E+01  0.93800000000E+00 0.  1.
         22    1    1    2    0    0 -0.24521687433E+00  0.42549668350E+00  0.29884166330E+01  0.30285000769E+01  0.00000000000E+00 0.  1.
</event>
<event>
 5    1  0.7220939E+001  0.1599672E+01  0.7818608E-02  0.3353719E+00
         11   -1    0    0    0    0  0.00000000000E+00  0.00000000000E+00  0.39999999674E+01  0.40000000000E+01  0.51100000000E-03 0.  1.
    9000002   -1    0    0    0    0 -0.00000000000E+00 -0.00000000000E+00  0.00000000000E+00  0.93800000000E+00  0.93800000000E+00 0. -1.
         11    1    1    2    0    0 -0.91686702044E-02  0.63468236509E-01  0.41180235657E+00  0.41676578981E+00  0.51100000000E-03 0.  1.
    9000002    1    1    2    0    0  0.88241022983E-01 -0.56693229911E+00  0.22844040160E+00  0.11230439559E+01  0.93800000000E+00 0. -1.
         22    1    1    2    0    0 -0.79072352779E-01  0.50346406260E+00  0.33597572092E+01  0.33981902542E+01  0.00000000000E+00 0.  1.
</event>
<event>
 5    1  0.7220939E+001  0.1593880E+01  0.7818608E-02  0.3360032E+00
         11   -1    0    0    0    0  0.00000000000E+00  0.00000000000E+00  0.39999999674E+01  0.40000000000E+01  0.51100000000E-03 0.  1.
    9000002   -1    0    0    0    0 -0.00000000000E+00 -0.00000000000E+00  0.00000000000E+00  0.93800000000E+00  0.93800000000E+00 0. -1.
         11    1    1    2    0    0 -0.62608149292E-01 -0.17239017440E-01  0.13183913000E+01  0.13199897140E+01  0.51100000000E-03 0.  1.
    9000002    1    1    2    0    0  0.20588899786E+00 -0.20631604879E+00  0.61162134876E-01  0.98414500871E+00  0.93800000000E+00 0. -1.
         22    1    1    2    0    0 -0.14328084857E+00  0.22355506623E+00  0.26204465325E+01  0.26338652773E+01  0.00000000000E+00 0.  1.
</event>
<event>
 5    1  0.7220939E+001  0.1598999E+01  0.7818608E-02  0.3354451E+00
         11   -1    0    0    0    0  0.00000000000E+00  0.00000000000E+00  0.39999999674E+01  0.40000000000E+01  0.51100000000E-03 0.  1.
    9000002   -1    0    0    0    0 -0.00000000000E+00 -0.00000000000E+00  0.00000000000E+00  0.93800000000E+00  0.93800000000E+00 0. -1.
         11    1    1    2    0    0  0.13873407365E+00  0.56365069352E-01  0.12049100250E+01  0.12141798029E+01  0.51100000000E-03 0.  1.
    9000002    1    1    2    0    0 -0.40642893548E+00 -0.97109821088E-01  0.11863039925E+00  0.10336981999E+01  0.93800000000E+00 0. -1.
         22    1    1    2    0    0  0.26769486183E+00  0.40744751736E-01  0.26764595431E+01  0.26901219972E+01  0.00000000000E+00 0.  1.
</event>
<event>
 5    1  0.7220939E+001  0.1599186E+01  0.7818608E-02  0.3354248E+00
         11   -1    0    0    0    0  0.00000000000E+00  0.00000000000E+00  0.39999999674E+01  0.40000000000E+01  0.51100000000E-03 0. -1.
    9000002   -1    0    0    0    0 -0.00000000000E+00 -0.00000000000E+00  0.00000000000E+00  0.93800000000E+00  0.93800000000E+00 0. -1.
         11    1    1    2    0    0  0.16700163304E+00  0.64843130376E-01  0.10011718796E+01  0.10170740241E+01  0.51100000000E-03 0. -1.
    9000002    1    1    2    0    0 -0.53718947080E+00 -0.24676103106E+00  0.24384821249E+00  0.11352398358E+01  0.93800000000E+00 0. -1.
         22    1    1    2    0    0  0.37018783776E+00  0.18191790068E+00  0.27549798753E+01  0.27856861401E+01  0.00000000000E+00 0. -1.
</event>
<event>
 5    1  0.7220939E+001  0.1597189E+01  0.7818608E-02  0.3356420E+00
         11   -1    0    0    0    0  0.00000000000E+00  0.00000000000E+00  0.39999999674E+01  0.40000000000E+01  0.51100000000E-03 0.  1.
    9000002   -1    0    0    0    0 -0.00000000000E+00 -0.00000000000E+00  0.00000000000E+00  0.93800000000E+00  0.93800000000E+00 0.  1.
         11    1    1    2    0    0 -0.16368385708E+00 -0.10494469527E+00  0.12502605022E+01  0.12652894446E+01  0.51100000000E-03 0.  1.
    9000002    1    1    2    0    0  0.40228484818E+00  0.18389923991E+00  0.13487398359E+00  0.10457949230E+01  0.93800000000E+00 0.  1.
         22    1    1    2    0    0 -0.23860099110E+00 -0.78954544638E-01  0.26148654816E+01  0.26269156324E+01  0.00000000000E+00 0.  1.
</event>
<event>
 5    1  0.7220939E+001  0.1598233E+01  0.7818608E-02  0.3355284E+00
         11   -1    0    0    0    0  0.00000000000E+00  0.00000000000E+00  0.39999999674E+01  0.40000000000E+01  0.51100000000E-03 0.  1.
    9000002   -1    0    0    0    0 -0.00000000000E+00 -0.00000000000E+00  0.00000000000E+00  0.93800000000E+00  0.93800000000E+00 0. -1.
         11    1    1    2    0    0 -0.34827304801E-01 -0.84247079698E-01  0.12894367180E+01  0.12926553379E+01  0.51100000000E-03 0.  1.
    9000002    1    1    2    0    0  0.12505456172E+00  0.38299391518E+00  0.11073595486E+00  0.10268541445E+01  0.93800000000E+00 0. -1.
         22    1    1    2    0    0 -0.90227256920E-01 -0.29874683548E+00  0.25998272945E+01  0.26184905176E+01  0.00000000000E+00 0. -1.
</event>
<event>
 5    1  0.7220939E+001  0.1599669E+01  0.7818608E-02  0.3353723E+00
         11   -1    0    0    0    0  0.00000000000E+00  0.00000000000E+00  0.39999999674E+01  0.40000000000E+01  0.51100000000E-03 0.  1.
    9000002   -1    0    0    0    0 -0.00000000000E+00 -0.00000000000E+00  0.00000000000E+00  0.93800000000E+00  0.93800000000E+00 0. -1.
         11    1    1    2    0    0  0.77028199676E-01 -0.12043152264E+00  0.10093011076E+01  0.10193753391E+01  0.51100000000E-03 0.  1.
    9000002    1    1    2    0    0 -0.30041585655E+00  0.45661783985E+00  0.20622100472E+00  0.11050432758E+01  0.93800000000E+00 0. -1.
         22    1    1    2    0    0  0.22338765687E+00 -0.33618631721E+00  0.27844778551E+01  0.28135813851E+01  0.00000000000E+00 0.  1.
</event>
<event>
 5    1  0.7220939E+001  0.1598598E+01  0.7818608E-02  0.3354887E+00
         11   -1    0    0    0    0  0.00000000000E+00  0.00000000000E+00  0.39999999674E+01  0.40000000000E+01  0.51100000000E-03 0.  1.
    9000002   -1    0    0    0    0 -0.00000000000E+00 -0.00000000000E+00  0.00000000000E+00  0.93800000000E+00  0.93800000000E+00 0.  1.
         11    1    1    2    0    0  0.50945837762E-01 -0.12878373247E+00  0.14743151595E+01  0.14808059220E+01  0.51100000000E-03 0.  1.
    9000002    1    1    2    0    0 -0.78074674727E-01  0.42276390250E+00  0.12608718380E+00  0.10395032227E+01  0.93800000000E+00 0.  1.
         22    1    1    2    0    0  0.27128836966E-01 -0.29398017003E+00  0.23995976241E+01  0.24176908553E+01  0.00000000000E+00 0.  1.
</event>
<event>
 5    1  0.7220939E+001  0.1599676E+01  0.7818608E-02  0.3353715E+00
         11   -1    0    0    0    0  0.00000000000E+00  0.00000000000E+00  0.39999999674E+01  0.40000000000E+01  0.51100000000E-03 0.  1.
    9000002   -1    0    0    0    0 -0.00000000000E+00 -0.00000000000E+00  0.00000000000E+00  0.93800000000E+00  0.93800000000E+00 0. -1.
         11    1    1    2    0    0  0.10507248611E+00  0.79815630439E-02  0.10294275839E+01  0.10348069116E+01  0.51100000000E-03 0. -1.
    9000002    1    1    2    0    0 -0.40013620752E+00 -0.26843671634E-01  0.10849825903E+00  0.10258876349E+01  0.93800000000E+00 0. -1.
         22    1    1    2    0    0  0.29506372142E+00  0.18862108590E-01  0.28620741244E+01  0.28773054535E+01  0.00000000000E+00 0.  1.
</event>
<event>
 5    1  0.7220939E+001  0.1599274E+01  0.7818608E-02  0.3354152E+00
         11   -1    0    0    0    0  0.00000000000E+00  0.00000000000E+00  0.39999999674E+01  0.40000000000E+01  0.51100000000E-03 0.  1.
    9000002   -1    0    0    0    0 -0.00000000000E+00 -0.00000000000E+00  0.00000000000E+00  0.93800000000E+00  0.93800000000E+00 0.  1.
         11    1    1    2    0    0 -0.13604967368E+00  0.36627351794E+00  0.95849928402E+00  0.10350782300E+01  0.51100000000E-03 0.  1.
    9000002    1    1    2    0    0  0.45590218341E+00 -0.10729256713E+01  0.12463912496E+01  0.19473960676E+01  0.93800000000E+00 0.  1.
         22    1    1    2    0    0 -0.31985250973E+00  0.70665215333E+00  0.17951094337E+01  0.19555257024E+01  0.00000000000E+00 0.  1.
</event>
<event>
 5    1  0.7220939E+001  0.1596039E+01  0.7818608E-02  0.3357674E+00
         11   -1    0    0    0    0  0.00000000000E+00  0.00000000000E+00  0.39999999674E+01  0.40000000000E+01  0.51100000000E-03 0.  1.
    9000002   -1    0    0    0    0 -0.00000000000E+00 -0.00000000000E+00  0.00000000000E+00  0.93800000000E+00  0.93800000000E+00 0.  1.
         11    1    1    2    0    0  0.66496963856E-01  0.17975517644E+00  0.83511646598E+00  0.85682760374E+00  0.51100000000E-03 0.  1.
    9000002    1    1    2    0    0 -0.10553795320E+00 -0.60729977479E+00  0.26973181218E+00  0.11543615233E+01  0.93800000000E+00 0.  1.
         22    1    1    2    0    0  0.39040989347E-01  0.42754459836E+00  0.28951516892E+01  0.29268108729E+01  0.00000000000E+00 0.  1.
</event>
<event>
 5    1  0.7220939E+001  0.1599602E+01  0.7818608E-02  0.3353796E+00
         11   -1    0    0    0    0  0.00000000000E+00  0.00000000000E+00  0.39999999674E+01  0.40000000000E+01  0.51100000000E-03 0.  1.
    9000002   -1    0    0    0    0 -0.00000000000E+00 -0.00000000000E+00  0.00000000000E+00  0.93800000000E+00  0.93800000000E+00 0.  1.
         11    1    1    2    0    0 -0.82437419059E-01 -0.11314937981E+00  0.13568158600E+01  0.13640191528E+01  0.51100000000E-03 0.  1.
    9000002    1    1    2    0    0  0.24234072859E+00  0.35107373981E+00  0.12325026850E+00  0.10377940201E+01  0.93800000000E+00 0.  1.
         22    1    1    2    0    0 -0.15990330953E+00 -0.23792435999E+00  0.25199338389E+01  0.25361868271E+01  0.00000000000E+00 0.  1.
</event>
<event>
 5    1  0.7220939E+001  0.1599675E+01  0.7818608E-02  0.3353716E+00
         11   -1    0    0    0    0  0.00000000000E+00  0.00000000000E+00  0.39999999674E+01  0.40000000000E+01  0.51100000000E-03 0.  1.
    9000002   -1    0    0    0    0 -0.00000000000E+00 -0.00000000000E+00  0.00000000000E+00  0.93800000000E+00  0.93800000000E+00 0.  1.
         11    1    1    2    0    0  0.15729557728E-01  0.25426950392E-01  0.29959097971E+00  0.30107966560E+00  0.51100000000E-03 0.  1.
    9000002    1    1    2    0    0 -0.20191523423E+00 -0.32077878244E+00  0.96656663899E-01  0.10162948882E+01  0.93800000000E+00 0.  1.
         22    1    1    2    0    0  0.18618567650E+00  0.29535183205E+00  0.36037523238E+01  0.36206254462E+01  0.00000000000E+00 0.  1.
</event>
<event>
 5    1  0.7220939E+001  0.1599673E+01  0.7818608E-02  0.3353718E+00
         11   -1    0    0    0    0  0.00000000000E+00  0.00000000000E+00  0.39999999674E+01  0.40000000000E+01  0.51100000000E-03 0.  1.
    9000002   -1    0    0    0    0 -0.00000000000E+00 -0.00000000000E+00  0.00000000000E+00  0.93800000000E+00  0.93800000000E+00 0. -1.
         11    1    1    2    0    0 -0.55560337068E-02  0.14702173326E-01  0.16098253910E+00  0.16174876329E+00  0.51100000000E-03 0.  1.
    9000002    1    1    2    0    0  0.15154226077E+00 -0.36434778311E+00  0.10496338931E+00  0.10230228135E+01  0.93800000000E+00 0. -1.
         22    1    1    2    0    0 -0.14598622706E+00  0.34964560979E+00  0.37340540390E+01  0.37532284232E+01  0.00000000000E+00 0.  1.
</event>
<event>
 5    1  0.7220939E+001  0.1599552E+01  0.7818608E-02  0.3353850E+00
         11   -1    0    0    0    0  0.00000000000E+00  0.00000000000E+00  0.39999999674E+01  0.40000000000E+01  0.51100000000E-03 0.  1.
    9000002   -1    0    0    0    0 -0.00000000000E+00 -0.00000000000E+00  0.00000000000E+00  0.93800000000E+00  0.93800000000E+00 0.  1.
         11    1    1    2    0    0 -0.36514338804E-01 -0.10843684569E+00  0.99544873687E+00  0.10020031414E+01  0.51100000000E-03 0.  1.
    9000002    1    1    2    0    0  0.17225945039E+00  0.38772787476E+00  0.12191621349E+00  0.10366840339E+01  0.93800000000E+00 0.  1.
         22    1    1    2    0    0 -0.13574511159E+00 -0.27929102907E+00  0.28826350170E+01  0.28993128247E+01  0.00000000000E+00 0.  1.
</event>
<event>
 5    1  0.7220939E+001  0.1599376E+01  0.7818608E-02  0.3354040E+00
         11   -1    0    0    0    0  0.00000000000E+00  0.00000000000E+00  0.39999999674E+01  0.40000000000E+01  0.51100000000E-03 0. -1.
    9000002   -1    0    0    0    0 -0.00000000000E+00 -0.00000000000E+00  0.00000000000E+00  0.93800000000E+00  0.93800000000E+00 0. -1.
         11    1    1    2    0    0  0.13183492733E+00  0.57622417460E-01  0.11267481410E+01  0.11358971896E+01  0.51100000000E-03 0. -1.
    9000002    1    1    2    0    0 -0.41480973273E+00 -0.14454765864E+00  0.13110941867E+00  0.10440281700E+01  0.93800000000E+00 0. -1.
         22    1    1    2    0    0  0.28297480540E+00  0.86925241177E-01  0.27421424077E+01  0.27580746405E+01  0.00000000000E+00 0. -1.
</event>
<event>
 5    1  0.7220939E+001  0.1599673E+01  0.7818608E-02  0.3353718E+00
         11   -1    0    0    0    0  0.00000000000E+00  0.00000000000E+00  0.39999999674E+01  0.40000000000E+01  0.51100000000E-03 0. -1.
    9000002   -1    0    0    0    0 -0.00000000000E+00 -0.00000000000E+00  0.00000000000E+00  0.93800000000E+00  0.93800000000E+00 0. -1.
         11    1    1    2    0    0  0.73222988275E-01 -0.90359384128E-01  0.73793856411E+00  0.74704752850E+00  0.51100000000E-03 0. -1.
    9000002    1    1    2    0    0 -0.37572250119E+00  0.45169138975E+00  0.24021215424E+00  0.11325804115E+01  0.93800000000E+00 0. -1.
         22    1    1    2    0    0  0.30249951292E+00 -0.36133200563E+00  0.30218492490E+01  0.30583720600E+01  0.00000000000E+00 0. -1.
</event>
<event>
 5    1  0.7220939E+001  0.1599676E+01  0.7818608E-02  0.3353715E+00
         11   -1    0    0    0    0  0.00000000000E+00  0.00000000000E+00  0.39999999674E+01  0.40000000000E+01  0.51100000000E-03 0.  1.
    9000002   -1    0    0    0    0 -0.00000000000E+00 -0.00000000000E+00  0.00000000000E+00  0.93800000000E+00  0.93800000000E+00 0. -1.
         11    1    1    2    0    0 -0.62707602319E-02  0.44353841762E-01  0.22914449785E+00  0.23348243559E+00  0.51100000000E-03 0. -1.
    9000002    1    1    2    0    0  0.99117944325E-01 -0.70961152757E+00  0.36855930195E+00  0.12365487641E+01  0.93800000000E+00 0. -1.
         22    1    1    2    0    0 -0.92847184093E-01  0.66525768580E+00  0.34022961676E+01  0.34679688003E+01  0.00000000000E+00 0.  1.
</event>
<event>
 5    1  0.7220939E+001  0.1599674E+01  0.7818608E-02  0.3353718E+00
         11   -1    0    0    0    0  0.00000000000E+00  0.00000000000E+00  0.39999999674E+01  0.40000000000E+01  0.51100000000E-03 0.  1.
    9000002   -1    0    0    0    0 -0.00000000000E+00 -0.00000000000E+00  0.00000000000E+00  0.93800000000E+00  0.93800000000E+00 0.  1.
         11    1    1    2    0    0 -0.14787464672E-01 -0.38923742561E-01  0.45091032924E+00  0.45282901076E+00  0.51100000000E-03 0.  1.
    9000002    1    1    2    0    0  0.11797896801E+00  0.34277334624E+00  0.88240227786E-01  0.10094765681E+01  0.93800000000E+00 0.  1.
         22    1    1    2    0    0 -0.10319150334E+00 -0.30384960368E+00  0.34608494103E+01  0.34756944211E+01  0.00000000000E+00 0.  1.
</event>
<event>
 5    1  0.7220939E+001  0.1597942E+01  0.7818608E-02  0.3355600E+00
         11   -1    0    0    0    0  0.00000000000E+00  0.00000000000E+00  0.39999999674E+01  0.40000000000E+01  0.51100000000E-03 0.  1.
    9000002   -1    0    0    0    0 -0.00000000000E+00 -0.00000000000E+00  0.00000000000E+00  0.93800000000E+00  0.93800000000E+00 0.  1.
         11    1    1    2    0    0  0.12373933590E+00 -0.55871569580E-01  0.12689787093E+01  0.12762210942E+01  0.51100000000E-03 0.  1.
    9000002    1    1    2    0    0 -0.33213408055E+00  0.30627964285E+00  0.14017413029E+00  0.10505298920E+01  0.93800000000E+00 0.  1.
         22    1    1    2    0    0  0.20839474466E+00 -0.25040807327E+00  0.25908471278E+01  0.26112490138E+01  0.00000000000E+00 0.  1.
</event>
<event>
 5    1  0.7220939E+001  0.1599677E+01  0.7818608E-02  0.3353714E+00
         11   -1    0    0    0    0  0.00000000000E+00  0.00000000000E+00  0.39999999674E+01  0.40000000000E+01  0.51100000000E-03 0.  1.
    9000002   -1    0    0    0    0 -0.00000000000E+00 -0.00000000000E+00  0.00000000000E+00  0.93800000000E+00  0.93800000000E+00 0. -1.
         11    1    1    2    0    0 -0.27009139584E-01  0.12923826959E+00  0.14276686898E+01  0.14337608492E+01  0.51100000000E-03 0.  1.
    9000002    1    1    2    0    0  0.74984201731E-01 -0.35483390901E+00  0.88318001437E-01  0.10095413824E+01  0.93800000000E+00 0. -1.
         22    1    1    2    0    0 -0.47975062147E-01  0.22559563942E+00  0.24840132762E+01  0.24946977683E+01  0.00000000000E+00 0.  1.
</event>
<event>
 5    1  0.7220939E+001  0.1599385E+01  0.7818608E-02  0.3354031E+00
         11   -1    0    0    0    0  0.00000000000E+00  0.00000000000E+00  0.39999999674E+01  0.40000000000E+01  0.51100000000E-03 0.  1.
    9000002   -1    0    0    0    0 -0.00000000000E+00 -0.00000000000E+00  0.00000000000E+00  0.93800000000E+00  0.93800000000E+00 0.  1.
         11    1    1    2    0    0 -0.10326016864E-01 -0.11549808305E-01  0.20926273567E+00  0.20983607496E+00  0.51100000000E-03 0.  1.
    9000002    1    1    2    0    0  0.36388024381E+00  0.21222292867E+00  0.12027549952E+00  0.10352572623E+01  0.93800000000E+00 0.  1.
         22    1    1    2    0    0 -0.35355422694E+00 -0.20067312036E+00  0.36704617322E+01  0.36929066628E+01  0.00000000000E+00 0.  1.
</event>
<event>
 5    1  0.7220939E+001  0.1599593E+01  0.7818608E-02  0.3353806E+00
         11   -1    0    0    0    0  0.00000000000E+00  0.00000000000E+00  0.39999999674E+01  0.40000000000E+01  0.51100000000E-03 0. -1.
    9000002   -1    0    0    0    0 -0.00000000000E+00 -0.00000000000E+00  0.00000000000E+00  0.93800000000E+00  0.93800000000E+00 0.  1.
         11    1    1    2    0    0  0.16301803232E-02 -0.14345848369E-02  0.20536496487E-01  0.20657306952E-01  0.51100000000E-03 0. -1.
    9000002    1    1    2    0    0 -0.98930533823E-01  0.46722391615E+00  0.15564159653E+00  0.10640271354E+01  0.93800000000E+00 0.  1.
         22    1    1    2    0    0  0.97300353500E-01 -0.46578933131E+00  0.38238218743E+01  0.38533155576E+01  0.00000000000E+00 0. -1.
</event>
<event>
 5    1  0.7220939E+001  0.1599666E+01  0.7818608E-02  0.3353726E+00
         11   -1    0    0    0    0  0.00000000000E+00  0.00000000000E+00  0.39999999674E+01  0.40000000000E+01  0.51100000000E-03 0.  1.
    9000002   -1    0    0    0    0 -0.00000000000E+00 -0.00000000000E+00  0.00000000000E+00  0.93800000000E+00  0.93800000000E+00 0.  1.
         11    1    1    2    0    0  0.18950604511E-02  0.51314395775E-01  0.53135903020E+00  0.53383465471E+00  0.51100000000E-03 0.  1.
    9000002    1    1    2    0    0  0.53158164675E-02 -0.38209405238E+00  0.98285394044E-01  0.10176090317E+01  0.93800000000E+00 0.  1.
         22    1    1    2    0    0 -0.72108769186E-02  0.33077965660E+00  0.33703555431E+01  0.33865563136E+01  0.00000000000E+00 0.  1.
</event>
<event>
 5    1  0.7220939E+001  0.1599675E+01  0.7818608E-02  0.3353716E+00
         11   -1    0    0    0    0  0.00000000000E+00  0.00000000000E+00  0.39999999674E+01  0.40000000000E+01  0.51100000000E-03 0.  1.
    9000002   -1    0    0    0    0 -0.00000000000E+00 -0.00000000000E+00  0.00000000000E+00  0.93800000000E+00  0.93800000000E+00 0.  1.
         11    1    1    2    0    0 -0.17044845942E+00  0.23526717800E-01  0.93725965516E+00  0.95292292767E+00  0.51100000000E-03 0.  1.
    9000002    1    1    2    0    0  0.66625942007E+00 -0.87969543312E-01  0.32043459655E+00  0.11975652742E+01  0.93800000000E+00 0.  1.
         22    1    1    2    0    0 -0.49581096064E+00  0.64442825512E-01  0.27423057156E+01  0.27875117981E+01  0.00000000000E+00 0. -1.
</event>
<event>
 5    1  0.7220939E+001  0.1598181E+01  0.7818608E-02  0.3355340E+00
         11   -1    0    0    0    0  0.00000000000E+00  0.00000000000E+00  0.39999999674E+01  0.40000000000E+01  0.51100000000E-03 0.  1.
    9000002   -1    0    0    0    0 -0.00000000000E+00 -0.00000000000E+00  0.00000000000E+00  0.93800000000E+00  0.93800000000E+00 0.  1.
         11    1    1    2    0    0  0.81197032145E-01  0.10550596439E+00  0.84053934305E+00  0.85101769364E+00  0.51100000000E-03 0.  1.
    9000002    1    1    2    0    0 -0.25832263723E+00 -0.35019001917E+00  0.12961557999E+00  0.10421169958E+01  0.93800000000E+00 0.  1.
         22    1    1    2    0    0  0.17712560508E+00  0.24468405479E+00  0.30298450443E+01  0.30448653105E+01  0.00000000000E+00 0.  1.
</event>
<event>
 5    1  0.7220939E+001  0.1579441E+01  0.7818608E-02  0.3375984E+00
         11   -1    0    0    0    0  0.00000000000E+00  0.00000000000E+00  0.39999999674E+01  0.40000000000E+01  0.51100000000E-03 0. -1.
    9000002   -1    0    0    0    0 -0.00000000000E+00 -0.00000000000E+00  0.00000000000E+00  0.93800000000E+00  0.93800000000E+00 0. -1.
         11    1    1    2    0    0  0.91113772863E-01  0.27610957827E-01  0.97263827518E+00  0.97728683612E+00  0.51100000000E-03 0. -1.
    9000002    1    1    2    0    0  0.15358191864E+00  0.17864940509E+00  0.52362202102E-01  0.96854985204E+00  0.93800000000E+00 0. -1.
         22    1    1    2    0    0 -0.24469569150E+00 -0.20626036291E+00  0.29749994901E+01  0.29921633118E+01  0.00000000000E+00 0. -1.
</event>
<event>
 5    1  0.7220939E+001  0.1597663E+01  0.7818608E-02  0.3355904E+00
         11   -1    0    0    0    0  0.00000000000E+00  0.00000000000E+00  0.39999999674E+01  0.40000000000E+01  0.51100000000E-03 0. -1.
    9000002   -1    0    0    0    0 -0.00000000000E+00 -0.00000000000E+00  0.00000000000E+00  0.93800000000E+00  0.93800000000E+00 0.  1.
         11    1    1    2    0    0  0.17094077095E+00 -0.68170095131E-02  0.11218741200E+01  0.11348431702E+01  0.51100000000E-03 0. -1.
    9000002    1    1    2    0    0 -0.46825696596E+00  0.14531619105E+00  0.16609021032E+00  0.10713595753E+01  0.93800000000E+00 0.  1.
         22    1    1    2    0    0  0.29731619501E+00 -0.13849918153E+00  0.27120356370E+01  0.27317972545E+01  0.00000000000E+00 0.  1.
</event>
<event>
 5    1  0.7220939E+001  0.1599634E+01  0.7818608E-02  0.3353760E+00
         11   -1    0    0    0    0  0.00000000000E+00  0.00000000000E+00  0.39999999674E+01  0.40000000000E+01  0.51100000000E-03 0.  1.
    9000002   -1    0    0    0    0 -0.00000000000E+00 -0.00000000000E+00  0.00000000000E+00  0.93800000000E+00  0.93800000000E+00 0.  1.
         11    1    1    2    0    0  0.98631499692E-01  0.10463865012E+00  0.83233543765E+00  0.84466559165E+00  0.51100000000E-03 0.  1.
    9000002    1    1    2    0    0 -0.46194404536E+00 -0.47889386681E+00  0.31363437046E+00  0.11920327827E+01  0.93800000000E+00 0.  1.
         22    1    1    2    0    0  0.36331254567E+00  0.37425521669E+00  0.28540301593E+01  0.29013016256E+01  0.00000000000E+00 0.  1.
</event>
<event>
 5    1  0.7220939E+001  0.1597566E+01  0.7818608E-02  0.3356009E+00
         11   -1    0    0    0    0  0.00000000000E+00  0.00000000000E+00  0.39999999674E+01  0.40000000000E+01  0.51100000000E-03 0.  1.
    9000002   -1    0    0    0    0 -0.00000000000E+00 -0.00000000000E+00  0.00000000000E+00  0.93800000000E+00  0.93800000000E+00 0.  1.
         11    1    1    2    0    0  0.58913587544E-01  0.10608607352E-01  0.93439482388E+00  0.93631047274E+00  0.51100000000E-03 0.  1.
    9000002    1    1    2    0    0 -0.28551279226E+00 -0.23784364911E+00  0.94541973764E-01  0.10133456176E+01  0.93800000000E+00 0.  1.
         22    1    1    2    0    0  0.22659920472E+00  0.22723504176E+00  0.29710631697E+01  0.29883439096E+01  0.00000000000E+00 0.  1.
</event>
<event>
 5    1  0.7220939E+001  0.1599676E+01  0.7818608E-02  0.3353715E+00
         11   -1    0    0    0    0  0.00000000000E+00  0.00000000000E+00  0.39999999674E+01  0.40000000000E+01  0.51100000000E-03 0. -1.
    9000002   -1    0    0    0    0 -0.00000000000E+00 -0.00000000000E+00  0.00000000000E+00  0.93800000000E+00  0.93800000000E+00 0.  1.
         11    1    1    2    0    0  0.37350779024E-01 -0.23889596138E-01  0.49795651638E+00  0.49992674145E+00  0.51100000000E-03 0. -1.
    9000002    1    1    2    0    0 -0.29979176016E+00  0.18792552408E+00  0.83978479835E-01  0.10060255897E+01  0.93800000000E+00 0.  1.
         22    1    1    2    0    0  0.26244098113E+00 -0.16403592794E+00  0.34180649711E+01  0.34320476688E+01  0.00000000000E+00 0. -1.
</event>
<event>
 5    1  0.7220939E+001  0.1597621E+01  0.7818608E-02  0.3355950E+00
         11   -1    0    0    0    0  0.00000000000E+00  0.00000000000E+00  0.39999999674E+01  0.40000000000E+01  0.51100000000E-03 0.  1.
    9000002   -1    0    0    0    0 -0.00000000000E+00 -0.00000000000E+00  0.00000000000E+00  0.93800000000E+00  0.93800000000E+00 0. -1.
         11    1    1    2    0    0  0.31038313715E-01  0.13412941193E+00  0.57045098958E+00  0.58682933524E+00  0.51100000000E-03 0.  1.
    9000002    1    1    2    0    0 -0.36010855769E+00 -0.65364505809E+00  0.40574454020E+00  0.12654653955E+01  0.93800000000E+00 0. -1.
         22    1    1    2    0    0  0.32907024397E+00  0.51951564616E+00  0.30238044376E+01  0.30857052693E+01  0.00000000000E+00 0.  1.
</event>
<event>
 5    1  0.7643771E+001  0.1582054E+01  0.7818608E-02  0.3373074E+00
         11   -1    0    0    0    0  0.00000000000E+00  0.00000000000E+00  0.39999999674E+01  0.40000000000E+01  0.51100000000E-03 0. -1.
    9000002   -1    0    0    0    0 -0.00000000000E+00 -0.00000000000E+00  0.00000000000E+00  0.93800000000E+00  0.93800000000E+00 0. -1.
         11    1    1    2    0    0  0.76445874085E-01 -0.58996085861E-01  0.10780290956E+01  0.10823453709E+01  0.51100000000E-03 0. -1.
    9000002    1    1    2    0    0  0.62695011284E-01 -0.17677968109E+00  0.36542384742E-01  0.95726749969E+00  0.93800000000E+00 0. -1.
         22    1    1    2    0    0 -0.13914088537E+00  0.23577576695E+00  0.28854284870E+01  0.28983871294E+01  0.00000000000E+00 0. -1.
</event>
<event>
 5    1  0.7220939E+001  0.1597992E+01  0.7818608E-02  0.3355545E+00
         11   -1    0    0    0    0  0.00000000000E+00  0.00000000000E+00  0.39999999674E+01  0.40000000000E+01  0.51100000000E-03 0. -1.
    9000002   -1    0    0    0    0 -0.00000000000E+00 -0.00000000000E+00  0.00000000000E+00  0.93800000000E+00  0.93800000000E+00 0. -1.
         11    1    1    2    0    0  0.67116603244E-01  0.69169179817E-01  0.98231038767E+00  0.98702734142E+00  0.51100000000E-03 0. -1.
    9000002    1    1    2    0    0 -0.13493556104E+00 -0.38232570578E+00  0.11236443769E+00  0.10280322552E+01  0.93800000000E+00 0. -1.
         22    1    1    2    0    0  0.67818957799E-01  0.31315652597E+00  0.29053251420E+01  0.29229404034E+01  0.00000000000E+00 0. -1.
</event>
<event>
 5    1  0.7220939E+001  0.1599674E+01  0.7818608E-02  0.3353717E+00
         11   -1    0    0    0    0  0.00000000000E+00  0.00000000000E+00  0.39999999674E+01  0.40000000000E+01  0.51100000000E-03 0.  1.
    9000002   -1    0    0    0    0 -0.00000000000E+00 -0.00000000000E+00  0.00000000000E+00  0.93800000000E+00  0.93800000000E+00 0.  1.
         11    1    1    2    0    0 -0.57012159858E-01  0.50376956639E-01  0.51453738269E+00  0.52013190965E+00  0.51100000000E-03 0.  1.
    9000002    1    1    2    0    0  0.42338744050E+00 -0.36133774257E+00  0.21426820712E+00  0.11115650019E+01  0.93800000000E+00 0.  1.
         22    1    1    2    0    0 -0.36637528064E+00  0.31096078593E+00  0.32711943775E+01  0.33063030884E+01  0.00000000000E+00 0.  1.
</event>
<event>
 5    1  0.7220939E+001  0.1599669E+01  0.7818608E-02  0.3353723E+00
         11   -1    0    0    0    0  0.00000000000E+00  0.00000000000E+00  0.39999999674E+01  0.40000000000E+01  0.51100000000E-03 0. -1.
    9000002   -1    0    0    0    0 -0.00000000000E+00 -0.00000000000E+00  0.00000000000E+00  0.93800000000E+00  0.93800000000E+00 0.  1.
         11    1    1    2    0    0  0.16007693598E+00 -0.20807591074E-01  0.11779443937E+01  0.11889536732E+01  0.51100000000E-03 0. -1.
    9000002    1    1    2    0    0 -0.52220321750E+00  0.76214445475E-01  0.19158082578E+00  0.10931843645E+01  0.93800000000E+00 0.  1.
         22    1    1    2    0    0  0.36212628152E+00 -0.55406854401E-01  0.26304747479E+01  0.26558619622E+01  0.00000000000E+00 0. -1.
</event>
<event>
 5    1  0.7220939E+001  0.1599673E+01  0.7818608E-02  0.3353719E+00
         11   -1    0    0    0    0  0.00000000000E+00  0.00000000000E+00  0.39999999674E+01  0.40000000000E+01  0.51100000000E-03 0.  1.
    9000002   -1    0    0    0    0 -0.00000000000E+00 -0.00000000000E+00  0.00000000000E+00  0.93800000000E+00  0.93800000000E+00 0. -1.
         11    1    1    2    0    0 -0.11291030770E+00  0.10266056416E+00  0.11717178467E+01  0.11816136858E+01  0.51100000000E-03 0.  1.
    9000002    1    1    2    0    0  0.36625116451E+00 -0.32896966454E+00  0.16570143653E+00  0.10722228881E+01  0.93800000000E+00 0. -1.
         22    1    1    2    0    0 -0.25334085681E+00  0.22630910038E+00  0.26625806841E+01  0.26841634261E+01  0.00000000000E+00 0.  1.
</event>
<event>
 5    1  0.7220939E+001  0.1599655E+01  0.7818608E-02  0.3353737E+00
         11   -1    0    0    0    0  0.00000000000E+00  0.00000000000E+00  0.39999999674E+01  0.40000000000E+01  0.51100000000E-03 0.  1.
    9000002   -1    0    0    0    0 -0.00000000000E+00 -0.00000000000E+00  0.00000000000E+00  0.93800000000E+00  0.93800000000E+00 0. -1.
         11    1    1    2    0    0  0.14092528093E+00  0.56970529155E-01  0.13869305477E+01  0.13952355290E+01  0.51100000000E-03 0.  1.
    9000002    1    1    2    0    0 -0.40122276395E+00 -0.17175598667E+00  0.12913548800E+00  0.10425928254E+01  0.93800000000E+00 0. -1.
         22    1    1    2    0    0  0.26029748302E+00  0.11478545752E+00  0.24839339316E+01  0.25001716456E+01  0.00000000000E+00 0.  1.
</event>
<event>
 5    1  0.7220939E+001  0.1599666E+01  0.7818608E-02  0.3353726E+00
         11   -1    0    0    0    0  0.00000000000E+00  0.00000000000E+00  0.39999999674E+01  0.40000000000E+01  0.51100000000E-03 0. -1.
    9000002   -1    0    0    0    0 -0.00000000000E+00 -0.00000000000E+00  0.00000000000E+00  0.93800000000E+00  0.93800000000E+00 0. -1.
         11    1    1    2    0    0  0.21364332125E-01  0.85139819437E-01  0.66291158281E+00  0.66869817653E+00  0.51100000000E-03 0. -1.
    9000002    1    1    2    0    0 -0.11070332636E+00 -0.48015576825E+00  0.16602341079E+00  0.10724796321E+01  0.93800000000E+00 0. -1.
         22    1    1    2    0    0  0.89338994237E-01  0.39501594881E+00  0.31710649738E+01  0.31968221914E+01  0.00000000000E+00 0. -1.
</event>
<event>
 5    1  0.7220939E+001  0.1599592E+01  0.7818608E-02  0.3353806E+00
         11   -1    0    0    0    0  0.00000000000E+00  0.00000000000E+00  0.39999999674E+01  0.40000000000E+01  0.51100000000E-03 0.  1.
    9000002   -1    0    0    0    0 -0.00000000000E+00 -0.00000000000E+00  0.00000000000E+00  0.93800000000E+00  0.93800000000E+00 0. -1.
         11    1    1    2    0    0  0.41408523650E-02  0.36548879785E-01  0.39818722294E+00  0.39988284898E+00  0.51100000000E-03 0.  1.
    9000002    1    1    2    0    0 -0.90031003008E-01 -0.39988596210E+00  0.11354641575E+00  0.10299277415E+01  0.93800000000E+00 0. -1.
         22    1    1    2    0    0  0.85890150643E-01  0.36333708232E+00  0.34882663287E+01  0.35081894095E+01  0.00000000000E+00 0.  1.
</event>
<event>
 5    1  0.7658098E+001  0.1554597E+01  0.7818608E-02  0.3404166E+00
         11   -1    0    0    0    0  0.00000000000E+00  0.00000000000E+00  0.39999999674E+01  0.40000000000E+01  0.51100000000E-03 0. -1.
    9000002   -1    0    0    0    0 -0.00000000000E+00 -0.00000000000E+00  0.00000000000E+00  0.93800000000E+00  0.93800000000E+00 0.  1.
         11    1    1    2    0    0 -0.22097307881E+00  0.11807974785E+00  0.14395972758E+01  0.14612366358E+01  0.51100000000E-03 0. -1.
    9000002    1    1    2    0    0  0.73561304558E-01  0.90336149543E-01  0.42719870365E-01  0.94617169307E+00  0.93800000000E+00 0.  1.
         22    1    1    2    0    0  0.14741177425E+00 -0.20841589739E+00  0.25176828212E+01  0.25305916711E+01  0.00000000000E+00 0. -1.
</event>
<event>
 5    1  0.7220939E+001  0.1599671E+01  0.7818608E-02  0.3353721E+00
         11   -1    0    0    0    0  0.00000000000E+00  0.00000000000E+00  0.39999999674E+01  0.40000000000E+01  0.51100000000E-03 0.  1.
    9000002   -1    0    0    0    0 -0.00000000000E+00 -0.00000000000E+00  0.00000000000E+00  0.93800000000E+00  0.93800000000E+00 0. -1.
         11    1    1    2    0    0 -0.30980161958E-01 -0.79931763619E-01  0.79763553292E+00  0.80222912049E+00  0.51100000000E-03 0.  1.
    9000002    1    1    2    0    0  0.15026659837E+00  0.40026769270E+00  0.12375804706E+00  0.10382457949E+01  0.93800000000E+00 0. -1.
         22    1    1    2    0    0 -0.11928643641E+00 -0.32033592908E+00  0.30786063874E+01  0.30975250846E+01  0.00000000000E+00 0.  1.
</event>
<event>
 5    1  0.7220939E+001  0.1599656E+01  0.7818608E-02  0.3353737E+00
         11   -1    0    0    0    0  0.00000000000E+00  0.00000000000E+00  0.39999999674E+01  0.40000000000E+01  0.51100000000E-03 0. -1.
    9000002   -1    0    0    0    0 -0.00000000000E+00 -0.00000000000E+00  0.00000000000E+00  0.93800000000E+00  0.93800000000E+00 0.  1.
         11    1    1    2    0    0 -0.26846783201E-01 -0.89038902493E-01  0.10178950228E+01  0.10221346362E+01  0.51100000000E-03 0. -1.
    9000002    1    1    2    0    0  0.85380977219E-01  0.34757285398E+00  0.85983120611E-01  0.10076377807E+01  0.93800000000E+00 0.  1.
         22    1    1    2    0    0 -0.58534194018E-01 -0.25853395149E+00  0.28961218239E+01  0.29082275831E+01  0.00000000000E+00 0. -1.
</event>
<event>
 5    1  0.7220939E+001  0.1599668E+01  0.7818608E-02  0.3353724E+00
         11   -1    0    0    0    0  0.00000000000E+00  0.00000000000E+00  0.39999999674E+01  0.40000000000E+01  0.51100000000E-03 0. -1.
    9000002   -1    0    0    0    0 -0.00000000000E+00 -0.00000000000E+00  0.00000000000E+00  0.93800000000E+00  0.93800000000E+00 0. -1.
         11    1    1    2    0    0 -0.14644624004E-01  0.92733454033E-01  0.10308384473E+01  0.10351048856E+01  0.51100000000E-03 0. -1.
    9000002    1    1    2    0    0  0.50366752421E-01 -0.36268697089E+00  0.90073112941E-01  0.10109578697E+01  0.93800000000E+00 0. -1.
         22    1    1    2    0    0 -0.35722128417E-01  0.26995351686E+00  0.28790884071E+01  0.28919372447E+01  0.00000000000E+00 0. -1.
</event>
<event>
 5    1  0.7220939E+001  0.1599676E+01  0.7818608E-02  0.3353715E+00
         11   -1    0    0    0    0  0.00000000000E+00  0.00000000000E+00  0.39999999674E+01  0.40000000000E+01  0.51100000000E-03 0.  1.
    9000002   -1    0    0    0    0 -0.00000000000E+00 -0.00000000000E+00  0.00000000000E+00  0.93800000000E+00  0.93800000000E+00 0.  1.
         11    1    1    2    0    0  0.69143241257E-01 -0.25609685917E-01  0.79851147074E+00  0.80190864433E+00  0.51100000000E-03 0.  1.
    9000002    1    1    2    0    0 -0.33482019557E+00  0.12428155474E+00  0.85592814238E-01  0.10073334096E+01  0.93800000000E+00 0.  1.
         22    1    1    2    0    0  0.26567695431E+00 -0.98671868818E-01  0.31158956824E+01  0.31287579461E+01  0.00000000000E+00 0.  1.
</event>
<event>
 5    1  0.7220939E+001  0.1597234E+01  0.7818608E-02  0.3356371E+00
         11   -1    0    0    0    0  0.00000000000E+00  0.00000000000E+00  0.39999999674E+01  0.40000000000E+01  0.51100000000E-03 0.  1.
    9000002   -1    0    0    0    0 -0.00000000000E+00 -0.00000000000E+00  0.00000000000E+00  0.93800000000E+00  0.93800000000E+00 0. -1.
         11    1    1    2    0    0  0.95654086053E-02 -0.57154625345E-01  0.70702834661E+00  0.70939938841E+00  0.51100000000E-03 0.  1.
    9000002    1    1    2    0    0  0.19530281298E+00  0.26539449119E+00  0.74589173943E-01  0.99698794856E+00  0.93800000000E+00 0. -1.
         22    1    1    2    0    0 -0.20486822158E+00 -0.20823986585E+00  0.32183824468E+01  0.32316126630E+01  0.00000000000E+00 0.  1.
</event>
<event>
 5    1  0.7220939E+001  0.1599669E+01  0.7818608E-02  0.3353722E+00
         11   -1    0    0    0    0  0.00000000000E+00  0.00000000000E+00  0.39999999674E+01  0.40000000000E+01  0.51100000000E-03 0. -1.
    9000002   -1    0    0    0    0 -0.00000000000E+00 -0.00000000000E+00  0.00000000000E+00  0.93800000000E+00  0.93800000000E+00 0. -1.
         11    1    1    2    0    0  0.13357679170E-01  0.74485536592E-03  0.14588250371E+00  0.14649555765E+00  0.51100000000E-03 0. -1.
    9000002    1    1    2    0    0 -0.35728658046E+00  0.11354065771E-01  0.85757195499E-01  0.10074626107E+01  0.93800000000E+00 0. -1.
         22    1    1    2    0    0  0.34392890129E+00 -0.12098921137E-01  0.37683602682E+01  0.37840418316E+01  0.00000000000E+00 0. -1.
</event>
<event>
 5    1  0.7220939E+001  0.1599633E+01  0.7818608E-02  0.3353761E+00
         11   -1    0    0    0    0  0.00000000000E+00  0.00000000000E+00  0.39999999674E+01  0.40000000000E+01  0.51100000000E-03 0. -1.
    9000002   -1    0    0    0    0 -0.00000000000E+00 -0.00000000000E+00  0.00000000000E+00  0.93800000000E+00  0.93800000000E+00 0. -1.
         11    1    1    2    0    0  0.44348845632E-02  0.85064937974E-03  0.32277134926E-01  0.32595496092E-01  0.51100000000E-03 0. -1.
    9000002    1    1    2    0    0 -0.65997014791E+00 -0.47943678663E-01  0.30990238312E+00  0.11890091167E+01  0.93800000000E+00 0. -1.
         22    1    1    2    0    0  0.65553526334E+00  0.47093029283E-01  0.36578204493E+01  0.37163953872E+01  0.00000000000E+00 0. -1.
</event>
<event>
 5    1  0.7220939E+001  0.1599677E+01  0.7818608E-02  0.3353714E+00
         11   -1    0    0    0    0  0.00000000000E+00  0.00000000000E+00  0.39999999674E+01  0.40000000000E+01  0.51100000000E-03 0.  1.
    9000002   -1    0    0    0    0 -0.00000000000E+00 -0.00000000000E+00  0.00000000000E+00  0.93800000000E+00  0.93800000000E+00 0. -1.
         11    1    1    2    0    0 -0.59639411398E-01  0.74364988377E-01  0.90238618640E+00  0.90740735142E+00  0.51100000000E-03 0.  1.
    9000002    1    1    2    0    0  0.25527241793E+00 -0.32058071360E+00  0.11342097637E+00  0.10298758756E+01  0.93800000000E+00 0. -1.
         22    1    1    2    0    0 -0.19563300654E+00  0.24621572523E+00  0.29841928046E+01  0.30007167730E+01  0.00000000000E+00 0.  1.
</event>
<event>
 5    1  0.7220939E+001  0.1588986E+01  0.7818608E-02  0.3365405E+00
         11   -1    0    0    0    0  0.00000000000E+00  0.00000000000E+00  0.39999999674E+01  0.40000000000E+01  0.51100000000E-03 0. -1.
    9000002   -1    0    0    0    0 -0.00000000000E+00 -0.00000000000E+00  0.00000000000E+00  0.93800000000E+00  0.93800000000E+00 0. -1.
         11    1    1    2    0    0 -0.11820782444E-01  0.20849332730E-01  0.47965853621E-01  0.53622847812E-01  0.51100000000E-03 0. -1.
    9000002    1    1    2    0    0 -0.35175011356E+00  0.16011393326E+00  0.10944384319E+00  0.10203855001E+01  0.93800000000E+00 0. -1.
         22    1    1    2    0    0  0.36357089600E+00 -0.18096326599E+00  0.38425902705E+01  0.38639916521E+01  0.00000000000E+00 0. -1.
</event>
<event>
 5    1  0.7220939E+001  0.1599675E+01  0.7818608E-02  0.3353716E+00
         11   -1    0    0    0    0  0.00000000000E+00  0.00000000000E+00  0.39999999674E+01  0.40000000000E+01  0.51100000000E-03 0.  1.
    9000002   -1    0    0    0    0 -0.00000000000E+00 -0.00000000000E+00  0.00000000000E+00  0.93800000000E+00  0.93800000000E+00 0. -1.
         11    1    1    2    0    0 -0.67415643794E-01  0.71166034350E-01  0.10209054955E+01  0.10256011727E+01  0.51100000000E-03 0.  1.
    9000002    1    1    2    0    0  0.25742313531E+00 -0.27738321134E+00  0.96339331658E-01  0.10160380816E+01  0.93800000000E+00 0. -1.
         22    1    1    2    0    0 -0.19000749151E+00  0.20621717699E+00  0.28827551402E+01  0.28963607457E+01  0.00000000000E+00 0.  1.
</event>
<event>
 5    1  0.7220939E+001  0.1598655E+01  0.7818608E-02  0.3354824E+00
         11   -1    0    0    0    0  0.00000000000E+00  0.00000000000E+00  0.39999999674E+01  0.40000000000E+01  0.51100000000E-03 0. -1.
    9000002   -1    0    0    0    0 -0.00000000000E+00 -0.00000000000E+00  0.00000000000E+00  0.93800000000E+00  0.93800000000E+00 0. -1.
         11    1    1    2    0    0  0.70757440483E-01  0.12798713261E+00  0.90958370262E+00  0.92126548545E+00  0.51100000000E-03 0. -1.
    9000002    1    1    2    0    0 -0.25306852180E+00 -0.40887749777E+00  0.15869617726E+00  0.10659516694E+01  0.93800000000E+00 0. -1.
         22    1    1    2    0    0  0.18231108131E+00  0.28089036517E+00  0.29317200875E+01  0.29507828451E+01  0.00000000000E+00 0. -1.
</event>
<event>
 5    1  0.7220939E+001  0.1569358E+01  0.7818608E-02  0.3387308E+00
         11   -1    0    0    0    0  0.00000000000E+00  0.00000000000E+00  0.39999999674E+01  0.40000000000E+01  0.51100000000E-03 0. -1.
    9000002   -1    0    0    0    0 -0.00000000000E+00 -0.00000000000E+00  0.00000000000E+00  0.93800000000E+00  0.93800000000E+00 0. -1.
         11    1    1    2    0    0 -0.38645859650E-01  0.61454102253E-01  0.10919856703E+00  0.13112855262E+00  0.51100000000E-03 0. -1.
    9000002    1    1    2    0    0  0.36387513891E+00  0.18529563902E+00  0.13842048799E+00  0.10323486921E+01  0.93800000000E+00 0. -1.
         22    1    1    2    0    0 -0.32522927926E+00 -0.24674974127E+00  0.37523809123E+01  0.37745227553E+01  0.00000000000E+00 0. -1.
</event>
<event>
 5    1  0.7220939E+001  0.1599657E+01  0.7818608E-02  0.3353736E+00
         11   -1    0    0    0    0  0.00000000000E+00  0.00000000000E+00  0.39999999674E+01  0.40000000000E+01  0.51100000000E-03 0.  1.
    9000002   -1    0    0    0    0 -0.00000000000E+00 -0.00000000000E+00  0.00000000000E+00  0.93800000000E+00  0.93800000000E+00 0.  1.
         11    1    1    2    0    0 -0.10743066688E+00 -0.92210438122E-02  0.11770736447E+01  0.11820021159E+01  0.51100000000E-03 0.  1.
    9000002    1    1    2    0    0  0.35214434437E+00  0.46310712675E-01  0.84650105422E-01  0.10065584741E+01  0.93800000000E+00 0.  1.
         22    1    1    2    0    0 -0.24471367749E+00 -0.37089668863E-01  0.27382762172E+01  0.27494394100E+01  0.00000000000E+00 0.  1.
</event>
<event>
 5    1  0.7220939E+001  0.1598815E+01  0.7818608E-02  0.3354651E+00
         11   -1    0    0    0    0  0.00000000000E+00  0.00000000000E+00  0.39999999674E+01  0.40000000000E+01  0.51100000000E-03 0. -1.
    9000002   -1    0    0    0    0 -0.00000000000E+00 -0.00000000000E+00  0.00000000000E+00  0.93800000000E+00  0.93800000000E+00 0.  1.
         11    1    1    2    0    0  0.10381669292E-01 -0.82938296871E-01  0.63748121942E+00  0.64293787132E+00  0.51100000000E-03 0. -1.
    9000002    1    1    2    0    0 -0.12772065060E+00  0.36045626142E+00  0.99134798395E-01  0.10177981083E+01  0.93800000000E+00 0.  1.
         22    1    1    2    0    0  0.11733898131E+00 -0.27751796455E+00  0.32633839495E+01  0.32772640204E+01  0.00000000000E+00 0. -1.
</event>
<event>
 5    1  0.7220939E+001  0.1470265E+01  0.7818608E-02  0.3507449E+00
         11   -1    0    0    0    0  0.00000000000E+00  0.00000000000E+00  0.39999999674E+01  0.40000000000E+01  0.51100000000E-03 0. -1.
    9000002   -1    0    0    0    0 -0.00000000000E+00 -0.00000000000E+00  0.00000000000E+00  0.93800000000E+00  0.93800000000E+00 0.  1.
         11    1    1    2    0    0  0.44119183021E+00  0.49591353392E-01  0.12771784668E+01  0.13521444563E+01  0.51100000000E-03 0. -1.
    9000002    1    1    2    0    0 -0.97750320768E-01 -0.22089306922E+00  0.14473368872E+00  0.97935729634E+00  0.93800000000E+00 0.  1.
         22    1    1    2    0    0 -0.34344150944E+00  0.17130171582E+00  0.25780878118E+01  0.26064982474E+01  0.00000000000E+00 0. -1.
</event>
<event>
 5    1  0.7220939E+001  0.1599676E+01  0.7818608E-02  0.3353715E+00
         11   -1    0    0    0    0  0.00000000000E+00  0.00000000000E+00  0.39999999674E+01  0.40000000000E+01  0.51100000000E-03 0.  1.
    9000002   -1    0    0    0    0 -0.00000000000E+00 -0.00000000000E+00  0.00000000000E+00  0.93800000000E+00  0.93800000000E+00 0. -1.
         11    1    1    2    0    0 -0.13044955997E-01 -0.13830503630E+00  0.12273976203E+01  0.12352342423E+01  0.51100000000E-03 0.  1.
    9000002    1    1    2    0    0  0.37709706362E-01  0.43700818028E+00  0.13045910177E+00  0.10436770328E+01  0.93800000000E+00 0. -1.
         22    1    1    2    0    0 -0.24664750365E-01 -0.29870314398E+00  0.26421432453E+01  0.26590887249E+01  0.00000000000E+00 0.  1.
</event>
<event>
 5    1  0.7220939E+001  0.1599676E+01  0.7818608E-02  0.3353715E+00
         11   -1    0    0    0    0  0.00000000000E+00  0.00000000000E+00  0.39999999674E+01  0.40000000000E+01  0.51100000000E-03 0. -1.
    9000002   -1    0    0    0    0 -0.00000000000E+00 -0.00000000000E+00  0.00000000000E+00  0.93800000000E+00  0.93800000000E+00 0. -1.
         11    1    1    2    0    0 -0.36922217406E-01  0.24266572727E+00  0.14143375707E+01  0.14354793382E+01  0.51100000000E-03 0. -1.
    9000002    1    1    2    0    0  0.94524517940E-01 -0.63702924351E+00  0.29224441198E+00  0.11747305810E+01  0.93800000000E+00 0. -1.
         22    1    1    2    0    0 -0.57602300534E-01  0.39436351624E+00  0.22934179847E+01  0.23277900808E+01  0.00000000000E+00 0. -1.
</event>
<event>
 5    1  0.7220939E+001  0.1599677E+01  0.7818608E-02  0.3353714E+00
         11   -1    0    0    0    0  0.00000000000E+00  0.00000000000E+00  0.39999999674E+01  0.40000000000E+01  0.51100000000E-03 0. -1.
    9000002   -1    0    0    0    0 -0.00000000000E+00 -0.00000000000E+00  0.00000000000E+00  0.93800000000E+00  0.93800000000E+00 0.  1.
         11    1    1    2    0    0  0.18015787141E+00 -0.13526193027E+00  0.14511914451E+01  0.14685739750E+01  0.51100000000E-03 0. -1.
    9000002    1    1    2    0    0 -0.46587162682E+00  0.35106454087E+00  0.23658725662E+00  0.11296460572E+01  0.93800000000E+00 0.  1.
         22    1    1    2    0    0  0.28571375541E+00 -0.21580261060E+00  0.23122212656E+01  0.23397799678E+01  0.00000000000E+00 0. -1.
</event>
<event>
 5    1  0.7220939E+001  0.1598953E+01  0.7818608E-02  0.3354501E+00
         11   -1    0    0    0    0  0.00000000000E+00  0.00000000000E+00  0.39999999674E+01  0.40000000000E+01  0.51100000000E-03 0. -1.
    9000002   -1    0    0    0    0 -0.00000000000E+00 -0.00000000000E+00  0.00000000000E+00  0.93800000000E+00  0.93800000000E+00 0. -1.
         11    1    1    2    0    0  0.11551930311E-02 -0.91799634521E-02  0.40135408894E-01  0.41191241399E-01  0.51100000000E-03 0. -1.
    9000002    1    1    2    0    0  0.19035059554E+00  0.32978159618E+00  0.98158743020E-01  0.10170881915E+01  0.93800000000E+00 0. -1.
         22    1    1    2    0    0 -0.19150578857E+00 -0.32060163272E+00  0.38617058154E+01  0.38797205671E+01  0.00000000000E+00 0. -1.
</event>
<event>
 5    1  0.7220939E+001  0.1561970E+01  0.7818608E-02  0.3395703E+00
         11   -1    0    0    0    0  0.00000000000E+00  0.00000000000E+00  0.39999999674E+01  0.40000000000E+01  0.51100000000E-03 0. -1.
    9000002   -1    0    0    0    0 -0.00000000000E+00 -0.00000000000E+00  0.00000000000E+00  0.93800000000E+00  0.93800000000E+00 0.  1.
         11    1    1    2    0    0 -0.37041423255E-01  0.10051120605E-01  0.10695917432E-01  0.39846653974E-01  0.51100000000E-03 0. -1.
    9000002    1    1    2    0    0  0.44636138105E-01 -0.38092236839E+00  0.13071580578E+00  0.10217753459E+01  0.93800000000E+00 0.  1.
         22    1    1    2    0    0 -0.75947148495E-02  0.37087124778E+00  0.38585882442E+01  0.38763780001E+01  0.00000000000E+00 0. -1.
</event>
<event>
 5    1  0.9591098E+001  0.1558667E+01  0.7818608E-02  0.3399484E+00
         11   -1    0    0    0    0  0.00000000000E+00  0.00000000000E+00  0.39999999674E+01  0.40000000000E+01  0.51100000000E-03 0. -1.
    9000002   -1    0    0    0    0 -0.00000000000E+00 -0.00000000000E+00  0.00000000000E+00  0.93800000000E+00  0.93800000000E+00 0.  1.
         11    1    1    2    0    0  0.16842777097E+00 -0.15866108206E+00  0.14233910865E+01  0.14420761767E+01  0.51100000000E-03 0. -1.
    9000002    1    1    2    0    0 -0.37582607628E-01 -0.46057017834E-01  0.32711819158E-01  0.94045083040E+00  0.93800000000E+00 0.  1.
         22    1    1    2    0    0 -0.13084516335E+00  0.20471809989E+00  0.25438970617E+01  0.25554729929E+01  0.00000000000E+00 0. -1.
</event>
<event>
 5    1  0.2181735E+002  0.1546411E+01  0.7818608E-02  0.3413663E+00
         11   -1    0    0    0    0  0.00000000000E+00  0.00000000000E+00  0.39999999674E+01  0.40000000000E+01  0.51100000000E-03 0.  1.
    9000002   -1    0    0    0    0 -0.00000000000E+00 -0.00000000000E+00  0.00000000000E+00  0.93800000000E+00  0.93800000000E+00 0.  1.
         11    1    1    2    0    0 -0.23650892165E+00  0.39017777447E-01  0.11517682888E+01  0.11764477503E+01  0.51100000000E-03 0.  1.
    9000002    1    1    2    0    0 -0.35917837901E-01  0.48679897964E-01  0.42128623026E-01  0.94089247230E+00  0.93800000000E+00 0.  1.
         22    1    1    2    0    0  0.27242675955E+00 -0.87697675411E-01  0.28061030556E+01  0.28206597774E+01  0.00000000000E+00 0.  1.
</event>
<event>
 5    1  0.7220939E+001  0.1599561E+01  0.7818608E-02  0.3353840E+00
         11   -1    0    0    0    0  0.00000000000E+00  0.00000000000E+00  0.39999999674E+01  0.40000000000E+01  0.51100000000E-03 0. -1.
    9000002   -1    0    0    0    0 -0.00000000000E+00 -0.00000000000E+00  0.00000000000E+00  0.93800000000E+00  0.93800000000E+00 0. -1.
         11    1    1    2    0    0 -0.12175523279E+00 -0.28303017509E-01  0.13011528762E+01  0.13071436286E+01  0.51100000000E-03 0. -1.
    9000002    1    1    2    0    0  0.38381197061E+00  0.11555840295E+00  0.10847995130E+00  0.10258056702E+01  0.93800000000E+00 0. -1.
         22    1    1    2    0    0 -0.26205673783E+00 -0.87255385438E-01  0.25903671399E+01  0.26050507012E+01  0.00000000000E+00 0. -1.
</event>
<event>
 5    1  0.7220939E+001  0.1552581E+01  0.7818608E-02  0.3406495E+00
         11   -1    0    0    0    0  0.00000000000E+00  0.00000000000E+00  0.39999999674E+01  0.40000000000E+01  0.51100000000E-03 0. -1.
    9000002   -1    0    0    0    0 -0.00000000000E+00 -0.00000000000E+00  0.00000000000E+00  0.93800000000E+00  0.93800000000E+00 0. -1.
         11    1    1    2    0    0  0.87902934642E-01 -0.28670306041E-01  0.11553990678E+00  0.14798190277E+00  0.51100000000E-03 0. -1.
    9000002    1    1    2    0    0  0.16364131172E+00  0.38966030891E+00  0.16181449036E+00  0.10414612641E+01  0.93800000000E+00 0. -1.
         22    1    1    2    0    0 -0.25154424636E+00 -0.36099000287E+00  0.37226455702E+01  0.37485568332E+01  0.00000000000E+00 0. -1.
</event>
<event>
 5    1  0.7220939E+001  0.1596563E+01  0.7818608E-02  0.3357103E+00
         11   -1    0    0    0    0  0.00000000000E+00  0.00000000000E+00  0.39999999674E+01  0.40000000000E+01  0.51100000000E-03 0. -1.
    9000002   -1    0    0    0    0 -0.00000000000E+00 -0.00000000000E+00  0.00000000000E+00  0.93800000000E+00  0.93800000000E+00 0.  1.
         11    1    1    2    0    0 -0.16734673070E+00  0.74657304178E-01  0.86085109424E+00  0.88013834646E+00  0.51100000000E-03 0. -1.
    9000002    1    1    2    0    0  0.69610602292E+00 -0.74658132987E-01  0.35379630312E+00  0.12227645955E+01  0.93800000000E+00 0.  1.
         22    1    1    2    0    0 -0.52875929222E+00  0.82880908510E-06  0.27853525700E+01  0.28350970580E+01  0.00000000000E+00 0. -1.
</event>
<event>
 5    1  0.7220939E+001  0.1599571E+01  0.7818608E-02  0.3353829E+00
         11   -1    0    0    0    0  0.00000000000E+00  0.00000000000E+00  0.39999999674E+01  0.40000000000E+01  0.51100000000E-03 0.  1.
    9000002   -1    0    0    0    0 -0.00000000000E+00 -0.00000000000E+00  0.00000000000E+00  0.93800000000E+00  0.93800000000E+00 0.  1.
         11    1    1    2    0    0 -0.27501319519E-01  0.51340886913E-02  0.24597450876E+00  0.24756090468E+00  0.51100000000E-03 0.  1.
    9000002    1    1    2    0    0  0.35190748056E+00 -0.12572635422E+00  0.93975156566E-01  0.10140617935E+01  0.93800000000E+00 0.  1.
         22    1    1    2    0    0 -0.32440616105E+00  0.12059226553E+00  0.36600503020E+01  0.36763773018E+01  0.00000000000E+00 0.  1.
</event>
<event>
 5    1  0.7220939E+001  0.1599676E+01  0.7818608E-02  0.3353715E+00
         11   -1    0    0    0    0  0.00000000000E+00  0.00000000000E+00  0.39999999674E+01  0.40000000000E+01  0.51100000000E-03 0. -1.
    9000002   -1    0    0    0    0 -0.00000000000E+00 -0.00000000000E+00  0.00000000000E+00  0.93800000000E+00  0.93800000000E+00 0. -1.
         11    1    1    2    0    0 -0.54611182721E-02  0.10612423212E+00  0.97532164654E+00  0.98109365088E+00  0.51100000000E-03 0.  1.
    9000002    1    1    2    0    0  0.18688377408E-01 -0.42049006394E+00  0.11983026330E+00  0.10350673608E+01  0.93800000000E+00 0. -1.
         22    1    1    2    0    0 -0.13227259136E-01  0.31436583182E+00  0.29048480575E+01  0.29218389884E+01  0.00000000000E+00 0. -1.
</event>
<event>
 5    1  0.7220939E+001  0.1599676E+01  0.7818608E-02  0.3353715E+00
         11   -1    0    0    0    0  0.00000000000E+00  0.00000000000E+00  0.39999999674E+01  0.40000000000E+01  0.51100000000E-03 0.  1.
    9000002   -1    0    0    0    0 -0.00000000000E+00 -0.00000000000E+00  0.00000000000E+00  0.93800000000E+00  0.93800000000E+00 0.  1.
         11    1    1    2    0    0 -0.58194984037E-01 -0.13473421389E-01  0.23551284859E+00  0.24297068182E+00  0.51100000000E-03 0. -1.
    9000002    1    1    2    0    0  0.84788669955E+00  0.19512374229E+00  0.57221755382E+00  0.14015213373E+01  0.93800000000E+00 0.  1.
         22    1    1    2    0    0 -0.78969171552E+00 -0.18165032090E+00  0.31922695650E+01  0.32935079809E+01  0.00000000000E+00 0.  1.
</event>
<event>
 5    1  0.7220939E+001  0.1499485E+01  0.7818608E-02  0.3470247E+00
         11   -1    0    0    0    0  0.00000000000E+00  0.00000000000E+00  0.39999999674E+01  0.40000000000E+01  0.51100000000E-03 0. -1.
    9000002   -1    0    0    0    0 -0.00000000000E+00 -0.00000000000E+00  0.00000000000E+00  0.93800000000E+00  0.93800000000E+00 0.  1.
         11    1    1    2    0    0  0.96123761281E-01  0.29656757596E+00  0.34404903886E+00  0.46428666452E+00  0.51100000000E-03 0. -1.
    9000002    1    1    2    0    0 -0.11281355867E+00  0.24067912659E+00  0.22453785476E+00  0.10004571901E+01  0.93800000000E+00 0.  1.
         22    1    1    2    0    0  0.16689797390E-01 -0.53724670256E+00  0.34314130737E+01  0.34732561454E+01  0.00000000000E+00 0. -1.
</event>
<event>
 5    1  0.7220939E+001  0.1589172E+01  0.7818608E-02  0.3365201E+00
         11   -1    0    0    0    0  0.00000000000E+00  0.00000000000E+00  0.39999999674E+01  0.40000000000E+01  0.51100000000E-03 0. -1.
    9000002   -1    0    0    0    0 -0.00000000000E+00 -0.00000000000E+00  0.00000000000E+00  0.93800000000E+00  0.93800000000E+00 0. -1.
         11    1    1    2    0    0  0.45154301243E-01 -0.22389636958E-01  0.77452727967E+00  0.77616555891E+00  0.51100000000E-03 0. -1.
    9000002    1    1    2    0    0  0.80673875989E-01 -0.27640432919E+00  0.63465081694E-01  0.98324943125E+00  0.93800000000E+00 0. -1.
         22    1    1    2    0    0 -0.12582817723E+00  0.29879396615E+00  0.31620076060E+01  0.31785850098E+01  0.00000000000E+00 0. -1.
</event>
<event>
 5    1  0.7220939E+001  0.1599676E+01  0.7818608E-02  0.3353715E+00
         11   -1    0    0    0    0  0.00000000000E+00  0.00000000000E+00  0.39999999674E+01  0.40000000000E+01  0.51100000000E-03 0.  1.
    9000002   -1    0    0    0    0 -0.00000000000E+00 -0.00000000000E+00  0.00000000000E+00  0.93800000000E+00  0.93800000000E+00 0. -1.
         11    1    1    2    0    0 -0.69884527171E-01  0.14192968291E-02  0.29416886063E+00  0.30235978772E+00  0.51100000000E-03 0.  1.
    9000002    1    1    2    0    0  0.83182606697E+00 -0.17080116783E-01  0.51568895330E+00  0.13557305900E+01  0.93800000000E+00 0. -1.
         22    1    1    2    0    0 -0.76194153980E+00  0.15660819954E-01  0.31901421534E+01  0.32799096223E+01  0.00000000000E+00 0.  1.
</event>
<event>
 5    1  0.7220939E+001  0.1599676E+01  0.7818608E-02  0.3353715E+00
         11   -1    0    0    0    0  0.00000000000E+00  0.00000000000E+00  0.39999999674E+01  0.40000000000E+01  0.51100000000E-03 0.  1.
    9000002   -1    0    0    0    0 -0.00000000000E+00 -0.00000000000E+00  0.00000000000E+00  0.93800000000E+00  0.93800000000E+00 0.  1.
         11    1    1    2    0    0  0.16382588151E+00 -0.84444612954E-01  0.14866531169E+01  0.14980345668E+01  0.51100000000E-03 0.  1.
    9000002    1    1    2    0    0 -0.42155143794E+00  0.21777033176E+00  0.15347629817E+00  0.10623222234E+01  0.93800000000E+00 0.  1.
         22    1    1    2    0    0  0.25772555643E+00 -0.13332571881E+00  0.23598705522E+01  0.23776432098E+01  0.00000000000E+00 0. -1.
</event>
<event>
 5    1  0.7220939E+001  0.1599677E+01  0.7818608E-02  0.3353714E+00
         11   -1    0    0    0    0  0.00000000000E+00  0.00000000000E+00  0.39999999674E+01  0.40000000000E+01  0.51100000000E-03 0. -1.
    9000002   -1    0    0    0    0 -0.00000000000E+00 -0.00000000000E+00  0.00000000000E+00  0.93800000000E+00  0.93800000000E+00 0. -1.
         11    1    1    2    0    0  0.10920202466E+00  0.13476869619E+00  0.14789542793E+01  0.14890915704E+01  0.51100000000E-03 0.  1.
    9000002    1    1    2    0    0 -0.28499754155E+00 -0.35090587593E+00  0.13883946544E+00  0.10504660535E+01  0.93800000000E+00 0. -1.
         22    1    1    2    0    0  0.17579551689E+00  0.21613717974E+00  0.23822062226E+01  0.23984423761E+01  0.00000000000E+00 0. -1.
</event>
<event>
 5    1  0.7220939E+001  0.1583785E+01  0.7818608E-02  0.3371153E+00
         11   -1    0    0    0    0  0.00000000000E+00  0.00000000000E+00  0.39999999674E+01  0.40000000000E+01  0.51100000000E-03 0. -1.
    9000002   -1    0    0    0    0 -0.00000000000E+00 -0.00000000000E+00  0.00000000000E+00  0.93800000000E+00  0.93800000000E+00 0.  1.
         11    1    1    2    0    0 -0.10454534335E-02  0.16894542416E+00  0.10023384785E+01  0.10164774154E+01  0.51100000000E-03 0. -1.
    9000002    1    1    2    0    0 -0.26620697873E+00 -0.21763960364E+00  0.92082978155E-01  0.10032728579E+01  0.93800000000E+00 0.  1.
         22    1    1    2    0    0  0.26725243216E+00  0.48694179484E-01  0.29055785107E+01  0.29182497267E+01  0.00000000000E+00 0. -1.
</event>
<event>
 5    1  0.7220939E+001  0.1588683E+01  0.7818608E-02  0.3365739E+00
         11   -1    0    0    0    0  0.00000000000E+00  0.00000000000E+00  0.39999999674E+01  0.40000000000E+01  0.51100000000E-03 0. -1.
    9000002   -1    0    0    0    0 -0.00000000000E+00 -0.00000000000E+00  0.00000000000E+00  0.93800000000E+00  0.93800000000E+00 0. -1.
         11    1    1    2    0    0  0.26089380281E-02  0.14238389510E+00  0.48798391412E+00  0.50833900273E+00  0.51100000000E-03 0. -1.
    9000002    1    1    2    0    0 -0.43745056010E-01 -0.44989954284E+00  0.14838717757E+00  0.10517537654E+01  0.93800000000E+00 0. -1.
         22    1    1    2    0    0  0.41136117982E-01  0.30751564774E+00  0.33636288757E+01  0.33779072319E+01  0.00000000000E+00 0. -1.
</event>
<event>
 5    1  0.7220939E+001  0.1572464E+01  0.7818608E-02  0.3383803E+00
         11   -1    0    0    0    0  0.00000000000E+00  0.00000000000E+00  0.39999999674E+01  0.40000000000E+01  0.51100000000E-03 0.  1.
    9000002   -1    0    0    0    0 -0.00000000000E+00 -0.00000000000E+00  0.00000000000E+00  0.93800000000E+00  0.93800000000E+00 0. -1.
         11    1    1    2    0    0  0.88327473874E-01 -0.41449429665E-01  0.11720931547E+01  0.11761472792E+01  0.51100000000E-03 0.  1.
    9000002    1    1    2    0    0  0.23311414025E+00 -0.16230630880E+00  0.75183912009E-01  0.98294565510E+00  0.93800000000E+00 0. -1.
         22    1    1    2    0    0 -0.32144161412E+00  0.20375573846E+00  0.27527229006E+01  0.27789070657E+01  0.00000000000E+00 0.  1.
</event>
<event>
 5    1  0.7220939E+001  0.1599637E+01  0.7818608E-02  0.3353758E+00
         11   -1    0    0    0    0  0.00000000000E+00  0.00000000000E+00  0.39999999674E+01  0.40000000000E+01  0.51100000000E-03 0. -1.
    9000002   -1    0    0    0    0 -0.00000000000E+00 -0.00000000000E+00  0.00000000000E+00  0.93800000000E+00  0.93800000000E+00 0. -1.
         11    1    1    2    0    0  0.33244634829E-01 -0.16668954870E+00  0.10038646986E+01  0.10181528400E+01  0.51100000000E-03 0. -1.
    9000002    1    1    2    0    0 -0.10904646940E+00  0.63661220697E+00  0.29412598703E+00  0.11762314104E+01  0.93800000000E+00 0. -1.
         22    1    1    2    0    0  0.75801834574E-01 -0.46992265827E+00  0.27020092817E+01  0.27436157496E+01  0.00000000000E+00 0. -1.
</event>
<event>
 5    1  0.7220939E+001  0.1503533E+01  0.7818608E-02  0.3465216E+00
         11   -1    0    0    0    0  0.00000000000E+00  0.00000000000E+00  0.39999999674E+01  0.40000000000E+01  0.51100000000E-03 0. -1.
    9000002   -1    0    0    0    0 -0.00000000000E+00 -0.00000000000E+00  0.00000000000E+00  0.93800000000E+00  0.93800000000E+00 0. -1.
         11    1    1    2    0    0 -0.32799545328E+00  0.21507719768E+00  0.12212639256E+01  0.12827022474E+01  0.51100000000E-03 0. -1.
    9000002    1    1    2    0    0 -0.44006238174E-01 -0.43608463529E+00  0.21773196947E+00  0.10579969606E+01  0.93800000000E+00 0. -1.
         22    1    1    2    0    0  0.37200169145E+00  0.22100743761E+00  0.25610040723E+01  0.25973007920E+01  0.00000000000E+00 0. -1.
</event>
<event>
 5    1  0.7220939E+001  0.1598958E+01  0.7818608E-02  0.3354495E+00
         11   -1    0    0    0    0  0.00000000000E+00  0.00000000000E+00  0.39999999674E+01  0.40000000000E+01  0.51100000000E-03 0. -1.
    9000002   -1    0    0    0    0 -0.00000000000E+00 -0.00000000000E+00  0.00000000000E+00  0.93800000000E+00  0.93800000000E+00 0.  1.
         11    1    1    2    0    0 -0.11370307575E+00  0.80611343016E-01  0.92944924338E+00  0.93984186712E+00  0.51100000000E-03 0. -1.
    9000002    1    1    2    0    0  0.55838315406E+00 -0.35503071755E+00  0.31060740744E+00  0.11891843922E+01  0.93800000000E+00 0.  1.
         22    1    1    2    0    0 -0.44468007831E+00  0.27441937453E+00  0.27599433165E+01  0.28089737407E+01  0.00000000000E+00 0. -1.
</event>
<event>
 5    1  0.7220939E+001  0.1599627E+01  0.7818608E-02  0.3353769E+00
         11   -1    0    0    0    0  0.00000000000E+00  0.00000000000E+00  0.39999999674E+01  0.40000000000E+01  0.51100000000E-03 0. -1.
    9000002   -1    0    0    0    0 -0.00000000000E+00 -0.00000000000E+00  0.00000000000E+00  0.93800000000E+00  0.93800000000E+00 0.  1.
         11    1    1    2    0    0 -0.22239170236E+00 -0.38551445523E+00  0.10189724441E+01  0.11119283103E+01  0.51100000000E-03 0. -1.
    9000002    1    1    2    0    0  0.60791722542E+00  0.10102476710E+01  0.12933338149E+01  0.19856283808E+01  0.93800000000E+00 0.  1.
         22    1    1    2    0    0 -0.38552552306E+00 -0.62473321578E+00  0.16876937084E+01  0.18404433089E+01  0.00000000000E+00 0. -1.
</event>
<event>
 5    1  0.7220939E+001  0.1599547E+01  0.7818608E-02  0.3353855E+00
         11   -1    0    0    0    0  0.00000000000E+00  0.00000000000E+00  0.39999999674E+01  0.40000000000E+01  0.51100000000E-03 0.  1.
    9000002   -1    0    0    0    0 -0.00000000000E+00 -0.00000000000E+00  0.00000000000E+00  0.93800000000E+00  0.93800000000E+00 0. -1.
         11    1    1    2    0    0  0.34399039845E-01  0.37546985124E-01  0.66619203485E+00  0.66813558389E+00  0.51100000000E-03 0.  1.
    9000002    1    1    2    0    0 -0.25088598371E+00 -0.25662537066E+00  0.86552887917E-01  0.10080355947E+01  0.93800000000E+00 0. -1.
         22    1    1    2    0    0  0.21648694386E+00  0.21907838554E+00  0.32472550446E+01  0.32618288215E+01  0.00000000000E+00 0.  1.
</event>
<event>
 5    1  0.7220939E+001  0.1599667E+01  0.7818608E-02  0.3353725E+00
         11   -1    0    0    0    0  0.00000000000E+00  0.00000000000E+00  0.39999999674E+01  0.40000000000E+01  0.51100000000E-03 0. -1.
    9000002   -1    0    0    0    0 -0.00000000000E+00 -0.00000000000E+00  0.00000000000E+00  0.93800000000E+00  0.93800000000E+00 0. -1.
         11    1    1    2    0    0 -0.10596262611E+00  0.26860776488E-01  0.11740715236E+01  0.11791496017E+01  0.51100000000E-03 0. -1.
    9000002    1    1    2    0    0  0.36301648334E+00 -0.94147309439E-01  0.94582981804E-01  0.10146105773E+01  0.93800000000E+00 0. -1.
         22    1    1    2    0    0 -0.25705385723E+00  0.67286532951E-01  0.27313454619E+01  0.27442398211E+01  0.00000000000E+00 0. -1.
</event>
<event>
 5    1  0.7220939E+001  0.1597997E+01  0.7818608E-02  0.3355540E+00
         11   -1    0    0    0    0  0.00000000000E+00  0.00000000000E+00  0.39999999674E+01  0.40000000000E+01  0.51100000000E-03 0. -1.
    9000002   -1    0    0    0    0 -0.00000000000E+00 -0.00000000000E+00  0.00000000000E+00  0.93800000000E+00  0.93800000000E+00 0.  1.
         11    1    1    2    0    0 -0.13096117395E+00 -0.10407706982E-01  0.90049260802E+00  0.91002546540E+00  0.51100000000E-03 0. -1.
    9000002    1    1    2    0    0  0.55064030438E+00 -0.13262415858E+00  0.22388992273E+00  0.11183758803E+01  0.93800000000E+00 0.  1.
         22    1    1    2    0    0 -0.41967913043E+00  0.14303186556E+00  0.28756174366E+01  0.29095986543E+01  0.00000000000E+00 0. -1.
</event>
<event>
 5    1  0.7220939E+001  0.1599103E+01  0.7818608E-02  0.3354337E+00
         11   -1    0    0    0    0  0.00000000000E+00  0.00000000000E+00  0.39999999674E+01  0.40000000000E+01  0.51100000000E-03 0.  1.
    9000002   -1    0    0    0    0 -0.00000000000E+00 -0.00000000000E+00  0.00000000000E+00  0.93800000000E+00  0.93800000000E+00 0.  1.
         11    1    1    2    0    0 -0.15305407838E+00 -0.62076540731E-02  0.13748939006E+01  0.13834007319E+01  0.51100000000E-03 0.  1.
    9000002    1    1    2    0    0  0.38616499572E+00 -0.44346862902E-01  0.10224179490E+00  0.10204839209E+01  0.93800000000E+00 0.  1.
         22    1    1    2    0    0 -0.23311091734E+00  0.50554516975E-01  0.25228642719E+01  0.25341153473E+01  0.00000000000E+00 0.  1.
</event>
<event>
 5    1  0.7220939E+001  0.1599669E+01  0.7818608E-02  0.3353722E+00
         11   -1    0    0    0    0  0.00000000000E+00  0.00000000000E+00  0.39999999674E+01  0.40000000000E+01  0.51100000000E-03 0. -1.
    9000002   -1    0    0    0    0 -0.00000000000E+00 -0.00000000000E+00  0.00000000000E+00  0.93800000000E+00  0.93800000000E+00 0.  1.
         11    1    1    2    0    0  0.53279399885E-01  0.44909520548E-01  0.69891575051E+00  0.70238098416E+00  0.51100000000E-03 0. -1.
    9000002    1    1    2    0    0 -0.29185701814E+00 -0.23794778856E+00  0.95375313257E-01  0.10152537217E+01  0.93800000000E+00 0.  1.
         22    1    1    2    0    0  0.23857761826E+00  0.19303826801E+00  0.32057089036E+01  0.32203652941E+01  0.00000000000E+00 0. -1.
</event>
<event>
 5    1  0.7220939E+001  0.1599677E+01  0.7818608E-02  0.3353714E+00
         11   -1    0    0    0    0  0.00000000000E+00  0.00000000000E+00  0.39999999674E+01  0.40000000000E+01  0.51100000000E-03 0.  1.
    9000002   -1    0    0    0    0 -0.00000000000E+00 -0.00000000000E+00  0.00000000000E+00  0.93800000000E+00  0.93800000000E+00 0.  1.
         11    1    1    2    0    0  0.40156602692E-01  0.96364566736E-01  0.81195903168E+00  0.81864303130E+00  0.51100000000E-03 0.  1.
    9000002    1    1    2    0    0 -0.18955867840E+00 -0.45244931717E+00  0.16447598753E+00  0.10712325740E+01  0.93800000000E+00 0.  1.
         22    1    1    2    0    0  0.14940207571E+00  0.35608475044E+00  0.30235649482E+01  0.30481243947E+01  0.00000000000E+00 0.  1.
</event>
<event>
 5    1  0.7220939E+001  0.1598354E+01  0.7818608E-02  0.3355152E+00
         11   -1    0    0    0    0  0.00000000000E+00  0.00000000000E+00  0.39999999674E+01  0.40000000000E+01  0.51100000000E-03 0.  1.
    9000002   -1    0    0    0    0 -0.00000000000E+00 -0.00000000000E+00  0.00000000000E+00  0.93800000000E+00  0.93800000000E+00 0.  1.
         11    1    1    2    0    0  0.50713674459E-02  0.62254622959E-02  0.49794916949E-01  0.50440757563E-01  0.51100000000E-03 0.  1.
    9000002    1    1    2    0    0  0.31358458825E+00 -0.19410222849E+00  0.92470226428E-01  0.10121292960E+01  0.93800000000E+00 0.  1.
         22    1    1    2    0    0 -0.31865595570E+00  0.18787676620E+00  0.38577348240E+01  0.38754299464E+01  0.00000000000E+00 0.  1.
</event>
<event>
 5    1  0.7220939E+001  0.1598728E+01  0.7818608E-02  0.3354745E+00
         11   -1    0    0    0    0  0.00000000000E+00  0.00000000000E+00  0.39999999674E+01  0.40000000000E+01  0.51100000000E-03 0.  1.
    9000002   -1    0    0    0    0 -0.00000000000E+00 -0.00000000000E+00  0.00000000000E+00  0.93800000000E+00  0.93800000000E+00 0. -1.
         11    1    1    2    0    0  0.12856798089E-01 -0.17900125827E-01  0.49030703827E+00  0.49080236823E+00  0.51100000000E-03 0.  1.
    9000002    1    1    2    0    0 -0.29469571621E+00  0.18448636450E+00  0.81794622462E-01  0.10037007244E+01  0.93800000000E+00 0. -1.
         22    1    1    2    0    0  0.28183891812E+00 -0.16658623867E+00  0.34278983066E+01  0.34434969074E+01  0.00000000000E+00 0.  1.
</event>
<event>
 5    1  0.7220939E+001  0.1525073E+01  0.7818608E-02  0.3438930E+00
         11   -1    0    0    0    0  0.00000000000E+00  0.00000000000E+00  0.39999999674E+01  0.40000000000E+01  0.51100000000E-03 0. -1.
    9000002   -1    0    0    0    0 -0.00000000000E+00 -0.00000000000E+00  0.00000000000E+00  0.93800000000E+00  0.93800000000E+00 0.  1.
         11    1    1    2    0    0  0.48605088474E-01 -0.24150331436E+00  0.69689233493E+00  0.73915187416E+00  0.51100000000E-03 0. -1.
    9000002    1    1    2    0    0  0.12165273394E+00 -0.90655244618E-02  0.66651180040E-01  0.94824466843E+00  0.93800000000E+00 0.  1.
         22    1    1    2    0    0 -0.17025782242E+00  0.25056883882E+00  0.32364564524E+01  0.32506034574E+01  0.00000000000E+00 0. -1.
</event>
<event>
 5    1  0.7220939E+001  0.1556746E+01  0.7818608E-02  0.3401691E+00
         11   -1    0    0    0    0  0.00000000000E+00  0.00000000000E+00  0.39999999674E+01  0.40000000000E+01  0.51100000000E-03 0.  1.
    9000002   -1    0    0    0    0 -0.00000000000E+00 -0.00000000000E+00  0.00000000000E+00  0.93800000000E+00  0.93800000000E+00 0. -1.
         11    1    1    2    0    0 -0.20842694435E-01 -0.18694140896E+00  0.33350382032E+00  0.38289237076E+00  0.51100000000E-03 0.  1.
    9000002    1    1    2    0    0 -0.12789471877E+00  0.48402950052E+00  0.21137628914E+00  0.10840505302E+01  0.93800000000E+00 0. -1.
         22    1    1    2    0    0  0.14873741320E+00 -0.29708809155E+00  0.34551198579E+01  0.34710570990E+01  0.00000000000E+00 0.  1.
</event>
<event>
 5    1  0.7220939E+001  0.1599218E+01  0.7818608E-02  0.3354213E+00
         11   -1    0    0    0    0  0.00000000000E+00  0.00000000000E+00  0.39999999674E+01  0.40000000000E+01  0.51100000000E-03 0. -1.
    9000002   -1    0    0    0    0 -0.00000000000E+00 -0.00000000000E+00  0.00000000000E+00  0.93800000000E+00  0.93800000000E+00 0.  1.
         11    1    1    2    0    0 -0.89362197658E-01  0.50004996086E-01  0.53075114994E+00  0.54053968059E+00  0.51100000000E-03 0. -1.
    9000002    1    1    2    0    0  0.64206522340E+00 -0.22266565907E+00  0.32879127650E+00  0.12040662151E+01  0.93800000000E+00 0.  1.
         22    1    1    2    0    0 -0.55270302574E+00  0.17266066298E+00  0.31404575409E+01  0.31933941043E+01  0.00000000000E+00 0. -1.
</event>
<event>
 5    1  0.7220939E+001  0.1599676E+01  0.7818608E-02  0.3353716E+00
         11   -1    0    0    0    0  0.00000000000E+00  0.00000000000E+00  0.39999999674E+01  0.40000000000E+01  0.51100000000E-03 0. -1.
    9000002   -1    0    0    0    0 -0.00000000000E+00 -0.00000000000E+00  0.00000000000E+00  0.93800000000E+00  0.93800000000E+00 0.  1.
         11    1    1    2    0    0 -0.34111328280E-01  0.12949815333E+00  0.13019586929E+01  0.13088277402E+01  0.51100000000E-03 0. -1.
    9000002    1    1    2    0    0  0.98078830902E-01 -0.38620325491E+00  0.10707526901E+00  0.10247348557E+01  0.93800000000E+00 0.  1.
         22    1    1    2    0    0 -0.63967502622E-01  0.25670510159E+00  0.25909660055E+01  0.26044374042E+01  0.00000000000E+00 0. -1.
</event>
<event>
 5    1  0.7220939E+001  0.1595546E+01  0.7818608E-02  0.3358212E+00
         11   -1    0    0    0    0  0.00000000000E+00  0.00000000000E+00  0.39999999674E+01  0.40000000000E+01  0.51100000000E-03 0. -1.
    9000002   -1    0    0    0    0 -0.00000000000E+00 -0.00000000000E+00  0.00000000000E+00  0.93800000000E+00  0.93800000000E+00 0. -1.
         11    1    1    2    0    0  0.18462523343E-01  0.17930252031E-01  0.93815060335E+00  0.93850368906E+00  0.51100000000E-03 0. -1.
    9000002    1    1    2    0    0 -0.33328347308E+00  0.28709617154E-01  0.78209728401E-01  0.99893086706E+00  0.93800000000E+00 0. -1.
         22    1    1    2    0    0  0.31482094974E+00 -0.46639869186E-01  0.29836396356E+01  0.30005654439E+01  0.00000000000E+00 0. -1.
</event>
<event>
 5    1  0.7220939E+001  0.1599664E+01  0.7818608E-02  0.3353729E+00
         11   -1    0    0    0    0  0.00000000000E+00  0.00000000000E+00  0.39999999674E+01  0.40000000000E+01  0.51100000000E-03 0. -1.
    9000002   -1    0    0    0    0 -0.00000000000E+00 -0.00000000000E+00  0.00000000000E+00  0.93800000000E+00  0.93800000000E+00 0. -1.
         11    1    1    2    0    0  0.16836917989E-02  0.19647314513E+00  0.70637986006E+00  0.73319663078E+00  0.51100000000E-03 0. -1.
    9000002    1    1    2    0    0 -0.22533454935E-01 -0.92104659705E+00  0.65593750178E+00  0.14693306628E+01  0.93800000000E+00 0. -1.
         22    1    1    2    0    0  0.20849763136E-01  0.72457345192E+00  0.26376826055E+01  0.27354727064E+01  0.00000000000E+00 0. -1.
</event>
<event>
 5    1  0.7220939E+001  0.1599531E+01  0.7818608E-02  0.3353873E+00
         11   -1    0    0    0    0  0.00000000000E+00  0.00000000000E+00  0.39999999674E+01  0.40000000000E+01  0.51100000000E-03 0. -1.
    9000002   -1    0    0    0    0 -0.00000000000E+00 -0.00000000000E+00  0.00000000000E+00  0.93800000000E+00  0.93800000000E+00 0. -1.
         11    1    1    2    0    0 -0.27761724561E-01  0.13697845622E+00  0.76965496471E+00  0.78224218542E+00  0.51100000000E-03 0. -1.
    9000002    1    1    2    0    0  0.13115036120E+00 -0.60616160790E+00  0.26969398817E+00  0.11563784672E+01  0.93800000000E+00 0. -1.
         22    1    1    2    0    0 -0.10338863664E+00  0.46918315168E+00  0.29606510145E+01  0.29993793474E+01  0.00000000000E+00 0. -1.
</event>
<event>
 5    1  0.7220939E+001  0.1599677E+01  0.7818608E-02  0.3353714E+00
         11   -1    0    0    0    0  0.00000000000E+00  0.00000000000E+00  0.39999999674E+01  0.40000000000E+01  0.51100000000E-03 0. -1.
    9000002   -1    0    0    0    0 -0.00000000000E+00 -0.00000000000E+00  0.00000000000E+00  0.93800000000E+00  0.93800000000E+00 0. -1.
         11    1    1    2    0    0 -0.92732492919E-01 -0.34624269666E-01  0.91199152292E+00  0.91734778263E+00  0.51100000000E-03 0. -1.
    9000002    1    1    2    0    0  0.39454177106E+00  0.14919800304E+00  0.12036016522E+00  0.10354968965E+01  0.93800000000E+00 0. -1.
         22    1    1    2    0    0 -0.30180927814E+00 -0.11457373338E+00  0.29676482792E+01  0.29851553209E+01  0.00000000000E+00 0.  1.
</event>
<event>
 5    1  0.9551061E+001  0.1550762E+01  0.7818608E-02  0.3408602E+00
         11   -1    0    0    0    0  0.00000000000E+00  0.00000000000E+00  0.39999999674E+01  0.40000000000E+01  0.51100000000E-03 0. -1.
    9000002   -1    0    0    0    0 -0.00000000000E+00 -0.00000000000E+00  0.00000000000E+00  0.93800000000E+00  0.93800000000E+00 0. -1.
         11    1    1    2    0    0  0.57647673327E-01  0.23993111012E+00  0.10613635980E+01  0.10896711156E+01  0.51100000000E-03 0. -1.
    9000002    1    1    2    0    0 -0.20488267848E+00 -0.11471405382E-01  0.65553425665E-01  0.96241870135E+00  0.93800000000E+00 0. -1.
         22    1    1    2    0    0  0.14723500516E+00 -0.22845970474E+00  0.28730829437E+01  0.28859101831E+01  0.00000000000E+00 0. -1.
</event>
<event>
 5    1  0.7220939E+001  0.1599677E+01  0.7818608E-02  0.3353714E+00
         11   -1    0    0    0    0  0.00000000000E+00  0.00000000000E+00  0.39999999674E+01  0.40000000000E+01  0.51100000000E-03 0. -1.
    9000002   -1    0    0    0    0 -0.00000000000E+00 -0.00000000000E+00  0.00000000000E+00  0.93800000000E+00  0.93800000000E+00 0.  1.
         11    1    1    2    0    0  0.10519839446E+00  0.51071296275E-01  0.11003399268E+01  0.11065365765E+01  0.51100000000E-03 0.  1.
    9000002    1    1    2    0    0 -0.36973163527E+00 -0.18022814090E+00  0.11428663021E+00  0.10305770707E+01  0.93800000000E+00 0.  1.
         22    1    1    2    0    0  0.26453324080E+00  0.12915684463E+00  0.27853734104E+01  0.28008863528E+01  0.00000000000E+00 0. -1.
</event>
<event>
 5    1  0.7220939E+001  0.1586779E+01  0.7818608E-02  0.3367839E+00
         11   -1    0    0    0    0  0.00000000000E+00  0.00000000000E+00  0.39999999674E+01  0.40000000000E+01  0.51100000000E-03 0.  1.
    9000002   -1    0    0    0    0 -0.00000000000E+00 -0.00000000000E+00  0.00000000000E+00  0.93800000000E+00  0.93800000000E+00 0.  1.
         11    1    1    2    0    0 -0.35296526887E-01 -0.54414042318E-01  0.11708675165E+00  0.13385178873E+00  0.51100000000E-03 0.  1.
    9000002    1    1    2    0    0  0.47506617860E+00  0.29276432662E+00  0.22779150647E+00  0.11149582034E+01  0.93800000000E+00 0.  1.
         22    1    1    2    0    0 -0.43976965171E+00 -0.23835028430E+00  0.36551217092E+01  0.36891900078E+01  0.00000000000E+00 0.  1.
</event>
<event>
 5    1  0.7220939E+001  0.1599653E+01  0.7818608E-02  0.3353740E+00
         11   -1    0    0    0    0  0.00000000000E+00  0.00000000000E+00  0.39999999674E+01  0.40000000000E+01  0.51100000000E-03 0.  1.
    9000002   -1    0    0    0    0 -0.00000000000E+00 -0.00000000000E+00  0.00000000000E+00  0.93800000000E+00  0.93800000000E+00 0. -1.
         11    1    1    2    0    0 -0.80566972921E-01 -0.26967269238E-01  0.80758443031E+00  0.81204134373E+00  0.51100000000E-03 0.  1.
    9000002    1    1    2    0    0  0.40951024862E+00  0.12559476291E+00  0.12424628459E+00  0.10386307464E+01  0.93800000000E+00 0. -1.
         22    1    1    2    0    0 -0.32894327570E+00 -0.98627493670E-01  0.30681692525E+01  0.30873279098E+01  0.00000000000E+00 0.  1.
</event>
<event>
 5    1  0.7220939E+001  0.1598954E+01  0.7818608E-02  0.3354500E+00
         11   -1    0    0    0    0  0.00000000000E+00  0.00000000000E+00  0.39999999674E+01  0.40000000000E+01  0.51100000000E-03 0. -1.
    9000002   -1    0    0    0    0 -0.00000000000E+00 -0.00000000000E+00  0.00000000000E+00  0.93800000000E+00  0.93800000000E+00 0. -1.
         11    1    1    2    0    0 -0.78069904139E-02  0.52579268182E-01  0.32179920792E+00  0.32616026717E+00  0.51100000000E-03 0. -1.
    9000002    1    1    2    0    0  0.20303774268E+00 -0.44240448947E+00  0.16249323335E+00  0.10692025571E+01  0.93800000000E+00 0. -1.
         22    1    1    2    0    0 -0.19523075226E+00  0.38982522128E+00  0.35157075261E+01  0.35426371757E+01  0.00000000000E+00 0. -1.
</event>
<event>
 5    1  0.7220939E+001  0.1599675E+01  0.7818608E-02  0.3353716E+00
         11   -1    0    0    0    0  0.00000000000E+00  0.00000000000E+00  0.39999999674E+01  0.40000000000E+01  0.51100000000E-03 0. -1.
    9000002   -1    0    0    0    0 -0.00000000000E+00 -0.00000000000E+00  0.00000000000E+00  0.93800000000E+00  0.93800000000E+00 0.  1.
         11    1    1    2    0    0 -0.20496201531E-01  0.10790000169E-01  0.20344233915E+00  0.20475733164E+00  0.51100000000E-03 0. -1.
    9000002    1    1    2    0    0  0.40076909324E+00 -0.20617424012E+00  0.13797427114E+00  0.10497640606E+01  0.93800000000E+00 0.  1.
         22    1    1    2    0    0 -0.38027289171E+00  0.19538423995E+00  0.36585833571E+01  0.36834786078E+01  0.00000000000E+00 0. -1.
</event>
<event>
 5    1  0.7220939E+001  0.1596128E+01  0.7818608E-02  0.3357576E+00
         11   -1    0    0    0    0  0.00000000000E+00  0.00000000000E+00  0.39999999674E+01  0.40000000000E+01  0.51100000000E-03 0.  1.
    9000002   -1    0    0    0    0 -0.00000000000E+00 -0.00000000000E+00  0.00000000000E+00  0.93800000000E+00  0.93800000000E+00 0. -1.
         11    1    1    2    0    0  0.31304069404E+00 -0.33541940624E-01  0.14623929601E+01  0.14958987160E+01  0.51100000000E-03 0.  1.
    9000002    1    1    2    0    0 -0.71578039997E+00 -0.80849516152E-01  0.37700881183E+00  0.12413129619E+01  0.93800000000E+00 0. -1.
         22    1    1    2    0    0  0.40273970593E+00  0.11439145678E+00  0.21605981955E+01  0.22007883220E+01  0.00000000000E+00 0.  1.
</event>
<event>
 5    1  0.7220939E+001  0.1591768E+01  0.7818608E-02  0.3362347E+00
         11   -1    0    0    0    0  0.00000000000E+00  0.00000000000E+00  0.39999999674E+01  0.40000000000E+01  0.51100000000E-03 0.  1.
    9000002   -1    0    0    0    0 -0.00000000000E+00 -0.00000000000E+00  0.00000000000E+00  0.93800000000E+00  0.93800000000E+00 0. -1.
         11    1    1    2    0    0  0.18690817114E-01 -0.97070910671E-01  0.69318120101E+00  0.70019464929E+00  0.51100000000E-03 0.  1.
    9000002    1    1    2    0    0  0.24511779359E+00  0.24769110387E+00  0.87798463050E-01  0.10044830440E+01  0.93800000000E+00 0. -1.
         22    1    1    2    0    0 -0.26380861070E+00 -0.15062019320E+00  0.32190203033E+01  0.32333223067E+01  0.00000000000E+00 0.  1.
</event>
<event>
 5    1  0.7220939E+001  0.1599675E+01  0.7818608E-02  0.3353716E+00
         11   -1    0    0    0    0  0.00000000000E+00  0.00000000000E+00  0.39999999674E+01  0.40000000000E+01  0.51100000000E-03 0. -1.
    9000002   -1    0    0    0    0 -0.00000000000E+00 -0.00000000000E+00  0.00000000000E+00  0.93800000000E+00  0.93800000000E+00 0.  1.
         11    1    1    2    0    0  0.47126175387E-01  0.30602030851E-01  0.58832190997E+00  0.59099940065E+00  0.51100000000E-03 0. -1.
    9000002    1    1    2    0    0 -0.30572868885E+00 -0.20660286208E+00  0.91492211956E-01  0.10121114556E+01  0.93800000000E+00 0.  1.
         22    1    1    2    0    0  0.25860251346E+00  0.17600083123E+00  0.33201858454E+01  0.33348891437E+01  0.00000000000E+00 0. -1.
</event>
<event>
 5    1  0.7220939E+001  0.1599615E+01  0.7818608E-02  0.3353781E+00
         11   -1    0    0    0    0  0.00000000000E+00  0.00000000000E+00  0.39999999674E+01  0.40000000000E+01  0.51100000000E-03 0.  1.
    9000002   -1    0    0    0    0 -0.00000000000E+00 -0.00000000000E+00  0.00000000000E+00  0.93800000000E+00  0.93800000000E+00 0. -1.
         11    1    1    2    0    0  0.10936973146E-01 -0.42524753282E-01  0.36357893101E+00  0.36622107015E+00  0.51100000000E-03 0.  1.
    9000002    1    1    2    0    0 -0.17210301680E+00  0.43429095156E+00  0.14865538642E+00  0.10583810764E+01  0.93800000000E+00 0. -1.
         22    1    1    2    0    0  0.16116604365E+00 -0.39176619828E+00  0.34877656499E+01  0.35133978534E+01  0.00000000000E+00 0.  1.
</event>
<event>
 5    1  0.7220939E+001  0.1592018E+01  0.7818608E-02  0.3362073E+00
         11   -1    0    0    0    0  0.00000000000E+00  0.00000000000E+00  0.39999999674E+01  0.40000000000E+01  0.51100000000E-03 0.  1.
    9000002   -1    0    0    0    0 -0.00000000000E+00 -0.00000000000E+00  0.00000000000E+00  0.93800000000E+00  0.93800000000E+00 0. -1.
         11    1    1    2    0    0  0.23477578302E-02  0.23688617424E-01  0.28145064695E-01  0.36865544211E-01  0.51100000000E-03 0.  1.
    9000002    1    1    2    0    0 -0.20912729501E+00 -0.50695464242E+00  0.21491002802E+00  0.11075953932E+01  0.93800000000E+00 0. -1.
         22    1    1    2    0    0  0.20677953718E+00  0.48326602500E+00  0.37569448746E+01  0.37935390625E+01  0.00000000000E+00 0.  1.
</event>
<event>
 5    1  0.7220939E+001  0.1599677E+01  0.7818608E-02  0.3353714E+00
         11   -1    0    0    0    0  0.00000000000E+00  0.00000000000E+00  0.39999999674E+01  0.40000000000E+01  0.51100000000E-03 0. -1.
    9000002   -1    0    0    0    0 -0.00000000000E+00 -0.00000000000E+00  0.00000000000E+00  0.93800000000E+00  0.93800000000E+00 0.  1.
         11    1    1    2    0    0  0.87157637141E-01 -0.10728194759E+00  0.14782140619E+01  0.14846625690E+01  0.51100000000E-03 0.  1.
    9000002    1    1    2    0    0 -0.22915385264E+00  0.28461691039E+00  0.89681572367E-01  0.10106458620E+01  0.93800000000E+00 0.  1.
         22    1    1    2    0    0  0.14199621550E+00 -0.17733496280E+00  0.24321043331E+01  0.24426915690E+01  0.00000000000E+00 0. -1.
</event>
<event>
 5    1  0.7220939E+001  0.1599464E+01  0.7818608E-02  0.3353946E+00
         11   -1    0    0    0    0  0.00000000000E+00  0.00000000000E+00  0.39999999674E+01  0.40000000000E+01  0.51100000000E-03 0.  1.
    9000002   -1    0    0    0    0 -0.00000000000E+00 -0.00000000000E+00  0.00000000000E+00  0.93800000000E+00  0.93800000000E+00 0. -1.
         11    1    1    2    0    0  0.90635822432E-01  0.22465279664E-01  0.65112666549E+00  0.65778851976E+00  0.51100000000E-03 0.  1.
    9000002    1    1    2    0    0 -0.55499407173E+00 -0.58838439604E-01  0.21567710304E+00  0.11125830281E+01  0.93800000000E+00 0. -1.
         22    1    1    2    0    0  0.46435824930E+00  0.36373159940E-01  0.31331961988E+01  0.31676284521E+01  0.00000000000E+00 0.  1.
</event>
<event>
 5    1  0.7220939E+001  0.1589048E+01  0.7818608E-02  0.3365337E+00
         11   -1    0    0    0    0  0.00000000000E+00  0.00000000000E+00  0.39999999674E+01  0.40000000000E+01  0.51100000000E-03 0. -1.
    9000002   -1    0    0    0    0 -0.00000000000E+00 -0.00000000000E+00  0.00000000000E+00  0.93800000000E+00  0.93800000000E+00 0.  1.
         11    1    1    2    0    0 -0.25883598363E+00  0.26656508529E+00  0.14096307751E+01  0.14577764556E+01  0.51100000000E-03 0. -1.
    9000002    1    1    2    0    0  0.42708660222E+00 -0.49554908113E+00  0.31363482123E+00  0.11858257286E+01  0.93800000000E+00 0.  1.
         22    1    1    2    0    0 -0.16825061859E+00  0.22898399585E+00  0.22767343710E+01  0.22943978158E+01  0.00000000000E+00 0. -1.
</event>
<event>
 5    1  0.7220939E+001  0.1557558E+01  0.7818608E-02  0.3400757E+00
         11   -1    0    0    0    0  0.00000000000E+00  0.00000000000E+00  0.39999999674E+01  0.40000000000E+01  0.51100000000E-03 0. -1.
    9000002   -1    0    0    0    0 -0.00000000000E+00 -0.00000000000E+00  0.00000000000E+00  0.93800000000E+00  0.93800000000E+00 0.  1.
         11    1    1    2    0    0 -0.33306683043E-01  0.15278639076E+00  0.62843502584E+00  0.64759853239E+00  0.51100000000E-03 0. -1.
    9000002    1    1    2    0    0  0.11197235686E+00  0.17483646843E+00  0.60895320024E-01  0.96263068692E+00  0.93800000000E+00 0.  1.
         22    1    1    2    0    0 -0.78665673813E-01 -0.32762285919E+00  0.33106696215E+01  0.33277707807E+01  0.00000000000E+00 0. -1.
</event>
<event>
 5    1  0.7220939E+001  0.1594039E+01  0.7818608E-02  0.3359859E+00
         11   -1    0    0    0    0  0.00000000000E+00  0.00000000000E+00  0.39999999674E+01  0.40000000000E+01  0.51100000000E-03 0.  1.
    9000002   -1    0    0    0    0 -0.00000000000E+00 -0.00000000000E+00  0.00000000000E+00  0.93800000000E+00  0.93800000000E+00 0.  1.
         11    1    1    2    0    0 -0.10909232281E+00  0.37571734166E-02  0.12709237980E+01  0.12756029213E+01  0.51100000000E-03 0.  1.
    9000002    1    1    2    0    0  0.20453061075E+00 -0.23674378169E+00  0.69833949962E-01  0.99126241201E+00  0.93800000000E+00 0.  1.
         22    1    1    2    0    0 -0.95438287942E-01  0.23298660827E+00  0.26592422194E+01  0.26711346667E+01  0.00000000000E+00 0.  1.
</event>
<event>
 5    1  0.7220939E+001  0.1597056E+01  0.7818608E-02  0.3356565E+00
         11   -1    0    0    0    0  0.00000000000E+00  0.00000000000E+00  0.39999999674E+01  0.40000000000E+01  0.51100000000E-03 0.  1.
    9000002   -1    0    0    0    0 -0.00000000000E+00 -0.00000000000E+00  0.00000000000E+00  0.93800000000E+00  0.93800000000E+00 0. -1.
         11    1    1    2    0    0  0.47506395544E-01 -0.55193682899E-01  0.10600744675E+01  0.10625729801E+01  0.51100000000E-03 0.  1.
    9000002    1    1    2    0    0 -0.20875351960E+00  0.39890140883E+00  0.13994295204E+00  0.10498230307E+01  0.93800000000E+00 0. -1.
         22    1    1    2    0    0  0.16124712406E+00 -0.34370772593E+00  0.27999825478E+01  0.28256039892E+01  0.00000000000E+00 0.  1.
</event>
<event>
 5    1  0.7220939E+001  0.1599537E+01  0.7818608E-02  0.3353866E+00
         11   -1    0    0    0    0  0.00000000000E+00  0.00000000000E+00  0.39999999674E+01  0.40000000000E+01  0.51100000000E-03 0.  1.
    9000002   -1    0    0    0    0 -0.00000000000E+00 -0.00000000000E+00  0.00000000000E+00  0.93800000000E+00  0.93800000000E+00 0. -1.
         11    1    1    2    0    0  0.21508652956E-01  0.10135347042E+00  0.11601133638E+01  0.11647310531E+01  0.51100000000E-03 0.  1.
    9000002    1    1    2    0    0 -0.96555097574E-01 -0.37711642233E+00  0.10219378477E+00  0.10206993938E+01  0.93800000000E+00 0. -1.
         22    1    1    2    0    0  0.75046444618E-01  0.27576295191E+00  0.27376928188E+01  0.27525695531E+01  0.00000000000E+00 0.  1.
</event>
<event>
 5    1  0.7220939E+001  0.1595803E+01  0.7818608E-02  0.3357931E+00
         11   -1    0    0    0    0  0.00000000000E+00  0.00000000000E+00  0.39999999674E+01  0.40000000000E+01  0.51100000000E-03 0.  1.
    9000002   -1    0    0    0    0 -0.00000000000E+00 -0.00000000000E+00  0.00000000000E+00  0.93800000000E+00  0.93800000000E+00 0.  1.
         11    1    1    2    0    0 -0.50937468256E-01 -0.93552831377E-01  0.54651154674E+00  0.55679609353E+00  0.51100000000E-03 0.  1.
    9000002    1    1    2    0    0  0.58038571453E+00  0.36092710527E+00  0.33664237814E+00  0.12084237848E+01  0.93800000000E+00 0.  1.
         22    1    1    2    0    0 -0.52944824627E+00 -0.26737427390E+00  0.31168460425E+01  0.31727801217E+01  0.00000000000E+00 0.  1.
</event>
<event>
 5    1  0.7220939E+001  0.1599663E+01  0.7818608E-02  0.3353730E+00
         11   -1    0    0    0    0  0.00000000000E+00  0.00000000000E+00  0.39999999674E+01  0.40000000000E+01  0.51100000000E-03 0. -1.
    9000002   -1    0    0    0    0 -0.00000000000E+00 -0.00000000000E+00  0.00000000000E+00  0.93800000000E+00  0.93800000000E+00 0.  1.
         11    1    1    2    0    0 -0.25152286275E-01  0.25130710603E-01  0.34753519247E+00  0.34934962608E+00  0.51100000000E-03 0. -1.
    9000002    1    1    2    0    0  0.28736496722E+00 -0.25376625837E+00  0.98943696698E-01  0.10181403604E+01  0.93800000000E+00 0.  1.
         22    1    1    2    0    0 -0.26221268095E+00  0.22863554777E+00  0.35535210782E+01  0.35705100136E+01  0.00000000000E+00 0. -1.
</event>
<event>
 5    1  0.7220939E+001  0.1599673E+01  0.7818608E-02  0.3353718E+00
         11   -1    0    0    0    0  0.00000000000E+00  0.00000000000E+00  0.39999999674E+01  0.40000000000E+01  0.51100000000E-03 0.  1.
    9000002   -1    0    0    0    0 -0.00000000000E+00 -0.00000000000E+00  0.00000000000E+00  0.93800000000E+00  0.93800000000E+00 0.  1.
         11    1    1    2    0    0  0.14871875661E+00 -0.49949531802E-01  0.13605160852E+01  0.13695314906E+01  0.51100000000E-03 0.  1.
    9000002    1    1    2    0    0 -0.41990673532E+00  0.14743585605E+00  0.13442382045E+00  0.10468871771E+01  0.93800000000E+00 0.  1.
         22    1    1    2    0    0  0.27118797871E+00 -0.97486324248E-01  0.25050600617E+01  0.25215813324E+01  0.00000000000E+00 0.  1.
</event>
<event>
 5    1  0.8264727E+001  0.1598951E+01  0.7818608E-02  0.3354503E+00
         11   -1    0    0    0    0  0.00000000000E+00  0.00000000000E+00  0.39999999674E+01  0.40000000000E+01  0.51100000000E-03 0. -1.
    9000002   -1    0    0    0    0 -0.00000000000E+00 -0.00000000000E+00  0.00000000000E+00  0.93800000000E+00  0.93800000000E+00 0.  1.
         11    1    1    2    0    0  0.10156257925E+00 -0.55535508784E-02  0.13673173489E+01  0.13710954719E+01  0.51100000000E-03 0. -1.
    9000002    1    1    2    0    0 -0.33066281253E+00 -0.63667525713E-01  0.76501412482E-01  0.99954385373E+00  0.93800000000E+00 0.  1.
         22    1    1    2    0    0  0.22910023328E+00  0.69221076591E-01  0.25561812060E+01  0.25673606743E+01  0.00000000000E+00 0. -1.
</event>
<event>
 5    1  0.7220939E+001  0.1599108E+01  0.7818608E-02  0.3354332E+00
         11   -1    0    0    0    0  0.00000000000E+00  0.00000000000E+00  0.39999999674E+01  0.40000000000E+01  0.51100000000E-03 0.  1.
    9000002   -1    0    0    0    0 -0.00000000000E+00 -0.00000000000E+00  0.00000000000E+00  0.93800000000E+00  0.93800000000E+00 0.  1.
         11    1    1    2    0    0  0.11097632107E+00  0.17844043999E-01  0.88754343179E+00  0.89463275045E+00  0.51100000000E-03 0.  1.
    9000002    1    1    2    0    0 -0.40666061912E+00 -0.80717565587E-02  0.11216466853E+00  0.10285246352E+01  0.93800000000E+00 0.  1.
         22    1    1    2    0    0  0.29568429806E+00 -0.97722874398E-02  0.30002918670E+01  0.30148426143E+01  0.00000000000E+00 0.  1.
</event>
<event>
 5    1  0.7220939E+001  0.1599648E+01  0.7818608E-02  0.3353745E+00
         11   -1    0    0    0    0  0.00000000000E+00  0.00000000000E+00  0.39999999674E+01  0.40000000000E+01  0.51100000000E-03 0. -1.
    9000002   -1    0    0    0    0 -0.00000000000E+00 -0.00000000000E+00  0.00000000000E+00  0.93800000000E+00  0.93800000000E+00 0. -1.
         11    1    1    2    0    0  0.15932334602E+00 -0.12095810799E-01  0.13309047112E+01  0.13404618042E+01  0.51100000000E-03 0. -1.
    9000002    1    1    2    0    0 -0.44976925321E+00  0.47954644411E-01  0.13902837071E+00  0.10506021687E+01  0.93800000000E+00 0. -1.
         22    1    1    2    0    0  0.29044590719E+00 -0.35858833612E-01  0.25300668855E+01  0.25469360271E+01  0.00000000000E+00 0. -1.
</event>
<event>
 5    1  0.7220939E+001  0.1599673E+01  0.7818608E-02  0.3353718E+00
         11   -1    0    0    0    0  0.00000000000E+00  0.00000000000E+00  0.39999999674E+01  0.40000000000E+01  0.51100000000E-03 0. -1.
    9000002   -1    0    0    0    0 -0.00000000000E+00 -0.00000000000E+00  0.00000000000E+00  0.93800000000E+00  0.93800000000E+00 0.  1.
         11    1    1    2    0    0  0.12669536890E+00  0.70895822136E-01  0.13439144899E+01  0.13517338315E+01  0.51100000000E-03 0. -1.
    9000002    1    1    2    0    0 -0.36323821626E+00 -0.21062661392E+00  0.11923764091E+00  0.10345855147E+01  0.93800000000E+00 0.  1.
         22    1    1    2    0    0  0.23654284736E+00  0.13973079179E+00  0.25368478366E+01  0.25516806537E+01  0.00000000000E+00 0. -1.
</event>
<event>
 5    1  0.7220939E+001  0.1599655E+01  0.7818608E-02  0.3353738E+00
         11   -1    0    0    0    0  0.00000000000E+00  0.00000000000E+00  0.39999999674E+01  0.40000000000E+01  0.51100000000E-03 0.  1.
    9000002   -1    0    0    0    0 -0.00000000000E+00 -0.00000000000E+00  0.00000000000E+00  0.93800000000E+00  0.93800000000E+00 0.  1.
         11    1    1    2    0    0  0.22400684335E-01 -0.22399120305E-02  0.22929103452E+00  0.23039411341E+00  0.51100000000E-03 0.  1.
    9000002    1    1    2    0    0 -0.42047496679E+00  0.21514890714E-01  0.11991840795E+00  0.10351263270E+01  0.93800000000E+00 0.  1.
         22    1    1    2    0    0  0.39807428245E+00 -0.19274978683E-01  0.36507905249E+01  0.36724795596E+01  0.00000000000E+00 0.  1.
</event>
<event>
 5    1  0.7220939E+001  0.1599675E+01  0.7818608E-02  0.3353716E+00
         11   -1    0    0    0    0  0.00000000000E+00  0.00000000000E+00  0.39999999674E+01  0.40000000000E+01  0.51100000000E-03 0. -1.
    9000002   -1    0    0    0    0 -0.00000000000E+00 -0.00000000000E+00  0.00000000000E+00  0.93800000000E+00  0.93800000000E+00 0. -1.
         11    1    1    2    0    0  0.61630712928E-02  0.76434762670E-01  0.53096416617E+00  0.53647317107E+00  0.51100000000E-03 0. -1.
    9000002    1    1    2    0    0 -0.50829528580E-01 -0.54567293163E+00  0.20737112411E+00  0.11059789204E+01  0.93800000000E+00 0. -1.
         22    1    1    2    0    0  0.44666457287E-01  0.46923816896E+00  0.32616646771E+01  0.32955479085E+01  0.00000000000E+00 0. -1.
</event>
<event>
 5    1  0.7220939E+001  0.1587886E+01  0.7818608E-02  0.3366617E+00
         11   -1    0    0    0    0  0.00000000000E+00  0.00000000000E+00  0.39999999674E+01  0.40000000000E+01  0.51100000000E-03 0.  1.
    9000002   -1    0    0    0    0 -0.00000000000E+00 -0.00000000000E+00  0.00000000000E+00  0.93800000000E+00  0.93800000000E+00 0. -1.
         11    1    1    2    0    0 -0.15026602300E-01  0.53322477514E-01  0.91060581243E+00  0.91228958787E+00  0.51100000000E-03 0.  1.
    9000002    1    1    2    0    0  0.64963953418E-01  0.24614335614E+00  0.52149459580E-01  0.97332956040E+00  0.93800000000E+00 0. -1.
         22    1    1    2    0    0 -0.49937351118E-01 -0.29946583366E+00  0.30372446954E+01  0.30523808517E+01  0.00000000000E+00 0.  1.
</event>
<event>
 5    1  0.7220939E+001  0.1599494E+01  0.7818608E-02  0.3353912E+00
         11   -1    0    0    0    0  0.00000000000E+00  0.00000000000E+00  0.39999999674E+01  0.40000000000E+01  0.51100000000E-03 0. -1.
    9000002   -1    0    0    0    0 -0.00000000000E+00 -0.00000000000E+00  0.00000000000E+00  0.93800000000E+00  0.93800000000E+00 0. -1.
         11    1    1    2    0    0  0.17770006356E+00 -0.48204497787E-01  0.13448272935E+01  0.13573730867E+01  0.51100000000E-03 0. -1.
    9000002    1    1    2    0    0 -0.46369725215E+00  0.12948923739E+00  0.15834789689E+00  0.10661616485E+01  0.93800000000E+00 0. -1.
         22    1    1    2    0    0  0.28599718859E+00 -0.81284739599E-01  0.24968247770E+01  0.25144652648E+01  0.00000000000E+00 0. -1.
</event>
<event>
 5    1  0.7220939E+001  0.1599564E+01  0.7818608E-02  0.3353836E+00
         11   -1    0    0    0    0  0.00000000000E+00  0.00000000000E+00  0.39999999674E+01  0.40000000000E+01  0.51100000000E-03 0. -1.
    9000002   -1    0    0    0    0 -0.00000000000E+00 -0.00000000000E+00  0.00000000000E+00  0.93800000000E+00  0.93800000000E+00 0. -1.
         11    1    1    2    0    0 -0.12641652025E+00  0.47690374488E-02  0.87231908202E+00  0.88144467908E+00  0.51100000000E-03 0. -1.
    9000002    1    1    2    0    0  0.51682650498E+00  0.92895128486E-02  0.18354474287E+00  0.10866133645E+01  0.93800000000E+00 0. -1.
         22    1    1    2    0    0 -0.39040998473E+00 -0.14058550297E-01  0.29441361425E+01  0.29699419564E+01  0.00000000000E+00 0. -1.
</event>
<event>
 5    1  0.7220939E+001  0.1599295E+01  0.7818608E-02  0.3354129E+00
         11   -1    0    0    0    0  0.00000000000E+00  0.00000000000E+00  0.39999999674E+01  0.40000000000E+01  0.51100000000E-03 0. -1.
    9000002   -1    0    0    0    0 -0.00000000000E+00 -0.00000000000E+00  0.00000000000E+00  0.93800000000E+00  0.93800000000E+00 0.  1.
         11    1    1    2    0    0  0.10765527070E-03 -0.11361201445E-01  0.22333399703E+00  0.22362339735E+00  0.51100000000E-03 0. -1.
    9000002    1    1    2    0    0 -0.14801511577E+00  0.32276424301E+00  0.84897851511E-01  0.10065470065E+01  0.93800000000E+00 0.  1.
         22    1    1    2    0    0  0.14790746050E+00 -0.31140304157E+00  0.36917681188E+01  0.37078295962E+01  0.00000000000E+00 0. -1.
</event>
<event>
 5    1  0.7220939E+001  0.1586492E+01  0.7818608E-02  0.3368156E+00
         11   -1    0    0    0    0  0.00000000000E+00  0.00000000000E+00  0.39999999674E+01  0.40000000000E+01  0.51100000000E-03 0.  1.
    9000002   -1    0    0    0    0 -0.00000000000E+00 -0.00000000000E+00  0.00000000000E+00  0.93800000000E+00  0.93800000000E+00 0.  1.
         11    1    1    2    0    0 -0.47897463549E-01 -0.18577793300E-01  0.30377996519E+00  0.30809386522E+00  0.51100000000E-03 0.  1.
    9000002    1    1    2    0    0 -0.31742012949E+00  0.53196606142E-01  0.79766182285E-01  0.99488293851E+00  0.93800000000E+00 0.  1.
         22    1    1    2    0    0  0.36531759304E+00 -0.34618812841E-01  0.36164538199E+01  0.36350231963E+01  0.00000000000E+00 0.  1.
</event>
<event>
 5    1  0.1636988E+002  0.1576860E+01  0.7818608E-02  0.3378868E+00
         11   -1    0    0    0    0  0.00000000000E+00  0.00000000000E+00  0.39999999674E+01  0.40000000000E+01  0.51100000000E-03 0.  1.
    9000002   -1    0    0    0    0 -0.00000000000E+00 -0.00000000000E+00  0.00000000000E+00  0.93800000000E+00  0.93800000000E+00 0. -1.
         11    1    1    2    0    0 -0.91465951804E-01 -0.77523880395E-01  0.14817585352E+01  0.14866016918E+01  0.51100000000E-03 0.  1.
    9000002    1    1    2    0    0 -0.16922299615E+00 -0.16373077988E-01  0.36232957266E-01  0.95397134512E+00  0.93800000000E+00 0. -1.
         22    1    1    2    0    0  0.26068894796E+00  0.93896958383E-01  0.24820084749E+01  0.24974269631E+01  0.00000000000E+00 0.  1.
</event>
<event>
 5    1  0.7220939E+001  0.1599672E+01  0.7818608E-02  0.3353720E+00
         11   -1    0    0    0    0  0.00000000000E+00  0.00000000000E+00  0.39999999674E+01  0.40000000000E+01  0.51100000000E-03 0. -1.
    9000002   -1    0    0    0    0 -0.00000000000E+00 -0.00000000000E+00  0.00000000000E+00  0.93800000000E+00  0.93800000000E+00 0.  1.
         11    1    1    2    0    0  0.61859126633E-01 -0.47067860268E-01  0.83476100676E+00  0.83837231261E+00  0.51100000000E-03 0. -1.
    9000002    1    1    2    0    0 -0.29209156599E+00  0.23070059187E+00  0.93133095528E-01  0.10134387103E+01  0.93800000000E+00 0.  1.
         22    1    1    2    0    0  0.23023243936E+00 -0.18363273160E+00  0.30721058651E+01  0.30861889771E+01  0.00000000000E+00 0. -1.
</event>
<event>
 5    1  0.7220939E+001  0.1599646E+01  0.7818608E-02  0.3353748E+00
         11   -1    0    0    0    0  0.00000000000E+00  0.00000000000E+00  0.39999999674E+01  0.40000000000E+01  0.51100000000E-03 0. -1.
    9000002   -1    0    0    0    0 -0.00000000000E+00 -0.00000000000E+00  0.00000000000E+00  0.93800000000E+00  0.93800000000E+00 0. -1.
         11    1    1    2    0    0  0.64492390428E-01 -0.84228962539E-01  0.98480111968E+00  0.99049850731E+00  0.51100000000E-03 0. -1.
    9000002    1    1    2    0    0 -0.25645617728E+00  0.30969779528E+00  0.10911354706E+00  0.10263684823E+01  0.93800000000E+00 0. -1.
         22    1    1    2    0    0  0.19196378685E+00 -0.22546883274E+00  0.29060853006E+01  0.29211330104E+01  0.00000000000E+00 0. -1.
</event>
<event>
 5    1  0.7220939E+001  0.1599677E+01  0.7818608E-02  0.3353714E+00
         11   -1    0    0    0    0  0.00000000000E+00  0.00000000000E+00  0.39999999674E+01  0.40000000000E+01  0.51100000000E-03 0. -1.
    9000002   -1    0    0    0    0 -0.00000000000E+00 -0.00000000000E+00  0.00000000000E+00  0.93800000000E+00  0.93800000000E+00 0. -1.
         11    1    1    2    0    0  0.78168673682E-01 -0.12250680460E+00  0.14186700485E+01  0.14260936948E+01  0.51100000000E-03 0. -1.
    9000002    1    1    2    0    0 -0.21475922121E+00  0.33586189149E+00  0.10717943923E+00  0.10248200649E+01  0.93800000000E+00 0. -1.
         22    1    1    2    0    0  0.13659054752E+00 -0.21335508689E+00  0.24741504796E+01  0.24870862402E+01  0.00000000000E+00 0.  1.
</event>
<event>
 5    1  0.7220939E+001  0.1599642E+01  0.7818608E-02  0.3353752E+00
         11   -1    0    0    0    0  0.00000000000E+00  0.00000000000E+00  0.39999999674E+01  0.40000000000E+01  0.51100000000E-03 0.  1.
    9000002   -1    0    0    0    0 -0.00000000000E+00 -0.00000000000E+00  0.00000000000E+00  0.93800000000E+00  0.93800000000E+00 0.  1.
         11    1    1    2    0    0 -0.84583875787E-02 -0.17155927958E+00  0.13091066848E+01  0.13203274987E+01  0.51100000000E-03 0.  1.
    9000002    1    1    2    0    0  0.10325107299E-01  0.48932256521E+00  0.16372473841E+00  0.10706040214E+01  0.93800000000E+00 0.  1.
         22    1    1    2    0    0 -0.18667197201E-02 -0.31776328563E+00  0.25271685442E+01  0.25470684799E+01  0.00000000000E+00 0.  1.
</event>
<event>
 5    1  0.7220939E+001  0.1599642E+01  0.7818608E-02  0.3353752E+00
         11   -1    0    0    0    0  0.00000000000E+00  0.00000000000E+00  0.39999999674E+01  0.40000000000E+01  0.51100000000E-03 0. -1.
    9000002   -1    0    0    0    0 -0.00000000000E+00 -0.00000000000E+00  0.00000000000E+00  0.93800000000E+00  0.93800000000E+00 0. -1.
         11    1    1    2    0    0 -0.11892194587E+00 -0.64074928869E-01  0.14651812890E+01  0.14713954249E+01  0.51100000000E-03 0. -1.
    9000002    1    1    2    0    0  0.32871279286E+00  0.18496178553E+00  0.95716518875E-01  0.10155139656E+01  0.93800000000E+00 0. -1.
         22    1    1    2    0    0 -0.20979084699E+00 -0.12088685666E+00  0.24391021595E+01  0.24510906095E+01  0.00000000000E+00 0. -1.
</event>
<event>
 5    1  0.7220939E+001  0.1598235E+01  0.7818608E-02  0.3355281E+00
         11   -1    0    0    0    0  0.00000000000E+00  0.00000000000E+00  0.39999999674E+01  0.40000000000E+01  0.51100000000E-03 0. -1.
    9000002   -1    0    0    0    0 -0.00000000000E+00 -0.00000000000E+00  0.00000000000E+00  0.93800000000E+00  0.93800000000E+00 0. -1.
         11    1    1    2    0    0  0.14599835713E+00 -0.35733807256E-01  0.10183910892E+01  0.10294236723E+01  0.51100000000E-03 0. -1.
    9000002    1    1    2    0    0 -0.40523195663E+00  0.10480852931E+00  0.11968047447E+00  0.10341011471E+01  0.93800000000E+00 0. -1.
         22    1    1    2    0    0  0.25923359950E+00 -0.69074722058E-01  0.28619284037E+01  0.28744751806E+01  0.00000000000E+00 0. -1.
</event>
<event>
 5    1  0.7220939E+001  0.1599677E+01  0.7818608E-02  0.3353714E+00
         11   -1    0    0    0    0  0.00000000000E+00  0.00000000000E+00  0.39999999674E+01  0.40000000000E+01  0.51100000000E-03 0. -1.
    9000002   -1    0    0    0    0 -0.00000000000E+00 -0.00000000000E+00  0.00000000000E+00  0.93800000000E+00  0.93800000000E+00 0. -1.
         11    1    1    2    0    0 -0.29538414925E-01  0.30601254473E-02  0.32416811728E+00  0.32552590020E+00  0.51100000000E-03 0.  1.
    9000002    1    1    2    0    0  0.35607164023E+00 -0.37612658006E-01  0.86038297393E-01  0.10076945537E+01  0.93800000000E+00 0. -1.
         22    1    1    2    0    0 -0.32653322530E+00  0.34552532559E-01  0.35897935527E+01  0.36047795461E+01  0.00000000000E+00 0. -1.
</event>
<event>
 5    1  0.7220939E+001  0.1589067E+01  0.7818608E-02  0.3365316E+00
         11   -1    0    0    0    0  0.00000000000E+00  0.00000000000E+00  0.39999999674E+01  0.40000000000E+01  0.51100000000E-03 0.  1.
    9000002   -1    0    0    0    0 -0.00000000000E+00 -0.00000000000E+00  0.00000000000E+00  0.93800000000E+00  0.93800000000E+00 0.  1.
         11    1    1    2    0    0  0.14819068747E-01 -0.27490127054E-01  0.47399437364E-01  0.56765127212E-01  0.51100000000E-03 0.  1.
    9000002    1    1    2    0    0 -0.65168377515E+00 -0.76963636859E-01  0.31565859965E+00  0.11874761032E+01  0.93800000000E+00 0.  1.
         22    1    1    2    0    0  0.63686470640E+00  0.10445376391E+00  0.36369419303E+01  0.36937587696E+01  0.00000000000E+00 0.  1.
</event>
<event>
 5    1  0.7220939E+001  0.1455939E+01  0.7818608E-02  0.3526279E+00
         11   -1    0    0    0    0  0.00000000000E+00  0.00000000000E+00  0.39999999674E+01  0.40000000000E+01  0.51100000000E-03 0.  1.
    9000002   -1    0    0    0    0 -0.00000000000E+00 -0.00000000000E+00  0.00000000000E+00  0.93800000000E+00  0.93800000000E+00 0.  1.
         11    1    1    2    0    0  0.15802703066E-01  0.23952937475E+00  0.34453439579E+00  0.41991458392E+00  0.51100000000E-03 0.  1.
    9000002    1    1    2    0    0 -0.67868303287E+00  0.36404319643E+00  0.63978802577E+00  0.13719733328E+01  0.93800000000E+00 0.  1.
         22    1    1    2    0    0  0.66288032981E+00 -0.60357257117E+00  0.30156775458E+01  0.31461120833E+01  0.00000000000E+00 0.  1.
</event>
<event>
 5    1  0.7220939E+001  0.1599656E+01  0.7818608E-02  0.3353737E+00
         11   -1    0    0    0    0  0.00000000000E+00  0.00000000000E+00  0.39999999674E+01  0.40000000000E+01  0.51100000000E-03 0. -1.
    9000002   -1    0    0    0    0 -0.00000000000E+00 -0.00000000000E+00  0.00000000000E+00  0.93800000000E+00  0.93800000000E+00 0. -1.
         11    1    1    2    0    0 -0.71013905204E-01 -0.17266118442E+00  0.14458362316E+01  0.14578400218E+01  0.51100000000E-03 0. -1.
    9000002    1    1    2    0    0  0.17420483455E+00  0.45936844704E+00  0.16500914015E+00  0.10716523274E+01  0.93800000000E+00 0. -1.
         22    1    1    2    0    0 -0.10319092934E+00 -0.28670726263E+00  0.23891545956E+01  0.24085076508E+01  0.00000000000E+00 0. -1.
</event>
<event>
 5    1  0.7220939E+001  0.1599674E+01  0.7818608E-02  0.3353717E+00
         11   -1    0    0    0    0  0.00000000000E+00  0.00000000000E+00  0.39999999674E+01  0.40000000000E+01  0.51100000000E-03 0.  1.
    9000002   -1    0    0    0    0 -0.00000000000E+00 -0.00000000000E+00  0.00000000000E+00  0.93800000000E+00  0.93800000000E+00 0. -1.
         11    1    1    2    0    0  0.28872304243E-01 -0.71391655523E-01  0.82762741018E+00  0.83120260444E+00  0.51100000000E-03 0.  1.
    9000002    1    1    2    0    0 -0.12912043803E+00  0.33806651537E+00  0.87930239374E-01  0.10092258337E+01  0.93800000000E+00 0. -1.
         22    1    1    2    0    0  0.10024813379E+00 -0.26667485984E+00  0.30844423178E+01  0.30975715619E+01  0.00000000000E+00 0.  1.
</event>
<event>
 5    1  0.7220939E+001  0.1599677E+01  0.7818608E-02  0.3353714E+00
         11   -1    0    0    0    0  0.00000000000E+00  0.00000000000E+00  0.39999999674E+01  0.40000000000E+01  0.51100000000E-03 0.  1.
    9000002   -1    0    0    0    0 -0.00000000000E+00 -0.00000000000E+00  0.00000000000E+00  0.93800000000E+00  0.93800000000E+00 0.  1.
         11    1    1    2    0    0  0.26171243230E-01  0.64041121014E-01  0.53873156330E+00  0.54315573971E+00  0.51100000000E-03 0. -1.
    9000002    1    1    2    0    0 -0.18493660489E+00 -0.45689108943E+00  0.16611751167E+00  0.10725623726E+01  0.93800000000E+00 0.  1.
         22    1    1    2    0    0  0.15876536166E+00  0.39284996841E+00  0.32951508924E+01  0.33222818877E+01  0.00000000000E+00 0.  1.
</event>
<event>
 5    1  0.7220939E+001  0.1579486E+01  0.7818608E-02  0.3375934E+00
         11   -1    0    0    0    0  0.00000000000E+00  0.00000000000E+00  0.39999999674E+01  0.40000000000E+01  0.51100000000E-03 0.  1.
    9000002   -1    0    0    0    0 -0.00000000000E+00 -0.00000000000E+00  0.00000000000E+00  0.93800000000E+00  0.93800000000E+00 0. -1.
         11    1    1    2    0    0 -0.60533035429E-01 -0.38521907397E-01  0.33346341792E+00  0.34109573134E+00  0.51100000000E-03 0.  1.
    9000002    1    1    2    0    0 -0.17129063836E+00 -0.24098259091E+00  0.74228957347E-01  0.98628952647E+00  0.93800000000E+00 0. -1.
         22    1    1    2    0    0  0.23182367379E+00  0.27950449831E+00  0.35923075921E+01  0.36106147422E+01  0.00000000000E+00 0.  1.
</event>
<event>
 5    1  0.7220939E+001  0.1597459E+01  0.7818608E-02  0.3356126E+00
         11   -1    0    0    0    0  0.00000000000E+00  0.00000000000E+00  0.39999999674E+01  0.40000000000E+01  0.51100000000E-03 0. -1.
    9000002   -1    0    0    0    0 -0.00000000000E+00 -0.00000000000E+00  0.00000000000E+00  0.93800000000E+00  0.93800000000E+00 0. -1.
         11    1    1    2    0    0  0.16897083876E+00  0.11060660696E+00  0.77489872565E+00  0.80078290566E+00  0.51100000000E-03 0. -1.
    9000002    1    1    2    0    0 -0.56462736319E+00 -0.48948815911E+00  0.40712833482E+00  0.12664912942E+01  0.93800000000E+00 0. -1.
         22    1    1    2    0    0  0.39565652443E+00  0.37888155215E+00  0.28179729069E+01  0.28707258002E+01  0.00000000000E+00 0. -1.
</event>
<event>
 5    1  0.7220939E+001  0.1599677E+01  0.7818608E-02  0.3353714E+00
         11   -1    0    0    0    0  0.00000000000E+00  0.00000000000E+00  0.39999999674E+01  0.40000000000E+01  0.51100000000E-03 0. -1.
    9000002   -1    0    0    0    0 -0.00000000000E+00 -0.00000000000E+00  0.00000000000E+00  0.93800000000E+00  0.93800000000E+00 0. -1.
         11    1    1    2    0    0  0.22082693419E+00 -0.10558199073E+00  0.14562392493E+01  0.14766668900E+01  0.51100000000E-03 0.  1.
    9000002    1    1    2    0    0 -0.56514136907E+00  0.27060515387E+00  0.27553525407E+00  0.11611957598E+01  0.93800000000E+00 0. -1.
         22    1    1    2    0    0  0.34431443488E+00 -0.16502316314E+00  0.22682254640E+01  0.23001373502E+01  0.00000000000E+00 0. -1.
</event>
<event>
 5    1  0.7220939E+001  0.1599655E+01  0.7818608E-02  0.3353738E+00
         11   -1    0    0    0    0  0.00000000000E+00  0.00000000000E+00  0.39999999674E+01  0.40000000000E+01  0.51100000000E-03 0. -1.
    9000002   -1    0    0    0    0 -0.00000000000E+00 -0.00000000000E+00  0.00000000000E+00  0.93800000000E+00  0.93800000000E+00 0. -1.
         11    1    1    2    0    0  0.68928953892E-01 -0.14832680524E+00  0.94738102746E+00  0.96139643963E+00  0.51100000000E-03 0. -1.
    9000002    1    1    2    0    0 -0.25139058778E+00  0.58498261572E+00  0.28519708280E+00  0.11690095228E+01  0.93800000000E+00 0. -1.
         22    1    1    2    0    0  0.18246163388E+00 -0.43665581049E+00  0.27674218571E+01  0.28075940376E+01  0.00000000000E+00 0. -1.
</event>
<event>
 5    1  0.7220939E+001  0.1599563E+01  0.7818608E-02  0.3353837E+00
         11   -1    0    0    0    0  0.00000000000E+00  0.00000000000E+00  0.39999999674E+01  0.40000000000E+01  0.51100000000E-03 0. -1.
    9000002   -1    0    0    0    0 -0.00000000000E+00 -0.00000000000E+00  0.00000000000E+00  0.93800000000E+00  0.93800000000E+00 0. -1.
         11    1    1    2    0    0 -0.13407276050E+00 -0.13424538126E+00  0.14220765894E+01  0.14346774602E+01  0.51100000000E-03 0. -1.
    9000002    1    1    2    0    0  0.38850830312E+00  0.34343458863E+00  0.18475912008E+00  0.10875964098E+01  0.93800000000E+00 0. -1.
         22    1    1    2    0    0 -0.25443554263E+00 -0.20918920737E+00  0.23931642579E+01  0.24157261300E+01  0.00000000000E+00 0. -1.
</event>
<event>
 5    1  0.7220939E+001  0.1599259E+01  0.7818608E-02  0.3354168E+00
         11   -1    0    0    0    0  0.00000000000E+00  0.00000000000E+00  0.39999999674E+01  0.40000000000E+01  0.51100000000E-03 0.  1.
    9000002   -1    0    0    0    0 -0.00000000000E+00 -0.00000000000E+00  0.00000000000E+00  0.93800000000E+00  0.93800000000E+00 0. -1.
         11    1    1    2    0    0 -0.68197712639E-01  0.66156508075E-01  0.66476163480E+00  0.67151761243E+00  0.51100000000E-03 0.  1.
    9000002    1    1    2    0    0  0.31846986150E+00 -0.45715064730E+00  0.21509075770E+00  0.11119882198E+01  0.93800000000E+00 0. -1.
         22    1    1    2    0    0 -0.25027214886E+00  0.39099413923E+00  0.31201475749E+01  0.31544941677E+01  0.00000000000E+00 0.  1.
</event>
<event>
 5    1  0.7220939E+001  0.1595177E+01  0.7818608E-02  0.3358615E+00
         11   -1    0    0    0    0  0.00000000000E+00  0.00000000000E+00  0.39999999674E+01  0.40000000000E+01  0.51100000000E-03 0. -1.
    9000002   -1    0    0    0    0 -0.00000000000E+00 -0.00000000000E+00  0.00000000000E+00  0.93800000000E+00  0.93800000000E+00 0. -1.
         11    1    1    2    0    0  0.37495603355E-01  0.62408943519E-01  0.27033558697E+00  0.27996854681E+00  0.51100000000E-03 0. -1.
    9000002    1    1    2    0    0 -0.33333928775E+00 -0.32630098395E+00  0.15209851672E+00  0.10585676037E+01  0.93800000000E+00 0. -1.
         22    1    1    2    0    0  0.29584368440E+00  0.26389204043E+00  0.35775658637E+01  0.35994638495E+01  0.00000000000E+00 0. -1.
</event>
<event>
 5    1  0.7220939E+001  0.1599675E+01  0.7818608E-02  0.3353716E+00
         11   -1    0    0    0    0  0.00000000000E+00  0.00000000000E+00  0.39999999674E+01  0.40000000000E+01  0.51100000000E-03 0.  1.
    9000002   -1    0    0    0    0 -0.00000000000E+00 -0.00000000000E+00  0.00000000000E+00  0.93800000000E+00  0.93800000000E+00 0.  1.
         11    1    1    2    0    0  0.28885673833E-02 -0.51873438465E-01  0.46145925306E+00  0.46437495711E+00  0.51100000000E-03 0.  1.
    9000002    1    1    2    0    0 -0.31711931422E-01  0.43162567054E+00  0.12690199793E+00  0.10407951206E+01  0.93800000000E+00 0.  1.
         22    1    1    2    0    0  0.28823364039E-01 -0.37975223207E+00  0.34116387164E+01  0.34328299222E+01  0.00000000000E+00 0.  1.
</event>
<event>
 5    1  0.7220939E+001  0.1598396E+01  0.7818608E-02  0.3355106E+00
         11   -1    0    0    0    0  0.00000000000E+00  0.00000000000E+00  0.39999999674E+01  0.40000000000E+01  0.51100000000E-03 0.  1.
    9000002   -1    0    0    0    0 -0.00000000000E+00 -0.00000000000E+00  0.00000000000E+00  0.93800000000E+00  0.93800000000E+00 0. -1.
         11    1    1    2    0    0 -0.78074540544E-01  0.95365599204E-02  0.97731525006E+00  0.98047536378E+00  0.51100000000E-03 0.  1.
    9000002    1    1    2    0    0  0.31990610458E+00 -0.18711978586E+00  0.93358959573E-01  0.10128739435E+01  0.93800000000E+00 0. -1.
         22    1    1    2    0    0 -0.24183156404E+00  0.17758322594E+00  0.29293257577E+01  0.29446506928E+01  0.00000000000E+00 0.  1.
</event>
<event>
 5    1  0.7220939E+001  0.1597922E+01  0.7818608E-02  0.3355622E+00
         11   -1    0    0    0    0  0.00000000000E+00  0.00000000000E+00  0.39999999674E+01  0.40000000000E+01  0.51100000000E-03 0.  1.
    9000002   -1    0    0    0    0 -0.00000000000E+00 -0.00000000000E+00  0.00000000000E+00  0.93800000000E+00  0.93800000000E+00 0. -1.
         11    1    1    2    0    0  0.14199005062E+00 -0.65368894816E-02  0.73777144092E+00  0.75133938107E+00  0.51100000000E-03 0.  1.
    9000002    1    1    2    0    0 -0.52499832645E+00  0.23502383002E-01  0.19151546412E+00  0.10921070359E+01  0.93800000000E+00 0. -1.
         22    1    1    2    0    0  0.38300827583E+00 -0.16965493520E-01  0.30707130623E+01  0.30945535831E+01  0.00000000000E+00 0.  1.
</event>
<event>
 5    1  0.7220939E+001  0.1599526E+01  0.7818608E-02  0.3353878E+00
         11   -1    0    0    0    0  0.00000000000E+00  0.00000000000E+00  0.39999999674E+01  0.40000000000E+01  0.51100000000E-03 0. -1.
    9000002   -1    0    0    0    0 -0.00000000000E+00 -0.00000000000E+00  0.00000000000E+00  0.93800000000E+00  0.93800000000E+00 0. -1.
         11    1    1    2    0    0 -0.17736944931E-01  0.12437944074E+00  0.12004352480E+01  0.12069920837E+01  0.51100000000E-03 0. -1.
    9000002    1    1    2    0    0  0.21395695990E-01 -0.42750499545E+00  0.12417678575E+00  0.10384999620E+01  0.93800000000E+00 0. -1.
         22    1    1    2    0    0 -0.36587510594E-02  0.30312555471E+00  0.26753879337E+01  0.26925079543E+01  0.00000000000E+00 0. -1.
</event>
<event>
 5    1  0.7220939E+001  0.1597847E+01  0.7818608E-02  0.3355704E+00
         11   -1    0    0    0    0  0.00000000000E+00  0.00000000000E+00  0.39999999674E+01  0.40000000000E+01  0.51100000000E-03 0.  1.
    9000002   -1    0    0    0    0 -0.00000000000E+00 -0.00000000000E+00  0.00000000000E+00  0.93800000000E+00  0.93800000000E+00 0.  1.
         11    1    1    2    0    0  0.15896489144E+00  0.15662389763E+00  0.12793764834E+01  0.12986937012E+01  0.51100000000E-03 0.  1.
    9000002    1    1    2    0    0 -0.35752000891E+00 -0.37773601815E+00  0.18749843479E+00  0.10888088534E+01  0.93800000000E+00 0.  1.
         22    1    1    2    0    0  0.19855511747E+00  0.22111212052E+00  0.25331250491E+01  0.25504974454E+01  0.00000000000E+00 0.  1.
</event>
<event>
 5    1  0.7220939E+001  0.1594499E+01  0.7818608E-02  0.3359356E+00
         11   -1    0    0    0    0  0.00000000000E+00  0.00000000000E+00  0.39999999674E+01  0.40000000000E+01  0.51100000000E-03 0. -1.
    9000002   -1    0    0    0    0 -0.00000000000E+00 -0.00000000000E+00  0.00000000000E+00  0.93800000000E+00  0.93800000000E+00 0. -1.
         11    1    1    2    0    0 -0.52625515901E+00 -0.35829342479E-01  0.60651982540E+00  0.80380022014E+00  0.51100000000E-03 0. -1.
    9000002    1    1    2    0    0  0.11162602710E+00 -0.22084187389E+00  0.31886170052E+00  0.10211504724E+01  0.93800000000E+00 0. -1.
         22    1    1    2    0    0  0.41462913191E+00  0.25667121637E+00  0.30746184414E+01  0.31130493075E+01  0.00000000000E+00 0. -1.
</event>
<event>
 5    1  0.7220939E+001  0.1597782E+01  0.7818608E-02  0.3355774E+00
         11   -1    0    0    0    0  0.00000000000E+00  0.00000000000E+00  0.39999999674E+01  0.40000000000E+01  0.51100000000E-03 0. -1.
    9000002   -1    0    0    0    0 -0.00000000000E+00 -0.00000000000E+00  0.00000000000E+00  0.93800000000E+00  0.93800000000E+00 0.  1.
         11    1    1    2    0    0  0.31730799825E-01  0.46918567658E-01  0.11888555216E+01  0.11902041455E+01  0.51100000000E-03 0. -1.
    9000002    1    1    2    0    0 -0.17127655913E+00 -0.29920399849E+00  0.81172495692E-01  0.10026423423E+01  0.93800000000E+00 0.  1.
         22    1    1    2    0    0  0.13954575930E+00  0.25228543083E+00  0.27299719501E+01  0.27451535123E+01  0.00000000000E+00 0. -1.
</event>
<event>
 5    1  0.7220939E+001  0.1599673E+01  0.7818608E-02  0.3353718E+00
         11   -1    0    0    0    0  0.00000000000E+00  0.00000000000E+00  0.39999999674E+01  0.40000000000E+01  0.51100000000E-03 0.  1.
    9000002   -1    0    0    0    0 -0.00000000000E+00 -0.00000000000E+00  0.00000000000E+00  0.93800000000E+00  0.93800000000E+00 0. -1.
         11    1    1    2    0    0  0.28264640527E-02  0.97107357218E-01  0.71839611159E+00  0.72493521228E+00  0.51100000000E-03 0.  1.
    9000002    1    1    2    0    0 -0.16855647087E-01 -0.50733359116E+00  0.17662179315E+00  0.10810692593E+01  0.93800000000E+00 0. -1.
         22    1    1    2    0    0  0.14029183034E-01  0.41022623394E+00  0.31049820626E+01  0.31319955284E+01  0.00000000000E+00 0.  1.
</event>
<event>
 5    1  0.7220939E+001  0.1599675E+01  0.7818608E-02  0.3353716E+00
         11   -1    0    0    0    0  0.00000000000E+00  0.00000000000E+00  0.39999999674E+01  0.40000000000E+01  0.51100000000E-03 0. -1.
    9000002   -1    0    0    0    0 -0.00000000000E+00 -0.00000000000E+00  0.00000000000E+00  0.93800000000E+00  0.93800000000E+00 0. -1.
         11    1    1    2    0    0 -0.57099546072E-01 -0.33647979605E-01  0.68631028807E+00  0.68950316702E+00  0.51100000000E-03 0. -1.
    9000002    1    1    2    0    0  0.32062772975E+00  0.19660583068E+00  0.95134164152E-01  0.10150618222E+01  0.93800000000E+00 0. -1.
         22    1    1    2    0    0 -0.26352818367E+00 -0.16295785107E+00  0.32185555151E+01  0.32334350108E+01  0.00000000000E+00 0. -1.
</event>
<event>
 5    1  0.7220939E+001  0.1599675E+01  0.7818608E-02  0.3353716E+00
         11   -1    0    0    0    0  0.00000000000E+00  0.00000000000E+00  0.39999999674E+01  0.40000000000E+01  0.51100000000E-03 0.  1.
    9000002   -1    0    0    0    0 -0.00000000000E+00 -0.00000000000E+00  0.00000000000E+00  0.93800000000E+00  0.93800000000E+00 0.  1.
         11    1    1    2    0    0 -0.15108622984E-01  0.32422133649E-01  0.28204863612E+00  0.28430821215E+00  0.51100000000E-03 0. -1.
    9000002    1    1    2    0    0  0.20835068564E+00 -0.43111667842E+00  0.15640882195E+00  0.10646968199E+01  0.93800000000E+00 0.  1.
         22    1    1    2    0    0 -0.19324206266E+00  0.39869454477E+00  0.35615425093E+01  0.35889949680E+01  0.00000000000E+00 0.  1.
</event>
<event>
 5    1  0.7220939E+001  0.1581024E+01  0.7818608E-02  0.3374220E+00
         11   -1    0    0    0    0  0.00000000000E+00  0.00000000000E+00  0.39999999674E+01  0.40000000000E+01  0.51100000000E-03 0.  1.
    9000002   -1    0    0    0    0 -0.00000000000E+00 -0.00000000000E+00  0.00000000000E+00  0.93800000000E+00  0.93800000000E+00 0. -1.
         11    1    1    2    0    0 -0.25153270101E+00  0.24624528809E+00  0.12420930515E+01  0.12910076883E+01  0.51100000000E-03 0.  1.
    9000002    1    1    2    0    0  0.26971780943E+00 -0.70709169583E+00  0.43903635980E+00  0.12827015585E+01  0.93800000000E+00 0. -1.
         22    1    1    2    0    0 -0.18185108425E-01  0.46084640773E+00  0.23188705560E+01  0.23642907531E+01  0.00000000000E+00 0.  1.
</event>
<event>
 5    1  0.7220939E+001  0.1599672E+01  0.7818608E-02  0.3353719E+00
         11   -1    0    0    0    0  0.00000000000E+00  0.00000000000E+00  0.39999999674E+01  0.40000000000E+01  0.51100000000E-03 0.  1.
    9000002   -1    0    0    0    0 -0.00000000000E+00 -0.00000000000E+00  0.00000000000E+00  0.93800000000E+00  0.93800000000E+00 0. -1.
         11    1    1    2    0    0  0.87206570631E-01 -0.77872906971E-01  0.12416120294E+01  0.12471045940E+01  0.51100000000E-03 0.  1.
    9000002    1    1    2    0    0 -0.27837036427E+00  0.25139536955E+00  0.94609639847E-01  0.10146352426E+01  0.93800000000E+00 0. -1.
         22    1    1    2    0    0  0.19116379364E+00 -0.17352246258E+00  0.26637782981E+01  0.26762601634E+01  0.00000000000E+00 0.  1.
</event>
<event>
 5    1  0.7220939E+001  0.1473732E+01  0.7818608E-02  0.3502950E+00
         11   -1    0    0    0    0  0.00000000000E+00  0.00000000000E+00  0.39999999674E+01  0.40000000000E+01  0.51100000000E-03 0. -1.
    9000002   -1    0    0    0    0 -0.00000000000E+00 -0.00000000000E+00  0.00000000000E+00  0.93800000000E+00  0.93800000000E+00 0. -1.
         11    1    1    2    0    0 -0.84015206016E-01  0.31024483721E+00  0.80114613105E+00  0.86321827962E+00  0.51100000000E-03 0. -1.
    9000002    1    1    2    0    0  0.13877590876E-01  0.13674974655E+00  0.11161808864E+00  0.95456570147E+00  0.93800000000E+00 0. -1.
         22    1    1    2    0    0  0.70137615141E-01 -0.44699458376E+00  0.30872357477E+01  0.31202160189E+01  0.00000000000E+00 0. -1.
</event>
<event>
 5    1  0.7220939E+001  0.1597517E+01  0.7818608E-02  0.3356063E+00
         11   -1    0    0    0    0  0.00000000000E+00  0.00000000000E+00  0.39999999674E+01  0.40000000000E+01  0.51100000000E-03 0.  1.
    9000002   -1    0    0    0    0 -0.00000000000E+00 -0.00000000000E+00  0.00000000000E+00  0.93800000000E+00  0.93800000000E+00 0.  1.
         11    1    1    2    0    0 -0.13815983585E+00 -0.15948497353E-01  0.72608438399E+00  0.73928430837E+00  0.51100000000E-03 0.  1.
    9000002    1    1    2    0    0  0.49480524477E+00  0.70129609651E-01  0.17290850886E+00  0.10767969840E+01  0.93800000000E+00 0.  1.
         22    1    1    2    0    0 -0.35664540892E+00 -0.54181112298E-01  0.31010070745E+01  0.31219187076E+01  0.00000000000E+00 0.  1.
</event>
<event>
 5    1  0.7220939E+001  0.1509543E+01  0.7818608E-02  0.3457801E+00
         11   -1    0    0    0    0  0.00000000000E+00  0.00000000000E+00  0.39999999674E+01  0.40000000000E+01  0.51100000000E-03 0.  1.
    9000002   -1    0    0    0    0 -0.00000000000E+00 -0.00000000000E+00  0.00000000000E+00  0.93800000000E+00  0.93800000000E+00 0.  1.
         11    1    1    2    0    0  0.35800503608E+00  0.56564045488E-01  0.65674070928E+00  0.75011713582E+00  0.51100000000E-03 0.  1.
    9000002    1    1    2    0    0 -0.52589531086E+00  0.32208334226E+00  0.36419700504E+00  0.11801639784E+01  0.93800000000E+00 0.  1.
         22    1    1    2    0    0  0.16789027478E+00 -0.37864738775E+00  0.29790622530E+01  0.30077188858E+01  0.00000000000E+00 0.  1.
</event>
<event>
 5    1  0.7220939E+001  0.1599344E+01  0.7818608E-02  0.3354076E+00
         11   -1    0    0    0    0  0.00000000000E+00  0.00000000000E+00  0.39999999674E+01  0.40000000000E+01  0.51100000000E-03 0.  1.
    9000002   -1    0    0    0    0 -0.00000000000E+00 -0.00000000000E+00  0.00000000000E+00  0.93800000000E+00  0.93800000000E+00 0.  1.
         11    1    1    2    0    0 -0.16083142691E+00 -0.45881045182E-01  0.97433301896E+00  0.98858328488E+00  0.51100000000E-03 0.  1.
    9000002    1    1    2    0    0  0.56407849811E+00  0.12934333701E+00  0.23295853672E+00  0.11265113984E+01  0.93800000000E+00 0.  1.
         22    1    1    2    0    0 -0.40324707121E+00 -0.83462291831E-01  0.27927084117E+01  0.28229053167E+01  0.00000000000E+00 0.  1.
</event>
<event>
 5    1  0.7220939E+001  0.1599676E+01  0.7818608E-02  0.3353715E+00
         11   -1    0    0    0    0  0.00000000000E+00  0.00000000000E+00  0.39999999674E+01  0.40000000000E+01  0.51100000000E-03 0.  1.
    9000002   -1    0    0    0    0 -0.00000000000E+00 -0.00000000000E+00  0.00000000000E+00  0.93800000000E+00  0.93800000000E+00 0.  1.
         11    1    1    2    0    0  0.29283678834E-01  0.60482237148E-01  0.69998241879E+00  0.70320074132E+00  0.51100000000E-03 0.  1.
    9000002    1    1    2    0    0 -0.15918567069E+00 -0.34052236030E+00  0.95023328334E-01  0.10149724078E+01  0.93800000000E+00 0.  1.
         22    1    1    2    0    0  0.12990199186E+00  0.28004012315E+00  0.32049942202E+01  0.32198268509E+01  0.00000000000E+00 0.  1.
</event>
<event>
 5    1  0.7220939E+001  0.1564629E+01  0.7818608E-02  0.3392671E+00
         11   -1    0    0    0    0  0.00000000000E+00  0.00000000000E+00  0.39999999674E+01  0.40000000000E+01  0.51100000000E-03 0.  1.
    9000002   -1    0    0    0    0 -0.00000000000E+00 -0.00000000000E+00  0.00000000000E+00  0.93800000000E+00  0.93800000000E+00 0. -1.
         11    1    1    2    0    0 -0.49600538685E-01 -0.19021873161E+00  0.12285371464E+01  0.12441652464E+01  0.51100000000E-03 0.  1.
    9000002    1    1    2    0    0 -0.12571682877E+00  0.48211763277E-02  0.36613183488E-01  0.94710743318E+00  0.93800000000E+00 0. -1.
         22    1    1    2    0    0  0.17531736746E+00  0.18539755528E+00  0.27348496375E+01  0.27467273204E+01  0.00000000000E+00 0.  1.
</event>
<event>
 5    1  0.7220939E+001  0.1599667E+01  0.7818608E-02  0.3353725E+00
         11   -1    0    0    0    0  0.00000000000E+00  0.00000000000E+00  0.39999999674E+01  0.40000000000E+01  0.51100000000E-03 0. -1.
    9000002   -1    0    0    0    0 -0.00000000000E+00 -0.00000000000E+00  0.00000000000E+00  0.93800000000E+00  0.93800000000E+00 0. -1.
         11    1    1    2    0    0  0.10042024262E-01  0.20604156013E+00  0.14590857783E+01  0.14735961239E+01  0.51100000000E-03 0. -1.
    9000002    1    1    2    0    0 -0.16361161185E-01 -0.53765317715E+00  0.19940430575E+00  0.10995202152E+01  0.93800000000E+00 0. -1.
         22    1    1    2    0    0  0.63191369229E-02  0.33161161702E+00  0.23415098833E+01  0.23648836609E+01  0.00000000000E+00 0. -1.
</event>
<event>
 5    1  0.7220939E+001  0.1588357E+01  0.7818608E-02  0.3366098E+00
         11   -1    0    0    0    0  0.00000000000E+00  0.00000000000E+00  0.39999999674E+01  0.40000000000E+01  0.51100000000E-03 0.  1.
    9000002   -1    0    0    0    0 -0.00000000000E+00 -0.00000000000E+00  0.00000000000E+00  0.93800000000E+00  0.93800000000E+00 0. -1.
         11    1    1    2    0    0  0.23003331090E-02  0.49493835908E-01  0.32753434722E+00  0.33126113726E+00  0.51100000000E-03 0.  1.
    9000002    1    1    2    0    0 -0.21083011944E+00  0.23572463100E+00  0.75817091689E-01  0.99277775575E+00  0.93800000000E+00 0. -1.
         22    1    1    2    0    0  0.20852978633E+00 -0.28521846691E+00  0.35966485284E+01  0.36139611070E+01  0.00000000000E+00 0.  1.
</event>
<event>
 5    1  0.7220939E+001  0.1599142E+01  0.7818608E-02  0.3354295E+00
         11   -1    0    0    0    0  0.00000000000E+00  0.00000000000E+00  0.39999999674E+01  0.40000000000E+01  0.51100000000E-03 0. -1.
    9000002   -1    0    0    0    0 -0.00000000000E+00 -0.00000000000E+00  0.00000000000E+00  0.93800000000E+00  0.93800000000E+00 0.  1.
         11    1    1    2    0    0 -0.48141341211E-01  0.25162906957E-01  0.58507960294E+00  0.58759608875E+00  0.51100000000E-03 0. -1.
    9000002    1    1    2    0    0  0.24032830932E+00 -0.27294051712E+00  0.89249155215E-01  0.10099819968E+01  0.93800000000E+00 0.  1.
         22    1    1    2    0    0 -0.19218696811E+00  0.24777761017E+00  0.33256712092E+01  0.33404219144E+01  0.00000000000E+00 0. -1.
</event>
<event>
 5    1  0.7220939E+001  0.1599677E+01  0.7818608E-02  0.3353714E+00
         11   -1    0    0    0    0  0.00000000000E+00  0.00000000000E+00  0.39999999674E+01  0.40000000000E+01  0.51100000000E-03 0.  1.
    9000002   -1    0    0    0    0 -0.00000000000E+00 -0.00000000000E+00  0.00000000000E+00  0.93800000000E+00  0.93800000000E+00 0. -1.
         11    1    1    2    0    0  0.42495713764E-01 -0.25501525378E-01  0.44630869206E+00  0.44905224998E+00  0.51100000000E-03 0. -1.
    9000002    1    1    2    0    0 -0.36947651468E+00  0.22311506982E+00  0.12619349759E+00  0.10402221052E+01  0.93800000000E+00 0. -1.
         22    1    1    2    0    0  0.32698080092E+00 -0.19761354445E+00  0.34274977777E+01  0.34487256448E+01  0.00000000000E+00 0.  1.
</event>
<event>
 5    1  0.7220939E+001  0.1599677E+01  0.7818608E-02  0.3353714E+00
         11   -1    0    0    0    0  0.00000000000E+00  0.00000000000E+00  0.39999999674E+01  0.40000000000E+01  0.51100000000E-03 0. -1.
    9000002   -1    0    0    0    0 -0.00000000000E+00 -0.00000000000E+00  0.00000000000E+00  0.93800000000E+00  0.93800000000E+00 0.  1.
         11    1    1    2    0    0  0.16602822802E+00  0.15065999027E+00  0.13796177679E+01  0.13977157264E+01  0.51100000000E-03 0. -1.
    9000002    1    1    2    0    0 -0.44949912289E+00 -0.40706763430E+00  0.25693686280E+00  0.11461300414E+01  0.93800000000E+00 0.  1.
         22    1    1    2    0    0  0.28347089487E+00  0.25640764403E+00  0.23634453366E+01  0.23941542322E+01  0.00000000000E+00 0. -1.
</event>
<event>
 5    1  0.7220939E+001  0.1597170E+01  0.7818608E-02  0.3356441E+00
         11   -1    0    0    0    0  0.00000000000E+00  0.00000000000E+00  0.39999999674E+01  0.40000000000E+01  0.51100000000E-03 0. -1.
    9000002   -1    0    0    0    0 -0.00000000000E+00 -0.00000000000E+00  0.00000000000E+00  0.93800000000E+00  0.93800000000E+00 0. -1.
         11    1    1    2    0    0 -0.64338887640E-01 -0.13572105900E-01  0.55747665611E+00  0.56134140926E+00  0.51100000000E-03 0. -1.
    9000002    1    1    2    0    0  0.31561071036E+00 -0.16737467082E+00  0.87673054855E-01  0.10075489891E+01  0.93800000000E+00 0. -1.
         22    1    1    2    0    0 -0.25127182272E+00  0.18094677672E+00  0.33548502564E+01  0.33691096016E+01  0.00000000000E+00 0. -1.
</event>
<event>
 5    1  0.7220939E+001  0.1599677E+01  0.7818608E-02  0.3353714E+00
         11   -1    0    0    0    0  0.00000000000E+00  0.00000000000E+00  0.39999999674E+01  0.40000000000E+01  0.51100000000E-03 0.  1.
    9000002   -1    0    0    0    0 -0.00000000000E+00 -0.00000000000E+00  0.00000000000E+00  0.93800000000E+00  0.93800000000E+00 0.  1.
         11    1    1    2    0    0 -0.85196403475E-01 -0.18906307976E-01  0.92492643963E+00  0.92903447487E+00  0.51100000000E-03 0. -1.
    9000002    1    1    2    0    0  0.35952876214E+00  0.80454171979E-01  0.91201570169E-01  0.10118772312E+01  0.93800000000E+00 0.  1.
         22    1    1    2    0    0 -0.27433235867E+00 -0.61547864003E-01  0.29838719576E+01  0.29970882939E+01  0.00000000000E+00 0.  1.
</event>
<event>
 5    1  0.7220939E+001  0.1595502E+01  0.7818608E-02  0.3358260E+00
         11   -1    0    0    0    0  0.00000000000E+00  0.00000000000E+00  0.39999999674E+01  0.40000000000E+01  0.51100000000E-03 0. -1.
    9000002   -1    0    0    0    0 -0.00000000000E+00 -0.00000000000E+00  0.00000000000E+00  0.93800000000E+00  0.93800000000E+00 0. -1.
         11    1    1    2    0    0 -0.44882760249E-01  0.20444162550E+00  0.76622604132E+00  0.79430060300E+00  0.51100000000E-03 0. -1.
    9000002    1    1    2    0    0  0.17542703709E+00 -0.66856970431E+00  0.34528326246E+00  0.12152467347E+01  0.93800000000E+00 0. -1.
         22    1    1    2    0    0 -0.13054427684E+00  0.46412807881E+00  0.28884906636E+01  0.29284526623E+01  0.00000000000E+00 0. -1.
</event>
<event>
 5    1  0.7220939E+001  0.1598855E+01  0.7818608E-02  0.3354607E+00
         11   -1    0    0    0    0  0.00000000000E+00  0.00000000000E+00  0.39999999674E+01  0.40000000000E+01  0.51100000000E-03 0.  1.
    9000002   -1    0    0    0    0 -0.00000000000E+00 -0.00000000000E+00  0.00000000000E+00  0.93800000000E+00  0.93800000000E+00 0.  1.
         11    1    1    2    0    0  0.57116860800E-01 -0.16425926407E+00  0.13426400134E+01  0.13538559407E+01  0.51100000000E-03 0.  1.
    9000002    1    1    2    0    0 -0.16416080162E+00  0.37973275996E+00  0.11633898955E+00  0.10317579650E+01  0.93800000000E+00 0.  1.
         22    1    1    2    0    0  0.10704394082E+00 -0.21547349589E+00  0.25410209645E+01  0.25523860943E+01  0.00000000000E+00 0.  1.
</event>
<event>
 5    1  0.7220939E+001  0.1595587E+01  0.7818608E-02  0.3358167E+00
         11   -1    0    0    0    0  0.00000000000E+00  0.00000000000E+00  0.39999999674E+01  0.40000000000E+01  0.51100000000E-03 0. -1.
    9000002   -1    0    0    0    0 -0.00000000000E+00 -0.00000000000E+00  0.00000000000E+00  0.93800000000E+00  0.93800000000E+00 0. -1.
         11    1    1    2    0    0 -0.36300704496E-01 -0.48234164649E-01  0.21023430389E+00  0.21873042642E+00  0.51100000000E-03 0. -1.
    9000002    1    1    2    0    0  0.26767924270E+00  0.36697126646E+00  0.14377006927E+00  0.10520617473E+01  0.93800000000E+00 0. -1.
         22    1    1    2    0    0 -0.23137853820E+00 -0.31873710182E+00  0.36459955942E+01  0.36672078263E+01  0.00000000000E+00 0. -1.
</event>
