<event>
 5    1  0.6076093E+001  0.1599675E+01  0.7818608E-02  0.3353716E+00
         11   -1    0    0    0    0  0.00000000000E+00  0.00000000000E+00  0.39999999674E+01  0.40000000000E+01  0.51100000000E-03 0.  1.
    9000002   -1    0    0    0    0 -0.00000000000E+00 -0.00000000000E+00  0.00000000000E+00  0.93800000000E+00  0.93800000000E+00 0.  1.
         11    1    1    2    0    0  0.16401175554E-01 -0.50727691784E-01  0.52131949452E+00  0.52403871399E+00  0.51100000000E-03 0.  1.
    9000002    1    1    2    0    0 -0.12965506790E+00  0.37990403666E+00  0.10871169603E+00  0.10260603036E+01  0.93800000000E+00 0.  1.
         22    1    1    2    0    0  0.11325389235E+00 -0.32917634488E+00  0.33699687768E+01  0.33879009824E+01  0.00000000000E+00 0.  1.
</event>
<event>
 5    1  0.6076093E+001  0.1598902E+01  0.7818608E-02  0.3354556E+00
         11   -1    0    0    0    0  0.00000000000E+00  0.00000000000E+00  0.39999999674E+01  0.40000000000E+01  0.51100000000E-03 0. -1.
    9000002   -1    0    0    0    0 -0.00000000000E+00 -0.00000000000E+00  0.00000000000E+00  0.93800000000E+00  0.93800000000E+00 0.  1.
         11    1    1    2    0    0  0.41847290314E-01 -0.51552627868E-01  0.50449873055E+00  0.50884978077E+00  0.51100000000E-03 0. -1.
    9000002    1    1    2    0    0 -0.33146737930E+00  0.22387339966E+00  0.10856120632E+00  0.10254849868E+01  0.93800000000E+00 0.  1.
         22    1    1    2    0    0  0.28962008899E+00 -0.17232077179E+00  0.33869400305E+01  0.34036652324E+01  0.00000000000E+00 0. -1.
</event>
<event>
 5    1  0.6076093E+001  0.1599677E+01  0.7818608E-02  0.3353714E+00
         11   -1    0    0    0    0  0.00000000000E+00  0.00000000000E+00  0.39999999674E+01  0.40000000000E+01  0.51100000000E-03 0. -1.
    9000002   -1    0    0    0    0 -0.00000000000E+00 -0.00000000000E+00  0.00000000000E+00  0.93800000000E+00  0.93800000000E+00 0.  1.
         11    1    1    2    0    0  0.77896748040E-01 -0.10582860773E+00  0.74305093663E+00  0.75458104476E+00  0.51100000000E-03 0. -1.
    9000002    1    1    2    0    0 -0.38924881850E+00  0.52564647990E+00  0.30218708955E+00  0.11827848078E+01  0.93800000000E+00 0.  1.
         22    1    1    2    0    0  0.31135207046E+00 -0.41981787217E+00  0.29547619412E+01  0.30006341474E+01  0.00000000000E+00 0. -1.
</event>
<event>
 5    1  0.6076093E+001  0.1528949E+01  0.7818608E-02  0.3434285E+00
         11   -1    0    0    0    0  0.00000000000E+00  0.00000000000E+00  0.39999999674E+01  0.40000000000E+01  0.51100000000E-03 0. -1.
    9000002   -1    0    0    0    0 -0.00000000000E+00 -0.00000000000E+00  0.00000000000E+00  0.93800000000E+00  0.93800000000E+00 0.  1.
         11    1    1    2    0    0  0.22389908199E+00 -0.72940256852E-01  0.10514524642E+01  0.10774987822E+01  0.51100000000E-03 0. -1.
    9000002    1    1    2    0    0  0.22437856049E+00  0.28660283753E+00  0.14884281213E+00  0.10170964102E+01  0.93800000000E+00 0.  1.
         22    1    1    2    0    0 -0.44827764249E+00 -0.21366258068E+00  0.27997046910E+01  0.28434048076E+01  0.00000000000E+00 0. -1.
</event>
<event>
 5    1  0.6076093E+001  0.1458860E+01  0.7818608E-02  0.3522407E+00
         11   -1    0    0    0    0  0.00000000000E+00  0.00000000000E+00  0.39999999674E+01  0.40000000000E+01  0.51100000000E-03 0. -1.
    9000002   -1    0    0    0    0 -0.00000000000E+00 -0.00000000000E+00  0.00000000000E+00  0.93800000000E+00  0.93800000000E+00 0. -1.
         11    1    1    2    0    0 -0.31662163118E+00  0.21450761299E+00  0.95461078105E+00  0.10283699615E+01  0.51100000000E-03 0. -1.
    9000002    1    1    2    0    0 -0.64156051882E-01 -0.29597575066E-01  0.11365998046E+00  0.94749913277E+00  0.93800000000E+00 0. -1.
         22    1    1    2    0    0  0.38077768306E+00 -0.18491003793E+00  0.29317292059E+01  0.29621309057E+01  0.00000000000E+00 0. -1.
</event>
<event>
 5    1  0.6076093E+001  0.1599657E+01  0.7818608E-02  0.3353736E+00
         11   -1    0    0    0    0  0.00000000000E+00  0.00000000000E+00  0.39999999674E+01  0.40000000000E+01  0.51100000000E-03 0.  1.
    9000002   -1    0    0    0    0 -0.00000000000E+00 -0.00000000000E+00  0.00000000000E+00  0.93800000000E+00  0.93800000000E+00 0.  1.
         11    1    1    2    0    0  0.98922379363E-01  0.62152319351E-01  0.11535005144E+01  0.11594016758E+01  0.51100000000E-03 0.  1.
    9000002    1    1    2    0    0 -0.32424575725E+00 -0.19723063120E+00  0.96923633197E-01  0.10165005773E+01  0.93800000000E+00 0.  1.
         22    1    1    2    0    0  0.22532337789E+00  0.13507831185E+00  0.27495758198E+01  0.27620977469E+01  0.00000000000E+00 0.  1.
</event>
<event>
 5    1  0.6076093E+001  0.1598494E+01  0.7818608E-02  0.3354999E+00
         11   -1    0    0    0    0  0.00000000000E+00  0.00000000000E+00  0.39999999674E+01  0.40000000000E+01  0.51100000000E-03 0.  1.
    9000002   -1    0    0    0    0 -0.00000000000E+00 -0.00000000000E+00  0.00000000000E+00  0.93800000000E+00  0.93800000000E+00 0. -1.
         11    1    1    2    0    0 -0.49390962339E-01  0.18377595954E-01  0.80348753267E+00  0.80521405816E+00  0.51100000000E-03 0.  1.
    9000002    1    1    2    0    0  0.38660888339E+00 -0.15623066744E+00  0.11854081691E+00  0.10333297516E+01  0.93800000000E+00 0. -1.
         22    1    1    2    0    0 -0.33721792105E+00  0.13785307149E+00  0.30779716178E+01  0.30994561903E+01  0.00000000000E+00 0.  1.
</event>
<event>
 5    1  0.6076093E+001  0.1599463E+01  0.7818608E-02  0.3353946E+00
         11   -1    0    0    0    0  0.00000000000E+00  0.00000000000E+00  0.39999999674E+01  0.40000000000E+01  0.51100000000E-03 0.  1.
    9000002   -1    0    0    0    0 -0.00000000000E+00 -0.00000000000E+00  0.00000000000E+00  0.93800000000E+00  0.93800000000E+00 0.  1.
         11    1    1    2    0    0  0.34564071201E-01 -0.45050983484E-01  0.78182816980E+00  0.78388762865E+00  0.51100000000E-03 0.  1.
    9000002    1    1    2    0    0 -0.20718630038E+00  0.28751008204E+00  0.84421720045E-01  0.10062600246E+01  0.93800000000E+00 0.  1.
         22    1    1    2    0    0  0.17262222918E+00 -0.24245909856E+00  0.31337500775E+01  0.31478523467E+01  0.00000000000E+00 0.  1.
</event>
<event>
 5    1  0.6076093E+001  0.1599677E+01  0.7818608E-02  0.3353714E+00
         11   -1    0    0    0    0  0.00000000000E+00  0.00000000000E+00  0.39999999674E+01  0.40000000000E+01  0.51100000000E-03 0. -1.
    9000002   -1    0    0    0    0 -0.00000000000E+00 -0.00000000000E+00  0.00000000000E+00  0.93800000000E+00  0.93800000000E+00 0. -1.
         11    1    1    2    0    0 -0.66863415313E-01 -0.41160404390E-01  0.74781872611E+00  0.75192952027E+00  0.51100000000E-03 0.  1.
    9000002    1    1    2    0    0  0.34715516098E+00  0.21479621653E+00  0.11253193687E+00  0.10291557497E+01  0.93800000000E+00 0. -1.
         22    1    1    2    0    0 -0.28029174566E+00 -0.17363581213E+00  0.31396493044E+01  0.31569147300E+01  0.00000000000E+00 0. -1.
</event>
<event>
 5    1  0.6076093E+001  0.1528752E+01  0.7818608E-02  0.3434520E+00
         11   -1    0    0    0    0  0.00000000000E+00  0.00000000000E+00  0.39999999674E+01  0.40000000000E+01  0.51100000000E-03 0. -1.
    9000002   -1    0    0    0    0 -0.00000000000E+00 -0.00000000000E+00  0.00000000000E+00  0.93800000000E+00  0.93800000000E+00 0.  1.
         11    1    1    2    0    0 -0.27450932286E+00  0.27756970477E+00  0.11652407900E+01  0.12288965250E+01  0.51100000000E-03 0. -1.
    9000002    1    1    2    0    0  0.45650990686E+00 -0.36805607176E-01  0.20712181262E+00  0.10641895475E+01  0.93800000000E+00 0.  1.
         22    1    1    2    0    0 -0.18200058399E+00 -0.24076409759E+00  0.26276373647E+01  0.26449139275E+01  0.00000000000E+00 0. -1.
</event>
<event>
 5    1  0.6076093E+001  0.1599650E+01  0.7818608E-02  0.3353743E+00
         11   -1    0    0    0    0  0.00000000000E+00  0.00000000000E+00  0.39999999674E+01  0.40000000000E+01  0.51100000000E-03 0. -1.
    9000002   -1    0    0    0    0 -0.00000000000E+00 -0.00000000000E+00  0.00000000000E+00  0.93800000000E+00  0.93800000000E+00 0.  1.
         11    1    1    2    0    0  0.23396641701E-01  0.53299025895E-01  0.50826299706E+00  0.51158550049E+00  0.51100000000E-03 0. -1.
    9000002    1    1    2    0    0 -0.17149929751E+00 -0.43546450039E+00  0.14919868029E+00  0.10588416248E+01  0.93800000000E+00 0.  1.
         22    1    1    2    0    0  0.14810265581E+00  0.38216547450E+00  0.33425382900E+01  0.33675728747E+01  0.00000000000E+00 0. -1.
</event>
<event>
 5    1  0.6076093E+001  0.1599677E+01  0.7818608E-02  0.3353714E+00
         11   -1    0    0    0    0  0.00000000000E+00  0.00000000000E+00  0.39999999674E+01  0.40000000000E+01  0.51100000000E-03 0. -1.
    9000002   -1    0    0    0    0 -0.00000000000E+00 -0.00000000000E+00  0.00000000000E+00  0.93800000000E+00  0.93800000000E+00 0. -1.
         11    1    1    2    0    0  0.22554710979E-01  0.10744808193E+00  0.10848710653E+01  0.10904124425E+01  0.51100000000E-03 0. -1.
    9000002    1    1    2    0    0 -0.79880334196E-01 -0.38784871396E+00  0.10571602109E+00  0.10236343927E+01  0.93800000000E+00 0. -1.
         22    1    1    2    0    0  0.57325623217E-01  0.28040063204E+00  0.28094128809E+01  0.28239531648E+01  0.00000000000E+00 0. -1.
</event>
<event>
 5    1  0.6076093E+001  0.1599674E+01  0.7818608E-02  0.3353717E+00
         11   -1    0    0    0    0  0.00000000000E+00  0.00000000000E+00  0.39999999674E+01  0.40000000000E+01  0.51100000000E-03 0.  1.
    9000002   -1    0    0    0    0 -0.00000000000E+00 -0.00000000000E+00  0.00000000000E+00  0.93800000000E+00  0.93800000000E+00 0. -1.
         11    1    1    2    0    0  0.99660111372E-01  0.52774210672E-01  0.10878153658E+01  0.10936451830E+01  0.51100000000E-03 0.  1.
    9000002    1    1    2    0    0 -0.35165089780E+00 -0.19322907554E+00  0.10861471285E+00  0.10259809869E+01  0.93800000000E+00 0. -1.
         22    1    1    2    0    0  0.25199078643E+00  0.14045486487E+00  0.28035698887E+01  0.28183738301E+01  0.00000000000E+00 0.  1.
</event>
<event>
 5    1  0.6076093E+001  0.1599670E+01  0.7818608E-02  0.3353722E+00
         11   -1    0    0    0    0  0.00000000000E+00  0.00000000000E+00  0.39999999674E+01  0.40000000000E+01  0.51100000000E-03 0.  1.
    9000002   -1    0    0    0    0 -0.00000000000E+00 -0.00000000000E+00  0.00000000000E+00  0.93800000000E+00  0.93800000000E+00 0. -1.
         11    1    1    2    0    0 -0.94888246364E-01 -0.13553831586E+00  0.87440212647E+00  0.88991783568E+00  0.51100000000E-03 0.  1.
    9000002    1    1    2    0    0  0.40795370871E+00  0.56613554383E+00  0.34780415234E+00  0.12197325161E+01  0.93800000000E+00 0. -1.
         22    1    1    2    0    0 -0.31306546235E+00 -0.43059722797E+00  0.27777936885E+01  0.28283496482E+01  0.00000000000E+00 0.  1.
</event>
<event>
 5    1  0.6076093E+001  0.1599650E+01  0.7818608E-02  0.3353744E+00
         11   -1    0    0    0    0  0.00000000000E+00  0.00000000000E+00  0.39999999674E+01  0.40000000000E+01  0.51100000000E-03 0. -1.
    9000002   -1    0    0    0    0 -0.00000000000E+00 -0.00000000000E+00  0.00000000000E+00  0.93800000000E+00  0.93800000000E+00 0.  1.
         11    1    1    2    0    0  0.12579795744E-01  0.45887910980E-01  0.32408636021E+00  0.32756095865E+00  0.51100000000E-03 0. -1.
    9000002    1    1    2    0    0 -0.17847680586E+00 -0.51105872855E+00  0.20209557712E+00  0.11016903451E+01  0.93800000000E+00 0.  1.
         22    1    1    2    0    0  0.16589701011E+00  0.46517081757E+00  0.34738180300E+01  0.35087486962E+01  0.00000000000E+00 0. -1.
</event>
<event>
 5    1  0.6076093E+001  0.1579431E+01  0.7818608E-02  0.3375996E+00
         11   -1    0    0    0    0  0.00000000000E+00  0.00000000000E+00  0.39999999674E+01  0.40000000000E+01  0.51100000000E-03 0.  1.
    9000002   -1    0    0    0    0 -0.00000000000E+00 -0.00000000000E+00  0.00000000000E+00  0.93800000000E+00  0.93800000000E+00 0.  1.
         11    1    1    2    0    0 -0.75980710892E-02  0.11116315829E+00  0.10513457559E+01  0.10572337197E+01  0.51100000000E-03 0.  1.
    9000002    1    1    2    0    0  0.39138716491E-01  0.15067849624E+00  0.31124424499E-01  0.95134041129E+00  0.93800000000E+00 0.  1.
         22    1    1    2    0    0 -0.31540645402E-01 -0.26184165453E+00  0.29175297870E+01  0.29294258691E+01  0.00000000000E+00 0.  1.
</event>
<event>
 5    1  0.6076093E+001  0.1599118E+01  0.7818608E-02  0.3354321E+00
         11   -1    0    0    0    0  0.00000000000E+00  0.00000000000E+00  0.39999999674E+01  0.40000000000E+01  0.51100000000E-03 0. -1.
    9000002   -1    0    0    0    0 -0.00000000000E+00 -0.00000000000E+00  0.00000000000E+00  0.93800000000E+00  0.93800000000E+00 0.  1.
         11    1    1    2    0    0  0.91832092287E-01 -0.10688802198E+00  0.10657658129E+01  0.10750419580E+01  0.51100000000E-03 0. -1.
    9000002    1    1    2    0    0 -0.26705897436E+00  0.32478807117E+00  0.12005606509E+00  0.10349228211E+01  0.93800000000E+00 0.  1.
         22    1    1    2    0    0  0.17522688207E+00 -0.21790004920E+00  0.28141780893E+01  0.28280352208E+01  0.00000000000E+00 0. -1.
</event>
<event>
 5    1  0.6076093E+001  0.1599374E+01  0.7818608E-02  0.3354043E+00
         11   -1    0    0    0    0  0.00000000000E+00  0.00000000000E+00  0.39999999674E+01  0.40000000000E+01  0.51100000000E-03 0.  1.
    9000002   -1    0    0    0    0 -0.00000000000E+00 -0.00000000000E+00  0.00000000000E+00  0.93800000000E+00  0.93800000000E+00 0.  1.
         11    1    1    2    0    0 -0.21811907364E-01 -0.90786088835E-02  0.19204501347E+00  0.19349348506E+00  0.51100000000E-03 0.  1.
    9000002    1    1    2    0    0  0.36946048695E+00  0.35074946696E+00  0.17822055058E+00  0.10821888951E+01  0.93800000000E+00 0.  1.
         22    1    1    2    0    0 -0.34764857959E+00 -0.34167085807E+00  0.36297344033E+01  0.36623176199E+01  0.00000000000E+00 0.  1.
</event>
<event>
 5    1  0.6076093E+001  0.1579950E+01  0.7818608E-02  0.3375417E+00
         11   -1    0    0    0    0  0.00000000000E+00  0.00000000000E+00  0.39999999674E+01  0.40000000000E+01  0.51100000000E-03 0. -1.
    9000002   -1    0    0    0    0 -0.00000000000E+00 -0.00000000000E+00  0.00000000000E+00  0.93800000000E+00  0.93800000000E+00 0. -1.
         11    1    1    2    0    0 -0.22955497468E-01  0.75795755138E-02  0.87898929325E-02  0.25727964703E-01  0.51100000000E-03 0. -1.
    9000002    1    1    2    0    0  0.41167411168E+00  0.13618564212E-01  0.13136130749E+00  0.10328411459E+01  0.93800000000E+00 0. -1.
         22    1    1    2    0    0 -0.38871861421E+00 -0.21198139726E-01  0.38598487669E+01  0.38794308894E+01  0.00000000000E+00 0. -1.
</event>
<event>
 5    1  0.6076093E+001  0.1599624E+01  0.7818608E-02  0.3353772E+00
         11   -1    0    0    0    0  0.00000000000E+00  0.00000000000E+00  0.39999999674E+01  0.40000000000E+01  0.51100000000E-03 0.  1.
    9000002   -1    0    0    0    0 -0.00000000000E+00 -0.00000000000E+00  0.00000000000E+00  0.93800000000E+00  0.93800000000E+00 0.  1.
         11    1    1    2    0    0 -0.25629019759E-01  0.19074743424E-01  0.33338387678E+00  0.33491157476E+00  0.51100000000E-03 0.  1.
    9000002    1    1    2    0    0  0.25484851883E+00 -0.25834122148E+00  0.88469683789E-01  0.10096330221E+01  0.93800000000E+00 0.  1.
         22    1    1    2    0    0 -0.22921949907E+00  0.23926647806E+00  0.35781464068E+01  0.35934554032E+01  0.00000000000E+00 0.  1.
</event>
<event>
 5    1  0.6076093E+001  0.1599485E+01  0.7818608E-02  0.3353923E+00
         11   -1    0    0    0    0  0.00000000000E+00  0.00000000000E+00  0.39999999674E+01  0.40000000000E+01  0.51100000000E-03 0. -1.
    9000002   -1    0    0    0    0 -0.00000000000E+00 -0.00000000000E+00  0.00000000000E+00  0.93800000000E+00  0.93800000000E+00 0. -1.
         11    1    1    2    0    0 -0.80263956164E-03 -0.13764263787E+00  0.13703492494E+01  0.13772448826E+01  0.51100000000E-03 0. -1.
    9000002    1    1    2    0    0  0.47568477134E-01  0.39161057776E+00  0.10505559023E+00  0.10229869411E+01  0.93800000000E+00 0. -1.
         22    1    1    2    0    0 -0.46765837573E-01 -0.25396793988E+00  0.25245951277E+01  0.25377681763E+01  0.00000000000E+00 0. -1.
</event>
<event>
 5    1  0.6076093E+001  0.1586456E+01  0.7818608E-02  0.3368197E+00
         11   -1    0    0    0    0  0.00000000000E+00  0.00000000000E+00  0.39999999674E+01  0.40000000000E+01  0.51100000000E-03 0.  1.
    9000002   -1    0    0    0    0 -0.00000000000E+00 -0.00000000000E+00  0.00000000000E+00  0.93800000000E+00  0.93800000000E+00 0. -1.
         11    1    1    2    0    0 -0.66691977108E-01  0.97497189235E-02  0.85744098186E+00  0.86008614413E+00  0.51100000000E-03 0.  1.
    9000002    1    1    2    0    0 -0.18364296632E+00  0.14281560202E+00  0.46004517013E-01  0.96751302360E+00  0.93800000000E+00 0. -1.
         22    1    1    2    0    0  0.25033494342E+00 -0.15256532094E+00  0.30965544685E+01  0.31104008323E+01  0.00000000000E+00 0.  1.
</event>
<event>
 5    1  0.6076093E+001  0.1578665E+01  0.7818608E-02  0.3376851E+00
         11   -1    0    0    0    0  0.00000000000E+00  0.00000000000E+00  0.39999999674E+01  0.40000000000E+01  0.51100000000E-03 0. -1.
    9000002   -1    0    0    0    0 -0.00000000000E+00 -0.00000000000E+00  0.00000000000E+00  0.93800000000E+00  0.93800000000E+00 0. -1.
         11    1    1    2    0    0 -0.52801429194E-01  0.67656081848E-02  0.96165092617E+00  0.96312331988E+00  0.51100000000E-03 0. -1.
    9000002    1    1    2    0    0 -0.27151019775E+00 -0.39042756741E+00  0.17297042117E+00  0.10657927751E+01  0.93800000000E+00 0. -1.
         22    1    1    2    0    0  0.32431162694E+00  0.38366195922E+00  0.28653786200E+01  0.29090839050E+01  0.00000000000E+00 0. -1.
</event>
<event>
 5    1  0.6076093E+001  0.1599421E+01  0.7818608E-02  0.3353992E+00
         11   -1    0    0    0    0  0.00000000000E+00  0.00000000000E+00  0.39999999674E+01  0.40000000000E+01  0.51100000000E-03 0.  1.
    9000002   -1    0    0    0    0 -0.00000000000E+00 -0.00000000000E+00  0.00000000000E+00  0.93800000000E+00  0.93800000000E+00 0. -1.
         11    1    1    2    0    0  0.19152027140E-01  0.12191433986E+00  0.11017572248E+01  0.11086474416E+01  0.51100000000E-03 0.  1.
    9000002    1    1    2    0    0 -0.77235948595E-01 -0.37094120686E+00  0.96791987512E-01  0.10162556074E+01  0.93800000000E+00 0. -1.
         22    1    1    2    0    0  0.58083921455E-01  0.24902686700E+00  0.28014507551E+01  0.28130969510E+01  0.00000000000E+00 0.  1.
</event>
<event>
 5    1  0.9009509E+001  0.1598586E+01  0.7818608E-02  0.3354899E+00
         11   -1    0    0    0    0  0.00000000000E+00  0.00000000000E+00  0.39999999674E+01  0.40000000000E+01  0.51100000000E-03 0. -1.
    9000002   -1    0    0    0    0 -0.00000000000E+00 -0.00000000000E+00  0.00000000000E+00  0.93800000000E+00  0.93800000000E+00 0.  1.
         11    1    1    2    0    0 -0.73498626520E-01 -0.73985305843E-02  0.13846375995E+01  0.13866067681E+01  0.51100000000E-03 0. -1.
    9000002    1    1    2    0    0  0.30801112131E+00  0.63889329979E-01  0.66965431031E-01  0.99160529763E+00  0.93800000000E+00 0.  1.
         22    1    1    2    0    0 -0.23451249479E+00 -0.56490799395E-01  0.25483969368E+01  0.25597879342E+01  0.00000000000E+00 0. -1.
</event>
<event>
 5    1  0.6076093E+001  0.1599676E+01  0.7818608E-02  0.3353715E+00
         11   -1    0    0    0    0  0.00000000000E+00  0.00000000000E+00  0.39999999674E+01  0.40000000000E+01  0.51100000000E-03 0. -1.
    9000002   -1    0    0    0    0 -0.00000000000E+00 -0.00000000000E+00  0.00000000000E+00  0.93800000000E+00  0.93800000000E+00 0.  1.
         11    1    1    2    0    0  0.12712190939E+00  0.93556574615E-01  0.14852557785E+01  0.14936190281E+01  0.51100000000E-03 0. -1.
    9000002    1    1    2    0    0 -0.33045575315E+00 -0.24238166303E+00  0.11343137187E+00  0.10298837563E+01  0.93800000000E+00 0.  1.
         22    1    1    2    0    0  0.20333384377E+00  0.14882508842E+00  0.24013128170E+01  0.24144972156E+01  0.00000000000E+00 0.  1.
</event>
<event>
 5    1  0.6076093E+001  0.1597290E+01  0.7818608E-02  0.3356310E+00
         11   -1    0    0    0    0  0.00000000000E+00  0.00000000000E+00  0.39999999674E+01  0.40000000000E+01  0.51100000000E-03 0. -1.
    9000002   -1    0    0    0    0 -0.00000000000E+00 -0.00000000000E+00  0.00000000000E+00  0.93800000000E+00  0.93800000000E+00 0.  1.
         11    1    1    2    0    0  0.78762095075E-02  0.12016141773E-01  0.80411550287E-01  0.81686601593E-01  0.51100000000E-03 0. -1.
    9000002    1    1    2    0    0  0.35771201891E+00 -0.24784672395E+00  0.13039296163E+00  0.10422246454E+01  0.93800000000E+00 0.  1.
         22    1    1    2    0    0 -0.36558822841E+00  0.23583058218E+00  0.37891954554E+01  0.38140887530E+01  0.00000000000E+00 0. -1.
</event>
<event>
 5    1  0.6076093E+001  0.1599658E+01  0.7818608E-02  0.3353735E+00
         11   -1    0    0    0    0  0.00000000000E+00  0.00000000000E+00  0.39999999674E+01  0.40000000000E+01  0.51100000000E-03 0. -1.
    9000002   -1    0    0    0    0 -0.00000000000E+00 -0.00000000000E+00  0.00000000000E+00  0.93800000000E+00  0.93800000000E+00 0.  1.
         11    1    1    2    0    0  0.49687451875E-01 -0.69168494711E-01  0.73247207717E+00  0.73740675919E+00  0.51100000000E-03 0. -1.
    9000002    1    1    2    0    0 -0.24073975965E+00  0.36701218994E+00  0.13065329147E+00  0.10438236738E+01  0.93800000000E+00 0.  1.
         22    1    1    2    0    0  0.19105230778E+00 -0.29784369523E+00  0.31368745987E+01  0.31567695670E+01  0.00000000000E+00 0. -1.
</event>
<event>
 5    1  0.6076093E+001  0.1599672E+01  0.7818608E-02  0.3353719E+00
         11   -1    0    0    0    0  0.00000000000E+00  0.00000000000E+00  0.39999999674E+01  0.40000000000E+01  0.51100000000E-03 0. -1.
    9000002   -1    0    0    0    0 -0.00000000000E+00 -0.00000000000E+00  0.00000000000E+00  0.93800000000E+00  0.93800000000E+00 0.  1.
         11    1    1    2    0    0  0.19953384708E+00  0.15441998510E+00  0.14367716429E+01  0.14587571090E+01  0.51100000000E-03 0. -1.
    9000002    1    1    2    0    0 -0.50820182730E+00 -0.39776365003E+00  0.29357147243E+00  0.11758032267E+01  0.93800000000E+00 0.  1.
         22    1    1    2    0    0  0.30866798021E+00  0.24334366493E+00  0.22696568520E+01  0.23034396643E+01  0.00000000000E+00 0. -1.
</event>
<event>
 5    1  0.6076093E+001  0.1564248E+01  0.7818608E-02  0.3393106E+00
         11   -1    0    0    0    0  0.00000000000E+00  0.00000000000E+00  0.39999999674E+01  0.40000000000E+01  0.51100000000E-03 0. -1.
    9000002   -1    0    0    0    0 -0.00000000000E+00 -0.00000000000E+00  0.00000000000E+00  0.93800000000E+00  0.93800000000E+00 0.  1.
         11    1    1    2    0    0 -0.66737685039E-01  0.12495327658E+00  0.92110286479E+00  0.93193239485E+00  0.51100000000E-03 0. -1.
    9000002    1    1    2    0    0 -0.44251694210E-01  0.21645631921E+00  0.59606669968E-01  0.96550945395E+00  0.93800000000E+00 0.  1.
         22    1    1    2    0    0  0.11098937925E+00 -0.34140959578E+00  0.30192904326E+01  0.30405581512E+01  0.00000000000E+00 0. -1.
</event>
<event>
 5    1  0.6076093E+001  0.1479800E+01  0.7818608E-02  0.3495135E+00
         11   -1    0    0    0    0  0.00000000000E+00  0.00000000000E+00  0.39999999674E+01  0.40000000000E+01  0.51100000000E-03 0. -1.
    9000002   -1    0    0    0    0 -0.00000000000E+00 -0.00000000000E+00  0.00000000000E+00  0.93800000000E+00  0.93800000000E+00 0. -1.
         11    1    1    2    0    0 -0.24003590003E+00 -0.17020970661E+00  0.54355301361E+00  0.61809280635E+00  0.51100000000E-03 0. -1.
    9000002    1    1    2    0    0  0.63280460506E-01 -0.95793550264E-01  0.10222286449E+00  0.95051266955E+00  0.93800000000E+00 0. -1.
         22    1    1    2    0    0  0.17675543953E+00  0.26600325687E+00  0.33542240893E+01  0.33693945241E+01  0.00000000000E+00 0. -1.
</event>
<event>
 5    1  0.6076093E+001  0.1599605E+01  0.7818608E-02  0.3353793E+00
         11   -1    0    0    0    0  0.00000000000E+00  0.00000000000E+00  0.39999999674E+01  0.40000000000E+01  0.51100000000E-03 0. -1.
    9000002   -1    0    0    0    0 -0.00000000000E+00 -0.00000000000E+00  0.00000000000E+00  0.93800000000E+00  0.93800000000E+00 0.  1.
         11    1    1    2    0    0 -0.10081453899E+00  0.50467898706E-01  0.10043867477E+01  0.10106946028E+01  0.51100000000E-03 0. -1.
    9000002    1    1    2    0    0  0.41537688102E+00 -0.17334408586E+00  0.13765782114E+00  0.10494664364E+01  0.93800000000E+00 0.  1.
         22    1    1    2    0    0 -0.31456234203E+00  0.12287618715E+00  0.28579553985E+01  0.28778389608E+01  0.00000000000E+00 0. -1.
</event>
<event>
 5    1  0.6076093E+001  0.1599583E+01  0.7818608E-02  0.3353816E+00
         11   -1    0    0    0    0  0.00000000000E+00  0.00000000000E+00  0.39999999674E+01  0.40000000000E+01  0.51100000000E-03 0. -1.
    9000002   -1    0    0    0    0 -0.00000000000E+00 -0.00000000000E+00  0.00000000000E+00  0.93800000000E+00  0.93800000000E+00 0.  1.
         11    1    1    2    0    0 -0.47567566097E-02  0.30961793953E-01  0.25161287419E+00  0.25355583014E+00  0.51100000000E-03 0. -1.
    9000002    1    1    2    0    0  0.53025274488E-01 -0.39275685110E+00  0.10597447229E+00  0.10237891446E+01  0.93800000000E+00 0.  1.
         22    1    1    2    0    0 -0.48268517878E-01  0.36179505715E+00  0.36424126209E+01  0.36606550253E+01  0.00000000000E+00 0. -1.
</event>
<event>
 5    1  0.6076093E+001  0.1599631E+01  0.7818608E-02  0.3353764E+00
         11   -1    0    0    0    0  0.00000000000E+00  0.00000000000E+00  0.39999999674E+01  0.40000000000E+01  0.51100000000E-03 0. -1.
    9000002   -1    0    0    0    0 -0.00000000000E+00 -0.00000000000E+00  0.00000000000E+00  0.93800000000E+00  0.93800000000E+00 0. -1.
         11    1    1    2    0    0  0.36837745583E-01  0.55186751025E-02  0.31778836308E+00  0.31996434193E+00  0.51100000000E-03 0. -1.
    9000002    1    1    2    0    0 -0.41307974108E+00 -0.10792262444E+00  0.12343478436E+00  0.10379606502E+01  0.93800000000E+00 0. -1.
         22    1    1    2    0    0  0.37624199550E+00  0.10240394934E+00  0.35587768199E+01  0.35800750079E+01  0.00000000000E+00 0. -1.
</event>
<event>
 5    1  0.6076093E+001  0.1584562E+01  0.7818608E-02  0.3370292E+00
         11   -1    0    0    0    0  0.00000000000E+00  0.00000000000E+00  0.39999999674E+01  0.40000000000E+01  0.51100000000E-03 0.  1.
    9000002   -1    0    0    0    0 -0.00000000000E+00 -0.00000000000E+00  0.00000000000E+00  0.93800000000E+00  0.93800000000E+00 0. -1.
         11    1    1    2    0    0 -0.63077773763E-01 -0.32655383982E-01  0.91641237387E+00  0.91916107389E+00  0.51100000000E-03 0.  1.
    9000002    1    1    2    0    0 -0.21338244478E+00 -0.92354753024E-01  0.47421882901E-01  0.96755067212E+00  0.93800000000E+00 0. -1.
         22    1    1    2    0    0  0.27646021854E+00  0.12501013701E+00  0.30361657106E+01  0.30512882540E+01  0.00000000000E+00 0.  1.
</event>
<event>
 5    1  0.6076093E+001  0.1599568E+01  0.7818608E-02  0.3353832E+00
         11   -1    0    0    0    0  0.00000000000E+00  0.00000000000E+00  0.39999999674E+01  0.40000000000E+01  0.51100000000E-03 0.  1.
    9000002   -1    0    0    0    0 -0.00000000000E+00 -0.00000000000E+00  0.00000000000E+00  0.93800000000E+00  0.93800000000E+00 0.  1.
         11    1    1    2    0    0  0.92240982630E-02 -0.37569376917E-01  0.21752086575E+00  0.22093467412E+00  0.51100000000E-03 0.  1.
    9000002    1    1    2    0    0 -0.14898163934E+00  0.55008975683E+00  0.22531042232E+00  0.11204477033E+01  0.93800000000E+00 0.  1.
         22    1    1    2    0    0  0.13975754108E+00 -0.51252037992E+00  0.35571686793E+01  0.35966176226E+01  0.00000000000E+00 0.  1.
</event>
<event>
 5    1  0.6076093E+001  0.1599115E+01  0.7818608E-02  0.3354325E+00
         11   -1    0    0    0    0  0.00000000000E+00  0.00000000000E+00  0.39999999674E+01  0.40000000000E+01  0.51100000000E-03 0. -1.
    9000002   -1    0    0    0    0 -0.00000000000E+00 -0.00000000000E+00  0.00000000000E+00  0.93800000000E+00  0.93800000000E+00 0. -1.
         11    1    1    2    0    0  0.46578713435E-01  0.12161566593E+00  0.10020556119E+01  0.10104828832E+01  0.51100000000E-03 0. -1.
    9000002    1    1    2    0    0 -0.18417709958E+00 -0.37397088214E+00  0.11794896214E+00  0.10332141029E+01  0.93800000000E+00 0. -1.
         22    1    1    2    0    0  0.13759838615E+00  0.25235521621E+00  0.28799953933E+01  0.28943030140E+01  0.00000000000E+00 0. -1.
</event>
<event>
 5    1  0.6076093E+001  0.1539084E+01  0.7818608E-02  0.3422255E+00
         11   -1    0    0    0    0  0.00000000000E+00  0.00000000000E+00  0.39999999674E+01  0.40000000000E+01  0.51100000000E-03 0.  1.
    9000002   -1    0    0    0    0 -0.00000000000E+00 -0.00000000000E+00  0.00000000000E+00  0.93800000000E+00  0.93800000000E+00 0.  1.
         11    1    1    2    0    0  0.63136021244E-01 -0.11090696728E+00  0.32891980544E+00  0.35281016440E+00  0.51100000000E-03 0.  1.
    9000002    1    1    2    0    0  0.21975397074E+00 -0.40473978894E+00  0.19912043191E+00  0.10637664456E+01  0.93800000000E+00 0.  1.
         22    1    1    2    0    0 -0.28288999199E+00  0.51564675622E+00  0.34719597300E+01  0.35214233900E+01  0.00000000000E+00 0.  1.
</event>
<event>
 5    1  0.6076093E+001  0.1599600E+01  0.7818608E-02  0.3353798E+00
         11   -1    0    0    0    0  0.00000000000E+00  0.00000000000E+00  0.39999999674E+01  0.40000000000E+01  0.51100000000E-03 0.  1.
    9000002   -1    0    0    0    0 -0.00000000000E+00 -0.00000000000E+00  0.00000000000E+00  0.93800000000E+00  0.93800000000E+00 0. -1.
         11    1    1    2    0    0  0.13245020400E+00  0.33539160337E-01  0.14851803165E+01  0.14914518985E+01  0.51100000000E-03 0.  1.
    9000002    1    1    2    0    0 -0.36413523492E+00 -0.10981281642E+00  0.97395631830E-01  0.10168496610E+01  0.93800000000E+00 0. -1.
         22    1    1    2    0    0  0.23168503092E+00  0.76273656079E-01  0.24174240190E+01  0.24296984405E+01  0.00000000000E+00 0.  1.
</event>
<event>
 5    1  0.6076093E+001  0.1599608E+01  0.7818608E-02  0.3353789E+00
         11   -1    0    0    0    0  0.00000000000E+00  0.00000000000E+00  0.39999999674E+01  0.40000000000E+01  0.51100000000E-03 0. -1.
    9000002   -1    0    0    0    0 -0.00000000000E+00 -0.00000000000E+00  0.00000000000E+00  0.93800000000E+00  0.93800000000E+00 0.  1.
         11    1    1    2    0    0 -0.57647967201E-01 -0.10706912617E-01  0.63393544346E+00  0.63664144830E+00  0.51100000000E-03 0. -1.
    9000002    1    1    2    0    0  0.38836014466E+00  0.35486470518E-01  0.10251030877E+00  0.10209971866E+01  0.93800000000E+00 0.  1.
         22    1    1    2    0    0 -0.33071217746E+00 -0.24779557900E-01  0.32635542151E+01  0.32803613651E+01  0.00000000000E+00 0. -1.
</event>
<event>
 5    1  0.6076093E+001  0.1586703E+01  0.7818608E-02  0.3367923E+00
         11   -1    0    0    0    0  0.00000000000E+00  0.00000000000E+00  0.39999999674E+01  0.40000000000E+01  0.51100000000E-03 0.  1.
    9000002   -1    0    0    0    0 -0.00000000000E+00 -0.00000000000E+00  0.00000000000E+00  0.93800000000E+00  0.93800000000E+00 0. -1.
         11    1    1    2    0    0 -0.74746256828E-02  0.11081323962E-01  0.63312585619E+00  0.63326714479E+00  0.51100000000E-03 0.  1.
    9000002    1    1    2    0    0 -0.22037008914E+00  0.48734545401E+00  0.20919903477E+00  0.10998530829E+01  0.93800000000E+00 0. -1.
         22    1    1    2    0    0  0.22784471482E+00 -0.49842677797E+00  0.31576750764E+01  0.32048797724E+01  0.00000000000E+00 0.  1.
</event>
<event>
 5    1  0.6076093E+001  0.1595584E+01  0.7818608E-02  0.3358170E+00
         11   -1    0    0    0    0  0.00000000000E+00  0.00000000000E+00  0.39999999674E+01  0.40000000000E+01  0.51100000000E-03 0. -1.
    9000002   -1    0    0    0    0 -0.00000000000E+00 -0.00000000000E+00  0.00000000000E+00  0.93800000000E+00  0.93800000000E+00 0. -1.
         11    1    1    2    0    0 -0.51462212718E-01  0.22309680583E-01  0.67102021818E+00  0.67336058358E+00  0.51100000000E-03 0. -1.
    9000002    1    1    2    0    0  0.37677869748E+00  0.19822151909E+00  0.12615668246E+00  0.10377925930E+01  0.93800000000E+00 0. -1.
         22    1    1    2    0    0 -0.32531648476E+00 -0.22053119967E+00  0.32028230667E+01  0.32268468234E+01  0.00000000000E+00 0. -1.
</event>
<event>
 5    1  0.6076093E+001  0.1599676E+01  0.7818608E-02  0.3353715E+00
         11   -1    0    0    0    0  0.00000000000E+00  0.00000000000E+00  0.39999999674E+01  0.40000000000E+01  0.51100000000E-03 0.  1.
    9000002   -1    0    0    0    0 -0.00000000000E+00 -0.00000000000E+00  0.00000000000E+00  0.93800000000E+00  0.93800000000E+00 0. -1.
         11    1    1    2    0    0  0.28802634681E-01  0.32447548299E-01  0.43972967023E+00  0.44186522737E+00  0.51100000000E-03 0.  1.
    9000002    1    1    2    0    0 -0.25280841532E+00 -0.29022875067E+00  0.99737767193E-01  0.10187916592E+01  0.93800000000E+00 0. -1.
         22    1    1    2    0    0  0.22400578064E+00  0.25778120237E+00  0.34605325299E+01  0.34773431135E+01  0.00000000000E+00 0.  1.
</event>
<event>
 5    1  0.6076093E+001  0.1596324E+01  0.7818608E-02  0.3357363E+00
         11   -1    0    0    0    0  0.00000000000E+00  0.00000000000E+00  0.39999999674E+01  0.40000000000E+01  0.51100000000E-03 0.  1.
    9000002   -1    0    0    0    0 -0.00000000000E+00 -0.00000000000E+00  0.00000000000E+00  0.93800000000E+00  0.93800000000E+00 0.  1.
         11    1    1    2    0    0  0.16058057249E-01 -0.24437716821E-01  0.19865148680E+00  0.20079277261E+00  0.51100000000E-03 0.  1.
    9000002    1    1    2    0    0 -0.34587672996E+00 -0.12102821688E+00  0.92935535258E-01  0.10113157545E+01  0.93800000000E+00 0.  1.
         22    1    1    2    0    0  0.32981867271E+00  0.14546593371E+00  0.37084129453E+01  0.37258914729E+01  0.00000000000E+00 0.  1.
</event>
<event>
 5    1  0.6076093E+001  0.1599672E+01  0.7818608E-02  0.3353719E+00
         11   -1    0    0    0    0  0.00000000000E+00  0.00000000000E+00  0.39999999674E+01  0.40000000000E+01  0.51100000000E-03 0.  1.
    9000002   -1    0    0    0    0 -0.00000000000E+00 -0.00000000000E+00  0.00000000000E+00  0.93800000000E+00  0.93800000000E+00 0. -1.
         11    1    1    2    0    0  0.25491831272E-01 -0.93538688779E-01  0.86316595584E+00  0.86859371872E+00  0.51100000000E-03 0.  1.
    9000002    1    1    2    0    0 -0.11652546391E+00  0.41066209493E+00  0.12335743903E+00  0.10379222503E+01  0.93800000000E+00 0. -1.
         22    1    1    2    0    0  0.91033632642E-01 -0.31712340615E+00  0.30134765725E+01  0.30314840310E+01  0.00000000000E+00 0.  1.
</event>
<event>
 5    1  0.6076093E+001  0.1599650E+01  0.7818608E-02  0.3353743E+00
         11   -1    0    0    0    0  0.00000000000E+00  0.00000000000E+00  0.39999999674E+01  0.40000000000E+01  0.51100000000E-03 0.  1.
    9000002   -1    0    0    0    0 -0.00000000000E+00 -0.00000000000E+00  0.00000000000E+00  0.93800000000E+00  0.93800000000E+00 0.  1.
         11    1    1    2    0    0 -0.14490262790E-01  0.53215086498E-02  0.15151730723E+00  0.15230246775E+00  0.51100000000E-03 0.  1.
    9000002    1    1    2    0    0  0.42977204279E+00 -0.13108418367E+00  0.13712769808E+00  0.10490639054E+01  0.93800000000E+00 0.  1.
         22    1    1    2    0    0 -0.41528178000E+00  0.12576267502E+00  0.37113549620E+01  0.37366336269E+01  0.00000000000E+00 0.  1.
</event>
<event>
 5    1  0.6076093E+001  0.1570119E+01  0.7818608E-02  0.3386448E+00
         11   -1    0    0    0    0  0.00000000000E+00  0.00000000000E+00  0.39999999674E+01  0.40000000000E+01  0.51100000000E-03 0.  1.
    9000002   -1    0    0    0    0 -0.00000000000E+00 -0.00000000000E+00  0.00000000000E+00  0.93800000000E+00  0.93800000000E+00 0. -1.
         11    1    1    2    0    0 -0.11622713261E+00 -0.97653349684E-01  0.12345014128E+01  0.12438001939E+01  0.51100000000E-03 0.  1.
    9000002    1    1    2    0    0 -0.20029068768E+00  0.90751539380E-01  0.54704805688E-01  0.96498125227E+00  0.93800000000E+00 0. -1.
         22    1    1    2    0    0  0.31651782029E+00  0.69018103040E-02  0.27107937489E+01  0.27292185538E+01  0.00000000000E+00 0. -1.
</event>
<event>
 5    1  0.6076093E+001  0.1596556E+01  0.7818608E-02  0.3357110E+00
         11   -1    0    0    0    0  0.00000000000E+00  0.00000000000E+00  0.39999999674E+01  0.40000000000E+01  0.51100000000E-03 0. -1.
    9000002   -1    0    0    0    0 -0.00000000000E+00 -0.00000000000E+00  0.00000000000E+00  0.93800000000E+00  0.93800000000E+00 0.  1.
         11    1    1    2    0    0 -0.12603041441E+00  0.21037069313E+00  0.12496797756E+01  0.12735145451E+01  0.51100000000E-03 0. -1.
    9000002    1    1    2    0    0  0.24344647356E+00 -0.50101328089E+00  0.21757146481E+00  0.11124126192E+01  0.93800000000E+00 0.  1.
         22    1    1    2    0    0 -0.11741605914E+00  0.29064258776E+00  0.25327487269E+01  0.25520728357E+01  0.00000000000E+00 0. -1.
</event>
<event>
 5    1  0.6076093E+001  0.1531764E+01  0.7818608E-02  0.3430926E+00
         11   -1    0    0    0    0  0.00000000000E+00  0.00000000000E+00  0.39999999674E+01  0.40000000000E+01  0.51100000000E-03 0. -1.
    9000002   -1    0    0    0    0 -0.00000000000E+00 -0.00000000000E+00  0.00000000000E+00  0.93800000000E+00  0.93800000000E+00 0.  1.
         11    1    1    2    0    0 -0.80566042718E-01  0.37044841308E+00  0.12252728979E+01  0.12825821024E+01  0.51100000000E-03 0. -1.
    9000002    1    1    2    0    0  0.42750542713E+00 -0.24913313710E+00  0.23112466310E+00  0.10853989221E+01  0.93800000000E+00 0.  1.
         22    1    1    2    0    0 -0.34693938442E+00 -0.12131527598E+00  0.25436024063E+01  0.25700189754E+01  0.00000000000E+00 0. -1.
</event>
<event>
 5    1  0.6076093E+001  0.1498888E+01  0.7818608E-02  0.3470992E+00
         11   -1    0    0    0    0  0.00000000000E+00  0.00000000000E+00  0.39999999674E+01  0.40000000000E+01  0.51100000000E-03 0. -1.
    9000002   -1    0    0    0    0 -0.00000000000E+00 -0.00000000000E+00  0.00000000000E+00  0.93800000000E+00  0.93800000000E+00 0.  1.
         11    1    1    2    0    0  0.15790840149E+00 -0.70258540852E-01  0.70379042139E+00  0.72470169324E+00  0.51100000000E-03 0. -1.
    9000002    1    1    2    0    0  0.22244061899E+00 -0.78519767555E+00  0.64298307224E+00  0.13997451375E+01  0.93800000000E+00 0.  1.
         22    1    1    2    0    0 -0.38034902048E+00  0.85545621640E+00  0.26532264737E+01  0.28135531693E+01  0.00000000000E+00 0. -1.
</event>
<event>
 5    1  0.8398291E+001  0.1599672E+01  0.7818608E-02  0.3353719E+00
         11   -1    0    0    0    0  0.00000000000E+00  0.00000000000E+00  0.39999999674E+01  0.40000000000E+01  0.51100000000E-03 0.  1.
    9000002   -1    0    0    0    0 -0.00000000000E+00 -0.00000000000E+00  0.00000000000E+00  0.93800000000E+00  0.93800000000E+00 0. -1.
         11    1    1    2    0    0  0.69941842791E-02  0.20399262834E+00  0.14701882099E+01  0.14842895757E+01  0.51100000000E-03 0.  1.
    9000002    1    1    2    0    0 -0.19436239524E-01 -0.53427788129E+00  0.19686327907E+00  0.10974651578E+01  0.93800000000E+00 0. -1.
         22    1    1    2    0    0  0.12442055245E-01  0.33028525295E+00  0.23329484784E+01  0.23562452665E+01  0.00000000000E+00 0.  1.
</event>
<event>
 5    1  0.6076093E+001  0.1599662E+01  0.7818608E-02  0.3353730E+00
         11   -1    0    0    0    0  0.00000000000E+00  0.00000000000E+00  0.39999999674E+01  0.40000000000E+01  0.51100000000E-03 0. -1.
    9000002   -1    0    0    0    0 -0.00000000000E+00 -0.00000000000E+00  0.00000000000E+00  0.93800000000E+00  0.93800000000E+00 0. -1.
         11    1    1    2    0    0 -0.26136133615E-01  0.25896994836E+00  0.11362724223E+01  0.11657031399E+01  0.51100000000E-03 0. -1.
    9000002    1    1    2    0    0  0.67612221948E-01 -0.80287445809E+00  0.47915190188E+00  0.13261256928E+01  0.93800000000E+00 0. -1.
         22    1    1    2    0    0 -0.41476088334E-01  0.54390450973E+00  0.23845756432E+01  0.24461711673E+01  0.00000000000E+00 0. -1.
</event>
<event>
 5    1  0.6076093E+001  0.1599662E+01  0.7818608E-02  0.3353730E+00
         11   -1    0    0    0    0  0.00000000000E+00  0.00000000000E+00  0.39999999674E+01  0.40000000000E+01  0.51100000000E-03 0.  1.
    9000002   -1    0    0    0    0 -0.00000000000E+00 -0.00000000000E+00  0.00000000000E+00  0.93800000000E+00  0.93800000000E+00 0.  1.
         11    1    1    2    0    0  0.10095141852E+00 -0.41799252334E-01  0.12366758916E+01  0.12414934106E+01  0.51100000000E-03 0.  1.
    9000002    1    1    2    0    0 -0.32471396524E+00  0.14494576081E+00  0.84849697621E-01  0.10067233503E+01  0.93800000000E+00 0.  1.
         22    1    1    2    0    0  0.22376254673E+00 -0.10314650848E+00  0.26784743781E+01  0.26897832392E+01  0.00000000000E+00 0.  1.
</event>
<event>
 5    1  0.6076093E+001  0.1599677E+01  0.7818608E-02  0.3353714E+00
         11   -1    0    0    0    0  0.00000000000E+00  0.00000000000E+00  0.39999999674E+01  0.40000000000E+01  0.51100000000E-03 0.  1.
    9000002   -1    0    0    0    0 -0.00000000000E+00 -0.00000000000E+00  0.00000000000E+00  0.93800000000E+00  0.93800000000E+00 0. -1.
         11    1    1    2    0    0 -0.12615976046E+00  0.70804386674E-01  0.12191395308E+01  0.12276933669E+01  0.51100000000E-03 0.  1.
    9000002    1    1    2    0    0  0.40132814426E+00 -0.22351567486E+00  0.14352499004E+00  0.10542613334E+01  0.93800000000E+00 0. -1.
         22    1    1    2    0    0 -0.27516838380E+00  0.15271128818E+00  0.26373354465E+01  0.26560452998E+01  0.00000000000E+00 0.  1.
</event>
<event>
 5    1  0.6076093E+001  0.1599675E+01  0.7818608E-02  0.3353717E+00
         11   -1    0    0    0    0  0.00000000000E+00  0.00000000000E+00  0.39999999674E+01  0.40000000000E+01  0.51100000000E-03 0.  1.
    9000002   -1    0    0    0    0 -0.00000000000E+00 -0.00000000000E+00  0.00000000000E+00  0.93800000000E+00  0.93800000000E+00 0. -1.
         11    1    1    2    0    0  0.37103843365E-01  0.37948634329E-01  0.50714085930E+00  0.50991068467E+00  0.51100000000E-03 0. -1.
    9000002    1    1    2    0    0 -0.28871541196E+00 -0.28311288779E+00  0.11035451932E+00  0.10273906834E+01  0.93800000000E+00 0. -1.
         22    1    1    2    0    0  0.25161156859E+00  0.24516425346E+00  0.33825045887E+01  0.34006986320E+01  0.00000000000E+00 0.  1.
</event>
<event>
 5    1  0.6076093E+001  0.1588898E+01  0.7818608E-02  0.3365502E+00
         11   -1    0    0    0    0  0.00000000000E+00  0.00000000000E+00  0.39999999674E+01  0.40000000000E+01  0.51100000000E-03 0. -1.
    9000002   -1    0    0    0    0 -0.00000000000E+00 -0.00000000000E+00  0.00000000000E+00  0.93800000000E+00  0.93800000000E+00 0. -1.
         11    1    1    2    0    0 -0.36167694964E+00 -0.21759745494E-01  0.10205966131E+01  0.10830057296E+01  0.51100000000E-03 0. -1.
    9000002    1    1    2    0    0  0.10930062705E+01  0.37215112759E+00  0.12430294153E+01  0.19385884804E+01  0.93800000000E+00 0. -1.
         22    1    1    2    0    0 -0.73132932086E+00 -0.35039138209E+00  0.17363739389E+01  0.19164057900E+01  0.00000000000E+00 0. -1.
</event>
<event>
 5    1  0.6076093E+001  0.1599675E+01  0.7818608E-02  0.3353716E+00
         11   -1    0    0    0    0  0.00000000000E+00  0.00000000000E+00  0.39999999674E+01  0.40000000000E+01  0.51100000000E-03 0. -1.
    9000002   -1    0    0    0    0 -0.00000000000E+00 -0.00000000000E+00  0.00000000000E+00  0.93800000000E+00  0.93800000000E+00 0. -1.
         11    1    1    2    0    0  0.41010570200E-01 -0.63001923421E-01  0.51771410249E+00  0.52314363444E+00  0.51100000000E-03 0. -1.
    9000002    1    1    2    0    0 -0.30255079334E+00  0.45328437318E+00  0.20494864090E+00  0.11040161461E+01  0.93800000000E+00 0. -1.
         22    1    1    2    0    0  0.26154022314E+00 -0.39028244976E+00  0.32773372240E+01  0.33108402194E+01  0.00000000000E+00 0. -1.
</event>
<event>
 5    1  0.6076093E+001  0.1599670E+01  0.7818608E-02  0.3353722E+00
         11   -1    0    0    0    0  0.00000000000E+00  0.00000000000E+00  0.39999999674E+01  0.40000000000E+01  0.51100000000E-03 0. -1.
    9000002   -1    0    0    0    0 -0.00000000000E+00 -0.00000000000E+00  0.00000000000E+00  0.93800000000E+00  0.93800000000E+00 0. -1.
         11    1    1    2    0    0 -0.12818717625E+00 -0.71992758398E-01  0.12874442825E+01  0.12958116959E+01  0.51100000000E-03 0. -1.
    9000002    1    1    2    0    0  0.39041797349E+00  0.20907568038E+00  0.13308179651E+00  0.10457980678E+01  0.93800000000E+00 0. -1.
         22    1    1    2    0    0 -0.26223079724E+00 -0.13708292198E+00  0.25794738883E+01  0.25963902363E+01  0.00000000000E+00 0. -1.
</event>
<event>
 5    1  0.7760562E+001  0.1599645E+01  0.7818608E-02  0.3353749E+00
         11   -1    0    0    0    0  0.00000000000E+00  0.00000000000E+00  0.39999999674E+01  0.40000000000E+01  0.51100000000E-03 0. -1.
    9000002   -1    0    0    0    0 -0.00000000000E+00 -0.00000000000E+00  0.00000000000E+00  0.93800000000E+00  0.93800000000E+00 0.  1.
         11    1    1    2    0    0  0.19467344357E+00  0.76494774001E-02  0.13171711222E+01  0.13315015173E+01  0.51100000000E-03 0. -1.
    9000002    1    1    2    0    0 -0.57394099610E+00 -0.30690882012E-01  0.22931210514E+00  0.11237340605E+01  0.93800000000E+00 0.  1.
         22    1    1    2    0    0  0.37926755252E+00  0.23041404612E-01  0.24535167400E+01  0.24827644222E+01  0.00000000000E+00 0. -1.
</event>
<event>
 5    1  0.6076093E+001  0.1466890E+01  0.7818608E-02  0.3511848E+00
         11   -1    0    0    0    0  0.00000000000E+00  0.00000000000E+00  0.39999999674E+01  0.40000000000E+01  0.51100000000E-03 0.  1.
    9000002   -1    0    0    0    0 -0.00000000000E+00 -0.00000000000E+00  0.00000000000E+00  0.93800000000E+00  0.93800000000E+00 0. -1.
         11    1    1    2    0    0  0.41502411014E+00  0.19517145667E+00  0.78188220582E+00  0.90646398405E+00  0.51100000000E-03 0.  1.
    9000002    1    1    2    0    0 -0.13922641635E+00 -0.23262718717E+00  0.19505255812E+00  0.99568514283E+00  0.93800000000E+00 0. -1.
         22    1    1    2    0    0 -0.27579769379E+00  0.37455730506E-01  0.30230652034E+01  0.30358508731E+01  0.00000000000E+00 0.  1.
</event>
<event>
 5    1  0.6076093E+001  0.1599649E+01  0.7818608E-02  0.3353744E+00
         11   -1    0    0    0    0  0.00000000000E+00  0.00000000000E+00  0.39999999674E+01  0.40000000000E+01  0.51100000000E-03 0.  1.
    9000002   -1    0    0    0    0 -0.00000000000E+00 -0.00000000000E+00  0.00000000000E+00  0.93800000000E+00  0.93800000000E+00 0. -1.
         11    1    1    2    0    0 -0.29994903778E+00 -0.24569626694E-01  0.13218371311E+01  0.13556646909E+01  0.51100000000E-03 0.  1.
    9000002    1    1    2    0    0  0.78836647767E+00  0.73469741209E-01  0.46056522358E+00  0.13110621004E+01  0.93800000000E+00 0. -1.
         22    1    1    2    0    0 -0.48841743989E+00 -0.48900114515E-01  0.22175976127E+01  0.22712732087E+01  0.00000000000E+00 0.  1.
</event>
<event>
 5    1  0.6076093E+001  0.1599082E+01  0.7818608E-02  0.3354360E+00
         11   -1    0    0    0    0  0.00000000000E+00  0.00000000000E+00  0.39999999674E+01  0.40000000000E+01  0.51100000000E-03 0. -1.
    9000002   -1    0    0    0    0 -0.00000000000E+00 -0.00000000000E+00  0.00000000000E+00  0.93800000000E+00  0.93800000000E+00 0.  1.
         11    1    1    2    0    0 -0.25204302376E-01 -0.46360659048E-01  0.23679317085E+00  0.24260221443E+00  0.51100000000E-03 0. -1.
    9000002    1    1    2    0    0  0.23634729561E+00  0.56824950412E+00  0.26575661750E+00  0.11529258965E+01  0.93800000000E+00 0.  1.
         22    1    1    2    0    0 -0.21114299323E+00 -0.52188884507E+00  0.34974501790E+01  0.35424718891E+01  0.00000000000E+00 0. -1.
</event>
<event>
 5    1  0.6076093E+001  0.1586887E+01  0.7818608E-02  0.3367720E+00
         11   -1    0    0    0    0  0.00000000000E+00  0.00000000000E+00  0.39999999674E+01  0.40000000000E+01  0.51100000000E-03 0. -1.
    9000002   -1    0    0    0    0 -0.00000000000E+00 -0.00000000000E+00  0.00000000000E+00  0.93800000000E+00  0.93800000000E+00 0.  1.
         11    1    1    2    0    0  0.49887446765E-01  0.44829866180E-01  0.13126450138E+01  0.13143575113E+01  0.51100000000E-03 0. -1.
    9000002    1    1    2    0    0  0.94592769230E-02  0.21671555628E+00  0.40891208871E-01  0.96362399369E+00  0.93800000000E+00 0.  1.
         22    1    1    2    0    0 -0.59346723688E-01 -0.26154542246E+00  0.26464637447E+01  0.26600184950E+01  0.00000000000E+00 0. -1.
</event>
<event>
 5    1  0.6076093E+001  0.1599471E+01  0.7818608E-02  0.3353938E+00
         11   -1    0    0    0    0  0.00000000000E+00  0.00000000000E+00  0.39999999674E+01  0.40000000000E+01  0.51100000000E-03 0.  1.
    9000002   -1    0    0    0    0 -0.00000000000E+00 -0.00000000000E+00  0.00000000000E+00  0.93800000000E+00  0.93800000000E+00 0.  1.
         11    1    1    2    0    0 -0.93782917796E-02  0.51953772834E-01  0.45943814912E+00  0.46246169664E+00  0.51100000000E-03 0.  1.
    9000002    1    1    2    0    0  0.44512952113E-02 -0.38338913916E+00  0.99123082147E-01  0.10181730852E+01  0.93800000000E+00 0.  1.
         22    1    1    2    0    0  0.49269965683E-02  0.33143536632E+00  0.34414387361E+01  0.34573652181E+01  0.00000000000E+00 0.  1.
</event>
<event>
 5    1  0.6076093E+001  0.1599660E+01  0.7818608E-02  0.3353733E+00
         11   -1    0    0    0    0  0.00000000000E+00  0.00000000000E+00  0.39999999674E+01  0.40000000000E+01  0.51100000000E-03 0. -1.
    9000002   -1    0    0    0    0 -0.00000000000E+00 -0.00000000000E+00  0.00000000000E+00  0.93800000000E+00  0.93800000000E+00 0.  1.
         11    1    1    2    0    0 -0.55983061243E-01 -0.57517593743E-01  0.82639961514E+00  0.83028848104E+00  0.51100000000E-03 0. -1.
    9000002    1    1    2    0    0  0.26901799440E+00  0.25317819558E+00  0.91720891664E-01  0.10122878059E+01  0.93800000000E+00 0.  1.
         22    1    1    2    0    0 -0.21303493316E+00 -0.19566060184E+00  0.30818794606E+01  0.30954237130E+01  0.00000000000E+00 0. -1.
</event>
<event>
 5    1  0.6076093E+001  0.1599672E+01  0.7818608E-02  0.3353719E+00
         11   -1    0    0    0    0  0.00000000000E+00  0.00000000000E+00  0.39999999674E+01  0.40000000000E+01  0.51100000000E-03 0.  1.
    9000002   -1    0    0    0    0 -0.00000000000E+00 -0.00000000000E+00  0.00000000000E+00  0.93800000000E+00  0.93800000000E+00 0.  1.
         11    1    1    2    0    0 -0.30553067171E-02 -0.61056249867E-01  0.47833389571E+00  0.48222482044E+00  0.51100000000E-03 0.  1.
    9000002    1    1    2    0    0  0.17887669014E-01  0.47888647231E+00  0.15668059732E+00  0.10649155045E+01  0.93800000000E+00 0.  1.
         22    1    1    2    0    0 -0.14832362297E-01 -0.41783022244E+00  0.33649854743E+01  0.33908596751E+01  0.00000000000E+00 0.  1.
</event>
<event>
 5    1  0.6076093E+001  0.1495875E+01  0.7818608E-02  0.3474757E+00
         11   -1    0    0    0    0  0.00000000000E+00  0.00000000000E+00  0.39999999674E+01  0.40000000000E+01  0.51100000000E-03 0.  1.
    9000002   -1    0    0    0    0 -0.00000000000E+00 -0.00000000000E+00  0.00000000000E+00  0.93800000000E+00  0.93800000000E+00 0.  1.
         11    1    1    2    0    0  0.17045342897E+00 -0.20024806722E+00  0.45481254355E+00  0.52536498814E+00  0.51100000000E-03 0.  1.
    9000002    1    1    2    0    0  0.18419001141E+00  0.24674014635E+00  0.14989951235E+00  0.99855922404E+00  0.93800000000E+00 0.  1.
         22    1    1    2    0    0 -0.35464344038E+00 -0.46492079122E-01  0.33952879115E+01  0.34140757878E+01  0.00000000000E+00 0.  1.
</event>
<event>
 5    1  0.6895436E+001  0.1599636E+01  0.7818608E-02  0.3353758E+00
         11   -1    0    0    0    0  0.00000000000E+00  0.00000000000E+00  0.39999999674E+01  0.40000000000E+01  0.51100000000E-03 0. -1.
    9000002   -1    0    0    0    0 -0.00000000000E+00 -0.00000000000E+00  0.00000000000E+00  0.93800000000E+00  0.93800000000E+00 0.  1.
         11    1    1    2    0    0  0.72624239241E-01  0.10659674582E+00  0.14065415000E+01  0.14124434144E+01  0.51100000000E-03 0. -1.
    9000002    1    1    2    0    0 -0.20967060853E+00 -0.31473926554E+00  0.96243629355E-01  0.10159376977E+01  0.93800000000E+00 0.  1.
         22    1    1    2    0    0  0.13704636929E+00  0.20814251973E+00  0.24972148380E+01  0.25096188880E+01  0.00000000000E+00 0. -1.
</event>
<event>
 5    1  0.6076093E+001  0.1599676E+01  0.7818608E-02  0.3353715E+00
         11   -1    0    0    0    0  0.00000000000E+00  0.00000000000E+00  0.39999999674E+01  0.40000000000E+01  0.51100000000E-03 0.  1.
    9000002   -1    0    0    0    0 -0.00000000000E+00 -0.00000000000E+00  0.00000000000E+00  0.93800000000E+00  0.93800000000E+00 0. -1.
         11    1    1    2    0    0  0.13072054162E+00  0.84847027657E-01  0.11519825833E+01  0.11624762412E+01  0.51100000000E-03 0.  1.
    9000002    1    1    2    0    0 -0.43240421191E+00 -0.28358843649E+00  0.18358571148E+00  0.10867122514E+01  0.93800000000E+00 0. -1.
         22    1    1    2    0    0  0.30168367029E+00  0.19874140883E+00  0.26644316726E+01  0.26888115074E+01  0.00000000000E+00 0.  1.
</event>
<event>
 5    1  0.6076093E+001  0.1599208E+01  0.7818608E-02  0.3354223E+00
         11   -1    0    0    0    0  0.00000000000E+00  0.00000000000E+00  0.39999999674E+01  0.40000000000E+01  0.51100000000E-03 0.  1.
    9000002   -1    0    0    0    0 -0.00000000000E+00 -0.00000000000E+00  0.00000000000E+00  0.93800000000E+00  0.93800000000E+00 0.  1.
         11    1    1    2    0    0 -0.16534559803E+00  0.10024708463E+00  0.13881325170E+01  0.14015351549E+01  0.51100000000E-03 0.  1.
    9000002    1    1    2    0    0  0.47149413741E+00 -0.20879854019E+00  0.18294287761E+00  0.10859169620E+01  0.93800000000E+00 0.  1.
         22    1    1    2    0    0 -0.30614853938E+00  0.10855145555E+00  0.24289245728E+01  0.24505478830E+01  0.00000000000E+00 0.  1.
</event>
<event>
 5    1  0.6076093E+001  0.1595805E+01  0.7818608E-02  0.3357929E+00
         11   -1    0    0    0    0  0.00000000000E+00  0.00000000000E+00  0.39999999674E+01  0.40000000000E+01  0.51100000000E-03 0. -1.
    9000002   -1    0    0    0    0 -0.00000000000E+00 -0.00000000000E+00  0.00000000000E+00  0.93800000000E+00  0.93800000000E+00 0. -1.
         11    1    1    2    0    0 -0.11902341360E+00  0.16777579606E+00  0.11171535387E+01  0.11359346728E+01  0.51100000000E-03 0. -1.
    9000002    1    1    2    0    0  0.27250108294E+00 -0.38503608568E+00  0.15503502842E+00  0.10613149804E+01  0.93800000000E+00 0. -1.
         22    1    1    2    0    0 -0.15347766935E+00  0.21726028962E+00  0.27278114002E+01  0.27407503468E+01  0.00000000000E+00 0. -1.
</event>
<event>
 5    1  0.6076093E+001  0.1455860E+01  0.7818608E-02  0.3526384E+00
         11   -1    0    0    0    0  0.00000000000E+00  0.00000000000E+00  0.39999999674E+01  0.40000000000E+01  0.51100000000E-03 0. -1.
    9000002   -1    0    0    0    0 -0.00000000000E+00 -0.00000000000E+00  0.00000000000E+00  0.93800000000E+00  0.93800000000E+00 0.  1.
         11    1    1    2    0    0  0.65532515197E-01  0.54828225770E-01 -0.24565231691E-01  0.88906448688E-01  0.51100000000E-03 0. -1.
    9000002    1    1    2    0    0  0.39866783759E+00  0.61398145716E+00  0.60669516044E+00  0.13356018464E+01  0.93800000000E+00 0.  1.
         22    1    1    2    0    0 -0.46420035279E+00 -0.66880968293E+00  0.34178700386E+01  0.35134917049E+01  0.00000000000E+00 0. -1.
</event>
<event>
 5    1  0.6076093E+001  0.1599677E+01  0.7818608E-02  0.3353714E+00
         11   -1    0    0    0    0  0.00000000000E+00  0.00000000000E+00  0.39999999674E+01  0.40000000000E+01  0.51100000000E-03 0. -1.
    9000002   -1    0    0    0    0 -0.00000000000E+00 -0.00000000000E+00  0.00000000000E+00  0.93800000000E+00  0.93800000000E+00 0.  1.
         11    1    1    2    0    0 -0.74722262630E-01  0.43083396187E-01  0.95399010400E+00  0.95788150374E+00  0.51100000000E-03 0. -1.
    9000002    1    1    2    0    0  0.30792728436E+00 -0.17686360598E+00  0.84599452422E-01  0.10065291923E+01  0.93800000000E+00 0.  1.
         22    1    1    2    0    0 -0.23320502173E+00  0.13378020979E+00  0.29614104109E+01  0.29735893040E+01  0.00000000000E+00 0. -1.
</event>
<event>
 5    1  0.6076093E+001  0.1599580E+01  0.7818608E-02  0.3353820E+00
         11   -1    0    0    0    0  0.00000000000E+00  0.00000000000E+00  0.39999999674E+01  0.40000000000E+01  0.51100000000E-03 0. -1.
    9000002   -1    0    0    0    0 -0.00000000000E+00 -0.00000000000E+00  0.00000000000E+00  0.93800000000E+00  0.93800000000E+00 0.  1.
         11    1    1    2    0    0 -0.12276473289E+00  0.71902702955E-01  0.98981047944E+00  0.99998311219E+00  0.51100000000E-03 0. -1.
    9000002    1    1    2    0    0  0.43319652719E+00 -0.27798865057E+00  0.18191004902E+00  0.10852982019E+01  0.93800000000E+00 0.  1.
         22    1    1    2    0    0 -0.31043179430E+00  0.20608594761E+00  0.28282794389E+01  0.28527186860E+01  0.00000000000E+00 0. -1.
</event>
<event>
 5    1  0.6076093E+001  0.1556331E+01  0.7818608E-02  0.3402168E+00
         11   -1    0    0    0    0  0.00000000000E+00  0.00000000000E+00  0.39999999674E+01  0.40000000000E+01  0.51100000000E-03 0.  1.
    9000002   -1    0    0    0    0 -0.00000000000E+00 -0.00000000000E+00  0.00000000000E+00  0.93800000000E+00  0.93800000000E+00 0. -1.
         11    1    1    2    0    0  0.16499600255E+00  0.21808591097E+00  0.11427661609E+01  0.11750318740E+01  0.51100000000E-03 0.  1.
    9000002    1    1    2    0    0 -0.48203548463E+00  0.37109987255E-01  0.19912874696E+00  0.10738862218E+01  0.93800000000E+00 0. -1.
         22    1    1    2    0    0  0.31703948207E+00 -0.25519589822E+00  0.26581050595E+01  0.26890819041E+01  0.00000000000E+00 0.  1.
</event>
<event>
 5    1  0.6076093E+001  0.1475204E+01  0.7818608E-02  0.3501048E+00
         11   -1    0    0    0    0  0.00000000000E+00  0.00000000000E+00  0.39999999674E+01  0.40000000000E+01  0.51100000000E-03 0.  1.
    9000002   -1    0    0    0    0 -0.00000000000E+00 -0.00000000000E+00  0.00000000000E+00  0.93800000000E+00  0.93800000000E+00 0. -1.
         11    1    1    2    0    0  0.20256796329E+00  0.70939903951E-01  0.21525416231E+00  0.30397510628E+00  0.51100000000E-03 0.  1.
    9000002    1    1    2    0    0 -0.25189697501E+00  0.80415639071E+00  0.73213754037E+00  0.14580771464E+01  0.93800000000E+00 0. -1.
         22    1    1    2    0    0  0.49329011715E-01 -0.87509629466E+00  0.30526082647E+01  0.31759477474E+01  0.00000000000E+00 0.  1.
</event>
<event>
 5    1  0.6076093E+001  0.1595604E+01  0.7818608E-02  0.3358149E+00
         11   -1    0    0    0    0  0.00000000000E+00  0.00000000000E+00  0.39999999674E+01  0.40000000000E+01  0.51100000000E-03 0. -1.
    9000002   -1    0    0    0    0 -0.00000000000E+00 -0.00000000000E+00  0.00000000000E+00  0.93800000000E+00  0.93800000000E+00 0.  1.
         11    1    1    2    0    0 -0.91821739224E-01  0.35899308265E-01  0.83558425759E+00  0.84138059449E+00  0.51100000000E-03 0. -1.
    9000002    1    1    2    0    0  0.19250270223E+00 -0.34321733946E+00  0.10774825964E+00  0.10228925261E+01  0.93800000000E+00 0.  1.
         22    1    1    2    0    0 -0.10068096300E+00  0.30731803119E+00  0.30566674501E+01  0.30737268794E+01  0.00000000000E+00 0. -1.
</event>
<event>
 5    1  0.6076093E+001  0.1599659E+01  0.7818608E-02  0.3353734E+00
         11   -1    0    0    0    0  0.00000000000E+00  0.00000000000E+00  0.39999999674E+01  0.40000000000E+01  0.51100000000E-03 0.  1.
    9000002   -1    0    0    0    0 -0.00000000000E+00 -0.00000000000E+00  0.00000000000E+00  0.93800000000E+00  0.93800000000E+00 0.  1.
         11    1    1    2    0    0 -0.28733963327E-02  0.34711671911E-01  0.15286366448E+00  0.15678238935E+00  0.51100000000E-03 0.  1.
    9000002    1    1    2    0    0  0.10197153588E+00 -0.82225687689E+00  0.51080832146E+00  0.13517668834E+01  0.93800000000E+00 0.  1.
         22    1    1    2    0    0 -0.99098139546E-01  0.78754520498E+00  0.33363279814E+01  0.34294507273E+01  0.00000000000E+00 0.  1.
</event>
<event>
 5    1  0.6076093E+001  0.1597232E+01  0.7818608E-02  0.3356373E+00
         11   -1    0    0    0    0  0.00000000000E+00  0.00000000000E+00  0.39999999674E+01  0.40000000000E+01  0.51100000000E-03 0. -1.
    9000002   -1    0    0    0    0 -0.00000000000E+00 -0.00000000000E+00  0.00000000000E+00  0.93800000000E+00  0.93800000000E+00 0. -1.
         11    1    1    2    0    0  0.64554284846E-02  0.13640278077E+00  0.97732615756E+00  0.98682018146E+00  0.51100000000E-03 0. -1.
    9000002    1    1    2    0    0  0.16289050808E+00 -0.45790571274E+00  0.16350562646E+00  0.10690131193E+01  0.93800000000E+00 0. -1.
         22    1    1    2    0    0 -0.16934593656E+00  0.32150293197E+00  0.28591681833E+01  0.28821666992E+01  0.00000000000E+00 0. -1.
</event>
<event>
 5    1  0.6076093E+001  0.1599653E+01  0.7818608E-02  0.3353740E+00
         11   -1    0    0    0    0  0.00000000000E+00  0.00000000000E+00  0.39999999674E+01  0.40000000000E+01  0.51100000000E-03 0.  1.
    9000002   -1    0    0    0    0 -0.00000000000E+00 -0.00000000000E+00  0.00000000000E+00  0.93800000000E+00  0.93800000000E+00 0. -1.
         11    1    1    2    0    0 -0.15069712930E+00  0.57105235605E-01  0.10934038061E+01  0.11052161676E+01  0.51100000000E-03 0.  1.
    9000002    1    1    2    0    0  0.50761401093E+00 -0.18851959655E+00  0.20222016192E+00  0.11017933637E+01  0.93800000000E+00 0. -1.
         22    1    1    2    0    0 -0.35691688163E+00  0.13141436095E+00  0.27043759993E+01  0.27309904687E+01  0.00000000000E+00 0.  1.
</event>
<event>
 5    1  0.6076093E+001  0.1543538E+01  0.7818608E-02  0.3417021E+00
         11   -1    0    0    0    0  0.00000000000E+00  0.00000000000E+00  0.39999999674E+01  0.40000000000E+01  0.51100000000E-03 0.  1.
    9000002   -1    0    0    0    0 -0.00000000000E+00 -0.00000000000E+00  0.00000000000E+00  0.93800000000E+00  0.93800000000E+00 0.  1.
         11    1    1    2    0    0  0.30131263078E+00 -0.11841628074E+00  0.21785681812E+00  0.39022246390E+00  0.51100000000E-03 0.  1.
    9000002    1    1    2    0    0 -0.13366944825E+00 -0.41274113340E+00  0.38121398725E+00  0.11015402256E+01  0.93800000000E+00 0.  1.
         22    1    1    2    0    0 -0.16764318253E+00  0.53115741414E+00  0.34009291620E+01  0.34462373105E+01  0.00000000000E+00 0.  1.
</event>
<event>
 5    1  0.6076093E+001  0.1555509E+01  0.7818608E-02  0.3403115E+00
         11   -1    0    0    0    0  0.00000000000E+00  0.00000000000E+00  0.39999999674E+01  0.40000000000E+01  0.51100000000E-03 0. -1.
    9000002   -1    0    0    0    0 -0.00000000000E+00 -0.00000000000E+00  0.00000000000E+00  0.93800000000E+00  0.93800000000E+00 0. -1.
         11    1    1    2    0    0  0.23021575461E+00  0.52608101422E+00  0.76461091808E+00  0.95623775514E+00  0.51100000000E-03 0. -1.
    9000002    1    1    2    0    0  0.80549796197E-01 -0.33348220945E+00  0.32766865299E+00  0.10511467071E+01  0.93800000000E+00 0. -1.
         22    1    1    2    0    0 -0.31076555081E+00 -0.19259880477E+00  0.29077203963E+01  0.29306155378E+01  0.00000000000E+00 0. -1.
</event>
<event>
 5    1  0.6076093E+001  0.1595785E+01  0.7818608E-02  0.3357951E+00
         11   -1    0    0    0    0  0.00000000000E+00  0.00000000000E+00  0.39999999674E+01  0.40000000000E+01  0.51100000000E-03 0. -1.
    9000002   -1    0    0    0    0 -0.00000000000E+00 -0.00000000000E+00  0.00000000000E+00  0.93800000000E+00  0.93800000000E+00 0.  1.
         11    1    1    2    0    0 -0.90981490487E-01 -0.18049490379E+00  0.10273551617E+01  0.10470505868E+01  0.51100000000E-03 0. -1.
    9000002    1    1    2    0    0  0.96014652205E-01  0.59092256632E+00  0.25386283087E+00  0.11413582390E+01  0.93800000000E+00 0.  1.
         22    1    1    2    0    0 -0.50331617172E-02 -0.41042766253E+00  0.27187819748E+01  0.27495911742E+01  0.00000000000E+00 0. -1.
</event>
<event>
 5    1  0.6076093E+001  0.1599676E+01  0.7818608E-02  0.3353716E+00
         11   -1    0    0    0    0  0.00000000000E+00  0.00000000000E+00  0.39999999674E+01  0.40000000000E+01  0.51100000000E-03 0. -1.
    9000002   -1    0    0    0    0 -0.00000000000E+00 -0.00000000000E+00  0.00000000000E+00  0.93800000000E+00  0.93800000000E+00 0. -1.
         11    1    1    2    0    0  0.47967479294E-01  0.14698736831E-01  0.49473039181E+00  0.49726788921E+00  0.51100000000E-03 0. -1.
    9000002    1    1    2    0    0 -0.37304831531E+00 -0.11086111601E+00  0.10202110210E+00  0.10206407487E+01  0.93800000000E+00 0. -1.
         22    1    1    2    0    0  0.32508083602E+00  0.96162379183E-01  0.34032484734E+01  0.34200913621E+01  0.00000000000E+00 0. -1.
</event>
<event>
 5    1  0.6076093E+001  0.1598706E+01  0.7818608E-02  0.3354769E+00
         11   -1    0    0    0    0  0.00000000000E+00  0.00000000000E+00  0.39999999674E+01  0.40000000000E+01  0.51100000000E-03 0.  1.
    9000002   -1    0    0    0    0 -0.00000000000E+00 -0.00000000000E+00  0.00000000000E+00  0.93800000000E+00  0.93800000000E+00 0.  1.
         11    1    1    2    0    0 -0.14175680522E+00  0.80772645455E-01  0.87405204511E+00  0.88914928486E+00  0.51100000000E-03 0.  1.
    9000002    1    1    2    0    0  0.50492767914E+00 -0.26155262427E+00  0.22509037562E+00  0.11197639991E+01  0.93800000000E+00 0.  1.
         22    1    1    2    0    0 -0.36317087392E+00  0.18077997881E+00  0.29008575466E+01  0.29290867161E+01  0.00000000000E+00 0.  1.
</event>
<event>
 5    1  0.6076093E+001  0.1526273E+01  0.7818608E-02  0.3437489E+00
         11   -1    0    0    0    0  0.00000000000E+00  0.00000000000E+00  0.39999999674E+01  0.40000000000E+01  0.51100000000E-03 0. -1.
    9000002   -1    0    0    0    0 -0.00000000000E+00 -0.00000000000E+00  0.00000000000E+00  0.93800000000E+00  0.93800000000E+00 0.  1.
         11    1    1    2    0    0 -0.12308597774E+00 -0.20188180860E+00  0.10782109420E+01  0.11038321970E+01  0.51100000000E-03 0. -1.
    9000002    1    1    2    0    0 -0.20705009278E+00 -0.98984730542E-01  0.92778916176E-01  0.97011321251E+00  0.93800000000E+00 0.  1.
         22    1    1    2    0    0  0.33013607053E+00  0.30086653915E+00  0.28290101092E+01  0.28640545905E+01  0.00000000000E+00 0. -1.
</event>
<event>
 5    1  0.6076093E+001  0.1599661E+01  0.7818608E-02  0.3353731E+00
         11   -1    0    0    0    0  0.00000000000E+00  0.00000000000E+00  0.39999999674E+01  0.40000000000E+01  0.51100000000E-03 0.  1.
    9000002   -1    0    0    0    0 -0.00000000000E+00 -0.00000000000E+00  0.00000000000E+00  0.93800000000E+00  0.93800000000E+00 0. -1.
         11    1    1    2    0    0  0.19843784039E-01  0.15778421583E+00  0.13229277017E+01  0.13324517250E+01  0.51100000000E-03 0.  1.
    9000002    1    1    2    0    0 -0.69825887936E-01 -0.45439098692E+00  0.14376580619E+00  0.10544474528E+01  0.93800000000E+00 0. -1.
         22    1    1    2    0    0  0.49982103897E-01  0.29660677109E+00  0.25333064595E+01  0.25511008222E+01  0.00000000000E+00 0.  1.
</event>
<event>
 5    1  0.6076093E+001  0.1574492E+01  0.7818608E-02  0.3381523E+00
         11   -1    0    0    0    0  0.00000000000E+00  0.00000000000E+00  0.39999999674E+01  0.40000000000E+01  0.51100000000E-03 0.  1.
    9000002   -1    0    0    0    0 -0.00000000000E+00 -0.00000000000E+00  0.00000000000E+00  0.93800000000E+00  0.93800000000E+00 0.  1.
         11    1    1    2    0    0  0.21946605635E+00 -0.53977252157E+00  0.13805065691E+01  0.14984386452E+01  0.51100000000E-03 0.  1.
    9000002    1    1    2    0    0 -0.45821904685E+00  0.81868959401E+00  0.72904888091E+00  0.15137944434E+01  0.93800000000E+00 0.  1.
         22    1    1    2    0    0  0.23875299050E+00 -0.27891707244E+00  0.18904445173E+01  0.19257669114E+01  0.00000000000E+00 0.  1.
</event>
<event>
 5    1  0.6076093E+001  0.1599669E+01  0.7818608E-02  0.3353723E+00
         11   -1    0    0    0    0  0.00000000000E+00  0.00000000000E+00  0.39999999674E+01  0.40000000000E+01  0.51100000000E-03 0.  1.
    9000002   -1    0    0    0    0 -0.00000000000E+00 -0.00000000000E+00  0.00000000000E+00  0.93800000000E+00  0.93800000000E+00 0.  1.
         11    1    1    2    0    0 -0.36713602800E-01  0.78824627192E-01  0.84378197593E+00  0.84825084410E+00  0.51100000000E-03 0.  1.
    9000002    1    1    2    0    0  0.16833119282E+00 -0.35102049168E+00  0.10209268103E+00  0.10206947103E+01  0.93800000000E+00 0.  1.
         22    1    1    2    0    0 -0.13161759002E+00  0.27219586449E+00  0.30541253104E+01  0.30690544456E+01  0.00000000000E+00 0.  1.
</event>
<event>
 5    1  0.6076093E+001  0.1599505E+01  0.7818608E-02  0.3353901E+00
         11   -1    0    0    0    0  0.00000000000E+00  0.00000000000E+00  0.39999999674E+01  0.40000000000E+01  0.51100000000E-03 0.  1.
    9000002   -1    0    0    0    0 -0.00000000000E+00 -0.00000000000E+00  0.00000000000E+00  0.93800000000E+00  0.93800000000E+00 0.  1.
         11    1    1    2    0    0  0.32973976988E-01  0.21810192748E+00  0.10986067415E+01  0.11205323589E+01  0.51100000000E-03 0.  1.
    9000002    1    1    2    0    0 -0.10783009659E+00 -0.67829580381E+00  0.33613478540E+00  0.12101830941E+01  0.93800000000E+00 0.  1.
         22    1    1    2    0    0  0.74856119603E-01  0.46019387633E+00  0.25652584405E+01  0.26072845470E+01  0.00000000000E+00 0.  1.
</event>
<event>
 5    1  0.6076093E+001  0.1599534E+01  0.7818608E-02  0.3353870E+00
         11   -1    0    0    0    0  0.00000000000E+00  0.00000000000E+00  0.39999999674E+01  0.40000000000E+01  0.51100000000E-03 0.  1.
    9000002   -1    0    0    0    0 -0.00000000000E+00 -0.00000000000E+00  0.00000000000E+00  0.93800000000E+00  0.93800000000E+00 0. -1.
         11    1    1    2    0    0 -0.84315720096E-01 -0.89318357996E-01  0.81383616500E+00  0.82305314186E+00  0.51100000000E-03 0.  1.
    9000002    1    1    2    0    0  0.34266873064E+00  0.43966383223E+00  0.21506084486E+00  0.11121246834E+01  0.93800000000E+00 0. -1.
         22    1    1    2    0    0 -0.25835301055E+00 -0.35034547424E+00  0.29711029575E+01  0.30028221748E+01  0.00000000000E+00 0.  1.
</event>
<event>
 5    1  0.6076093E+001  0.1599197E+01  0.7818608E-02  0.3354235E+00
         11   -1    0    0    0    0  0.00000000000E+00  0.00000000000E+00  0.39999999674E+01  0.40000000000E+01  0.51100000000E-03 0. -1.
    9000002   -1    0    0    0    0 -0.00000000000E+00 -0.00000000000E+00  0.00000000000E+00  0.93800000000E+00  0.93800000000E+00 0. -1.
         11    1    1    2    0    0  0.13943795200E+00  0.31648787769E+00  0.13500946495E+01  0.13936869602E+01  0.51100000000E-03 0. -1.
    9000002    1    1    2    0    0 -0.29082749577E+00 -0.82056161072E+00  0.57373258151E+00  0.14024674914E+01  0.93800000000E+00 0. -1.
         22    1    1    2    0    0  0.15138954378E+00  0.50407373303E+00  0.20761727364E+01  0.21418455485E+01  0.00000000000E+00 0.  1.
</event>
<event>
 5    1  0.6188774E+001  0.1476695E+01  0.7818608E-02  0.3499125E+00
         11   -1    0    0    0    0  0.00000000000E+00  0.00000000000E+00  0.39999999674E+01  0.40000000000E+01  0.51100000000E-03 0.  1.
    9000002   -1    0    0    0    0 -0.00000000000E+00 -0.00000000000E+00  0.00000000000E+00  0.93800000000E+00  0.93800000000E+00 0. -1.
         11    1    1    2    0    0  0.16304973199E+00  0.22691785395E+00  0.48215338147E+00  0.55726929929E+00  0.51100000000E-03 0.  1.
    9000002    1    1    2    0    0 -0.23138831554E-01  0.71256786064E-01  0.99140808430E-01  0.94619545284E+00  0.93800000000E+00 0. -1.
         22    1    1    2    0    0 -0.13991090044E+00 -0.29817464002E+00  0.34187057775E+01  0.34345352479E+01  0.00000000000E+00 0.  1.
</event>
<event>
 5    1  0.6076093E+001  0.1599627E+01  0.7818608E-02  0.3353769E+00
         11   -1    0    0    0    0  0.00000000000E+00  0.00000000000E+00  0.39999999674E+01  0.40000000000E+01  0.51100000000E-03 0. -1.
    9000002   -1    0    0    0    0 -0.00000000000E+00 -0.00000000000E+00  0.00000000000E+00  0.93800000000E+00  0.93800000000E+00 0. -1.
         11    1    1    2    0    0  0.26967137792E-01  0.15217853449E-01  0.20278797887E+00  0.20513906278E+00  0.51100000000E-03 0. -1.
    9000002    1    1    2    0    0 -0.46060196698E+00 -0.23175117835E+00  0.18253127225E+00  0.10858289211E+01  0.93800000000E+00 0. -1.
         22    1    1    2    0    0  0.43363482919E+00  0.21653332490E+00  0.36146807162E+01  0.36470320161E+01  0.00000000000E+00 0. -1.
</event>
<event>
 5    1  0.6076093E+001  0.1597935E+01  0.7818608E-02  0.3355607E+00
         11   -1    0    0    0    0  0.00000000000E+00  0.00000000000E+00  0.39999999674E+01  0.40000000000E+01  0.51100000000E-03 0. -1.
    9000002   -1    0    0    0    0 -0.00000000000E+00 -0.00000000000E+00  0.00000000000E+00  0.93800000000E+00  0.93800000000E+00 0.  1.
         11    1    1    2    0    0 -0.46054044401E-01 -0.42011887557E-01  0.52222188088E+00  0.52592958435E+00  0.51100000000E-03 0. -1.
    9000002    1    1    2    0    0  0.11006546893E+00  0.41708680439E+00  0.12752562190E+00  0.10402800556E+01  0.93800000000E+00 0.  1.
         22    1    1    2    0    0 -0.64011424527E-01 -0.37507491683E+00  0.33502524646E+01  0.33717903601E+01  0.00000000000E+00 0. -1.
</event>
<event>
 5    1  0.6076093E+001  0.1599677E+01  0.7818608E-02  0.3353714E+00
         11   -1    0    0    0    0  0.00000000000E+00  0.00000000000E+00  0.39999999674E+01  0.40000000000E+01  0.51100000000E-03 0.  1.
    9000002   -1    0    0    0    0 -0.00000000000E+00 -0.00000000000E+00  0.00000000000E+00  0.93800000000E+00  0.93800000000E+00 0.  1.
         11    1    1    2    0    0  0.14931100565E-01 -0.54614120706E-01  0.47109953216E+00  0.47448990534E+00  0.51100000000E-03 0.  1.
    9000002    1    1    2    0    0 -0.12040209079E+00  0.44511779154E+00  0.14465337071E+00  0.10551753928E+01  0.93800000000E+00 0.  1.
         22    1    1    2    0    0  0.10547099022E+00 -0.39050367084E+00  0.33842470645E+01  0.34083347019E+01  0.00000000000E+00 0.  1.
</event>
<event>
 5    1  0.6076093E+001  0.1596978E+01  0.7818608E-02  0.3356649E+00
         11   -1    0    0    0    0  0.00000000000E+00  0.00000000000E+00  0.39999999674E+01  0.40000000000E+01  0.51100000000E-03 0. -1.
    9000002   -1    0    0    0    0 -0.00000000000E+00 -0.00000000000E+00  0.00000000000E+00  0.93800000000E+00  0.93800000000E+00 0.  1.
         11    1    1    2    0    0 -0.39823181947E-01  0.77452740434E-02  0.14977328279E+00  0.15517142923E+00  0.51100000000E-03 0. -1.
    9000002    1    1    2    0    0  0.58761378440E+00  0.27661583063E+00  0.30045234068E+00  0.11797973921E+01  0.93800000000E+00 0.  1.
         22    1    1    2    0    0 -0.54779060245E+00 -0.28436110467E+00  0.35497743439E+01  0.36030311787E+01  0.00000000000E+00 0. -1.
</event>
<event>
 5    1  0.6076093E+001  0.1495646E+01  0.7818608E-02  0.3475044E+00
         11   -1    0    0    0    0  0.00000000000E+00  0.00000000000E+00  0.39999999674E+01  0.40000000000E+01  0.51100000000E-03 0.  1.
    9000002   -1    0    0    0    0 -0.00000000000E+00 -0.00000000000E+00  0.00000000000E+00  0.93800000000E+00  0.93800000000E+00 0.  1.
         11    1    1    2    0    0 -0.32600495184E+00  0.33586074821E+00  0.11229656072E+01  0.12166074498E+01  0.51100000000E-03 0.  1.
    9000002    1    1    2    0    0 -0.20870463195E-01  0.93554857863E-01  0.16930158562E+00  0.95796404659E+00  0.93800000000E+00 0.  1.
         22    1    1    2    0    0  0.34687541503E+00 -0.42941560607E+00  0.27077327745E+01  0.27634285036E+01  0.00000000000E+00 0.  1.
</event>
<event>
 5    1  0.6076093E+001  0.1599424E+01  0.7818608E-02  0.3353989E+00
         11   -1    0    0    0    0  0.00000000000E+00  0.00000000000E+00  0.39999999674E+01  0.40000000000E+01  0.51100000000E-03 0. -1.
    9000002   -1    0    0    0    0 -0.00000000000E+00 -0.00000000000E+00  0.00000000000E+00  0.93800000000E+00  0.93800000000E+00 0.  1.
         11    1    1    2    0    0  0.52403600083E-01  0.11158119542E+00  0.98386953551E+00  0.99156241584E+00  0.51100000000E-03 0. -1.
    9000002    1    1    2    0    0 -0.18252350886E+00 -0.37851414844E+00  0.11964457797E+00  0.10347688712E+01  0.93800000000E+00 0.  1.
         22    1    1    2    0    0  0.13011990878E+00  0.26693295301E+00  0.28964858539E+01  0.29116687129E+01  0.00000000000E+00 0. -1.
</event>
<event>
 5    1  0.6076093E+001  0.1599636E+01  0.7818608E-02  0.3353758E+00
         11   -1    0    0    0    0  0.00000000000E+00  0.00000000000E+00  0.39999999674E+01  0.40000000000E+01  0.51100000000E-03 0.  1.
    9000002   -1    0    0    0    0 -0.00000000000E+00 -0.00000000000E+00  0.00000000000E+00  0.93800000000E+00  0.93800000000E+00 0. -1.
         11    1    1    2    0    0 -0.27837048358E-01 -0.12644169549E+00  0.11262684878E+01  0.11336857463E+01  0.51100000000E-03 0.  1.
    9000002    1    1    2    0    0  0.10623022095E+00  0.45384234878E+00  0.14795232425E+00  0.10578240060E+01  0.93800000000E+00 0. -1.
         22    1    1    2    0    0 -0.78393172593E-01 -0.32740065329E+00  0.27257791553E+01  0.27464902477E+01  0.00000000000E+00 0.  1.
</event>
<event>
 5    1  0.6076093E+001  0.1594596E+01  0.7818608E-02  0.3359249E+00
         11   -1    0    0    0    0  0.00000000000E+00  0.00000000000E+00  0.39999999674E+01  0.40000000000E+01  0.51100000000E-03 0. -1.
    9000002   -1    0    0    0    0 -0.00000000000E+00 -0.00000000000E+00  0.00000000000E+00  0.93800000000E+00  0.93800000000E+00 0.  1.
         11    1    1    2    0    0 -0.12411147168E-01  0.56240338289E-01  0.19819298204E+00  0.20639217882E+00  0.51100000000E-03 0. -1.
    9000002    1    1    2    0    0  0.21077750078E+00 -0.35065986287E+00  0.11730869884E+00  0.10300460306E+01  0.93800000000E+00 0.  1.
         22    1    1    2    0    0 -0.19836635361E+00  0.29441952458E+00  0.36844982865E+01  0.37015617906E+01  0.00000000000E+00 0. -1.
</event>
<event>
 5    1  0.6463116E+001  0.1599557E+01  0.7818608E-02  0.3353844E+00
         11   -1    0    0    0    0  0.00000000000E+00  0.00000000000E+00  0.39999999674E+01  0.40000000000E+01  0.51100000000E-03 0.  1.
    9000002   -1    0    0    0    0 -0.00000000000E+00 -0.00000000000E+00  0.00000000000E+00  0.93800000000E+00  0.93800000000E+00 0.  1.
         11    1    1    2    0    0  0.44990300243E-01 -0.23778264239E+00  0.14180873729E+01  0.14385884646E+01  0.51100000000E-03 0.  1.
    9000002    1    1    2    0    0 -0.13909560709E+00  0.64477116776E+00  0.30785577412E+00  0.11873064576E+01  0.93800000000E+00 0.  1.
         22    1    1    2    0    0  0.94105306842E-01 -0.40698852537E+00  0.22740568203E+01  0.23121050777E+01  0.00000000000E+00 0.  1.
</event>
<event>
 5    1  0.6076093E+001  0.1599532E+01  0.7818608E-02  0.3353871E+00
         11   -1    0    0    0    0  0.00000000000E+00  0.00000000000E+00  0.39999999674E+01  0.40000000000E+01  0.51100000000E-03 0.  1.
    9000002   -1    0    0    0    0 -0.00000000000E+00 -0.00000000000E+00  0.00000000000E+00  0.93800000000E+00  0.93800000000E+00 0.  1.
         11    1    1    2    0    0 -0.78999138698E-01 -0.10519754876E+00  0.13904492369E+01  0.13966591315E+01  0.51100000000E-03 0.  1.
    9000002    1    1    2    0    0  0.19601953589E+00  0.32451391909E+00  0.96817769937E-01  0.10163417844E+01  0.93800000000E+00 0.  1.
         22    1    1    2    0    0 -0.11702039719E+00 -0.21931637033E+00  0.25127329605E+01  0.25249990841E+01  0.00000000000E+00 0.  1.
</event>
<event>
 5    1  0.6076093E+001  0.1554615E+01  0.7818608E-02  0.3404146E+00
         11   -1    0    0    0    0  0.00000000000E+00  0.00000000000E+00  0.39999999674E+01  0.40000000000E+01  0.51100000000E-03 0.  1.
    9000002   -1    0    0    0    0 -0.00000000000E+00 -0.00000000000E+00  0.00000000000E+00  0.93800000000E+00  0.93800000000E+00 0. -1.
         11    1    1    2    0    0 -0.10632357984E+00  0.13415524183E+00  0.74834274273E+00  0.76767144943E+00  0.51100000000E-03 0.  1.
    9000002    1    1    2    0    0  0.94035733306E-01  0.24348067544E+00  0.80739369497E-01  0.97697922406E+00  0.93800000000E+00 0. -1.
         22    1    1    2    0    0  0.12287846533E-01 -0.37763591727E+00  0.31709178551E+01  0.31933493265E+01  0.00000000000E+00 0.  1.
</event>
<event>
 5    1  0.6076093E+001  0.1591252E+01  0.7818608E-02  0.3362913E+00
         11   -1    0    0    0    0  0.00000000000E+00  0.00000000000E+00  0.39999999674E+01  0.40000000000E+01  0.51100000000E-03 0. -1.
    9000002   -1    0    0    0    0 -0.00000000000E+00 -0.00000000000E+00  0.00000000000E+00  0.93800000000E+00  0.93800000000E+00 0. -1.
         11    1    1    2    0    0  0.30677792118E-01 -0.12214542204E-01  0.41923205681E+00  0.42053073674E+00  0.51100000000E-03 0. -1.
    9000002    1    1    2    0    0  0.33896150528E+00 -0.11264860884E-01  0.83802629511E-01  0.10009438945E+01  0.93800000000E+00 0. -1.
         22    1    1    2    0    0 -0.36963929740E+00  0.23479403088E-01  0.34969652810E+01  0.35165253688E+01  0.00000000000E+00 0. -1.
</event>
<event>
 5    1  0.6076093E+001  0.1599671E+01  0.7818608E-02  0.3353720E+00
         11   -1    0    0    0    0  0.00000000000E+00  0.00000000000E+00  0.39999999674E+01  0.40000000000E+01  0.51100000000E-03 0. -1.
    9000002   -1    0    0    0    0 -0.00000000000E+00 -0.00000000000E+00  0.00000000000E+00  0.93800000000E+00  0.93800000000E+00 0.  1.
         11    1    1    2    0    0  0.95761780597E-01 -0.12865512711E+00  0.11044044717E+01  0.11159892287E+01  0.51100000000E-03 0. -1.
    9000002    1    1    2    0    0 -0.32711059230E+00  0.44996282197E+00  0.21401286951E+00  0.11113565535E+01  0.93800000000E+00 0.  1.
         22    1    1    2    0    0  0.23134881170E+00 -0.32130769485E+00  0.26815826261E+01  0.27106542177E+01  0.00000000000E+00 0. -1.
</event>
<event>
 5    1  0.6076093E+001  0.1598769E+01  0.7818608E-02  0.3354701E+00
         11   -1    0    0    0    0  0.00000000000E+00  0.00000000000E+00  0.39999999674E+01  0.40000000000E+01  0.51100000000E-03 0.  1.
    9000002   -1    0    0    0    0 -0.00000000000E+00 -0.00000000000E+00  0.00000000000E+00  0.93800000000E+00  0.93800000000E+00 0. -1.
         11    1    1    2    0    0  0.38198629062E-01 -0.41791938060E-02  0.46687296883E+00  0.46845195172E+00  0.51100000000E-03 0.  1.
    9000002    1    1    2    0    0 -0.37519305493E+00  0.22185308224E+00  0.12954986310E+00  0.10424086462E+01  0.93800000000E+00 0. -1.
         22    1    1    2    0    0  0.33699442586E+00 -0.21767388843E+00  0.34035771354E+01  0.34271394021E+01  0.00000000000E+00 0.  1.
</event>
<event>
 5    1  0.6076093E+001  0.1599493E+01  0.7818608E-02  0.3353914E+00
         11   -1    0    0    0    0  0.00000000000E+00  0.00000000000E+00  0.39999999674E+01  0.40000000000E+01  0.51100000000E-03 0.  1.
    9000002   -1    0    0    0    0 -0.00000000000E+00 -0.00000000000E+00  0.00000000000E+00  0.93800000000E+00  0.93800000000E+00 0. -1.
         11    1    1    2    0    0 -0.34678302488E-01  0.10263970596E+00  0.87882066152E+00  0.88547360782E+00  0.51100000000E-03 0.  1.
    9000002    1    1    2    0    0  0.21113293608E+00 -0.44700728368E+00  0.16730815774E+00  0.10734191390E+01  0.93800000000E+00 0. -1.
         22    1    1    2    0    0 -0.17645463359E+00  0.34436757772E+00  0.29538711481E+01  0.29791072532E+01  0.00000000000E+00 0.  1.
</event>
<event>
 5    1  0.6076093E+001  0.1599657E+01  0.7818608E-02  0.3353736E+00
         11   -1    0    0    0    0  0.00000000000E+00  0.00000000000E+00  0.39999999674E+01  0.40000000000E+01  0.51100000000E-03 0.  1.
    9000002   -1    0    0    0    0 -0.00000000000E+00 -0.00000000000E+00  0.00000000000E+00  0.93800000000E+00  0.93800000000E+00 0.  1.
         11    1    1    2    0    0  0.14658732935E-01 -0.17381245918E-01  0.21943380164E+00  0.22060924864E+00  0.51100000000E-03 0.  1.
    9000002    1    1    2    0    0 -0.25433325122E+00  0.35014050983E+00  0.12690187838E+00  0.10407842553E+01  0.93800000000E+00 0.  1.
         22    1    1    2    0    0  0.23967451829E+00 -0.33275926392E+00  0.36536642873E+01  0.36766064961E+01  0.00000000000E+00 0.  1.
</event>
<event>
 5    1  0.6076093E+001  0.1599676E+01  0.7818608E-02  0.3353715E+00
         11   -1    0    0    0    0  0.00000000000E+00  0.00000000000E+00  0.39999999674E+01  0.40000000000E+01  0.51100000000E-03 0.  1.
    9000002   -1    0    0    0    0 -0.00000000000E+00 -0.00000000000E+00  0.00000000000E+00  0.93800000000E+00  0.93800000000E+00 0. -1.
         11    1    1    2    0    0  0.15097982084E+00 -0.14306335672E+00  0.82388426536E+00  0.84973382548E+00  0.51100000000E-03 0.  1.
    9000002    1    1    2    0    0 -0.62854622993E+00  0.59356604825E+00  0.56372036511E+00  0.13946381849E+01  0.93800000000E+00 0. -1.
         22    1    1    2    0    0  0.47756640909E+00 -0.45050269152E+00  0.26123953369E+01  0.26936279896E+01  0.00000000000E+00 0.  1.
</event>
<event>
 5    1  0.6076093E+001  0.1599674E+01  0.7818608E-02  0.3353718E+00
         11   -1    0    0    0    0  0.00000000000E+00  0.00000000000E+00  0.39999999674E+01  0.40000000000E+01  0.51100000000E-03 0.  1.
    9000002   -1    0    0    0    0 -0.00000000000E+00 -0.00000000000E+00  0.00000000000E+00  0.93800000000E+00  0.93800000000E+00 0.  1.
         11    1    1    2    0    0 -0.43602188308E-01  0.94280000658E-02  0.35920737436E+00  0.36196717658E+00  0.51100000000E-03 0.  1.
    9000002    1    1    2    0    0  0.47741814872E+00 -0.10612337564E+00  0.16344603269E+00  0.10703965925E+01  0.93800000000E+00 0.  1.
         22    1    1    2    0    0 -0.43381596041E+00  0.96695375575E-01  0.34773465603E+01  0.35056362309E+01  0.00000000000E+00 0.  1.
</event>
<event>
 5    1  0.6076093E+001  0.1599674E+01  0.7818608E-02  0.3353717E+00
         11   -1    0    0    0    0  0.00000000000E+00  0.00000000000E+00  0.39999999674E+01  0.40000000000E+01  0.51100000000E-03 0. -1.
    9000002   -1    0    0    0    0 -0.00000000000E+00 -0.00000000000E+00  0.00000000000E+00  0.93800000000E+00  0.93800000000E+00 0. -1.
         11    1    1    2    0    0 -0.55297145246E-01 -0.21102697359E-01  0.56724713829E+00  0.57032681432E+00  0.51100000000E-03 0. -1.
    9000002    1    1    2    0    0  0.37427460179E+00  0.15320962072E+00  0.11038641403E+00  0.10274160919E+01  0.93800000000E+00 0. -1.
         22    1    1    2    0    0 -0.31897745655E+00 -0.13210692336E+00  0.33223664150E+01  0.33402570938E+01  0.00000000000E+00 0. -1.
</event>
<event>
 5    1  0.7276054E+001  0.1579773E+01  0.7818608E-02  0.3375614E+00
         11   -1    0    0    0    0  0.00000000000E+00  0.00000000000E+00  0.39999999674E+01  0.40000000000E+01  0.51100000000E-03 0.  1.
    9000002   -1    0    0    0    0 -0.00000000000E+00 -0.00000000000E+00  0.00000000000E+00  0.93800000000E+00  0.93800000000E+00 0.  1.
         11    1    1    2    0    0 -0.82664883371E-01  0.17136882871E-01  0.44045860051E+00  0.44847652735E+00  0.51100000000E-03 0.  1.
    9000002    1    1    2    0    0 -0.21804339398E+00 -0.12044003558E+00  0.56577842202E-01  0.97215933676E+00  0.93800000000E+00 0.  1.
         22    1    1    2    0    0  0.30070827735E+00  0.10330315271E+00  0.35029635246E+01  0.35173641359E+01  0.00000000000E+00 0.  1.
</event>
<event>
 5    1  0.6076093E+001  0.1508965E+01  0.7818608E-02  0.3458511E+00
         11   -1    0    0    0    0  0.00000000000E+00  0.00000000000E+00  0.39999999674E+01  0.40000000000E+01  0.51100000000E-03 0.  1.
    9000002   -1    0    0    0    0 -0.00000000000E+00 -0.00000000000E+00  0.00000000000E+00  0.93800000000E+00  0.93800000000E+00 0. -1.
         11    1    1    2    0    0  0.30949520221E+00 -0.23220284925E+00  0.70337639277E+00  0.80277272899E+00  0.51100000000E-03 0.  1.
    9000002    1    1    2    0    0 -0.16124937439E+00  0.64581825049E+00  0.41880567178E+00  0.12240607682E+01  0.93800000000E+00 0. -1.
         22    1    1    2    0    0 -0.14824582782E+00 -0.41361540124E+00  0.28778179028E+01  0.29111665029E+01  0.00000000000E+00 0.  1.
</event>
<event>
 5    1  0.6076093E+001  0.1599677E+01  0.7818608E-02  0.3353714E+00
         11   -1    0    0    0    0  0.00000000000E+00  0.00000000000E+00  0.39999999674E+01  0.40000000000E+01  0.51100000000E-03 0.  1.
    9000002   -1    0    0    0    0 -0.00000000000E+00 -0.00000000000E+00  0.00000000000E+00  0.93800000000E+00  0.93800000000E+00 0. -1.
         11    1    1    2    0    0 -0.13162969631E+00 -0.51319485452E-01  0.10065569714E+01  0.10164237622E+01  0.51100000000E-03 0.  1.
    9000002    1    1    2    0    0  0.49579690231E+00  0.19519464064E+00  0.19547610560E+00  0.10963441175E+01  0.93800000000E+00 0. -1.
         22    1    1    2    0    0 -0.36416720600E+00 -0.14387515518E+00  0.27979668903E+01  0.28252321203E+01  0.00000000000E+00 0.  1.
</event>
<event>
 5    1  0.6076093E+001  0.1599675E+01  0.7818608E-02  0.3353717E+00
         11   -1    0    0    0    0  0.00000000000E+00  0.00000000000E+00  0.39999999674E+01  0.40000000000E+01  0.51100000000E-03 0.  1.
    9000002   -1    0    0    0    0 -0.00000000000E+00 -0.00000000000E+00  0.00000000000E+00  0.93800000000E+00  0.93800000000E+00 0. -1.
         11    1    1    2    0    0 -0.66578805898E-01  0.81897328053E-01  0.79226885562E+00  0.79926848458E+00  0.51100000000E-03 0.  1.
    9000002    1    1    2    0    0  0.31646648902E+00 -0.40039496808E+00  0.17862101748E+00  0.10826895386E+01  0.93800000000E+00 0. -1.
         22    1    1    2    0    0 -0.24988768312E+00  0.31849764002E+00  0.30291100943E+01  0.30560419768E+01  0.00000000000E+00 0.  1.
</event>
<event>
 5    1  0.6076093E+001  0.1599677E+01  0.7818608E-02  0.3353714E+00
         11   -1    0    0    0    0  0.00000000000E+00  0.00000000000E+00  0.39999999674E+01  0.40000000000E+01  0.51100000000E-03 0. -1.
    9000002   -1    0    0    0    0 -0.00000000000E+00 -0.00000000000E+00  0.00000000000E+00  0.93800000000E+00  0.93800000000E+00 0.  1.
         11    1    1    2    0    0  0.23044727296E+00 -0.58672229674E-02  0.13301571879E+01  0.13499847317E+01  0.51100000000E-03 0. -1.
    9000002    1    1    2    0    0 -0.64239388039E+00  0.17348412305E-01  0.29090187511E+00  0.11736433725E+01  0.93800000000E+00 0.  1.
         22    1    1    2    0    0  0.41194660743E+00 -0.11481189338E-01  0.23789409043E+01  0.24143718958E+01  0.00000000000E+00 0. -1.
</event>
<event>
 5    1  0.6076093E+001  0.1474922E+01  0.7818608E-02  0.3501413E+00
         11   -1    0    0    0    0  0.00000000000E+00  0.00000000000E+00  0.39999999674E+01  0.40000000000E+01  0.51100000000E-03 0. -1.
    9000002   -1    0    0    0    0 -0.00000000000E+00 -0.00000000000E+00  0.00000000000E+00  0.93800000000E+00  0.93800000000E+00 0. -1.
         11    1    1    2    0    0  0.22586755539E+00 -0.89838629440E-01  0.36150419760E+00  0.43562906000E+00  0.51100000000E-03 0. -1.
    9000002    1    1    2    0    0  0.19474316049E+00  0.13721335635E+00  0.13939960957E+00  0.97776717825E+00  0.93800000000E+00 0. -1.
         22    1    1    2    0    0 -0.42061071587E+00 -0.47374726908E-01  0.34990961602E+01  0.35246037617E+01  0.00000000000E+00 0. -1.
</event>
<event>
 5    1  0.6076093E+001  0.1599357E+01  0.7818608E-02  0.3354061E+00
         11   -1    0    0    0    0  0.00000000000E+00  0.00000000000E+00  0.39999999674E+01  0.40000000000E+01  0.51100000000E-03 0. -1.
    9000002   -1    0    0    0    0 -0.00000000000E+00 -0.00000000000E+00  0.00000000000E+00  0.93800000000E+00  0.93800000000E+00 0. -1.
         11    1    1    2    0    0  0.14992604763E+00 -0.11482511350E-01  0.13874909693E+01  0.13956149608E+01  0.51100000000E-03 0. -1.
    9000002    1    1    2    0    0 -0.38608734802E+00  0.78497608205E-01  0.10488726491E+00  0.10227759545E+01  0.93800000000E+00 0. -1.
         22    1    1    2    0    0  0.23616130039E+00 -0.67015096855E-01  0.25076217332E+01  0.25196090847E+01  0.00000000000E+00 0. -1.
</event>
<event>
 5    1  0.6076093E+001  0.1597787E+01  0.7818608E-02  0.3355769E+00
         11   -1    0    0    0    0  0.00000000000E+00  0.00000000000E+00  0.39999999674E+01  0.40000000000E+01  0.51100000000E-03 0.  1.
    9000002   -1    0    0    0    0 -0.00000000000E+00 -0.00000000000E+00  0.00000000000E+00  0.93800000000E+00  0.93800000000E+00 0. -1.
         11    1    1    2    0    0 -0.39297077186E-01  0.86353566561E-01  0.31474937311E+00  0.32873793168E+00  0.51100000000E-03 0.  1.
    9000002    1    1    2    0    0  0.24881192400E+00 -0.70239292541E+00  0.40420068049E+00  0.12643122183E+01  0.93800000000E+00 0. -1.
         22    1    1    2    0    0 -0.20951484681E+00  0.61603935885E+00  0.32810499138E+01  0.33449498500E+01  0.00000000000E+00 0.  1.
</event>
<event>
 5    1  0.6076093E+001  0.1598997E+01  0.7818608E-02  0.3354453E+00
         11   -1    0    0    0    0  0.00000000000E+00  0.00000000000E+00  0.39999999674E+01  0.40000000000E+01  0.51100000000E-03 0. -1.
    9000002   -1    0    0    0    0 -0.00000000000E+00 -0.00000000000E+00  0.00000000000E+00  0.93800000000E+00  0.93800000000E+00 0.  1.
         11    1    1    2    0    0 -0.12885366780E+00  0.12459475323E+00  0.10738470333E+01  0.10887032802E+01  0.51100000000E-03 0. -1.
    9000002    1    1    2    0    0  0.36874224401E+00 -0.39017843304E+00  0.19921246091E+00  0.10989720910E+01  0.93800000000E+00 0.  1.
         22    1    1    2    0    0 -0.23988857620E+00  0.26558367981E+00  0.27269404731E+01  0.27503246288E+01  0.00000000000E+00 0. -1.
</event>
<event>
 5    1  0.6076093E+001  0.1599615E+01  0.7818608E-02  0.3353782E+00
         11   -1    0    0    0    0  0.00000000000E+00  0.00000000000E+00  0.39999999674E+01  0.40000000000E+01  0.51100000000E-03 0. -1.
    9000002   -1    0    0    0    0 -0.00000000000E+00 -0.00000000000E+00  0.00000000000E+00  0.93800000000E+00  0.93800000000E+00 0. -1.
         11    1    1    2    0    0 -0.14886531211E+00 -0.54635824737E-02  0.94564490398E+00  0.95730626104E+00  0.51100000000E-03 0. -1.
    9000002    1    1    2    0    0  0.56228400507E+00  0.17271432959E-01  0.21916907356E+00  0.11155001961E+01  0.93800000000E+00 0. -1.
         22    1    1    2    0    0 -0.41341869297E+00 -0.11807850485E-01  0.28351859898E+01  0.28651935428E+01  0.00000000000E+00 0. -1.
</event>
<event>
 5    1  0.8182006E+001  0.1583700E+01  0.7818608E-02  0.3371247E+00
         11   -1    0    0    0    0  0.00000000000E+00  0.00000000000E+00  0.39999999674E+01  0.40000000000E+01  0.51100000000E-03 0.  1.
    9000002   -1    0    0    0    0 -0.00000000000E+00 -0.00000000000E+00  0.00000000000E+00  0.93800000000E+00  0.93800000000E+00 0. -1.
         11    1    1    2    0    0  0.34503074660E-01  0.15407664668E+00  0.12997239601E+01  0.13092794617E+01  0.51100000000E-03 0.  1.
    9000002    1    1    2    0    0  0.20494080155E+00 -0.16345393011E+00  0.58070488486E-01  0.97567110290E+00  0.93800000000E+00 0. -1.
         22    1    1    2    0    0 -0.23944387620E+00  0.93772834330E-02  0.26422055188E+01  0.26530494354E+01  0.00000000000E+00 0.  1.
</event>
<event>
 5    1  0.6076093E+001  0.1596753E+01  0.7818608E-02  0.3356895E+00
         11   -1    0    0    0    0  0.00000000000E+00  0.00000000000E+00  0.39999999674E+01  0.40000000000E+01  0.51100000000E-03 0. -1.
    9000002   -1    0    0    0    0 -0.00000000000E+00 -0.00000000000E+00  0.00000000000E+00  0.93800000000E+00  0.93800000000E+00 0.  1.
         11    1    1    2    0    0 -0.65458920354E-01 -0.75730950372E-01  0.96660106858E+00  0.97177051509E+00  0.51100000000E-03 0. -1.
    9000002    1    1    2    0    0  0.25364934552E+00  0.51803263497E+00  0.23384459587E+00  0.11257100410E+01  0.93800000000E+00 0.  1.
         22    1    1    2    0    0 -0.18819042516E+00 -0.44230168460E+00  0.27995543029E+01  0.28405194439E+01  0.00000000000E+00 0. -1.
</event>
<event>
 5    1  0.6076093E+001  0.1599537E+01  0.7818608E-02  0.3353866E+00
         11   -1    0    0    0    0  0.00000000000E+00  0.00000000000E+00  0.39999999674E+01  0.40000000000E+01  0.51100000000E-03 0.  1.
    9000002   -1    0    0    0    0 -0.00000000000E+00 -0.00000000000E+00  0.00000000000E+00  0.93800000000E+00  0.93800000000E+00 0. -1.
         11    1    1    2    0    0  0.22956147425E-01  0.36895753398E-01  0.34192711358E+00  0.34467766601E+00  0.51100000000E-03 0.  1.
    9000002    1    1    2    0    0 -0.34371143740E+00 -0.42674152225E+00  0.20743138690E+00  0.11059464993E+01  0.93800000000E+00 0. -1.
         22    1    1    2    0    0  0.32075528997E+00  0.38984576885E+00  0.34506414669E+01  0.34873758347E+01  0.00000000000E+00 0.  1.
</event>
<event>
 5    1  0.6076093E+001  0.1597555E+01  0.7818608E-02  0.3356021E+00
         11   -1    0    0    0    0  0.00000000000E+00  0.00000000000E+00  0.39999999674E+01  0.40000000000E+01  0.51100000000E-03 0. -1.
    9000002   -1    0    0    0    0 -0.00000000000E+00 -0.00000000000E+00  0.00000000000E+00  0.93800000000E+00  0.93800000000E+00 0. -1.
         11    1    1    2    0    0 -0.47747193982E-01 -0.10074487666E+00  0.88385497320E+00  0.89085868659E+00  0.51100000000E-03 0. -1.
    9000002    1    1    2    0    0  0.28372422874E+00  0.25299464210E+00  0.98974411662E-01  0.10169295261E+01  0.93800000000E+00 0. -1.
         22    1    1    2    0    0 -0.23597703476E+00 -0.15224976544E+00  0.30171705825E+01  0.30302117873E+01  0.00000000000E+00 0. -1.
</event>
<event>
 5    1  0.6076093E+001  0.1569726E+01  0.7818608E-02  0.3386892E+00
         11   -1    0    0    0    0  0.00000000000E+00  0.00000000000E+00  0.39999999674E+01  0.40000000000E+01  0.51100000000E-03 0. -1.
    9000002   -1    0    0    0    0 -0.00000000000E+00 -0.00000000000E+00  0.00000000000E+00  0.93800000000E+00  0.93800000000E+00 0. -1.
         11    1    1    2    0    0 -0.38489211493E-02  0.18701310427E+00  0.14278762499E+01  0.14400762347E+01  0.51100000000E-03 0. -1.
    9000002    1    1    2    0    0  0.17657159370E+00  0.10663686764E-01  0.43304047133E-01  0.95551582008E+00  0.93800000000E+00 0. -1.
         22    1    1    2    0    0 -0.17272267255E+00 -0.19767679103E+00  0.25288196703E+01  0.25424079453E+01  0.00000000000E+00 0. -1.
</event>
<event>
 5    1  0.6076093E+001  0.1599157E+01  0.7818608E-02  0.3354279E+00
         11   -1    0    0    0    0  0.00000000000E+00  0.00000000000E+00  0.39999999674E+01  0.40000000000E+01  0.51100000000E-03 0. -1.
    9000002   -1    0    0    0    0 -0.00000000000E+00 -0.00000000000E+00  0.00000000000E+00  0.93800000000E+00  0.93800000000E+00 0.  1.
         11    1    1    2    0    0 -0.37798069913E-01 -0.52046398548E-01  0.24740182071E+00  0.25562754880E+00  0.51100000000E-03 0. -1.
    9000002    1    1    2    0    0  0.49177704421E+00  0.55887829286E+00  0.40170039554E+00  0.12630901849E+01  0.93800000000E+00 0.  1.
         22    1    1    2    0    0 -0.45397897430E+00 -0.50683189431E+00  0.33508977511E+01  0.34192822663E+01  0.00000000000E+00 0. -1.
</event>
<event>
 5    1  0.6076093E+001  0.1599629E+01  0.7818608E-02  0.3353766E+00
         11   -1    0    0    0    0  0.00000000000E+00  0.00000000000E+00  0.39999999674E+01  0.40000000000E+01  0.51100000000E-03 0.  1.
    9000002   -1    0    0    0    0 -0.00000000000E+00 -0.00000000000E+00  0.00000000000E+00  0.93800000000E+00  0.93800000000E+00 0. -1.
         11    1    1    2    0    0 -0.11937197402E-01 -0.22618782597E+00  0.55177763584E+00  0.59645808724E+00  0.51100000000E-03 0.  1.
    9000002    1    1    2    0    0  0.93103699962E-01  0.11518624770E+01  0.12102810978E+01  0.19183534087E+01  0.93800000000E+00 0. -1.
         22    1    1    2    0    0 -0.81166502560E-01 -0.92567465105E+00  0.22379412337E+01  0.24231885041E+01  0.00000000000E+00 0.  1.
</event>
<event>
 5    1  0.6076093E+001  0.1599676E+01  0.7818608E-02  0.3353715E+00
         11   -1    0    0    0    0  0.00000000000E+00  0.00000000000E+00  0.39999999674E+01  0.40000000000E+01  0.51100000000E-03 0.  1.
    9000002   -1    0    0    0    0 -0.00000000000E+00 -0.00000000000E+00  0.00000000000E+00  0.93800000000E+00  0.93800000000E+00 0.  1.
         11    1    1    2    0    0  0.27096772038E-01 -0.97567407338E-01  0.11100350516E+01  0.11146442082E+01  0.51100000000E-03 0.  1.
    9000002    1    1    2    0    0 -0.91896605770E-01  0.34644902251E+00  0.86224045862E-01  0.10078444808E+01  0.93800000000E+00 0.  1.
         22    1    1    2    0    0  0.64799833732E-01 -0.24888161517E+00  0.28037408699E+01  0.28155113110E+01  0.00000000000E+00 0. -1.
</event>
<event>
 5    1  0.6076093E+001  0.1599197E+01  0.7818608E-02  0.3354235E+00
         11   -1    0    0    0    0  0.00000000000E+00  0.00000000000E+00  0.39999999674E+01  0.40000000000E+01  0.51100000000E-03 0. -1.
    9000002   -1    0    0    0    0 -0.00000000000E+00 -0.00000000000E+00  0.00000000000E+00  0.93800000000E+00  0.93800000000E+00 0. -1.
         11    1    1    2    0    0 -0.19975431090E+00  0.44209133301E-01  0.92596835749E+00  0.94830052852E+00  0.51100000000E-03 0. -1.
    9000002    1    1    2    0    0  0.71604180472E+00 -0.10920646341E+00  0.37803537247E+00  0.12439439942E+01  0.93800000000E+00 0. -1.
         22    1    1    2    0    0 -0.51628749382E+00  0.64997330109E-01  0.26959962374E+01  0.27457554773E+01  0.00000000000E+00 0. -1.
</event>
<event>
 5    1  0.6076093E+001  0.1599610E+01  0.7818608E-02  0.3353787E+00
         11   -1    0    0    0    0  0.00000000000E+00  0.00000000000E+00  0.39999999674E+01  0.40000000000E+01  0.51100000000E-03 0. -1.
    9000002   -1    0    0    0    0 -0.00000000000E+00 -0.00000000000E+00  0.00000000000E+00  0.93800000000E+00  0.93800000000E+00 0.  1.
         11    1    1    2    0    0 -0.10120513591E-01 -0.37171534475E-01  0.31629644354E+00  0.31863435014E+00  0.51100000000E-03 0. -1.
    9000002    1    1    2    0    0  0.60295602598E-01  0.47162659527E+00  0.15419831902E+00  0.10628679724E+01  0.93800000000E+00 0.  1.
         22    1    1    2    0    0 -0.50175089007E-01 -0.43445506080E+00  0.35295052048E+01  0.35564976775E+01  0.00000000000E+00 0. -1.
</event>
<event>
 5    1  0.6076093E+001  0.1538783E+01  0.7818608E-02  0.3422609E+00
         11   -1    0    0    0    0  0.00000000000E+00  0.00000000000E+00  0.39999999674E+01  0.40000000000E+01  0.51100000000E-03 0. -1.
    9000002   -1    0    0    0    0 -0.00000000000E+00 -0.00000000000E+00  0.00000000000E+00  0.93800000000E+00  0.93800000000E+00 0. -1.
         11    1    1    2    0    0 -0.12620652427E+00  0.26643733963E-01  0.22367463418E+00  0.25820259182E+00  0.51100000000E-03 0. -1.
    9000002    1    1    2    0    0 -0.21352447837E+00  0.33772842257E-01  0.78365599703E-01  0.96577351121E+00  0.93800000000E+00 0. -1.
         22    1    1    2    0    0  0.33973100264E+00 -0.60416576220E-01  0.36979597335E+01  0.37140238970E+01  0.00000000000E+00 0. -1.
</event>
<event>
 5    1  0.6076093E+001  0.1599656E+01  0.7818608E-02  0.3353737E+00
         11   -1    0    0    0    0  0.00000000000E+00  0.00000000000E+00  0.39999999674E+01  0.40000000000E+01  0.51100000000E-03 0.  1.
    9000002   -1    0    0    0    0 -0.00000000000E+00 -0.00000000000E+00  0.00000000000E+00  0.93800000000E+00  0.93800000000E+00 0.  1.
         11    1    1    2    0    0 -0.86189434746E-01  0.10807794316E+00  0.14200848467E+01  0.14267973555E+01  0.51100000000E-03 0.  1.
    9000002    1    1    2    0    0  0.22243917609E+00 -0.29820311465E+00  0.93052609912E-01  0.10133642350E+01  0.93800000000E+00 0.  1.
         22    1    1    2    0    0 -0.13624974135E+00  0.19012517149E+00  0.24868625107E+01  0.24978384095E+01  0.00000000000E+00 0.  1.
</event>
<event>
 5    1  0.6076093E+001  0.1596599E+01  0.7818608E-02  0.3357063E+00
         11   -1    0    0    0    0  0.00000000000E+00  0.00000000000E+00  0.39999999674E+01  0.40000000000E+01  0.51100000000E-03 0. -1.
    9000002   -1    0    0    0    0 -0.00000000000E+00 -0.00000000000E+00  0.00000000000E+00  0.93800000000E+00  0.93800000000E+00 0.  1.
         11    1    1    2    0    0 -0.11079352399E-01 -0.70609471514E-01  0.46333942141E+00  0.46881993352E+00  0.51100000000E-03 0. -1.
    9000002    1    1    2    0    0 -0.11479887728E+00  0.81574823334E+00  0.50820847719E+00  0.13478663950E+01  0.93800000000E+00 0.  1.
         22    1    1    2    0    0  0.12587822967E+00 -0.74513876183E+00  0.30284520688E+01  0.31213136715E+01  0.00000000000E+00 0. -1.
</event>
<event>
 5    1  0.6076093E+001  0.1599659E+01  0.7818608E-02  0.3353734E+00
         11   -1    0    0    0    0  0.00000000000E+00  0.00000000000E+00  0.39999999674E+01  0.40000000000E+01  0.51100000000E-03 0. -1.
    9000002   -1    0    0    0    0 -0.00000000000E+00 -0.00000000000E+00  0.00000000000E+00  0.93800000000E+00  0.93800000000E+00 0.  1.
         11    1    1    2    0    0 -0.24726182971E-01  0.30872726512E-01  0.18914072533E+00  0.19323297976E+00  0.51100000000E-03 0. -1.
    9000002    1    1    2    0    0  0.46772473452E+00 -0.54874560529E+00  0.37373186435E+00  0.12407286863E+01  0.93800000000E+00 0.  1.
         22    1    1    2    0    0 -0.44299855155E+00  0.51787287878E+00  0.34371273777E+01  0.35040383339E+01  0.00000000000E+00 0. -1.
</event>
<event>
 5    1  0.6076093E+001  0.1599676E+01  0.7818608E-02  0.3353715E+00
         11   -1    0    0    0    0  0.00000000000E+00  0.00000000000E+00  0.39999999674E+01  0.40000000000E+01  0.51100000000E-03 0. -1.
    9000002   -1    0    0    0    0 -0.00000000000E+00 -0.00000000000E+00  0.00000000000E+00  0.93800000000E+00  0.93800000000E+00 0. -1.
         11    1    1    2    0    0  0.93078621578E-01 -0.65201393270E-01  0.12546965367E+01  0.12598327317E+01  0.51100000000E-03 0. -1.
    9000002    1    1    2    0    0 -0.29036426821E+00  0.20659398765E+00  0.85210802006E-01  0.10070240140E+01  0.93800000000E+00 0. -1.
         22    1    1    2    0    0  0.19728564663E+00 -0.14139259438E+00  0.26600926287E+01  0.26711432543E+01  0.00000000000E+00 0. -1.
</event>
<event>
 5    1  0.6076093E+001  0.1598072E+01  0.7818608E-02  0.3355459E+00
         11   -1    0    0    0    0  0.00000000000E+00  0.00000000000E+00  0.39999999674E+01  0.40000000000E+01  0.51100000000E-03 0. -1.
    9000002   -1    0    0    0    0 -0.00000000000E+00 -0.00000000000E+00  0.00000000000E+00  0.93800000000E+00  0.93800000000E+00 0.  1.
         11    1    1    2    0    0 -0.13101023606E-01 -0.14970359328E+00  0.11298824050E+01  0.11398321424E+01  0.51100000000E-03 0. -1.
    9000002    1    1    2    0    0 -0.93410020553E-01  0.45255002555E+00  0.14668829703E+00  0.10558827653E+01  0.93800000000E+00 0.  1.
         22    1    1    2    0    0  0.10651104416E+00 -0.30284643227E+00  0.27234292654E+01  0.27422850923E+01  0.00000000000E+00 0. -1.
</event>
<event>
 5    1  0.6076093E+001  0.1573024E+01  0.7818608E-02  0.3383173E+00
         11   -1    0    0    0    0  0.00000000000E+00  0.00000000000E+00  0.39999999674E+01  0.40000000000E+01  0.51100000000E-03 0. -1.
    9000002   -1    0    0    0    0 -0.00000000000E+00 -0.00000000000E+00  0.00000000000E+00  0.93800000000E+00  0.93800000000E+00 0.  1.
         11    1    1    2    0    0  0.72608686938E-02  0.98973119872E-01  0.30508402640E+00  0.32081914369E+00  0.51100000000E-03 0. -1.
    9000002    1    1    2    0    0 -0.31397962087E+00  0.74586171311E-01  0.91059068029E-01  0.99613355186E+00  0.93800000000E+00 0.  1.
         22    1    1    2    0    0  0.30671875218E+00 -0.17355929118E+00  0.36038568729E+01  0.36210473045E+01  0.00000000000E+00 0. -1.
</event>
<event>
 5    1  0.6076093E+001  0.1599675E+01  0.7818608E-02  0.3353716E+00
         11   -1    0    0    0    0  0.00000000000E+00  0.00000000000E+00  0.39999999674E+01  0.40000000000E+01  0.51100000000E-03 0.  1.
    9000002   -1    0    0    0    0 -0.00000000000E+00 -0.00000000000E+00  0.00000000000E+00  0.93800000000E+00  0.93800000000E+00 0.  1.
         11    1    1    2    0    0  0.90464036650E-01 -0.40102425506E-01  0.10670286098E+01  0.10716073262E+01  0.51100000000E-03 0.  1.
    9000002    1    1    2    0    0 -0.32605004366E+00  0.14634314367E+00  0.85713335561E-01  0.10074302569E+01  0.93800000000E+00 0.  1.
         22    1    1    2    0    0  0.23558600701E+00 -0.10624071817E+00  0.28472580220E+01  0.28589624168E+01  0.00000000000E+00 0.  1.
</event>
<event>
 5    1  0.6076093E+001  0.1599647E+01  0.7818608E-02  0.3353746E+00
         11   -1    0    0    0    0  0.00000000000E+00  0.00000000000E+00  0.39999999674E+01  0.40000000000E+01  0.51100000000E-03 0. -1.
    9000002   -1    0    0    0    0 -0.00000000000E+00 -0.00000000000E+00  0.00000000000E+00  0.93800000000E+00  0.93800000000E+00 0. -1.
         11    1    1    2    0    0  0.46947418269E-01 -0.16738815338E+00  0.14620010897E+01  0.14723010227E+01  0.51100000000E-03 0. -1.
    9000002    1    1    2    0    0 -0.14007677002E+00  0.43718557945E+00  0.14335995488E+00  0.10541104349E+01  0.93800000000E+00 0. -1.
         22    1    1    2    0    0  0.93129351747E-01 -0.26979742607E+00  0.23946389228E+01  0.24115885424E+01  0.00000000000E+00 0. -1.
</event>
<event>
 5    1  0.6076093E+001  0.1599676E+01  0.7818608E-02  0.3353715E+00
         11   -1    0    0    0    0  0.00000000000E+00  0.00000000000E+00  0.39999999674E+01  0.40000000000E+01  0.51100000000E-03 0. -1.
    9000002   -1    0    0    0    0 -0.00000000000E+00 -0.00000000000E+00  0.00000000000E+00  0.93800000000E+00  0.93800000000E+00 0. -1.
         11    1    1    2    0    0 -0.20906428669E-01 -0.44274748438E-01  0.31741315510E+00  0.32116771983E+00  0.51100000000E-03 0. -1.
    9000002    1    1    2    0    0  0.25307892882E+00  0.52923604846E+00  0.23943273791E+00  0.11319504296E+01  0.93800000000E+00 0. -1.
         22    1    1    2    0    0 -0.23217250015E+00 -0.48496130002E+00  0.34431540744E+01  0.34848818505E+01  0.00000000000E+00 0. -1.
</event>
<event>
 5    1  0.6076093E+001  0.1561667E+01  0.7818608E-02  0.3396050E+00
         11   -1    0    0    0    0  0.00000000000E+00  0.00000000000E+00  0.39999999674E+01  0.40000000000E+01  0.51100000000E-03 0. -1.
    9000002   -1    0    0    0    0 -0.00000000000E+00 -0.00000000000E+00  0.00000000000E+00  0.93800000000E+00  0.93800000000E+00 0.  1.
         11    1    1    2    0    0  0.14148138295E-01 -0.24113880614E+00  0.11645700774E+01  0.11893577342E+01  0.51100000000E-03 0. -1.
    9000002    1    1    2    0    0 -0.33069220068E+00  0.14447843670E+00  0.11891096421E+00  0.10120351613E+01  0.93800000000E+00 0.  1.
         22    1    1    2    0    0  0.31654406239E+00  0.96660369443E-01  0.27165189257E+01  0.27366071045E+01  0.00000000000E+00 0. -1.
</event>
<event>
 5    1  0.6076093E+001  0.1599628E+01  0.7818608E-02  0.3353767E+00
         11   -1    0    0    0    0  0.00000000000E+00  0.00000000000E+00  0.39999999674E+01  0.40000000000E+01  0.51100000000E-03 0.  1.
    9000002   -1    0    0    0    0 -0.00000000000E+00 -0.00000000000E+00  0.00000000000E+00  0.93800000000E+00  0.93800000000E+00 0. -1.
         11    1    1    2    0    0 -0.19224717082E-01  0.11405167349E-01  0.28142878544E+00  0.28231558580E+00  0.51100000000E-03 0.  1.
    9000002    1    1    2    0    0  0.32727847215E+00 -0.16373191701E+00  0.89996360183E-01  0.10108722391E+01  0.93800000000E+00 0. -1.
         22    1    1    2    0    0 -0.30805375507E+00  0.15232674966E+00  0.36285748217E+01  0.36448121751E+01  0.00000000000E+00 0.  1.
</event>
<event>
 5    1  0.6076093E+001  0.1563281E+01  0.7818608E-02  0.3394207E+00
         11   -1    0    0    0    0  0.00000000000E+00  0.00000000000E+00  0.39999999674E+01  0.40000000000E+01  0.51100000000E-03 0.  1.
    9000002   -1    0    0    0    0 -0.00000000000E+00 -0.00000000000E+00  0.00000000000E+00  0.93800000000E+00  0.93800000000E+00 0. -1.
         11    1    1    2    0    0 -0.69578782682E-01 -0.99970876595E-01  0.14434678630E+01  0.14485976377E+01  0.51100000000E-03 0.  1.
    9000002    1    1    2    0    0 -0.39440537983E+00  0.13882079185E+00  0.14955396459E+00  0.10378040298E+01  0.93800000000E+00 0. -1.
         22    1    1    2    0    0  0.46398416251E+00 -0.38849915256E-01  0.24069781397E+01  0.24515983325E+01  0.00000000000E+00 0.  1.
</event>
<event>
 5    1  0.6076093E+001  0.1552407E+01  0.7818608E-02  0.3406696E+00
         11   -1    0    0    0    0  0.00000000000E+00  0.00000000000E+00  0.39999999674E+01  0.40000000000E+01  0.51100000000E-03 0. -1.
    9000002   -1    0    0    0    0 -0.00000000000E+00 -0.00000000000E+00  0.00000000000E+00  0.93800000000E+00  0.93800000000E+00 0. -1.
         11    1    1    2    0    0  0.23275706112E+00  0.29964307289E+00  0.66196745609E+00  0.76299606466E+00  0.51100000000E-03 0. -1.
    9000002    1    1    2    0    0 -0.43485656354E+00 -0.71037454414E+00  0.58491285141E+00  0.13840878829E+01  0.93800000000E+00 0. -1.
         22    1    1    2    0    0  0.20209950242E+00  0.41073147125E+00  0.27531196599E+01  0.27909160525E+01  0.00000000000E+00 0. -1.
</event>
<event>
 5    1  0.6076093E+001  0.1599636E+01  0.7818608E-02  0.3353759E+00
         11   -1    0    0    0    0  0.00000000000E+00  0.00000000000E+00  0.39999999674E+01  0.40000000000E+01  0.51100000000E-03 0. -1.
    9000002   -1    0    0    0    0 -0.00000000000E+00 -0.00000000000E+00  0.00000000000E+00  0.93800000000E+00  0.93800000000E+00 0. -1.
         11    1    1    2    0    0  0.13564159892E-02  0.17706854224E-01  0.16170887266E+00  0.16268187720E+00  0.51100000000E-03 0. -1.
    9000002    1    1    2    0    0 -0.99592068258E-02 -0.48997417380E+00  0.16417913648E+00  0.10709680974E+01  0.93800000000E+00 0. -1.
         22    1    1    2    0    0  0.86027908366E-02  0.47226731958E+00  0.36741119582E+01  0.37043500254E+01  0.00000000000E+00 0. -1.
</event>
<event>
 5    1  0.6076093E+001  0.1599677E+01  0.7818608E-02  0.3353714E+00
         11   -1    0    0    0    0  0.00000000000E+00  0.00000000000E+00  0.39999999674E+01  0.40000000000E+01  0.51100000000E-03 0. -1.
    9000002   -1    0    0    0    0 -0.00000000000E+00 -0.00000000000E+00  0.00000000000E+00  0.93800000000E+00  0.93800000000E+00 0.  1.
         11    1    1    2    0    0 -0.96047348654E-01  0.90661942744E-01  0.99514355350E+00  0.10038703274E+01  0.51100000000E-03 0.  1.
    9000002    1    1    2    0    0  0.36914132469E+00 -0.34860764656E+00  0.17670504897E+00  0.10811388825E+01  0.93800000000E+00 0.  1.
         22    1    1    2    0    0 -0.27309397604E+00  0.25794570382E+00  0.28281513649E+01  0.28529907901E+01  0.00000000000E+00 0. -1.
</event>
<event>
 5    1  0.6076093E+001  0.1599648E+01  0.7818608E-02  0.3353746E+00
         11   -1    0    0    0    0  0.00000000000E+00  0.00000000000E+00  0.39999999674E+01  0.40000000000E+01  0.51100000000E-03 0. -1.
    9000002   -1    0    0    0    0 -0.00000000000E+00 -0.00000000000E+00  0.00000000000E+00  0.93800000000E+00  0.93800000000E+00 0. -1.
         11    1    1    2    0    0 -0.11533703393E+00  0.94602501016E-01  0.14918286333E+01  0.14992682204E+01  0.51100000000E-03 0. -1.
    9000002    1    1    2    0    0  0.28656503304E+00 -0.25430705550E+00  0.98829001366E-01  0.10180386870E+01  0.93800000000E+00 0. -1.
         22    1    1    2    0    0 -0.17122799911E+00  0.15970455448E+00  0.24093423327E+01  0.24206930926E+01  0.00000000000E+00 0. -1.
</event>
<event>
 5    1  0.6853559E+001  0.1572057E+01  0.7818608E-02  0.3384261E+00
         11   -1    0    0    0    0  0.00000000000E+00  0.00000000000E+00  0.39999999674E+01  0.40000000000E+01  0.51100000000E-03 0.  1.
    9000002   -1    0    0    0    0 -0.00000000000E+00 -0.00000000000E+00  0.00000000000E+00  0.93800000000E+00  0.93800000000E+00 0. -1.
         11    1    1    2    0    0 -0.10661620402E+00 -0.10318407552E+00  0.13692714087E+01  0.13772866152E+01  0.51100000000E-03 0.  1.
    9000002    1    1    2    0    0 -0.14476179511E+00 -0.13550110566E-01  0.34599884266E-01  0.94983195083E+00  0.93800000000E+00 0. -1.
         22    1    1    2    0    0  0.25137799913E+00  0.11673418608E+00  0.25961286744E+01  0.26108814340E+01  0.00000000000E+00 0.  1.
</event>
<event>
 5    1  0.6076093E+001  0.1599677E+01  0.7818608E-02  0.3353714E+00
         11   -1    0    0    0    0  0.00000000000E+00  0.00000000000E+00  0.39999999674E+01  0.40000000000E+01  0.51100000000E-03 0.  1.
    9000002   -1    0    0    0    0 -0.00000000000E+00 -0.00000000000E+00  0.00000000000E+00  0.93800000000E+00  0.93800000000E+00 0. -1.
         11    1    1    2    0    0 -0.55971379663E-01  0.75917849422E-01  0.99350577590E+00  0.99797309736E+00  0.51100000000E-03 0.  1.
    9000002    1    1    2    0    0  0.21966379103E+00 -0.29910941711E+00  0.92564328597E-01  0.10129811348E+01  0.93800000000E+00 0. -1.
         22    1    1    2    0    0 -0.16369241136E+00  0.22319156768E+00  0.29139298629E+01  0.29270457679E+01  0.00000000000E+00 0.  1.
</event>
<event>
 5    1  0.6076093E+001  0.1595192E+01  0.7818608E-02  0.3358598E+00
         11   -1    0    0    0    0  0.00000000000E+00  0.00000000000E+00  0.39999999674E+01  0.40000000000E+01  0.51100000000E-03 0.  1.
    9000002   -1    0    0    0    0 -0.00000000000E+00 -0.00000000000E+00  0.00000000000E+00  0.93800000000E+00  0.93800000000E+00 0.  1.
         11    1    1    2    0    0  0.68343832348E-01 -0.46358614563E-02  0.44670886902E+00  0.45193079715E+00  0.51100000000E-03 0.  1.
    9000002    1    1    2    0    0 -0.31643362292E+00 -0.31135702981E+00  0.13759550459E+00  0.10468285249E+01  0.93800000000E+00 0.  1.
         22    1    1    2    0    0  0.24808979057E+00  0.31599289126E+00  0.34156955937E+01  0.34392406779E+01  0.00000000000E+00 0.  1.
</event>
<event>
 5    1  0.6076093E+001  0.1495829E+01  0.7818608E-02  0.3474815E+00
         11   -1    0    0    0    0  0.00000000000E+00  0.00000000000E+00  0.39999999674E+01  0.40000000000E+01  0.51100000000E-03 0.  1.
    9000002   -1    0    0    0    0 -0.00000000000E+00 -0.00000000000E+00  0.00000000000E+00  0.93800000000E+00  0.93800000000E+00 0.  1.
         11    1    1    2    0    0  0.15275898695E+00 -0.41539706710E+00  0.12351031274E+01  0.13120099191E+01  0.51100000000E-03 0.  1.
    9000002    1    1    2    0    0 -0.35680886149E+00  0.15834874636E+00  0.19414146480E+00  0.10343702420E+01  0.93800000000E+00 0.  1.
         22    1    1    2    0    0  0.20404987455E+00  0.25704832073E+00  0.25707553752E+01  0.25916198389E+01  0.00000000000E+00 0. -1.
</event>
<event>
 5    1  0.6076093E+001  0.1577586E+01  0.7818608E-02  0.3378056E+00
         11   -1    0    0    0    0  0.00000000000E+00  0.00000000000E+00  0.39999999674E+01  0.40000000000E+01  0.51100000000E-03 0.  1.
    9000002   -1    0    0    0    0 -0.00000000000E+00 -0.00000000000E+00  0.00000000000E+00  0.93800000000E+00  0.93800000000E+00 0.  1.
         11    1    1    2    0    0 -0.28551446809E-01  0.59239789682E-01  0.77951933441E+00  0.78228843251E+00  0.51100000000E-03 0.  1.
    9000002    1    1    2    0    0 -0.23933845503E+00  0.30826851824E+00  0.12110032870E+00  0.10231430325E+01  0.93800000000E+00 0.  1.
         22    1    1    2    0    0  0.26788990184E+00 -0.36750830793E+00  0.30993803042E+01  0.31325685350E+01  0.00000000000E+00 0.  1.
</event>
<event>
 5    1  0.6076093E+001  0.1599641E+01  0.7818608E-02  0.3353753E+00
         11   -1    0    0    0    0  0.00000000000E+00  0.00000000000E+00  0.39999999674E+01  0.40000000000E+01  0.51100000000E-03 0. -1.
    9000002   -1    0    0    0    0 -0.00000000000E+00 -0.00000000000E+00  0.00000000000E+00  0.93800000000E+00  0.93800000000E+00 0. -1.
         11    1    1    2    0    0  0.60000179998E-01 -0.11814890999E-01  0.30167068026E+00  0.30780687728E+00  0.51100000000E-03 0. -1.
    9000002    1    1    2    0    0 -0.67965792652E+00  0.15469166313E+00  0.34699929284E+00  0.12190639511E+01  0.93800000000E+00 0. -1.
         22    1    1    2    0    0  0.61965774652E+00 -0.14287677213E+00  0.33513299943E+01  0.34111291716E+01  0.00000000000E+00 0. -1.
</event>
<event>
 5    1  0.6076093E+001  0.1597779E+01  0.7818608E-02  0.3355778E+00
         11   -1    0    0    0    0  0.00000000000E+00  0.00000000000E+00  0.39999999674E+01  0.40000000000E+01  0.51100000000E-03 0. -1.
    9000002   -1    0    0    0    0 -0.00000000000E+00 -0.00000000000E+00  0.00000000000E+00  0.93800000000E+00  0.93800000000E+00 0.  1.
         11    1    1    2    0    0 -0.64082982926E-01 -0.48781970621E-01  0.83439693748E+00  0.83827490703E+00  0.51100000000E-03 0. -1.
    9000002    1    1    2    0    0  0.35124959278E+00  0.41155217224E+00  0.20364272256E+00  0.11018465525E+01  0.93800000000E+00 0.  1.
         22    1    1    2    0    0 -0.28716660985E+00 -0.36277020162E+00  0.29619603073E+01  0.29978785404E+01  0.00000000000E+00 0. -1.
</event>
<event>
 5    1  0.6076093E+001  0.1599677E+01  0.7818608E-02  0.3353714E+00
         11   -1    0    0    0    0  0.00000000000E+00  0.00000000000E+00  0.39999999674E+01  0.40000000000E+01  0.51100000000E-03 0. -1.
    9000002   -1    0    0    0    0 -0.00000000000E+00 -0.00000000000E+00  0.00000000000E+00  0.93800000000E+00  0.93800000000E+00 0.  1.
         11    1    1    2    0    0 -0.87939712529E-01 -0.25351688927E+00  0.14146250912E+01  0.14398502061E+01  0.51100000000E-03 0. -1.
    9000002    1    1    2    0    0  0.22835243299E+00  0.65639354298E+00  0.34472315874E+00  0.12172408854E+01  0.93800000000E+00 0.  1.
         22    1    1    2    0    0 -0.14041272046E+00 -0.40287665371E+00  0.22406517174E+01  0.22809089085E+01  0.00000000000E+00 0. -1.
</event>
<event>
 5    1  0.6076093E+001  0.1599675E+01  0.7818608E-02  0.3353716E+00
         11   -1    0    0    0    0  0.00000000000E+00  0.00000000000E+00  0.39999999674E+01  0.40000000000E+01  0.51100000000E-03 0. -1.
    9000002   -1    0    0    0    0 -0.00000000000E+00 -0.00000000000E+00  0.00000000000E+00  0.93800000000E+00  0.93800000000E+00 0.  1.
         11    1    1    2    0    0  0.68013199663E-01 -0.22826103356E-01  0.73422057385E+00  0.73771738390E+00  0.51100000000E-03 0. -1.
    9000002    1    1    2    0    0 -0.36056673266E+00  0.11429575624E+00  0.96245939618E-01  0.10159621890E+01  0.93800000000E+00 0.  1.
         22    1    1    2    0    0  0.29255353300E+00 -0.91469652881E-01  0.31695334539E+01  0.31843204271E+01  0.00000000000E+00 0. -1.
</event>
<event>
 5    1  0.6234485E+001  0.1599673E+01  0.7818608E-02  0.3353719E+00
         11   -1    0    0    0    0  0.00000000000E+00  0.00000000000E+00  0.39999999674E+01  0.40000000000E+01  0.51100000000E-03 0. -1.
    9000002   -1    0    0    0    0 -0.00000000000E+00 -0.00000000000E+00  0.00000000000E+00  0.93800000000E+00  0.93800000000E+00 0. -1.
         11    1    1    2    0    0 -0.14832180100E+00  0.21688418639E+00  0.14380790273E+01  0.14618856511E+01  0.51100000000E-03 0. -1.
    9000002    1    1    2    0    0  0.38093686335E+00 -0.56016588628E+00  0.32603232336E+00  0.12020980783E+01  0.93800000000E+00 0. -1.
         22    1    1    2    0    0 -0.23261506235E+00  0.34328169989E+00  0.22358886167E+01  0.22740162706E+01  0.00000000000E+00 0. -1.
</event>
<event>
 5    1  0.6076093E+001  0.1599674E+01  0.7818608E-02  0.3353717E+00
         11   -1    0    0    0    0  0.00000000000E+00  0.00000000000E+00  0.39999999674E+01  0.40000000000E+01  0.51100000000E-03 0. -1.
    9000002   -1    0    0    0    0 -0.00000000000E+00 -0.00000000000E+00  0.00000000000E+00  0.93800000000E+00  0.93800000000E+00 0.  1.
         11    1    1    2    0    0 -0.34140909341E-01  0.21422346188E-01  0.34556794200E+00  0.34791088264E+00  0.51100000000E-03 0. -1.
    9000002    1    1    2    0    0  0.38266072231E+00 -0.25079509087E+00  0.14233365110E+00  0.10532949607E+01  0.93800000000E+00 0.  1.
         22    1    1    2    0    0 -0.34851981297E+00  0.22937274468E+00  0.35120983743E+01  0.35367941567E+01  0.00000000000E+00 0. -1.
</event>
<event>
 5    1  0.6878690E+001  0.1587318E+01  0.7818608E-02  0.3367244E+00
         11   -1    0    0    0    0  0.00000000000E+00  0.00000000000E+00  0.39999999674E+01  0.40000000000E+01  0.51100000000E-03 0.  1.
    9000002   -1    0    0    0    0 -0.00000000000E+00 -0.00000000000E+00  0.00000000000E+00  0.93800000000E+00  0.93800000000E+00 0.  1.
         11    1    1    2    0    0 -0.10564933771E+00 -0.31547412160E-01  0.13357273464E+01  0.13402704305E+01  0.51100000000E-03 0.  1.
    9000002    1    1    2    0    0 -0.36845645231E-01  0.22789088455E+00  0.44780170665E-01  0.96702694922E+00  0.93800000000E+00 0.  1.
         22    1    1    2    0    0  0.14249498294E+00 -0.19634347239E+00  0.26194924503E+01  0.26307026203E+01  0.00000000000E+00 0.  1.
</event>
<event>
 5    1  0.6076093E+001  0.1599675E+01  0.7818608E-02  0.3353717E+00
         11   -1    0    0    0    0  0.00000000000E+00  0.00000000000E+00  0.39999999674E+01  0.40000000000E+01  0.51100000000E-03 0.  1.
    9000002   -1    0    0    0    0 -0.00000000000E+00 -0.00000000000E+00  0.00000000000E+00  0.93800000000E+00  0.93800000000E+00 0. -1.
         11    1    1    2    0    0 -0.14834257541E-01  0.48278509191E-02  0.86666719552E-01  0.88061028499E-01  0.51100000000E-03 0. -1.
    9000002    1    1    2    0    0  0.62248508378E+00 -0.21372110342E+00  0.30626860343E+00  0.11860897298E+01  0.93800000000E+00 0. -1.
         22    1    1    2    0    0 -0.60765082624E+00  0.20889325250E+00  0.36070646444E+01  0.36638492417E+01  0.00000000000E+00 0.  1.
</event>
<event>
 5    1  0.6076093E+001  0.1597244E+01  0.7818608E-02  0.3356360E+00
         11   -1    0    0    0    0  0.00000000000E+00  0.00000000000E+00  0.39999999674E+01  0.40000000000E+01  0.51100000000E-03 0. -1.
    9000002   -1    0    0    0    0 -0.00000000000E+00 -0.00000000000E+00  0.00000000000E+00  0.93800000000E+00  0.93800000000E+00 0. -1.
         11    1    1    2    0    0 -0.10927291356E-01  0.10509578089E+00  0.14663831440E+01  0.14701851294E+01  0.51100000000E-03 0. -1.
    9000002    1    1    2    0    0  0.13949880531E+00 -0.38422187075E+00  0.11487075501E+00  0.10296240348E+01  0.93800000000E+00 0. -1.
         22    1    1    2    0    0 -0.12857151395E+00  0.27912608986E+00  0.24187460684E+01  0.24381908358E+01  0.00000000000E+00 0. -1.
</event>
<event>
 5    1  0.6076093E+001  0.1599673E+01  0.7818608E-02  0.3353719E+00
         11   -1    0    0    0    0  0.00000000000E+00  0.00000000000E+00  0.39999999674E+01  0.40000000000E+01  0.51100000000E-03 0. -1.
    9000002   -1    0    0    0    0 -0.00000000000E+00 -0.00000000000E+00  0.00000000000E+00  0.93800000000E+00  0.93800000000E+00 0.  1.
         11    1    1    2    0    0  0.40628594943E-02 -0.10784801153E+00  0.64528916209E+00  0.65425229404E+00  0.51100000000E-03 0. -1.
    9000002    1    1    2    0    0 -0.15821394156E-01  0.62949131487E+00  0.27847201235E+00  0.11635722125E+01  0.93800000000E+00 0.  1.
         22    1    1    2    0    0  0.11758534662E-01 -0.52164330334E+00  0.30762387929E+01  0.31201754935E+01  0.00000000000E+00 0. -1.
</event>
<event>
 5    1  0.6076093E+001  0.1473092E+01  0.7818608E-02  0.3503779E+00
         11   -1    0    0    0    0  0.00000000000E+00  0.00000000000E+00  0.39999999674E+01  0.40000000000E+01  0.51100000000E-03 0. -1.
    9000002   -1    0    0    0    0 -0.00000000000E+00 -0.00000000000E+00  0.00000000000E+00  0.93800000000E+00  0.93800000000E+00 0.  1.
         11    1    1    2    0    0  0.29431013879E+00 -0.20793509469E+00  0.78895269293E+00  0.86735348861E+00  0.51100000000E-03 0. -1.
    9000002    1    1    2    0    0 -0.90302215532E-01 -0.29228903913E-01  0.10469926376E+00  0.94858566023E+00  0.93800000000E+00 0.  1.
         22    1    1    2    0    0 -0.20400792326E+00  0.23716399860E+00  0.31063480107E+01  0.31220608512E+01  0.00000000000E+00 0. -1.
</event>
<event>
 5    1  0.6076093E+001  0.1599677E+01  0.7818608E-02  0.3353714E+00
         11   -1    0    0    0    0  0.00000000000E+00  0.00000000000E+00  0.39999999674E+01  0.40000000000E+01  0.51100000000E-03 0.  1.
    9000002   -1    0    0    0    0 -0.00000000000E+00 -0.00000000000E+00  0.00000000000E+00  0.93800000000E+00  0.93800000000E+00 0.  1.
         11    1    1    2    0    0  0.14172810541E+00  0.48096917046E-01  0.96792903388E+00  0.97943200123E+00  0.51100000000E-03 0.  1.
    9000002    1    1    2    0    0 -0.55271285359E+00 -0.18795880013E+00  0.23698335865E+00  0.11299668674E+01  0.93800000000E+00 0.  1.
         22    1    1    2    0    0  0.41098474818E+00  0.13986188309E+00  0.27950875748E+01  0.28286011314E+01  0.00000000000E+00 0.  1.
</event>
<event>
 5    1  0.6076093E+001  0.1586201E+01  0.7818608E-02  0.3368477E+00
         11   -1    0    0    0    0  0.00000000000E+00  0.00000000000E+00  0.39999999674E+01  0.40000000000E+01  0.51100000000E-03 0.  1.
    9000002   -1    0    0    0    0 -0.00000000000E+00 -0.00000000000E+00  0.00000000000E+00  0.93800000000E+00  0.93800000000E+00 0.  1.
         11    1    1    2    0    0 -0.33709764297E-01  0.11776756618E+00  0.11646103467E+01  0.11710350416E+01  0.51100000000E-03 0.  1.
    9000002    1    1    2    0    0  0.29920942347E+00 -0.89433391069E-02  0.70392963446E-01  0.98711976564E+00  0.93800000000E+00 0.  1.
         22    1    1    2    0    0 -0.26549965917E+00 -0.10882422708E+00  0.27649966572E+01  0.27798451928E+01  0.00000000000E+00 0.  1.
</event>
<event>
 5    1  0.6076093E+001  0.1599416E+01  0.7818608E-02  0.3353998E+00
         11   -1    0    0    0    0  0.00000000000E+00  0.00000000000E+00  0.39999999674E+01  0.40000000000E+01  0.51100000000E-03 0. -1.
    9000002   -1    0    0    0    0 -0.00000000000E+00 -0.00000000000E+00  0.00000000000E+00  0.93800000000E+00  0.93800000000E+00 0.  1.
         11    1    1    2    0    0 -0.10336118714E+00 -0.87440768833E-01  0.13638451371E+01  0.13705485187E+01  0.51100000000E-03 0. -1.
    9000002    1    1    2    0    0  0.31385613423E+00  0.20041710604E+00  0.93432913427E-01  0.10135316466E+01  0.93800000000E+00 0.  1.
         22    1    1    2    0    0 -0.21049494709E+00 -0.11297633721E+00  0.25427219168E+01  0.25539198347E+01  0.00000000000E+00 0. -1.
</event>
<event>
 5    1  0.6076093E+001  0.1599154E+01  0.7818608E-02  0.3354282E+00
         11   -1    0    0    0    0  0.00000000000E+00  0.00000000000E+00  0.39999999674E+01  0.40000000000E+01  0.51100000000E-03 0. -1.
    9000002   -1    0    0    0    0 -0.00000000000E+00 -0.00000000000E+00  0.00000000000E+00  0.93800000000E+00  0.93800000000E+00 0.  1.
         11    1    1    2    0    0  0.76391002513E-01 -0.12687716732E+00  0.12849332407E+01  0.12934400237E+01  0.51100000000E-03 0. -1.
    9000002    1    1    2    0    0 -0.24298841842E+00  0.30688149430E+00  0.10367024557E+00  0.10216707605E+01  0.93800000000E+00 0.  1.
         22    1    1    2    0    0  0.16659741591E+00 -0.18000432698E+00  0.26113964811E+01  0.26228892158E+01  0.00000000000E+00 0. -1.
</event>
<event>
 5    1  0.6076093E+001  0.1599120E+01  0.7818608E-02  0.3354319E+00
         11   -1    0    0    0    0  0.00000000000E+00  0.00000000000E+00  0.39999999674E+01  0.40000000000E+01  0.51100000000E-03 0. -1.
    9000002   -1    0    0    0    0 -0.00000000000E+00 -0.00000000000E+00  0.00000000000E+00  0.93800000000E+00  0.93800000000E+00 0.  1.
         11    1    1    2    0    0  0.96404921214E-01  0.50421229103E-01  0.73152110295E+00  0.73956716690E+00  0.51100000000E-03 0. -1.
    9000002    1    1    2    0    0 -0.39574099943E+00 -0.22950410163E+00  0.14278398736E+00  0.10533348652E+01  0.93800000000E+00 0.  1.
         22    1    1    2    0    0  0.29933607821E+00  0.17908287252E+00  0.31256948771E+01  0.31450979679E+01  0.00000000000E+00 0. -1.
</event>
<event>
 5    1  0.6076093E+001  0.1599197E+01  0.7818608E-02  0.3354235E+00
         11   -1    0    0    0    0  0.00000000000E+00  0.00000000000E+00  0.39999999674E+01  0.40000000000E+01  0.51100000000E-03 0.  1.
    9000002   -1    0    0    0    0 -0.00000000000E+00 -0.00000000000E+00  0.00000000000E+00  0.93800000000E+00  0.93800000000E+00 0.  1.
         11    1    1    2    0    0 -0.13051365289E+00  0.77504133852E-01  0.14192128438E+01  0.14273072764E+01  0.51100000000E-03 0.  1.
    9000002    1    1    2    0    0  0.39071303760E+00 -0.15130275389E+00  0.11911316032E+00  0.10342055628E+01  0.93800000000E+00 0.  1.
         22    1    1    2    0    0 -0.26019938471E+00  0.73798620042E-01  0.24616739633E+01  0.24764871608E+01  0.00000000000E+00 0.  1.
</event>
<event>
 5    1  0.6076093E+001  0.1599247E+01  0.7818608E-02  0.3354181E+00
         11   -1    0    0    0    0  0.00000000000E+00  0.00000000000E+00  0.39999999674E+01  0.40000000000E+01  0.51100000000E-03 0.  1.
    9000002   -1    0    0    0    0 -0.00000000000E+00 -0.00000000000E+00  0.00000000000E+00  0.93800000000E+00  0.93800000000E+00 0. -1.
         11    1    1    2    0    0 -0.10823352158E+00 -0.84019969453E-01  0.12388622553E+01  0.12464163827E+01  0.51100000000E-03 0.  1.
    9000002    1    1    2    0    0  0.36661285371E+00  0.32558580185E+00  0.16469465127E+00  0.10711579842E+01  0.93800000000E+00 0. -1.
         22    1    1    2    0    0 -0.25837933213E+00 -0.24156583239E+00  0.25964430608E+01  0.26204256331E+01  0.00000000000E+00 0.  1.
</event>
<event>
 5    1  0.6076093E+001  0.1560564E+01  0.7818608E-02  0.3397311E+00
         11   -1    0    0    0    0  0.00000000000E+00  0.00000000000E+00  0.39999999674E+01  0.40000000000E+01  0.51100000000E-03 0. -1.
    9000002   -1    0    0    0    0 -0.00000000000E+00 -0.00000000000E+00  0.00000000000E+00  0.93800000000E+00  0.93800000000E+00 0.  1.
         11    1    1    2    0    0 -0.49674693368E-01  0.10394684133E+00  0.87208140085E+00  0.87965831537E+00  0.51100000000E-03 0. -1.
    9000002    1    1    2    0    0 -0.62802507290E+00 -0.28500869740E+00  0.38364691032E+00  0.12258362050E+01  0.93800000000E+00 0.  1.
         22    1    1    2    0    0  0.67769976627E+00  0.18106185606E+00  0.27442716562E+01  0.28325054796E+01  0.00000000000E+00 0. -1.
</event>
<event>
 5    1  0.6076093E+001  0.1599677E+01  0.7818608E-02  0.3353714E+00
         11   -1    0    0    0    0  0.00000000000E+00  0.00000000000E+00  0.39999999674E+01  0.40000000000E+01  0.51100000000E-03 0. -1.
    9000002   -1    0    0    0    0 -0.00000000000E+00 -0.00000000000E+00  0.00000000000E+00  0.93800000000E+00  0.93800000000E+00 0. -1.
         11    1    1    2    0    0  0.82799917426E-01  0.10917220158E+00  0.13654195867E+01  0.13722774154E+01  0.51100000000E-03 0. -1.
    9000002    1    1    2    0    0 -0.23782972374E+00 -0.31121275593E+00  0.10337352105E+00  0.10217369729E+01  0.93800000000E+00 0. -1.
         22    1    1    2    0    0  0.15502980631E+00  0.20204055435E+00  0.25312068596E+01  0.25439856117E+01  0.00000000000E+00 0. -1.
</event>
<event>
 5    1  0.6076093E+001  0.1578391E+01  0.7818608E-02  0.3377157E+00
         11   -1    0    0    0    0  0.00000000000E+00  0.00000000000E+00  0.39999999674E+01  0.40000000000E+01  0.51100000000E-03 0. -1.
    9000002   -1    0    0    0    0 -0.00000000000E+00 -0.00000000000E+00  0.00000000000E+00  0.93800000000E+00  0.93800000000E+00 0.  1.
         11    1    1    2    0    0  0.24643326757E+00 -0.24537950458E+00  0.12284764054E+01  0.12767517363E+01  0.51100000000E-03 0. -1.
    9000002    1    1    2    0    0 -0.53417211376E+00  0.28355723957E+00  0.27703511968E+00  0.11499291338E+01  0.93800000000E+00 0.  1.
         22    1    1    2    0    0  0.28773884619E+00 -0.38177734989E-01  0.24944884423E+01  0.25113191299E+01  0.00000000000E+00 0. -1.
</event>
<event>
 5    1  0.6076093E+001  0.1599611E+01  0.7818608E-02  0.3353786E+00
         11   -1    0    0    0    0  0.00000000000E+00  0.00000000000E+00  0.39999999674E+01  0.40000000000E+01  0.51100000000E-03 0.  1.
    9000002   -1    0    0    0    0 -0.00000000000E+00 -0.00000000000E+00  0.00000000000E+00  0.93800000000E+00  0.93800000000E+00 0. -1.
         11    1    1    2    0    0  0.19164026576E-02 -0.89890839818E-03  0.21965231591E-01  0.22072905457E-01  0.51100000000E-03 0.  1.
    9000002    1    1    2    0    0 -0.15933856961E+00  0.32297358561E+00  0.87118090766E-01  0.10085307524E+01  0.93800000000E+00 0. -1.
         22    1    1    2    0    0  0.15742216695E+00 -0.32207467722E+00  0.38909166450E+01  0.39073963422E+01  0.00000000000E+00 0.  1.
</event>
<event>
 5    1  0.6076093E+001  0.1599632E+01  0.7818608E-02  0.3353763E+00
         11   -1    0    0    0    0  0.00000000000E+00  0.00000000000E+00  0.39999999674E+01  0.40000000000E+01  0.51100000000E-03 0.  1.
    9000002   -1    0    0    0    0 -0.00000000000E+00 -0.00000000000E+00  0.00000000000E+00  0.93800000000E+00  0.93800000000E+00 0. -1.
         11    1    1    2    0    0  0.48499026481E-01  0.21085110625E+00  0.13974660779E+01  0.14141152869E+01  0.51100000000E-03 0.  1.
    9000002    1    1    2    0    0 -0.12964001760E+00 -0.58668820397E+00  0.25196600065E+00  0.11420772515E+01  0.93800000000E+00 0. -1.
         22    1    1    2    0    0  0.81140991120E-01  0.37583709773E+00  0.23505678888E+01  0.23818074617E+01  0.00000000000E+00 0.  1.
</event>
<event>
 5    1  0.6076093E+001  0.1590752E+01  0.7818608E-02  0.3363462E+00
         11   -1    0    0    0    0  0.00000000000E+00  0.00000000000E+00  0.39999999674E+01  0.40000000000E+01  0.51100000000E-03 0.  1.
    9000002   -1    0    0    0    0 -0.00000000000E+00 -0.00000000000E+00  0.00000000000E+00  0.93800000000E+00  0.93800000000E+00 0. -1.
         11    1    1    2    0    0  0.51902237982E-01 -0.11355720469E+00  0.12852234524E+01  0.12912740471E+01  0.51100000000E-03 0.  1.
    9000002    1    1    2    0    0  0.16048255478E+00  0.28046149500E+00  0.76919556903E-01  0.99507483075E+00  0.93800000000E+00 0. -1.
         22    1    1    2    0    0 -0.21238479276E+00 -0.16690429031E+00  0.26378569581E+01  0.26516511221E+01  0.00000000000E+00 0.  1.
</event>
<event>
 5    1  0.6076093E+001  0.1599653E+01  0.7818608E-02  0.3353740E+00
         11   -1    0    0    0    0  0.00000000000E+00  0.00000000000E+00  0.39999999674E+01  0.40000000000E+01  0.51100000000E-03 0. -1.
    9000002   -1    0    0    0    0 -0.00000000000E+00 -0.00000000000E+00  0.00000000000E+00  0.93800000000E+00  0.93800000000E+00 0.  1.
         11    1    1    2    0    0 -0.93793289658E-01 -0.77095101640E-01  0.11422547808E+01  0.11486892884E+01  0.51100000000E-03 0. -1.
    9000002    1    1    2    0    0  0.30188388918E+00  0.25906623913E+00  0.10673184133E+00  0.10244436953E+01  0.93800000000E+00 0.  1.
         22    1    1    2    0    0 -0.20809059952E+00 -0.18197113749E+00  0.27510133452E+01  0.27648670164E+01  0.00000000000E+00 0. -1.
</event>
<event>
 5    1  0.6076093E+001  0.1550170E+01  0.7818608E-02  0.3409289E+00
         11   -1    0    0    0    0  0.00000000000E+00  0.00000000000E+00  0.39999999674E+01  0.40000000000E+01  0.51100000000E-03 0. -1.
    9000002   -1    0    0    0    0 -0.00000000000E+00 -0.00000000000E+00  0.00000000000E+00  0.93800000000E+00  0.93800000000E+00 0.  1.
         11    1    1    2    0    0 -0.44470564465E-02 -0.17165688190E+00  0.71219984293E+00  0.73260817550E+00  0.51100000000E-03 0. -1.
    9000002    1    1    2    0    0  0.46456002337E-01 -0.19254822787E+00  0.64007309054E-01  0.96081939813E+00  0.93800000000E+00 0.  1.
         22    1    1    2    0    0 -0.42008945890E-01  0.36420510977E+00  0.32237928154E+01  0.32445724264E+01  0.00000000000E+00 0. -1.
</event>
<event>
 5    1  0.6076093E+001  0.1599413E+01  0.7818608E-02  0.3354001E+00
         11   -1    0    0    0    0  0.00000000000E+00  0.00000000000E+00  0.39999999674E+01  0.40000000000E+01  0.51100000000E-03 0.  1.
    9000002   -1    0    0    0    0 -0.00000000000E+00 -0.00000000000E+00  0.00000000000E+00  0.93800000000E+00  0.93800000000E+00 0. -1.
         11    1    1    2    0    0  0.80315209694E-01  0.55139898698E-01  0.61483106613E+00  0.62250176091E+00  0.51100000000E-03 0.  1.
    9000002    1    1    2    0    0 -0.41200803794E+00 -0.31644349268E+00  0.18561597502E+00  0.10882023698E+01  0.93800000000E+00 0. -1.
         22    1    1    2    0    0  0.33169282825E+00  0.26130359398E+00  0.31995529262E+01  0.32272958693E+01  0.00000000000E+00 0.  1.
</event>
<event>
 5    1  0.6076093E+001  0.1502474E+01  0.7818608E-02  0.3466530E+00
         11   -1    0    0    0    0  0.00000000000E+00  0.00000000000E+00  0.39999999674E+01  0.40000000000E+01  0.51100000000E-03 0. -1.
    9000002   -1    0    0    0    0 -0.00000000000E+00 -0.00000000000E+00  0.00000000000E+00  0.93800000000E+00  0.93800000000E+00 0. -1.
         11    1    1    2    0    0 -0.28864059978E+00 -0.22104524768E+00  0.10742510959E+01  0.11341032032E+01  0.51100000000E-03 0. -1.
    9000002    1    1    2    0    0  0.19326080646E+00 -0.75862107073E-01  0.10552142354E+00  0.96647998915E+00  0.93800000000E+00 0. -1.
         22    1    1    2    0    0  0.95379793317E-01  0.29690735475E+00  0.28202274480E+01  0.28374168077E+01  0.00000000000E+00 0. -1.
</event>
<event>
 5    1  0.6076093E+001  0.1599676E+01  0.7818608E-02  0.3353715E+00
         11   -1    0    0    0    0  0.00000000000E+00  0.00000000000E+00  0.39999999674E+01  0.40000000000E+01  0.51100000000E-03 0.  1.
    9000002   -1    0    0    0    0 -0.00000000000E+00 -0.00000000000E+00  0.00000000000E+00  0.93800000000E+00  0.93800000000E+00 0.  1.
         11    1    1    2    0    0 -0.39053985939E-01 -0.10595123196E-01  0.36600607677E+00  0.36823658130E+00  0.51100000000E-03 0.  1.
    9000002    1    1    2    0    0  0.41709362444E+00  0.11329106188E+00  0.12654881317E+00  0.10405097589E+01  0.93800000000E+00 0.  1.
         22    1    1    2    0    0 -0.37803963850E+00 -0.10269593868E+00  0.35074450774E+01  0.35292536598E+01  0.00000000000E+00 0.  1.
</event>
<event>
 5    1  0.6076093E+001  0.1599675E+01  0.7818608E-02  0.3353716E+00
         11   -1    0    0    0    0  0.00000000000E+00  0.00000000000E+00  0.39999999674E+01  0.40000000000E+01  0.51100000000E-03 0.  1.
    9000002   -1    0    0    0    0 -0.00000000000E+00 -0.00000000000E+00  0.00000000000E+00  0.93800000000E+00  0.93800000000E+00 0.  1.
         11    1    1    2    0    0  0.24915644037E+00 -0.10893535521E+00  0.14451718358E+01  0.14705331481E+01  0.51100000000E-03 0.  1.
    9000002    1    1    2    0    0 -0.62867195676E+00  0.27938193202E+00  0.33716623009E+00  0.12111183922E+01  0.93800000000E+00 0.  1.
         22    1    1    2    0    0  0.37951551639E+00 -0.17044657681E+00  0.22176619014E+01  0.22563484597E+01  0.00000000000E+00 0.  1.
</event>
<event>
 5    1  0.6076093E+001  0.1599670E+01  0.7818608E-02  0.3353721E+00
         11   -1    0    0    0    0  0.00000000000E+00  0.00000000000E+00  0.39999999674E+01  0.40000000000E+01  0.51100000000E-03 0.  1.
    9000002   -1    0    0    0    0 -0.00000000000E+00 -0.00000000000E+00  0.00000000000E+00  0.93800000000E+00  0.93800000000E+00 0. -1.
         11    1    1    2    0    0 -0.97185629207E-02  0.43823078096E-02  0.97241073793E-01  0.97825061413E-01  0.51100000000E-03 0.  1.
    9000002    1    1    2    0    0  0.38495478145E+00 -0.14212257292E+00  0.11374054419E+00  0.10301310212E+01  0.93800000000E+00 0. -1.
         22    1    1    2    0    0 -0.37523621853E+00  0.13774026511E+00  0.37890183494E+01  0.38100439174E+01  0.00000000000E+00 0.  1.
</event>
<event>
 5    1  0.6076093E+001  0.1557735E+01  0.7818608E-02  0.3400554E+00
         11   -1    0    0    0    0  0.00000000000E+00  0.00000000000E+00  0.39999999674E+01  0.40000000000E+01  0.51100000000E-03 0. -1.
    9000002   -1    0    0    0    0 -0.00000000000E+00 -0.00000000000E+00  0.00000000000E+00  0.93800000000E+00  0.93800000000E+00 0.  1.
         11    1    1    2    0    0  0.55399138393E-01 -0.16749425112E+00  0.75901394923E+00  0.77924696018E+00  0.51100000000E-03 0. -1.
    9000002    1    1    2    0    0  0.23410963644E+00  0.25630866962E-02  0.68914351208E-01  0.96923014764E+00  0.93800000000E+00 0.  1.
         22    1    1    2    0    0 -0.28950877483E+00  0.16493116443E+00  0.31720716669E+01  0.31895228922E+01  0.00000000000E+00 0. -1.
</event>
<event>
 5    1  0.6076093E+001  0.1535747E+01  0.7818608E-02  0.3426197E+00
         11   -1    0    0    0    0  0.00000000000E+00  0.00000000000E+00  0.39999999674E+01  0.40000000000E+01  0.51100000000E-03 0.  1.
    9000002   -1    0    0    0    0 -0.00000000000E+00 -0.00000000000E+00  0.00000000000E+00  0.93800000000E+00  0.93800000000E+00 0. -1.
         11    1    1    2    0    0 -0.29880033201E-01 -0.18870493345E+00  0.80221186510E+00  0.82464932299E+00  0.51100000000E-03 0.  1.
    9000002    1    1    2    0    0  0.27311953467E+00 -0.27411393363E+00  0.15557790317E+00  0.10265384614E+01  0.93800000000E+00 0. -1.
         22    1    1    2    0    0 -0.24323950147E+00  0.46281886707E+00  0.30422101991E+01  0.30868122156E+01  0.00000000000E+00 0.  1.
</event>
<event>
 5    1  0.6076093E+001  0.1599666E+01  0.7818608E-02  0.3353726E+00
         11   -1    0    0    0    0  0.00000000000E+00  0.00000000000E+00  0.39999999674E+01  0.40000000000E+01  0.51100000000E-03 0.  1.
    9000002   -1    0    0    0    0 -0.00000000000E+00 -0.00000000000E+00  0.00000000000E+00  0.93800000000E+00  0.93800000000E+00 0.  1.
         11    1    1    2    0    0  0.16891723667E+00 -0.32790206198E-01  0.14836924328E+01  0.14936370800E+01  0.51100000000E-03 0.  1.
    9000002    1    1    2    0    0 -0.43786192035E+00  0.95142031659E-01  0.13633393852E+00  0.10484302601E+01  0.93800000000E+00 0.  1.
         22    1    1    2    0    0  0.26894468367E+00 -0.62351825460E-01  0.23799735960E+01  0.23959326599E+01  0.00000000000E+00 0.  1.
</event>
<event>
 5    1  0.6076093E+001  0.1499428E+01  0.7818608E-02  0.3470318E+00
         11   -1    0    0    0    0  0.00000000000E+00  0.00000000000E+00  0.39999999674E+01  0.40000000000E+01  0.51100000000E-03 0. -1.
    9000002   -1    0    0    0    0 -0.00000000000E+00 -0.00000000000E+00  0.00000000000E+00  0.93800000000E+00  0.93800000000E+00 0. -1.
         11    1    1    2    0    0 -0.53940557093E-01 -0.53896638491E-01  0.89573948712E-02  0.76778430461E-01  0.51100000000E-03 0. -1.
    9000002    1    1    2    0    0 -0.25251533483E+00 -0.15570131122E+00  0.14161947547E+00  0.99393509269E+00  0.93800000000E+00 0. -1.
         22    1    1    2    0    0  0.30645589192E+00  0.20959794971E+00  0.38494230970E+01  0.38672864769E+01  0.00000000000E+00 0. -1.
</event>
<event>
 5    1  0.6076093E+001  0.1599675E+01  0.7818608E-02  0.3353716E+00
         11   -1    0    0    0    0  0.00000000000E+00  0.00000000000E+00  0.39999999674E+01  0.40000000000E+01  0.51100000000E-03 0. -1.
    9000002   -1    0    0    0    0 -0.00000000000E+00 -0.00000000000E+00  0.00000000000E+00  0.93800000000E+00  0.93800000000E+00 0. -1.
         11    1    1    2    0    0 -0.61041130180E-01 -0.24886182796E-01  0.41603219849E+00  0.42122249817E+00  0.51100000000E-03 0. -1.
    9000002    1    1    2    0    0  0.54234967463E+00  0.22318170238E+00  0.23929609362E+00  0.11318391503E+01  0.93800000000E+00 0. -1.
         22    1    1    2    0    0 -0.48130854444E+00 -0.19829551959E+00  0.33446716753E+01  0.33849383515E+01  0.00000000000E+00 0. -1.
</event>
<event>
 5    1  0.6076093E+001  0.1574390E+01  0.7818608E-02  0.3381637E+00
         11   -1    0    0    0    0  0.00000000000E+00  0.00000000000E+00  0.39999999674E+01  0.40000000000E+01  0.51100000000E-03 0. -1.
    9000002   -1    0    0    0    0 -0.00000000000E+00 -0.00000000000E+00  0.00000000000E+00  0.93800000000E+00  0.93800000000E+00 0.  1.
         11    1    1    2    0    0 -0.10040698428E-01  0.10231441855E+00  0.10227950080E+01  0.10279489021E+01  0.51100000000E-03 0. -1.
    9000002    1    1    2    0    0  0.35608503404E+00  0.16694171661E+00  0.12548406145E+00  0.10248201490E+01  0.93800000000E+00 0.  1.
         22    1    1    2    0    0 -0.34604433561E+00 -0.26925613516E+00  0.28517208979E+01  0.28852309488E+01  0.00000000000E+00 0. -1.
</event>
<event>
 5    1  0.6076093E+001  0.1579464E+01  0.7818608E-02  0.3375959E+00
         11   -1    0    0    0    0  0.00000000000E+00  0.00000000000E+00  0.39999999674E+01  0.40000000000E+01  0.51100000000E-03 0. -1.
    9000002   -1    0    0    0    0 -0.00000000000E+00 -0.00000000000E+00  0.00000000000E+00  0.93800000000E+00  0.93800000000E+00 0.  1.
         11    1    1    2    0    0 -0.16876837962E+00 -0.66596026774E-01  0.12160147930E+01  0.12294755120E+01  0.51100000000E-03 0. -1.
    9000002    1    1    2    0    0  0.54479050108E-01  0.36073846548E+00  0.10600805250E+00  0.10120187323E+01  0.93800000000E+00 0.  1.
         22    1    1    2    0    0  0.11428932951E+00 -0.29414243870E+00  0.26779771219E+01  0.26965057557E+01  0.00000000000E+00 0. -1.
</event>
<event>
 5    1  0.6076093E+001  0.1599067E+01  0.7818608E-02  0.3354377E+00
         11   -1    0    0    0    0  0.00000000000E+00  0.00000000000E+00  0.39999999674E+01  0.40000000000E+01  0.51100000000E-03 0.  1.
    9000002   -1    0    0    0    0 -0.00000000000E+00 -0.00000000000E+00  0.00000000000E+00  0.93800000000E+00  0.93800000000E+00 0. -1.
         11    1    1    2    0    0  0.50050830421E-01  0.42908803779E-01  0.87079647197E+00  0.87328861655E+00  0.51100000000E-03 0.  1.
    9000002    1    1    2    0    0 -0.33454957420E+00 -0.17771308480E+00  0.97043020132E-01  0.10162513005E+01  0.93800000000E+00 0. -1.
         22    1    1    2    0    0  0.28449874377E+00  0.13480428102E+00  0.30321604753E+01  0.30484600829E+01  0.00000000000E+00 0.  1.
</event>
<event>
 5    1  0.6076093E+001  0.1599666E+01  0.7818608E-02  0.3353726E+00
         11   -1    0    0    0    0  0.00000000000E+00  0.00000000000E+00  0.39999999674E+01  0.40000000000E+01  0.51100000000E-03 0.  1.
    9000002   -1    0    0    0    0 -0.00000000000E+00 -0.00000000000E+00  0.00000000000E+00  0.93800000000E+00  0.93800000000E+00 0.  1.
         11    1    1    2    0    0  0.35525331471E-01  0.10599923206E+00  0.73679665429E+00  0.74522980165E+00  0.51100000000E-03 0.  1.
    9000002    1    1    2    0    0 -0.19148671575E+00 -0.55410769855E+00  0.23912003102E+00  0.11316911651E+01  0.93800000000E+00 0.  1.
         22    1    1    2    0    0  0.15596138428E+00  0.44810846649E+00  0.30240832820E+01  0.30610790333E+01  0.00000000000E+00 0.  1.
</event>
<event>
 5    1  0.6076093E+001  0.1599652E+01  0.7818608E-02  0.3353741E+00
         11   -1    0    0    0    0  0.00000000000E+00  0.00000000000E+00  0.39999999674E+01  0.40000000000E+01  0.51100000000E-03 0. -1.
    9000002   -1    0    0    0    0 -0.00000000000E+00 -0.00000000000E+00  0.00000000000E+00  0.93800000000E+00  0.93800000000E+00 0.  1.
         11    1    1    2    0    0 -0.55109810259E-02 -0.10017602484E+00  0.10092556141E+01  0.10142301330E+01  0.51100000000E-03 0. -1.
    9000002    1    1    2    0    0  0.36390660407E-02  0.37754967913E+00  0.95910257807E-01  0.10156770060E+01  0.93800000000E+00 0.  1.
         22    1    1    2    0    0  0.18719149852E-02 -0.27737365429E+00  0.28948340954E+01  0.29080928610E+01  0.00000000000E+00 0. -1.
</event>
<event>
 5    1  0.6076093E+001  0.1596640E+01  0.7818608E-02  0.3357018E+00
         11   -1    0    0    0    0  0.00000000000E+00  0.00000000000E+00  0.39999999674E+01  0.40000000000E+01  0.51100000000E-03 0.  1.
    9000002   -1    0    0    0    0 -0.00000000000E+00 -0.00000000000E+00  0.00000000000E+00  0.93800000000E+00  0.93800000000E+00 0.  1.
         11    1    1    2    0    0  0.71924092534E-01  0.12808531639E+00  0.13947922182E+01  0.14025065121E+01  0.51100000000E-03 0.  1.
    9000002    1    1    2    0    0 -0.14521054400E+00 -0.51650012084E+00  0.20115877113E+00  0.10991666517E+01  0.93800000000E+00 0.  1.
         22    1    1    2    0    0  0.73286451464E-01  0.38841480445E+00  0.24040489780E+01  0.24363268363E+01  0.00000000000E+00 0.  1.
</event>
<event>
 5    1  0.6076093E+001  0.1599469E+01  0.7818608E-02  0.3353940E+00
         11   -1    0    0    0    0  0.00000000000E+00  0.00000000000E+00  0.39999999674E+01  0.40000000000E+01  0.51100000000E-03 0.  1.
    9000002   -1    0    0    0    0 -0.00000000000E+00 -0.00000000000E+00  0.00000000000E+00  0.93800000000E+00  0.93800000000E+00 0.  1.
         11    1    1    2    0    0 -0.15147414465E+00 -0.10071093846E+00  0.13261361908E+01  0.13385531619E+01  0.51100000000E-03 0.  1.
    9000002    1    1    2    0    0  0.41762120011E+00  0.24817450362E+00  0.16136132701E+00  0.10685876328E+01  0.93800000000E+00 0.  1.
         22    1    1    2    0    0 -0.26614705546E+00 -0.14746356516E+00  0.25125024496E+01  0.25308592054E+01  0.00000000000E+00 0.  1.
</event>
<event>
 5    1  0.6076093E+001  0.1599677E+01  0.7818608E-02  0.3353714E+00
         11   -1    0    0    0    0  0.00000000000E+00  0.00000000000E+00  0.39999999674E+01  0.40000000000E+01  0.51100000000E-03 0.  1.
    9000002   -1    0    0    0    0 -0.00000000000E+00 -0.00000000000E+00  0.00000000000E+00  0.93800000000E+00  0.93800000000E+00 0. -1.
         11    1    1    2    0    0  0.56073830079E-01  0.10822960467E+00  0.93149296491E+00  0.93943457811E+00  0.51100000000E-03 0.  1.
    9000002    1    1    2    0    0 -0.23067328780E+00 -0.44255485559E+00  0.17047252878E+00  0.10760900748E+01  0.93800000000E+00 0. -1.
         22    1    1    2    0    0  0.17459945772E+00  0.33432525092E+00  0.28980344737E+01  0.29224753471E+01  0.00000000000E+00 0.  1.
</event>
<event>
 5    1  0.6076093E+001  0.1599668E+01  0.7818608E-02  0.3353724E+00
         11   -1    0    0    0    0  0.00000000000E+00  0.00000000000E+00  0.39999999674E+01  0.40000000000E+01  0.51100000000E-03 0. -1.
    9000002   -1    0    0    0    0 -0.00000000000E+00 -0.00000000000E+00  0.00000000000E+00  0.93800000000E+00  0.93800000000E+00 0.  1.
         11    1    1    2    0    0  0.97880495685E-02 -0.15621383603E+00  0.12408010298E+01  0.12506342492E+01  0.51100000000E-03 0. -1.
    9000002    1    1    2    0    0 -0.30831768404E-01  0.49328362903E+00  0.16707104986E+00  0.10733294333E+01  0.93800000000E+00 0.  1.
         22    1    1    2    0    0  0.21043718835E-01 -0.33706979300E+00  0.25921278877E+01  0.26140363176E+01  0.00000000000E+00 0. -1.
</event>
<event>
 5    1  0.7109521E+001  0.1599522E+01  0.7818608E-02  0.3353883E+00
         11   -1    0    0    0    0  0.00000000000E+00  0.00000000000E+00  0.39999999674E+01  0.40000000000E+01  0.51100000000E-03 0. -1.
    9000002   -1    0    0    0    0 -0.00000000000E+00 -0.00000000000E+00  0.00000000000E+00  0.93800000000E+00  0.93800000000E+00 0. -1.
         11    1    1    2    0    0  0.14061524651E+00 -0.10235127247E-01  0.14241450870E+01  0.14311068776E+01  0.51100000000E-03 0. -1.
    9000002    1    1    2    0    0 -0.42159990118E+00  0.36589169328E-01  0.12130025498E+00  0.10361674555E+01  0.93800000000E+00 0. -1.
         22    1    1    2    0    0  0.28098465468E+00 -0.26354042081E-01  0.24545546254E+01  0.24707256668E+01  0.00000000000E+00 0. -1.
</event>
<event>
 5    1  0.6076093E+001  0.1592431E+01  0.7818608E-02  0.3361620E+00
         11   -1    0    0    0    0  0.00000000000E+00  0.00000000000E+00  0.39999999674E+01  0.40000000000E+01  0.51100000000E-03 0.  1.
    9000002   -1    0    0    0    0 -0.00000000000E+00 -0.00000000000E+00  0.00000000000E+00  0.93800000000E+00  0.93800000000E+00 0. -1.
         11    1    1    2    0    0  0.33210217077E-01  0.22301992804E-01  0.84067226885E-01  0.93101327372E-01  0.51100000000E-03 0.  1.
    9000002    1    1    2    0    0 -0.39397303819E+00 -0.16047438345E+00  0.12864581983E+00  0.10379597919E+01  0.93800000000E+00 0. -1.
         22    1    1    2    0    0  0.36076282111E+00  0.13817239065E+00  0.37872869206E+01  0.38069388808E+01  0.00000000000E+00 0.  1.
</event>
<event>
 5    1  0.6076093E+001  0.1599123E+01  0.7818608E-02  0.3354316E+00
         11   -1    0    0    0    0  0.00000000000E+00  0.00000000000E+00  0.39999999674E+01  0.40000000000E+01  0.51100000000E-03 0. -1.
    9000002   -1    0    0    0    0 -0.00000000000E+00 -0.00000000000E+00  0.00000000000E+00  0.93800000000E+00  0.93800000000E+00 0. -1.
         11    1    1    2    0    0  0.44153559452E-02 -0.13329183732E+00  0.10073375780E+01  0.10161276822E+01  0.51100000000E-03 0. -1.
    9000002    1    1    2    0    0  0.19908447719E-01  0.58492155004E+00  0.23878569743E+00  0.11311021949E+01  0.93800000000E+00 0. -1.
         22    1    1    2    0    0 -0.24323803664E-01 -0.45162971272E+00  0.27538766919E+01  0.27907701229E+01  0.00000000000E+00 0. -1.
</event>
<event>
 5    1  0.6076093E+001  0.1599669E+01  0.7818608E-02  0.3353723E+00
         11   -1    0    0    0    0  0.00000000000E+00  0.00000000000E+00  0.39999999674E+01  0.40000000000E+01  0.51100000000E-03 0. -1.
    9000002   -1    0    0    0    0 -0.00000000000E+00 -0.00000000000E+00  0.00000000000E+00  0.93800000000E+00  0.93800000000E+00 0. -1.
         11    1    1    2    0    0  0.11877574062E+00  0.29536518679E-01  0.85658993558E+00  0.86528992907E+00  0.51100000000E-03 0. -1.
    9000002    1    1    2    0    0 -0.53624431736E+00 -0.13700210626E+00  0.21172827325E+00  0.11095045771E+01  0.93800000000E+00 0. -1.
         22    1    1    2    0    0  0.41746857674E+00  0.10746558758E+00  0.29316817585E+01  0.29632054938E+01  0.00000000000E+00 0. -1.
</event>
<event>
 5    1  0.6076093E+001  0.1599546E+01  0.7818608E-02  0.3353856E+00
         11   -1    0    0    0    0  0.00000000000E+00  0.00000000000E+00  0.39999999674E+01  0.40000000000E+01  0.51100000000E-03 0. -1.
    9000002   -1    0    0    0    0 -0.00000000000E+00 -0.00000000000E+00  0.00000000000E+00  0.93800000000E+00  0.93800000000E+00 0.  1.
         11    1    1    2    0    0  0.73464168133E-01  0.53543669807E-01  0.11409559044E+01  0.11445717739E+01  0.51100000000E-03 0. -1.
    9000002    1    1    2    0    0 -0.26665670357E+00 -0.22445321665E+00  0.81549081023E-01  0.10039817213E+01  0.93800000000E+00 0.  1.
         22    1    1    2    0    0  0.19319253544E+00  0.17090954684E+00  0.27774949819E+01  0.27894465049E+01  0.00000000000E+00 0. -1.
</event>
<event>
 5    1  0.6076093E+001  0.1599676E+01  0.7818608E-02  0.3353715E+00
         11   -1    0    0    0    0  0.00000000000E+00  0.00000000000E+00  0.39999999674E+01  0.40000000000E+01  0.51100000000E-03 0. -1.
    9000002   -1    0    0    0    0 -0.00000000000E+00 -0.00000000000E+00  0.00000000000E+00  0.93800000000E+00  0.93800000000E+00 0. -1.
         11    1    1    2    0    0 -0.47658795500E-01  0.78875174066E-01  0.95577445411E+00  0.96020712459E+00  0.51100000000E-03 0.  1.
    9000002    1    1    2    0    0  0.19181950086E+00 -0.32197456058E+00  0.94449975943E-01  0.10145083226E+01  0.93800000000E+00 0. -1.
         22    1    1    2    0    0 -0.14416070536E+00  0.24309938651E+00  0.29497755373E+01  0.29632845529E+01  0.00000000000E+00 0. -1.
</event>
<event>
 5    1  0.6076093E+001  0.1599524E+01  0.7818608E-02  0.3353880E+00
         11   -1    0    0    0    0  0.00000000000E+00  0.00000000000E+00  0.39999999674E+01  0.40000000000E+01  0.51100000000E-03 0. -1.
    9000002   -1    0    0    0    0 -0.00000000000E+00 -0.00000000000E+00  0.00000000000E+00  0.93800000000E+00  0.93800000000E+00 0.  1.
         11    1    1    2    0    0  0.50020263209E-02 -0.10174737348E-03  0.24861785431E-01  0.25365332950E-01  0.51100000000E-03 0. -1.
    9000002    1    1    2    0    0 -0.46796465229E+00  0.21856582848E+00  0.18327047824E+00  0.10863673437E+01  0.93800000000E+00 0.  1.
         22    1    1    2    0    0  0.46296262597E+00 -0.21846408111E+00  0.37918677037E+01  0.38262673234E+01  0.00000000000E+00 0. -1.
</event>
<event>
 5    1  0.6076093E+001  0.1512958E+01  0.7818608E-02  0.3453615E+00
         11   -1    0    0    0    0  0.00000000000E+00  0.00000000000E+00  0.39999999674E+01  0.40000000000E+01  0.51100000000E-03 0. -1.
    9000002   -1    0    0    0    0 -0.00000000000E+00 -0.00000000000E+00  0.00000000000E+00  0.93800000000E+00  0.93800000000E+00 0.  1.
         11    1    1    2    0    0 -0.11656089634E+00  0.39809486977E-01  0.10230477254E+00  0.16011797343E+00  0.51100000000E-03 0. -1.
    9000002    1    1    2    0    0 -0.28262569385E+00 -0.37490857734E+00  0.23067153581E+00  0.10740051590E+01  0.93800000000E+00 0.  1.
         22    1    1    2    0    0  0.39918659020E+00  0.33509909036E+00  0.36670236590E+01  0.37038768675E+01  0.00000000000E+00 0. -1.
</event>
<event>
 5    1  0.6076093E+001  0.1599604E+01  0.7818608E-02  0.3353793E+00
         11   -1    0    0    0    0  0.00000000000E+00  0.00000000000E+00  0.39999999674E+01  0.40000000000E+01  0.51100000000E-03 0.  1.
    9000002   -1    0    0    0    0 -0.00000000000E+00 -0.00000000000E+00  0.00000000000E+00  0.93800000000E+00  0.93800000000E+00 0. -1.
         11    1    1    2    0    0 -0.81657100197E-01  0.10740900259E+00  0.13311675640E+01  0.13379880120E+01  0.51100000000E-03 0.  1.
    9000002    1    1    2    0    0  0.21600731250E+00 -0.33112665096E+00  0.10542792743E+00  0.10233587181E+01  0.93800000000E+00 0. -1.
         22    1    1    2    0    0 -0.13435021230E+00  0.22371764837E+00  0.25634044760E+01  0.25766532699E+01  0.00000000000E+00 0.  1.
</event>
<event>
 5    1  0.6076093E+001  0.1597898E+01  0.7818608E-02  0.3355648E+00
         11   -1    0    0    0    0  0.00000000000E+00  0.00000000000E+00  0.39999999674E+01  0.40000000000E+01  0.51100000000E-03 0. -1.
    9000002   -1    0    0    0    0 -0.00000000000E+00 -0.00000000000E+00  0.00000000000E+00  0.93800000000E+00  0.93800000000E+00 0.  1.
         11    1    1    2    0    0  0.39069237162E-01  0.15130830430E-01  0.57466482757E+00  0.57619030926E+00  0.51100000000E-03 0. -1.
    9000002    1    1    2    0    0 -0.20671407193E+00 -0.33964879179E+00  0.10808302082E+00  0.10245086377E+01  0.93800000000E+00 0.  1.
         22    1    1    2    0    0  0.16764483477E+00  0.32451796136E+00  0.33172521190E+01  0.33373010531E+01  0.00000000000E+00 0. -1.
</event>
<event>
 5    1  0.6076093E+001  0.1590083E+01  0.7818608E-02  0.3364197E+00
         11   -1    0    0    0    0  0.00000000000E+00  0.00000000000E+00  0.39999999674E+01  0.40000000000E+01  0.51100000000E-03 0.  1.
    9000002   -1    0    0    0    0 -0.00000000000E+00 -0.00000000000E+00  0.00000000000E+00  0.93800000000E+00  0.93800000000E+00 0. -1.
         11    1    1    2    0    0  0.89484673439E-01 -0.10884497656E+00  0.73326694604E+00  0.74668293872E+00  0.51100000000E-03 0.  1.
    9000002    1    1    2    0    0 -0.17672087054E-01  0.39691640842E+00  0.11445005235E+00  0.10250842660E+01  0.93800000000E+00 0. -1.
         22    1    1    2    0    0 -0.71812586385E-01 -0.28807143186E+00  0.31522829690E+01  0.31662327953E+01  0.00000000000E+00 0.  1.
</event>
<event>
 5    1  0.6076093E+001  0.1598221E+01  0.7818608E-02  0.3355296E+00
         11   -1    0    0    0    0  0.00000000000E+00  0.00000000000E+00  0.39999999674E+01  0.40000000000E+01  0.51100000000E-03 0.  1.
    9000002   -1    0    0    0    0 -0.00000000000E+00 -0.00000000000E+00  0.00000000000E+00  0.93800000000E+00  0.93800000000E+00 0.  1.
         11    1    1    2    0    0  0.16363143041E-01  0.22506653479E-01  0.22707913291E+00  0.22877826738E+00  0.51100000000E-03 0.  1.
    9000002    1    1    2    0    0 -0.35043316549E+00 -0.24267113984E-01  0.83921479679E-01  0.10051264155E+01  0.93800000000E+00 0.  1.
         22    1    1    2    0    0  0.33407002245E+00  0.17604605050E-02  0.36889993548E+01  0.37040953172E+01  0.00000000000E+00 0.  1.
</event>
<event>
 5    1  0.6076093E+001  0.1599674E+01  0.7818608E-02  0.3353717E+00
         11   -1    0    0    0    0  0.00000000000E+00  0.00000000000E+00  0.39999999674E+01  0.40000000000E+01  0.51100000000E-03 0. -1.
    9000002   -1    0    0    0    0 -0.00000000000E+00 -0.00000000000E+00  0.00000000000E+00  0.93800000000E+00  0.93800000000E+00 0.  1.
         11    1    1    2    0    0  0.13966688679E-01 -0.17118251526E-01  0.17067207446E+00  0.17209683626E+00  0.51100000000E-03 0.  1.
    9000002    1    1    2    0    0 -0.30696547843E+00  0.37218120408E+00  0.15887171907E+00  0.10666915565E+01  0.93800000000E+00 0.  1.
         22    1    1    2    0    0  0.29299878975E+00 -0.35506295256E+00  0.36704561738E+01  0.36992116072E+01  0.00000000000E+00 0. -1.
</event>
<event>
 5    1  0.6076093E+001  0.1599011E+01  0.7818608E-02  0.3354437E+00
         11   -1    0    0    0    0  0.00000000000E+00  0.00000000000E+00  0.39999999674E+01  0.40000000000E+01  0.51100000000E-03 0. -1.
    9000002   -1    0    0    0    0 -0.00000000000E+00 -0.00000000000E+00  0.00000000000E+00  0.93800000000E+00  0.93800000000E+00 0.  1.
         11    1    1    2    0    0  0.39939298971E-01  0.29704095048E-01  0.73340910999E+00  0.73509636417E+00  0.51100000000E-03 0. -1.
    9000002    1    1    2    0    0 -0.34142083389E+00 -0.16927291457E+00  0.98270604762E-01  0.10172131621E+01  0.93800000000E+00 0.  1.
         22    1    1    2    0    0  0.30148153492E+00  0.13956881952E+00  0.31683202526E+01  0.31856904737E+01  0.00000000000E+00 0. -1.
</event>
<event>
 5    1  0.6076093E+001  0.1599535E+01  0.7818608E-02  0.3353868E+00
         11   -1    0    0    0    0  0.00000000000E+00  0.00000000000E+00  0.39999999674E+01  0.40000000000E+01  0.51100000000E-03 0.  1.
    9000002   -1    0    0    0    0 -0.00000000000E+00 -0.00000000000E+00  0.00000000000E+00  0.93800000000E+00  0.93800000000E+00 0. -1.
         11    1    1    2    0    0  0.94766068272E-02 -0.16249367282E+00  0.13739922175E+01  0.13835999691E+01  0.51100000000E-03 0.  1.
    9000002    1    1    2    0    0 -0.55248416139E-01  0.43165893464E+00  0.12847109530E+00  0.10419839949E+01  0.93800000000E+00 0. -1.
         22    1    1    2    0    0  0.45771809312E-01 -0.26916526182E+00  0.24975366546E+01  0.25124160360E+01  0.00000000000E+00 0.  1.
</event>
<event>
 5    1  0.6076093E+001  0.1599444E+01  0.7818608E-02  0.3353968E+00
         11   -1    0    0    0    0  0.00000000000E+00  0.00000000000E+00  0.39999999674E+01  0.40000000000E+01  0.51100000000E-03 0.  1.
    9000002   -1    0    0    0    0 -0.00000000000E+00 -0.00000000000E+00  0.00000000000E+00  0.93800000000E+00  0.93800000000E+00 0. -1.
         11    1    1    2    0    0 -0.12125443418E-01  0.39717310307E-02  0.84398955841E-01  0.85359509684E-01  0.51100000000E-03 0.  1.
    9000002    1    1    2    0    0  0.50670570163E+00  0.60323141716E-01  0.17877552595E+00  0.10826791945E+01  0.93800000000E+00 0. -1.
         22    1    1    2    0    0 -0.49458025821E+00 -0.64294872747E-01  0.37368254856E+01  0.37699612958E+01  0.00000000000E+00 0.  1.
</event>
<event>
 5    1  0.6076093E+001  0.1594367E+01  0.7818608E-02  0.3359500E+00
         11   -1    0    0    0    0  0.00000000000E+00  0.00000000000E+00  0.39999999674E+01  0.40000000000E+01  0.51100000000E-03 0.  1.
    9000002   -1    0    0    0    0 -0.00000000000E+00 -0.00000000000E+00  0.00000000000E+00  0.93800000000E+00  0.93800000000E+00 0.  1.
         11    1    1    2    0    0  0.12248685528E+00 -0.58200672456E-01  0.89953711534E+00  0.90970194623E+00  0.51100000000E-03 0.  1.
    9000002    1    1    2    0    0 -0.39240744175E+00 -0.37700036318E-01  0.10915959831E+00  0.10233106620E+01  0.93800000000E+00 0.  1.
         22    1    1    2    0    0  0.26992058646E+00  0.95900708774E-01  0.29913032537E+01  0.30049873918E+01  0.00000000000E+00 0.  1.
</event>
<event>
 5    1  0.6076093E+001  0.1599574E+01  0.7818608E-02  0.3353825E+00
         11   -1    0    0    0    0  0.00000000000E+00  0.00000000000E+00  0.39999999674E+01  0.40000000000E+01  0.51100000000E-03 0. -1.
    9000002   -1    0    0    0    0 -0.00000000000E+00 -0.00000000000E+00  0.00000000000E+00  0.93800000000E+00  0.93800000000E+00 0. -1.
         11    1    1    2    0    0  0.44214969328E-01  0.50985937348E-01  0.61028677814E+00  0.61400711886E+00  0.51100000000E-03 0. -1.
    9000002    1    1    2    0    0 -0.33227467316E+00 -0.33881451593E+00  0.15361719656E+00  0.10623765706E+01  0.93800000000E+00 0. -1.
         22    1    1    2    0    0  0.28805970383E+00  0.28782857859E+00  0.32360959927E+01  0.32616163106E+01  0.00000000000E+00 0. -1.
</event>
<event>
 5    1  0.6076093E+001  0.1599493E+01  0.7818608E-02  0.3353914E+00
         11   -1    0    0    0    0  0.00000000000E+00  0.00000000000E+00  0.39999999674E+01  0.40000000000E+01  0.51100000000E-03 0.  1.
    9000002   -1    0    0    0    0 -0.00000000000E+00 -0.00000000000E+00  0.00000000000E+00  0.93800000000E+00  0.93800000000E+00 0.  1.
         11    1    1    2    0    0  0.60191684056E-01 -0.64301659091E-01  0.10744399351E+01  0.10780441445E+01  0.51100000000E-03 0.  1.
    9000002    1    1    2    0    0 -0.21994261762E+00  0.28734600437E+00  0.88065012789E-01  0.10092283824E+01  0.93800000000E+00 0.  1.
         22    1    1    2    0    0  0.15975093357E+00 -0.22304434527E+00  0.28374950195E+01  0.28507274732E+01  0.00000000000E+00 0.  1.
</event>
<event>
 5    1  0.6076093E+001  0.1599640E+01  0.7818608E-02  0.3353754E+00
         11   -1    0    0    0    0  0.00000000000E+00  0.00000000000E+00  0.39999999674E+01  0.40000000000E+01  0.51100000000E-03 0.  1.
    9000002   -1    0    0    0    0 -0.00000000000E+00 -0.00000000000E+00  0.00000000000E+00  0.93800000000E+00  0.93800000000E+00 0. -1.
         11    1    1    2    0    0  0.32534109985E-01 -0.51023037280E-01  0.63121802505E+00  0.63411219427E+00  0.51100000000E-03 0.  1.
    9000002    1    1    2    0    0 -0.22469167346E+00  0.33740987822E+00  0.11095331528E+00  0.10278552487E+01  0.93800000000E+00 0. -1.
         22    1    1    2    0    0  0.19215756347E+00 -0.28638684094E+00  0.32578286270E+01  0.32760325571E+01  0.00000000000E+00 0.  1.
</event>
<event>
 5    1  0.6076093E+001  0.1565289E+01  0.7818608E-02  0.3391921E+00
         11   -1    0    0    0    0  0.00000000000E+00  0.00000000000E+00  0.39999999674E+01  0.40000000000E+01  0.51100000000E-03 0. -1.
    9000002   -1    0    0    0    0 -0.00000000000E+00 -0.00000000000E+00  0.00000000000E+00  0.93800000000E+00  0.93800000000E+00 0.  1.
         11    1    1    2    0    0  0.13693123184E-01 -0.15148070391E+00  0.73847488908E+00  0.75397568144E+00  0.51100000000E-03 0. -1.
    9000002    1    1    2    0    0 -0.17876478922E+00 -0.11618515848E+00  0.56472942812E-01  0.96358135836E+00  0.93800000000E+00 0.  1.
         22    1    1    2    0    0  0.16507166604E+00  0.26766586239E+00  0.32050521355E+01  0.32204429602E+01  0.00000000000E+00 0. -1.
</event>
<event>
 5    1  0.6076093E+001  0.1599676E+01  0.7818608E-02  0.3353715E+00
         11   -1    0    0    0    0  0.00000000000E+00  0.00000000000E+00  0.39999999674E+01  0.40000000000E+01  0.51100000000E-03 0. -1.
    9000002   -1    0    0    0    0 -0.00000000000E+00 -0.00000000000E+00  0.00000000000E+00  0.93800000000E+00  0.93800000000E+00 0.  1.
         11    1    1    2    0    0  0.71796696523E-02  0.11976959578E+00  0.94512077411E+00  0.95270658784E+00  0.51100000000E-03 0. -1.
    9000002    1    1    2    0    0 -0.31559380105E-01 -0.48422401200E+00  0.16080097950E+00  0.10682555140E+01  0.93800000000E+00 0.  1.
         22    1    1    2    0    0  0.24379710453E-01  0.36445441621E+00  0.28940782138E+01  0.29170378981E+01  0.00000000000E+00 0. -1.
</event>
<event>
 5    1  0.6076093E+001  0.1599676E+01  0.7818608E-02  0.3353715E+00
         11   -1    0    0    0    0  0.00000000000E+00  0.00000000000E+00  0.39999999674E+01  0.40000000000E+01  0.51100000000E-03 0.  1.
    9000002   -1    0    0    0    0 -0.00000000000E+00 -0.00000000000E+00  0.00000000000E+00  0.93800000000E+00  0.93800000000E+00 0. -1.
         11    1    1    2    0    0 -0.75392704856E-01  0.11222806072E+00  0.13402228462E+01  0.13470251431E+01  0.51100000000E-03 0.  1.
    9000002    1    1    2    0    0  0.21556024973E+00 -0.32575751080E+00  0.10279995260E+00  0.10212717598E+01  0.93800000000E+00 0. -1.
         22    1    1    2    0    0 -0.14016754487E+00  0.21352945008E+00  0.25569771686E+01  0.25697030971E+01  0.00000000000E+00 0.  1.
</event>
<event>
 5    1  0.6076093E+001  0.1586506E+01  0.7818608E-02  0.3368141E+00
         11   -1    0    0    0    0  0.00000000000E+00  0.00000000000E+00  0.39999999674E+01  0.40000000000E+01  0.51100000000E-03 0.  1.
    9000002   -1    0    0    0    0 -0.00000000000E+00 -0.00000000000E+00  0.00000000000E+00  0.93800000000E+00  0.93800000000E+00 0.  1.
         11    1    1    2    0    0  0.75308840455E-01  0.63572972025E-01  0.89603745077E+00  0.90144124519E+00  0.51100000000E-03 0.  1.
    9000002    1    1    2    0    0 -0.23210764471E+00  0.21981121094E+00  0.78795453857E-01  0.99410444659E+00  0.93800000000E+00 0.  1.
         22    1    1    2    0    0  0.15679880425E+00 -0.28338418296E+00  0.30251670627E+01  0.30424543082E+01  0.00000000000E+00 0.  1.
</event>
<event>
 5    1  0.6076093E+001  0.1577213E+01  0.7818608E-02  0.3378473E+00
         11   -1    0    0    0    0  0.00000000000E+00  0.00000000000E+00  0.39999999674E+01  0.40000000000E+01  0.51100000000E-03 0.  1.
    9000002   -1    0    0    0    0 -0.00000000000E+00 -0.00000000000E+00  0.00000000000E+00  0.93800000000E+00  0.93800000000E+00 0.  1.
         11    1    1    2    0    0  0.87731731775E-01  0.11576124962E+00  0.14644817161E+01  0.14716672455E+01  0.51100000000E-03 0.  1.
    9000002    1    1    2    0    0  0.22338140669E+00 -0.21936167759E+00  0.83392615135E-01  0.99237952755E+00  0.93800000000E+00 0.  1.
         22    1    1    2    0    0 -0.31111313846E+00  0.10360042797E+00  0.24521256362E+01  0.24739532269E+01  0.00000000000E+00 0.  1.
</event>
<event>
 5    1  0.6076093E+001  0.1491932E+01  0.7818608E-02  0.3479712E+00
         11   -1    0    0    0    0  0.00000000000E+00  0.00000000000E+00  0.39999999674E+01  0.40000000000E+01  0.51100000000E-03 0. -1.
    9000002   -1    0    0    0    0 -0.00000000000E+00 -0.00000000000E+00  0.00000000000E+00  0.93800000000E+00  0.93800000000E+00 0. -1.
         11    1    1    2    0    0  0.24551091381E+00 -0.21931625079E+00  0.39935208898E+00  0.51754959062E+00  0.51100000000E-03 0. -1.
    9000002    1    1    2    0    0  0.73773339286E-01 -0.94995709806E-01  0.17020669861E+00  0.96087512754E+00  0.93800000000E+00 0. -1.
         22    1    1    2    0    0 -0.31928425310E+00  0.31431196059E+00  0.34304411798E+01  0.34595752818E+01  0.00000000000E+00 0. -1.
</event>
<event>
 5    1  0.6076093E+001  0.1599673E+01  0.7818608E-02  0.3353718E+00
         11   -1    0    0    0    0  0.00000000000E+00  0.00000000000E+00  0.39999999674E+01  0.40000000000E+01  0.51100000000E-03 0.  1.
    9000002   -1    0    0    0    0 -0.00000000000E+00 -0.00000000000E+00  0.00000000000E+00  0.93800000000E+00  0.93800000000E+00 0.  1.
         11    1    1    2    0    0 -0.11994219797E-01 -0.13372796462E-01  0.20703912492E+00  0.20781759637E+00  0.51100000000E-03 0.  1.
    9000002    1    1    2    0    0  0.23737392278E+00  0.26776517821E+00  0.85933539494E-01  0.10076076335E+01  0.93800000000E+00 0.  1.
         22    1    1    2    0    0 -0.22537970298E+00 -0.25439238175E+00  0.37070273029E+01  0.37225747701E+01  0.00000000000E+00 0.  1.
</event>
<event>
 5    1  0.6076093E+001  0.1590335E+01  0.7818608E-02  0.3363920E+00
         11   -1    0    0    0    0  0.00000000000E+00  0.00000000000E+00  0.39999999674E+01  0.40000000000E+01  0.51100000000E-03 0.  1.
    9000002   -1    0    0    0    0 -0.00000000000E+00 -0.00000000000E+00  0.00000000000E+00  0.93800000000E+00  0.93800000000E+00 0.  1.
         11    1    1    2    0    0  0.44889088970E-01  0.55000552257E-01  0.21786984429E+00  0.22914541503E+00  0.51100000000E-03 0.  1.
    9000002    1    1    2    0    0 -0.10353538466E-02 -0.42741331538E+00  0.13164692007E+00  0.10391622230E+01  0.93800000000E+00 0.  1.
         22    1    1    2    0    0 -0.43853735123E-01  0.37241276312E+00  0.36504832030E+01  0.36696923620E+01  0.00000000000E+00 0.  1.
</event>
<event>
 5    1  0.6076093E+001  0.1486611E+01  0.7818608E-02  0.3486442E+00
         11   -1    0    0    0    0  0.00000000000E+00  0.00000000000E+00  0.39999999674E+01  0.40000000000E+01  0.51100000000E-03 0.  1.
    9000002   -1    0    0    0    0 -0.00000000000E+00 -0.00000000000E+00  0.00000000000E+00  0.93800000000E+00  0.93800000000E+00 0. -1.
         11    1    1    2    0    0 -0.41488172888E+00 -0.57297508211E-01  0.12042237137E+01  0.12749764183E+01  0.51100000000E-03 0.  1.
    9000002    1    1    2    0    0 -0.22227027103E+00  0.40802843988E+00  0.33814994501E+00  0.11000366660E+01  0.93800000000E+00 0. -1.
         22    1    1    2    0    0  0.63715199991E+00 -0.35073093167E+00  0.24576263087E+01  0.25629869158E+01  0.00000000000E+00 0.  1.
</event>
<event>
 5    1  0.6076093E+001  0.1581619E+01  0.7818608E-02  0.3373558E+00
         11   -1    0    0    0    0  0.00000000000E+00  0.00000000000E+00  0.39999999674E+01  0.40000000000E+01  0.51100000000E-03 0.  1.
    9000002   -1    0    0    0    0 -0.00000000000E+00 -0.00000000000E+00  0.00000000000E+00  0.93800000000E+00  0.93800000000E+00 0.  1.
         11    1    1    2    0    0  0.23971022544E-01  0.21354606026E+00  0.14639877700E+01  0.14796746202E+01  0.51100000000E-03 0.  1.
    9000002    1    1    2    0    0 -0.29541885863E+00 -0.22153131353E+00  0.10648989928E+00  0.10136727892E+01  0.93800000000E+00 0.  1.
         22    1    1    2    0    0  0.27144783608E+00  0.79852532684E-02  0.24295222981E+01  0.24446525906E+01  0.00000000000E+00 0.  1.
</event>
<event>
 5    1  0.6076093E+001  0.1599674E+01  0.7818608E-02  0.3353717E+00
         11   -1    0    0    0    0  0.00000000000E+00  0.00000000000E+00  0.39999999674E+01  0.40000000000E+01  0.51100000000E-03 0. -1.
    9000002   -1    0    0    0    0 -0.00000000000E+00 -0.00000000000E+00  0.00000000000E+00  0.93800000000E+00  0.93800000000E+00 0.  1.
         11    1    1    2    0    0 -0.47893959957E-01  0.14087534067E+00  0.14290288627E+01  0.14367544831E+01  0.51100000000E-03 0. -1.
    9000002    1    1    2    0    0  0.12520560208E+00 -0.38332378863E+00  0.10973438222E+00  0.10268881168E+01  0.93800000000E+00 0.  1.
         22    1    1    2    0    0 -0.77311642122E-01  0.24244844797E+00  0.24612367224E+01  0.24743574001E+01  0.00000000000E+00 0. -1.
</event>
<event>
 5    1  0.6076093E+001  0.1599676E+01  0.7818608E-02  0.3353715E+00
         11   -1    0    0    0    0  0.00000000000E+00  0.00000000000E+00  0.39999999674E+01  0.40000000000E+01  0.51100000000E-03 0. -1.
    9000002   -1    0    0    0    0 -0.00000000000E+00 -0.00000000000E+00  0.00000000000E+00  0.93800000000E+00  0.93800000000E+00 0.  1.
         11    1    1    2    0    0  0.30525940732E-01 -0.90225934321E-01  0.70521852755E+00  0.71162208018E+00  0.51100000000E-03 0. -1.
    9000002    1    1    2    0    0 -0.16497876454E+00  0.48453986571E+00  0.17971502666E+00  0.10835766540E+01  0.93800000000E+00 0.  1.
         22    1    1    2    0    0  0.13445282381E+00 -0.39431393139E+00  0.31150664131E+01  0.31428012659E+01  0.00000000000E+00 0. -1.
</event>
<event>
 5    1  0.6076093E+001  0.1479888E+01  0.7818608E-02  0.3495021E+00
         11   -1    0    0    0    0  0.00000000000E+00  0.00000000000E+00  0.39999999674E+01  0.40000000000E+01  0.51100000000E-03 0.  1.
    9000002   -1    0    0    0    0 -0.00000000000E+00 -0.00000000000E+00  0.00000000000E+00  0.93800000000E+00  0.93800000000E+00 0.  1.
         11    1    1    2    0    0 -0.22562939963E+00  0.13408095472E+00  0.43879105838E+00  0.51129656994E+00  0.51100000000E-03 0.  1.
    9000002    1    1    2    0    0 -0.30926459960E-01  0.85832240162E-01  0.98515542427E-01  0.94756157134E+00  0.93800000000E+00 0.  1.
         22    1    1    2    0    0  0.25655585959E+00 -0.21991319488E+00  0.34626933666E+01  0.34791418587E+01  0.00000000000E+00 0.  1.
</event>
<event>
 5    1  0.6076093E+001  0.1575598E+01  0.7818608E-02  0.3380282E+00
         11   -1    0    0    0    0  0.00000000000E+00  0.00000000000E+00  0.39999999674E+01  0.40000000000E+01  0.51100000000E-03 0.  1.
    9000002   -1    0    0    0    0 -0.00000000000E+00 -0.00000000000E+00  0.00000000000E+00  0.93800000000E+00  0.93800000000E+00 0. -1.
         11    1    1    2    0    0 -0.74330643558E-01  0.10089968302E+00  0.12350212919E+01  0.12413636224E+01  0.51100000000E-03 0.  1.
    9000002    1    1    2    0    0 -0.27862381771E+00 -0.12416794636E+00  0.81246250653E-01  0.98969382333E+00  0.93800000000E+00 0. -1.
         22    1    1    2    0    0  0.35295446127E+00  0.23268263344E-01  0.26837324248E+01  0.27069425542E+01  0.00000000000E+00 0.  1.
</event>
<event>
 5    1  0.6076093E+001  0.1599577E+01  0.7818608E-02  0.3353822E+00
         11   -1    0    0    0    0  0.00000000000E+00  0.00000000000E+00  0.39999999674E+01  0.40000000000E+01  0.51100000000E-03 0.  1.
    9000002   -1    0    0    0    0 -0.00000000000E+00 -0.00000000000E+00  0.00000000000E+00  0.93800000000E+00  0.93800000000E+00 0. -1.
         11    1    1    2    0    0  0.73417695799E-01 -0.12690326434E+00  0.88798888060E+00  0.90001061646E+00  0.51100000000E-03 0.  1.
    9000002    1    1    2    0    0 -0.34973360136E+00  0.53529926696E+00  0.28789192515E+00  0.11711467277E+01  0.93800000000E+00 0. -1.
         22    1    1    2    0    0  0.27631590556E+00 -0.40839600262E+00  0.28241191616E+01  0.28668426559E+01  0.00000000000E+00 0.  1.
</event>
<event>
 5    1  0.6076093E+001  0.1599677E+01  0.7818608E-02  0.3353715E+00
         11   -1    0    0    0    0  0.00000000000E+00  0.00000000000E+00  0.39999999674E+01  0.40000000000E+01  0.51100000000E-03 0. -1.
    9000002   -1    0    0    0    0 -0.00000000000E+00 -0.00000000000E+00  0.00000000000E+00  0.93800000000E+00  0.93800000000E+00 0. -1.
         11    1    1    2    0    0 -0.15420433996E-01 -0.73946335825E-01  0.82531712365E+00  0.82876683457E+00  0.51100000000E-03 0. -1.
    9000002    1    1    2    0    0  0.71666539711E-01  0.35294969611E+00  0.87070995772E-01  0.10085310799E+01  0.93800000000E+00 0. -1.
         22    1    1    2    0    0 -0.56246105714E-01 -0.27900336029E+00  0.30876118479E+01  0.31007020855E+01  0.00000000000E+00 0. -1.
</event>
<event>
 5    1  0.6076093E+001  0.1599677E+01  0.7818608E-02  0.3353714E+00
         11   -1    0    0    0    0  0.00000000000E+00  0.00000000000E+00  0.39999999674E+01  0.40000000000E+01  0.51100000000E-03 0. -1.
    9000002   -1    0    0    0    0 -0.00000000000E+00 -0.00000000000E+00  0.00000000000E+00  0.93800000000E+00  0.93800000000E+00 0. -1.
         11    1    1    2    0    0 -0.92594719028E-01 -0.50838742956E-01  0.70610758191E+00  0.71396536200E+00  0.51100000000E-03 0.  1.
    9000002    1    1    2    0    0  0.49410097625E+00  0.27208966204E+00  0.22035711592E+00  0.11164989106E+01  0.93800000000E+00 0. -1.
         22    1    1    2    0    0 -0.40150625722E+00 -0.22125091909E+00  0.30735352695E+01  0.31075357274E+01  0.00000000000E+00 0. -1.
</event>
<event>
 5    1  0.6076093E+001  0.1526118E+01  0.7818608E-02  0.3437675E+00
         11   -1    0    0    0    0  0.00000000000E+00  0.00000000000E+00  0.39999999674E+01  0.40000000000E+01  0.51100000000E-03 0. -1.
    9000002   -1    0    0    0    0 -0.00000000000E+00 -0.00000000000E+00  0.00000000000E+00  0.93800000000E+00  0.93800000000E+00 0. -1.
         11    1    1    2    0    0 -0.23834149270E+00 -0.26239784641E-01  0.68466755863E+00  0.72544132802E+00  0.51100000000E-03 0. -1.
    9000002    1    1    2    0    0 -0.39830316744E-01 -0.10809429909E+00  0.64676685134E-01  0.94725809853E+00  0.93800000000E+00 0. -1.
         22    1    1    2    0    0  0.27817180945E+00  0.13433408373E+00  0.32506557236E+01  0.32653005735E+01  0.00000000000E+00 0. -1.
</event>
<event>
 5    1  0.6076093E+001  0.1599675E+01  0.7818608E-02  0.3353716E+00
         11   -1    0    0    0    0  0.00000000000E+00  0.00000000000E+00  0.39999999674E+01  0.40000000000E+01  0.51100000000E-03 0.  1.
    9000002   -1    0    0    0    0 -0.00000000000E+00 -0.00000000000E+00  0.00000000000E+00  0.93800000000E+00  0.93800000000E+00 0.  1.
         11    1    1    2    0    0 -0.78836306184E-01  0.69058457014E-01  0.92335199750E+00  0.92928112327E+00  0.51100000000E-03 0.  1.
    9000002    1    1    2    0    0  0.33578764901E+00 -0.28813243827E+00  0.13282170872E+00  0.10455903851E+01  0.93800000000E+00 0.  1.
         22    1    1    2    0    0 -0.25695134282E+00  0.21907398125E+00  0.29438262611E+01  0.29631284916E+01  0.00000000000E+00 0.  1.
</event>
<event>
 5    1  0.6076093E+001  0.1599670E+01  0.7818608E-02  0.3353722E+00
         11   -1    0    0    0    0  0.00000000000E+00  0.00000000000E+00  0.39999999674E+01  0.40000000000E+01  0.51100000000E-03 0. -1.
    9000002   -1    0    0    0    0 -0.00000000000E+00 -0.00000000000E+00  0.00000000000E+00  0.93800000000E+00  0.93800000000E+00 0. -1.
         11    1    1    2    0    0  0.14225482698E+00 -0.10392721465E+00  0.10634740113E+01  0.10779677804E+01  0.51100000000E-03 0. -1.
    9000002    1    1    2    0    0 -0.50692400479E+00  0.36906265506E+00  0.27596888001E+00  0.11615429449E+01  0.93800000000E+00 0. -1.
         22    1    1    2    0    0  0.36466917781E+00 -0.26513544042E+00  0.26605570761E+01  0.26984892748E+01  0.00000000000E+00 0. -1.
</event>
<event>
 5    1  0.6076093E+001  0.1599655E+01  0.7818608E-02  0.3353738E+00
         11   -1    0    0    0    0  0.00000000000E+00  0.00000000000E+00  0.39999999674E+01  0.40000000000E+01  0.51100000000E-03 0. -1.
    9000002   -1    0    0    0    0 -0.00000000000E+00 -0.00000000000E+00  0.00000000000E+00  0.93800000000E+00  0.93800000000E+00 0.  1.
         11    1    1    2    0    0 -0.59606762674E-02 -0.31843014286E-02  0.69440210240E-01  0.69770146598E-01  0.51100000000E-03 0. -1.
    9000002    1    1    2    0    0  0.28793782500E+00  0.24175186995E+00  0.95079050586E-01  0.10150055091E+01  0.93800000000E+00 0.  1.
         22    1    1    2    0    0 -0.28197714873E+00 -0.23856756852E+00  0.38354807065E+01  0.38532243443E+01  0.00000000000E+00 0. -1.
</event>
<event>
 5    1  0.6076093E+001  0.1590615E+01  0.7818608E-02  0.3363613E+00
         11   -1    0    0    0    0  0.00000000000E+00  0.00000000000E+00  0.39999999674E+01  0.40000000000E+01  0.51100000000E-03 0. -1.
    9000002   -1    0    0    0    0 -0.00000000000E+00 -0.00000000000E+00  0.00000000000E+00  0.93800000000E+00  0.93800000000E+00 0. -1.
         11    1    1    2    0    0 -0.10437188064E+00 -0.19726621931E+00  0.12101382379E+01  0.12305455159E+01  0.51100000000E-03 0. -1.
    9000002    1    1    2    0    0  0.43272361212E+00  0.30054220338E+00  0.19931709067E+00  0.10941419666E+01  0.93800000000E+00 0. -1.
         22    1    1    2    0    0 -0.32835173147E+00 -0.10327598407E+00  0.25905446388E+01  0.26133125175E+01  0.00000000000E+00 0. -1.
</event>
<event>
 5    1  0.6076093E+001  0.1529187E+01  0.7818608E-02  0.3433999E+00
         11   -1    0    0    0    0  0.00000000000E+00  0.00000000000E+00  0.39999999674E+01  0.40000000000E+01  0.51100000000E-03 0.  1.
    9000002   -1    0    0    0    0 -0.00000000000E+00 -0.00000000000E+00  0.00000000000E+00  0.93800000000E+00  0.93800000000E+00 0.  1.
         11    1    1    2    0    0 -0.49000246522E-02  0.18333906828E+00  0.60070134529E+00  0.62807610331E+00  0.51100000000E-03 0.  1.
    9000002    1    1    2    0    0 -0.41141038787E-02  0.31258846008E+00  0.12306045229E+00  0.99635151736E+00  0.93800000000E+00 0.  1.
         22    1    1    2    0    0  0.90141285309E-02 -0.49592752836E+00  0.32762381698E+01  0.33135723793E+01  0.00000000000E+00 0.  1.
</event>
<event>
 5    1  0.6076093E+001  0.1599652E+01  0.7818608E-02  0.3353742E+00
         11   -1    0    0    0    0  0.00000000000E+00  0.00000000000E+00  0.39999999674E+01  0.40000000000E+01  0.51100000000E-03 0. -1.
    9000002   -1    0    0    0    0 -0.00000000000E+00 -0.00000000000E+00  0.00000000000E+00  0.93800000000E+00  0.93800000000E+00 0.  1.
         11    1    1    2    0    0  0.91027082058E-01 -0.35197341665E-02  0.62598386736E+00  0.63257756957E+00  0.51100000000E-03 0. -1.
    9000002    1    1    2    0    0 -0.53855896276E+00  0.44834892707E-01  0.20138468445E+00  0.11011156684E+01  0.93800000000E+00 0.  1.
         22    1    1    2    0    0  0.44753188070E+00 -0.41315158540E-01  0.31726314155E+01  0.32043067621E+01  0.00000000000E+00 0. -1.
</event>
<event>
 5    1  0.6076093E+001  0.1599663E+01  0.7818608E-02  0.3353729E+00
         11   -1    0    0    0    0  0.00000000000E+00  0.00000000000E+00  0.39999999674E+01  0.40000000000E+01  0.51100000000E-03 0.  1.
    9000002   -1    0    0    0    0 -0.00000000000E+00 -0.00000000000E+00  0.00000000000E+00  0.93800000000E+00  0.93800000000E+00 0.  1.
         11    1    1    2    0    0 -0.79791786564E-01  0.15222615167E-01  0.72439396312E+00  0.72893438123E+00  0.51100000000E-03 0.  1.
    9000002    1    1    2    0    0  0.41005136159E+00 -0.74539683612E-01  0.11743359378E+00  0.10331180632E+01  0.93800000000E+00 0.  1.
         22    1    1    2    0    0 -0.33025957502E+00  0.59317068445E-01  0.31581724105E+01  0.31759475556E+01  0.00000000000E+00 0.  1.
</event>
<event>
 5    1  0.6076093E+001  0.1598740E+01  0.7818608E-02  0.3354732E+00
         11   -1    0    0    0    0  0.00000000000E+00  0.00000000000E+00  0.39999999674E+01  0.40000000000E+01  0.51100000000E-03 0. -1.
    9000002   -1    0    0    0    0 -0.00000000000E+00 -0.00000000000E+00  0.00000000000E+00  0.93800000000E+00  0.93800000000E+00 0.  1.
         11    1    1    2    0    0 -0.36354923874E-02  0.49399568282E-01  0.74158932683E+00  0.74324190204E+00  0.51100000000E-03 0. -1.
    9000002    1    1    2    0    0 -0.59127881212E-01 -0.39013515152E+00  0.10572849246E+00  0.10230953313E+01  0.93800000000E+00 0.  1.
         22    1    1    2    0    0  0.62763373599E-01  0.34073558324E+00  0.31526821481E+01  0.31716627667E+01  0.00000000000E+00 0. -1.
</event>
<event>
 5    1  0.6076093E+001  0.1599676E+01  0.7818608E-02  0.3353715E+00
         11   -1    0    0    0    0  0.00000000000E+00  0.00000000000E+00  0.39999999674E+01  0.40000000000E+01  0.51100000000E-03 0.  1.
    9000002   -1    0    0    0    0 -0.00000000000E+00 -0.00000000000E+00  0.00000000000E+00  0.93800000000E+00  0.93800000000E+00 0. -1.
         11    1    1    2    0    0 -0.37075620861E-01  0.16786776195E+00  0.13028518000E+01  0.13141450685E+01  0.51100000000E-03 0.  1.
    9000002    1    1    2    0    0  0.10882422133E+00 -0.49053938110E+00  0.17290328051E+00  0.10780589687E+01  0.93800000000E+00 0. -1.
         22    1    1    2    0    0 -0.71748600472E-01  0.32267161915E+00  0.25242448869E+01  0.25457959629E+01  0.00000000000E+00 0.  1.
</event>
<event>
 5    1  0.6076093E+001  0.1599658E+01  0.7818608E-02  0.3353734E+00
         11   -1    0    0    0    0  0.00000000000E+00  0.00000000000E+00  0.39999999674E+01  0.40000000000E+01  0.51100000000E-03 0.  1.
    9000002   -1    0    0    0    0 -0.00000000000E+00 -0.00000000000E+00  0.00000000000E+00  0.93800000000E+00  0.93800000000E+00 0. -1.
         11    1    1    2    0    0 -0.24202265728E-01 -0.29060154363E-02  0.22357034516E+00  0.22489587579E+00  0.51100000000E-03 0.  1.
    9000002    1    1    2    0    0  0.38743114603E+00  0.27445681767E-01  0.10162212459E+00  0.10203074118E+01  0.93800000000E+00 0. -1.
         22    1    1    2    0    0 -0.36322888030E+00 -0.24539666331E-01  0.36748074976E+01  0.36927967124E+01  0.00000000000E+00 0.  1.
</event>
<event>
 5    1  0.6076093E+001  0.1598885E+01  0.7818608E-02  0.3354574E+00
         11   -1    0    0    0    0  0.00000000000E+00  0.00000000000E+00  0.39999999674E+01  0.40000000000E+01  0.51100000000E-03 0.  1.
    9000002   -1    0    0    0    0 -0.00000000000E+00 -0.00000000000E+00  0.00000000000E+00  0.93800000000E+00  0.93800000000E+00 0. -1.
         11    1    1    2    0    0 -0.79242726408E-01  0.74854531136E-01  0.56780232303E+00  0.57817155731E+00  0.51100000000E-03 0.  1.
    9000002    1    1    2    0    0  0.50419890161E+00 -0.33335116741E+00  0.25593084083E+00  0.11448511381E+01  0.93800000000E+00 0. -1.
         22    1    1    2    0    0 -0.42495617520E+00  0.25849663628E+00  0.31762668035E+01  0.32149773046E+01  0.00000000000E+00 0.  1.
</event>
<event>
 5    1  0.6076093E+001  0.1597996E+01  0.7818608E-02  0.3355541E+00
         11   -1    0    0    0    0  0.00000000000E+00  0.00000000000E+00  0.39999999674E+01  0.40000000000E+01  0.51100000000E-03 0.  1.
    9000002   -1    0    0    0    0 -0.00000000000E+00 -0.00000000000E+00  0.00000000000E+00  0.93800000000E+00  0.93800000000E+00 0.  1.
         11    1    1    2    0    0  0.11698234716E+00  0.68855210020E-01  0.11996231903E+01  0.12072787455E+01  0.51100000000E-03 0.  1.
    9000002    1    1    2    0    0 -0.41278075998E+00 -0.79303875755E-01  0.12091303675E+00  0.10349594306E+01  0.93800000000E+00 0.  1.
         22    1    1    2    0    0  0.29579841281E+00  0.10448665736E-01  0.26794637403E+01  0.26957618239E+01  0.00000000000E+00 0.  1.
</event>
<event>
 5    1  0.6076093E+001  0.1510162E+01  0.7818608E-02  0.3457041E+00
         11   -1    0    0    0    0  0.00000000000E+00  0.00000000000E+00  0.39999999674E+01  0.40000000000E+01  0.51100000000E-03 0. -1.
    9000002   -1    0    0    0    0 -0.00000000000E+00 -0.00000000000E+00  0.00000000000E+00  0.93800000000E+00  0.93800000000E+00 0. -1.
         11    1    1    2    0    0  0.42144835859E-01  0.23733018056E+00  0.12942818400E+01  0.13165361918E+01  0.51100000000E-03 0. -1.
    9000002    1    1    2    0    0  0.32460365958E+00  0.19985977929E+00  0.17537989585E+00  0.10275765544E+01  0.93800000000E+00 0. -1.
         22    1    1    2    0    0 -0.36674849544E+00 -0.43718995985E+00  0.25303382315E+01  0.25938872538E+01  0.00000000000E+00 0. -1.
</event>
<event>
 5    1  0.6076093E+001  0.1582665E+01  0.7818608E-02  0.3372395E+00
         11   -1    0    0    0    0  0.00000000000E+00  0.00000000000E+00  0.39999999674E+01  0.40000000000E+01  0.51100000000E-03 0.  1.
    9000002   -1    0    0    0    0 -0.00000000000E+00 -0.00000000000E+00  0.00000000000E+00  0.93800000000E+00  0.93800000000E+00 0. -1.
         11    1    1    2    0    0 -0.60339812270E-02 -0.41714787115E-01  0.10191450636E+00  0.11028762451E+00  0.51100000000E-03 0.  1.
    9000002    1    1    2    0    0 -0.18049336181E+00 -0.29687638427E+00  0.94721400908E-01  0.10047534946E+01  0.93800000000E+00 0. -1.
         22    1    1    2    0    0  0.18652734304E+00  0.33859117139E+00  0.38033640601E+01  0.38229588808E+01  0.00000000000E+00 0.  1.
</event>
<event>
 5    1  0.6076093E+001  0.1599646E+01  0.7818608E-02  0.3353748E+00
         11   -1    0    0    0    0  0.00000000000E+00  0.00000000000E+00  0.39999999674E+01  0.40000000000E+01  0.51100000000E-03 0. -1.
    9000002   -1    0    0    0    0 -0.00000000000E+00 -0.00000000000E+00  0.00000000000E+00  0.93800000000E+00  0.93800000000E+00 0.  1.
         11    1    1    2    0    0  0.24045972235E+00 -0.10974969751E+00  0.10752740233E+01  0.11072851306E+01  0.51100000000E-03 0. -1.
    9000002    1    1    2    0    0 -0.77072787685E+00  0.37206812332E+00  0.55062269865E+00  0.13840106592E+01  0.93800000000E+00 0.  1.
         22    1    1    2    0    0  0.53026815451E+00 -0.26231842581E+00  0.23741032454E+01  0.24467042102E+01  0.00000000000E+00 0. -1.
</event>
<event>
 5    1  0.6718385E+001  0.1599674E+01  0.7818608E-02  0.3353717E+00
         11   -1    0    0    0    0  0.00000000000E+00  0.00000000000E+00  0.39999999674E+01  0.40000000000E+01  0.51100000000E-03 0.  1.
    9000002   -1    0    0    0    0 -0.00000000000E+00 -0.00000000000E+00  0.00000000000E+00  0.93800000000E+00  0.93800000000E+00 0.  1.
         11    1    1    2    0    0  0.33693788861E-01 -0.15134151213E+00  0.13535045576E+01  0.13623561844E+01  0.51100000000E-03 0.  1.
    9000002    1    1    2    0    0 -0.95329169333E-01  0.43775351761E+00  0.13628583867E+00  0.10483957376E+01  0.93800000000E+00 0.  1.
         22    1    1    2    0    0  0.61635380472E-01 -0.28641200548E+00  0.25102095711E+01  0.25272480780E+01  0.00000000000E+00 0.  1.
</event>
<event>
 5    1  0.6076093E+001  0.1562334E+01  0.7818608E-02  0.3395287E+00
         11   -1    0    0    0    0  0.00000000000E+00  0.00000000000E+00  0.39999999674E+01  0.40000000000E+01  0.51100000000E-03 0. -1.
    9000002   -1    0    0    0    0 -0.00000000000E+00 -0.00000000000E+00  0.00000000000E+00  0.93800000000E+00  0.93800000000E+00 0. -1.
         11    1    1    2    0    0  0.85463010498E-01 -0.10638896072E+00  0.59949921619E+00  0.61483502540E+00  0.51100000000E-03 0. -1.
    9000002    1    1    2    0    0  0.12492659456E+00 -0.15965744997E+00  0.55765308977E-01  0.96127567588E+00  0.93800000000E+00 0. -1.
         22    1    1    2    0    0 -0.21038960506E+00  0.26604641069E+00  0.33447354422E+01  0.33618892987E+01  0.00000000000E+00 0. -1.
</event>
<event>
 5    1  0.7624439E+001  0.1580209E+01  0.7818608E-02  0.3375128E+00
         11   -1    0    0    0    0  0.00000000000E+00  0.00000000000E+00  0.39999999674E+01  0.40000000000E+01  0.51100000000E-03 0. -1.
    9000002   -1    0    0    0    0 -0.00000000000E+00 -0.00000000000E+00  0.00000000000E+00  0.93800000000E+00  0.93800000000E+00 0.  1.
         11    1    1    2    0    0  0.43662806862E-01  0.12657339155E+00  0.14346442376E+01  0.14408787644E+01  0.51100000000E-03 0. -1.
    9000002    1    1    2    0    0 -0.10822147923E+00  0.95922499974E-01  0.28294026718E-01  0.94950385282E+00  0.93800000000E+00 0.  1.
         22    1    1    2    0    0  0.64558672369E-01 -0.22249589152E+00  0.25370617031E+01  0.25476173828E+01  0.00000000000E+00 0. -1.
</event>
<event>
 5    1  0.6076093E+001  0.1599624E+01  0.7818608E-02  0.3353771E+00
         11   -1    0    0    0    0  0.00000000000E+00  0.00000000000E+00  0.39999999674E+01  0.40000000000E+01  0.51100000000E-03 0.  1.
    9000002   -1    0    0    0    0 -0.00000000000E+00 -0.00000000000E+00  0.00000000000E+00  0.93800000000E+00  0.93800000000E+00 0.  1.
         11    1    1    2    0    0  0.43039070269E-01  0.29350079524E-02  0.33569624817E+00  0.33845709919E+00  0.51100000000E-03 0.  1.
    9000002    1    1    2    0    0 -0.44948839139E+00 -0.13347664334E-03  0.13725755589E+00  0.10491536915E+01  0.93800000000E+00 0.  1.
         22    1    1    2    0    0  0.40644932112E+00 -0.28015313091E-02  0.35270461633E+01  0.35503892093E+01  0.00000000000E+00 0.  1.
</event>
<event>
 5    1  0.6076093E+001  0.1574347E+01  0.7818608E-02  0.3381686E+00
         11   -1    0    0    0    0  0.00000000000E+00  0.00000000000E+00  0.39999999674E+01  0.40000000000E+01  0.51100000000E-03 0.  1.
    9000002   -1    0    0    0    0 -0.00000000000E+00 -0.00000000000E+00  0.00000000000E+00  0.93800000000E+00  0.93800000000E+00 0. -1.
         11    1    1    2    0    0 -0.12517944916E+00 -0.64445982094E-01  0.96425334922E+00  0.97447830233E+00  0.51100000000E-03 0.  1.
    9000002    1    1    2    0    0 -0.16179941014E+00  0.26815110328E+00  0.85756658933E-01  0.99261385637E+00  0.93800000000E+00 0. -1.
         22    1    1    2    0    0  0.28697885930E+00 -0.20370512119E+00  0.29499899592E+01  0.29709078413E+01  0.00000000000E+00 0.  1.
</event>
<event>
 5    1  0.6076093E+001  0.1599676E+01  0.7818608E-02  0.3353715E+00
         11   -1    0    0    0    0  0.00000000000E+00  0.00000000000E+00  0.39999999674E+01  0.40000000000E+01  0.51100000000E-03 0.  1.
    9000002   -1    0    0    0    0 -0.00000000000E+00 -0.00000000000E+00  0.00000000000E+00  0.93800000000E+00  0.93800000000E+00 0.  1.
         11    1    1    2    0    0  0.62217457397E-01 -0.16345666905E+00  0.14877618982E+01  0.14980069497E+01  0.51100000000E-03 0.  1.
    9000002    1    1    2    0    0 -0.15840578509E+00  0.42378667324E+00  0.13907129834E+00  0.10506533030E+01  0.93800000000E+00 0.  1.
         22    1    1    2    0    0  0.96188327690E-01 -0.26033000419E+00  0.23731667709E+01  0.23893397473E+01  0.00000000000E+00 0.  1.
</event>
<event>
 5    1  0.6076093E+001  0.1599446E+01  0.7818608E-02  0.3353965E+00
         11   -1    0    0    0    0  0.00000000000E+00  0.00000000000E+00  0.39999999674E+01  0.40000000000E+01  0.51100000000E-03 0.  1.
    9000002   -1    0    0    0    0 -0.00000000000E+00 -0.00000000000E+00  0.00000000000E+00  0.93800000000E+00  0.93800000000E+00 0.  1.
         11    1    1    2    0    0  0.16218825729E+00 -0.33850475759E-02  0.13963146262E+01  0.14057066856E+01  0.51100000000E-03 0.  1.
    9000002    1    1    2    0    0 -0.42473089669E+00  0.51012481521E-01  0.12409124850E+00  0.10383839588E+01  0.93800000000E+00 0.  1.
         22    1    1    2    0    0  0.26254263940E+00 -0.47627433945E-01  0.24795940926E+01  0.24939093557E+01  0.00000000000E+00 0.  1.
</event>
<event>
 5    1  0.6076093E+001  0.1595259E+01  0.7818608E-02  0.3358525E+00
         11   -1    0    0    0    0  0.00000000000E+00  0.00000000000E+00  0.39999999674E+01  0.40000000000E+01  0.51100000000E-03 0. -1.
    9000002   -1    0    0    0    0 -0.00000000000E+00 -0.00000000000E+00  0.00000000000E+00  0.93800000000E+00  0.93800000000E+00 0.  1.
         11    1    1    2    0    0 -0.61056630316E-01  0.16373652340E+00  0.12381710915E+01  0.12504421115E+01  0.51100000000E-03 0. -1.
    9000002    1    1    2    0    0 -0.30665072900E-01 -0.43751703412E+00  0.13422417183E+00  0.10441367871E+01  0.93800000000E+00 0.  1.
         22    1    1    2    0    0  0.91721703215E-01  0.27378051072E+00  0.26276047040E+01  0.26434211014E+01  0.00000000000E+00 0. -1.
</event>
<event>
 5    1  0.6076093E+001  0.1599628E+01  0.7818608E-02  0.3353768E+00
         11   -1    0    0    0    0  0.00000000000E+00  0.00000000000E+00  0.39999999674E+01  0.40000000000E+01  0.51100000000E-03 0.  1.
    9000002   -1    0    0    0    0 -0.00000000000E+00 -0.00000000000E+00  0.00000000000E+00  0.93800000000E+00  0.93800000000E+00 0.  1.
         11    1    1    2    0    0 -0.10940497106E-01 -0.84290941694E-02  0.16105183047E+00  0.16164373580E+00  0.51100000000E-03 0.  1.
    9000002    1    1    2    0    0  0.24163274012E+00  0.28169004032E+00  0.92616206872E-01  0.10129942851E+01  0.93800000000E+00 0.  1.
         22    1    1    2    0    0 -0.23069224301E+00 -0.27326094615E+00  0.37463319300E+01  0.37633619791E+01  0.00000000000E+00 0.  1.
</event>
<event>
 5    1  0.6076093E+001  0.1599663E+01  0.7818608E-02  0.3353729E+00
         11   -1    0    0    0    0  0.00000000000E+00  0.00000000000E+00  0.39999999674E+01  0.40000000000E+01  0.51100000000E-03 0.  1.
    9000002   -1    0    0    0    0 -0.00000000000E+00 -0.00000000000E+00  0.00000000000E+00  0.93800000000E+00  0.93800000000E+00 0. -1.
         11    1    1    2    0    0 -0.82622564276E-01  0.78693452209E-01  0.84374483590E+00  0.85142513280E+00  0.51100000000E-03 0.  1.
    9000002    1    1    2    0    0  0.37280033967E+00 -0.37221239554E+00  0.19087866879E+00  0.10926119288E+01  0.93800000000E+00 0. -1.
         22    1    1    2    0    0 -0.29017777539E+00  0.29351894333E+00  0.29653764627E+01  0.29939629384E+01  0.00000000000E+00 0.  1.
</event>
<event>
 5    1  0.6076093E+001  0.1599605E+01  0.7818608E-02  0.3353792E+00
         11   -1    0    0    0    0  0.00000000000E+00  0.00000000000E+00  0.39999999674E+01  0.40000000000E+01  0.51100000000E-03 0.  1.
    9000002   -1    0    0    0    0 -0.00000000000E+00 -0.00000000000E+00  0.00000000000E+00  0.93800000000E+00  0.93800000000E+00 0.  1.
         11    1    1    2    0    0  0.70590896111E-01 -0.17295324785E+00  0.11836138813E+01  0.11982645708E+01  0.51100000000E-03 0.  1.
    9000002    1    1    2    0    0 -0.23360964966E+00  0.52212486183E+00  0.22702996221E+00  0.11218620430E+01  0.93800000000E+00 0.  1.
         22    1    1    2    0    0  0.16301875355E+00 -0.34917161398E+00  0.25893561239E+01  0.26178733862E+01  0.00000000000E+00 0.  1.
</event>
<event>
 5    1  0.6076093E+001  0.1599675E+01  0.7818608E-02  0.3353716E+00
         11   -1    0    0    0    0  0.00000000000E+00  0.00000000000E+00  0.39999999674E+01  0.40000000000E+01  0.51100000000E-03 0. -1.
    9000002   -1    0    0    0    0 -0.00000000000E+00 -0.00000000000E+00  0.00000000000E+00  0.93800000000E+00  0.93800000000E+00 0.  1.
         11    1    1    2    0    0  0.52997984359E-02 -0.81004334710E-01  0.88538623038E+00  0.88910001022E+00  0.51100000000E-03 0. -1.
    9000002    1    1    2    0    0 -0.17808410181E-01  0.35970025475E+00  0.87066511046E-01  0.10085266432E+01  0.93800000000E+00 0.  1.
         22    1    1    2    0    0  0.12508611745E-01 -0.27869592004E+00  0.30275472259E+01  0.30403733466E+01  0.00000000000E+00 0. -1.
</event>
<event>
 5    1  0.6076093E+001  0.1599664E+01  0.7818608E-02  0.3353728E+00
         11   -1    0    0    0    0  0.00000000000E+00  0.00000000000E+00  0.39999999674E+01  0.40000000000E+01  0.51100000000E-03 0.  1.
    9000002   -1    0    0    0    0 -0.00000000000E+00 -0.00000000000E+00  0.00000000000E+00  0.93800000000E+00  0.93800000000E+00 0.  1.
         11    1    1    2    0    0 -0.20526492435E-01  0.59543302971E-01  0.56609165532E+00  0.56958473045E+00  0.51100000000E-03 0.  1.
    9000002    1    1    2    0    0  0.11996982407E+00 -0.41205333910E+00  0.12473064424E+00  0.10390295696E+01  0.93800000000E+00 0.  1.
         22    1    1    2    0    0 -0.99443331636E-01  0.35251003613E+00  0.33091776678E+01  0.33293856999E+01  0.00000000000E+00 0.  1.
</event>
<event>
 5    1  0.7994558E+001  0.1599674E+01  0.7818608E-02  0.3353717E+00
         11   -1    0    0    0    0  0.00000000000E+00  0.00000000000E+00  0.39999999674E+01  0.40000000000E+01  0.51100000000E-03 0. -1.
    9000002   -1    0    0    0    0 -0.00000000000E+00 -0.00000000000E+00  0.00000000000E+00  0.93800000000E+00  0.93800000000E+00 0.  1.
         11    1    1    2    0    0  0.87065130972E-01  0.16996907852E+00  0.14587125020E+01  0.14711601712E+01  0.51100000000E-03 0. -1.
    9000002    1    1    2    0    0 -0.23128040649E+00 -0.45015510347E+00  0.17551915213E+00  0.10801764746E+01  0.93800000000E+00 0.  1.
         22    1    1    2    0    0  0.14421527552E+00  0.28018602494E+00  0.23657683132E+01  0.23866633541E+01  0.00000000000E+00 0. -1.
</event>
<event>
 5    1  0.6076093E+001  0.1599514E+01  0.7818608E-02  0.3353891E+00
         11   -1    0    0    0    0  0.00000000000E+00  0.00000000000E+00  0.39999999674E+01  0.40000000000E+01  0.51100000000E-03 0. -1.
    9000002   -1    0    0    0    0 -0.00000000000E+00 -0.00000000000E+00  0.00000000000E+00  0.93800000000E+00  0.93800000000E+00 0. -1.
         11    1    1    2    0    0  0.76956726909E-01  0.14535445563E-01  0.77286790132E+00  0.77682602364E+00  0.51100000000E-03 0. -1.
    9000002    1    1    2    0    0 -0.40160474744E+00 -0.13075000536E-01  0.10906770921E+00  0.10262539130E+01  0.93800000000E+00 0. -1.
         22    1    1    2    0    0  0.32464802053E+00 -0.14604450265E-02  0.31180643568E+01  0.31349200633E+01  0.00000000000E+00 0. -1.
</event>
<event>
 5    1  0.6076093E+001  0.1599677E+01  0.7818608E-02  0.3353714E+00
         11   -1    0    0    0    0  0.00000000000E+00  0.00000000000E+00  0.39999999674E+01  0.40000000000E+01  0.51100000000E-03 0.  1.
    9000002   -1    0    0    0    0 -0.00000000000E+00 -0.00000000000E+00  0.00000000000E+00  0.93800000000E+00  0.93800000000E+00 0. -1.
         11    1    1    2    0    0  0.36995848479E-01  0.48765485677E-01  0.67842426945E+00  0.68118023745E+00  0.51100000000E-03 0.  1.
    9000002    1    1    2    0    0 -0.21237143585E+00 -0.28408275234E+00  0.84397628778E-01  0.10063655383E+01  0.93800000000E+00 0. -1.
         22    1    1    2    0    0  0.17537558737E+00  0.23531726666E+00  0.32371780691E+01  0.32504542242E+01  0.00000000000E+00 0.  1.
</event>
<event>
 5    1  0.6076093E+001  0.1599676E+01  0.7818608E-02  0.3353715E+00
         11   -1    0    0    0    0  0.00000000000E+00  0.00000000000E+00  0.39999999674E+01  0.40000000000E+01  0.51100000000E-03 0.  1.
    9000002   -1    0    0    0    0 -0.00000000000E+00 -0.00000000000E+00  0.00000000000E+00  0.93800000000E+00  0.93800000000E+00 0.  1.
         11    1    1    2    0    0 -0.49868447437E-01 -0.64896327452E-01  0.86543986948E+00  0.86930134255E+00  0.51100000000E-03 0. -1.
    9000002    1    1    2    0    0  0.22201756929E+00  0.29464447405E+00  0.91458344981E-01  0.10120848759E+01  0.93800000000E+00 0.  1.
         22    1    1    2    0    0 -0.17214912185E+00 -0.22974814659E+00  0.30431017529E+01  0.30566137815E+01  0.00000000000E+00 0.  1.
</event>
<event>
 5    1  0.6076093E+001  0.1599666E+01  0.7818608E-02  0.3353726E+00
         11   -1    0    0    0    0  0.00000000000E+00  0.00000000000E+00  0.39999999674E+01  0.40000000000E+01  0.51100000000E-03 0.  1.
    9000002   -1    0    0    0    0 -0.00000000000E+00 -0.00000000000E+00  0.00000000000E+00  0.93800000000E+00  0.93800000000E+00 0.  1.
         11    1    1    2    0    0 -0.36446703443E-01  0.11738304848E+00  0.13221974831E+01  0.13278981842E+01  0.51100000000E-03 0.  1.
    9000002    1    1    2    0    0  0.99995377286E-01 -0.35506743051E+00  0.91442589200E-01  0.10120660565E+01  0.93800000000E+00 0.  1.
         22    1    1    2    0    0 -0.63548673843E-01  0.23768438203E+00  0.25863598951E+01  0.25980357593E+01  0.00000000000E+00 0.  1.
</event>
<event>
 5    1  0.6076093E+001  0.1554512E+01  0.7818608E-02  0.3404265E+00
         11   -1    0    0    0    0  0.00000000000E+00  0.00000000000E+00  0.39999999674E+01  0.40000000000E+01  0.51100000000E-03 0.  1.
    9000002   -1    0    0    0    0 -0.00000000000E+00 -0.00000000000E+00  0.00000000000E+00  0.93800000000E+00  0.93800000000E+00 0.  1.
         11    1    1    2    0    0  0.15603447848E+00 -0.34099743787E+00  0.11871551604E+01  0.12449753600E+01  0.51100000000E-03 0.  1.
    9000002    1    1    2    0    0  0.18670305438E-01  0.51965211324E+00  0.22841364748E+00  0.10965416971E+01  0.93800000000E+00 0.  1.
         22    1    1    2    0    0 -0.17470478392E+00 -0.17865467537E+00  0.25844311595E+01  0.25964829429E+01  0.00000000000E+00 0.  1.
</event>
<event>
 5    1  0.6076093E+001  0.1597239E+01  0.7818608E-02  0.3356366E+00
         11   -1    0    0    0    0  0.00000000000E+00  0.00000000000E+00  0.39999999674E+01  0.40000000000E+01  0.51100000000E-03 0.  1.
    9000002   -1    0    0    0    0 -0.00000000000E+00 -0.00000000000E+00  0.00000000000E+00  0.93800000000E+00  0.93800000000E+00 0. -1.
         11    1    1    2    0    0 -0.43708602850E-01  0.16739791792E+00  0.14482508582E+01  0.14585483586E+01  0.51100000000E-03 0.  1.
    9000002    1    1    2    0    0  0.25983350343E+00 -0.39235283962E+00  0.15302244783E+00  0.10605253744E+01  0.93800000000E+00 0. -1.
         22    1    1    2    0    0 -0.21612490058E+00  0.22495492169E+00  0.23987266613E+01  0.24189262670E+01  0.00000000000E+00 0.  1.
</event>
<event>
 5    1  0.6076093E+001  0.1597901E+01  0.7818608E-02  0.3355645E+00
         11   -1    0    0    0    0  0.00000000000E+00  0.00000000000E+00  0.39999999674E+01  0.40000000000E+01  0.51100000000E-03 0.  1.
    9000002   -1    0    0    0    0 -0.00000000000E+00 -0.00000000000E+00  0.00000000000E+00  0.93800000000E+00  0.93800000000E+00 0. -1.
         11    1    1    2    0    0  0.27048042804E+00  0.13079658861E+00  0.12755396821E+01  0.13104461649E+01  0.51100000000E-03 0.  1.
    9000002    1    1    2    0    0 -0.62722770226E+00 -0.36920253199E+00  0.38358682498E+00  0.12476810299E+01  0.93800000000E+00 0. -1.
         22    1    1    2    0    0  0.35674727422E+00  0.23840594338E+00  0.23408734603E+01  0.23798728051E+01  0.00000000000E+00 0. -1.
</event>
<event>
 5    1  0.7686373E+001  0.1588854E+01  0.7818608E-02  0.3365550E+00
         11   -1    0    0    0    0  0.00000000000E+00  0.00000000000E+00  0.39999999674E+01  0.40000000000E+01  0.51100000000E-03 0.  1.
    9000002   -1    0    0    0    0 -0.00000000000E+00 -0.00000000000E+00  0.00000000000E+00  0.93800000000E+00  0.93800000000E+00 0.  1.
         11    1    1    2    0    0 -0.54459825589E-01  0.26204238774E-01  0.11728146905E+01  0.11743709355E+01  0.51100000000E-03 0.  1.
    9000002    1    1    2    0    0 -0.20207959823E+00 -0.81020037959E-01  0.39622790186E-01  0.96375016268E+00  0.93800000000E+00 0.  1.
         22    1    1    2    0    0  0.25653942382E+00  0.54815799185E-01  0.27875624866E+01  0.27998789018E+01  0.00000000000E+00 0.  1.
</event>
<event>
 5    1  0.6793230E+001  0.1599669E+01  0.7818608E-02  0.3353723E+00
         11   -1    0    0    0    0  0.00000000000E+00  0.00000000000E+00  0.39999999674E+01  0.40000000000E+01  0.51100000000E-03 0.  1.
    9000002   -1    0    0    0    0 -0.00000000000E+00 -0.00000000000E+00  0.00000000000E+00  0.93800000000E+00  0.93800000000E+00 0.  1.
         11    1    1    2    0    0 -0.11656459850E+00 -0.87678177207E-01  0.14509908797E+01  0.14583036592E+01  0.51100000000E-03 0.  1.
    9000002    1    1    2    0    0  0.31967589788E+00  0.24053429803E+00  0.10796397291E+00  0.10254509484E+01  0.93800000000E+00 0.  1.
         22    1    1    2    0    0 -0.20311129938E+00 -0.15285612083E+00  0.24410451148E+01  0.24542453924E+01  0.00000000000E+00 0.  1.
</event>
<event>
 5    1  0.6076093E+001  0.1599641E+01  0.7818608E-02  0.3353753E+00
         11   -1    0    0    0    0  0.00000000000E+00  0.00000000000E+00  0.39999999674E+01  0.40000000000E+01  0.51100000000E-03 0.  1.
    9000002   -1    0    0    0    0 -0.00000000000E+00 -0.00000000000E+00  0.00000000000E+00  0.93800000000E+00  0.93800000000E+00 0. -1.
         11    1    1    2    0    0 -0.34461804243E-02  0.64136524773E-01  0.72648668199E+00  0.72932059493E+00  0.51100000000E-03 0.  1.
    9000002    1    1    2    0    0  0.37664638306E-01 -0.36822608531E+00  0.92106024233E-01  0.10125890551E+01  0.93800000000E+00 0. -1.
         22    1    1    2    0    0 -0.34218457882E-01  0.30408956053E+00  0.31814072611E+01  0.31960903499E+01  0.00000000000E+00 0.  1.
</event>
<event>
 5    1  0.6076093E+001  0.1599675E+01  0.7818608E-02  0.3353716E+00
         11   -1    0    0    0    0  0.00000000000E+00  0.00000000000E+00  0.39999999674E+01  0.40000000000E+01  0.51100000000E-03 0. -1.
    9000002   -1    0    0    0    0 -0.00000000000E+00 -0.00000000000E+00  0.00000000000E+00  0.93800000000E+00  0.93800000000E+00 0. -1.
         11    1    1    2    0    0 -0.40296660219E-01  0.69548445788E-02  0.45373984517E+00  0.45557908085E+00  0.51100000000E-03 0. -1.
    9000002    1    1    2    0    0  0.35437487735E+00 -0.54029848574E-01  0.86244427650E-01  0.10078605457E+01  0.93800000000E+00 0. -1.
         22    1    1    2    0    0 -0.31407821713E+00  0.47075003995E-01  0.34600156945E+01  0.34745603735E+01  0.00000000000E+00 0. -1.
</event>
<event>
 5    1  0.6076093E+001  0.1598874E+01  0.7818608E-02  0.3354586E+00
         11   -1    0    0    0    0  0.00000000000E+00  0.00000000000E+00  0.39999999674E+01  0.40000000000E+01  0.51100000000E-03 0.  1.
    9000002   -1    0    0    0    0 -0.00000000000E+00 -0.00000000000E+00  0.00000000000E+00  0.93800000000E+00  0.93800000000E+00 0.  1.
         11    1    1    2    0    0  0.19188221704E+00  0.17838161931E-02  0.12969246607E+01  0.13110437841E+01  0.51100000000E-03 0.  1.
    9000002    1    1    2    0    0 -0.52727228609E+00  0.82779076422E-01  0.19691024831E+00  0.10970351339E+01  0.93800000000E+00 0.  1.
         22    1    1    2    0    0  0.33539006905E+00 -0.84562892615E-01  0.25061650583E+01  0.25299210820E+01  0.00000000000E+00 0.  1.
</event>
<event>
 5    1  0.6076093E+001  0.1599677E+01  0.7818608E-02  0.3353714E+00
         11   -1    0    0    0    0  0.00000000000E+00  0.00000000000E+00  0.39999999674E+01  0.40000000000E+01  0.51100000000E-03 0.  1.
    9000002   -1    0    0    0    0 -0.00000000000E+00 -0.00000000000E+00  0.00000000000E+00  0.93800000000E+00  0.93800000000E+00 0. -1.
         11    1    1    2    0    0  0.13854390582E-01  0.83174173550E-01  0.82107040723E+00  0.82538885504E+00  0.51100000000E-03 0.  1.
    9000002    1    1    2    0    0 -0.67268514292E-01 -0.39239026889E+00  0.10688268901E+00  0.10245794676E+01  0.93800000000E+00 0. -1.
         22    1    1    2    0    0  0.53414123710E-01  0.30921609534E+00  0.30720468711E+01  0.30880316774E+01  0.00000000000E+00 0.  1.
</event>
<event>
 5    1  0.6076093E+001  0.1599431E+01  0.7818608E-02  0.3353981E+00
         11   -1    0    0    0    0  0.00000000000E+00  0.00000000000E+00  0.39999999674E+01  0.40000000000E+01  0.51100000000E-03 0. -1.
    9000002   -1    0    0    0    0 -0.00000000000E+00 -0.00000000000E+00  0.00000000000E+00  0.93800000000E+00  0.93800000000E+00 0. -1.
         11    1    1    2    0    0 -0.55965038001E-01  0.13532357015E+00  0.11160434336E+01  0.11256099506E+01  0.51100000000E-03 0. -1.
    9000002    1    1    2    0    0  0.14359089871E+00 -0.43527592582E+00  0.14307702646E+00  0.10537544844E+01  0.93800000000E+00 0. -1.
         22    1    1    2    0    0 -0.87625860710E-01  0.29995235567E+00  0.27408795073E+01  0.27586355651E+01  0.00000000000E+00 0. -1.
</event>
<event>
 5    1  0.6076093E+001  0.1596237E+01  0.7818608E-02  0.3357457E+00
         11   -1    0    0    0    0  0.00000000000E+00  0.00000000000E+00  0.39999999674E+01  0.40000000000E+01  0.51100000000E-03 0.  1.
    9000002   -1    0    0    0    0 -0.00000000000E+00 -0.00000000000E+00  0.00000000000E+00  0.93800000000E+00  0.93800000000E+00 0.  1.
         11    1    1    2    0    0  0.67913482330E-01  0.40572393750E-01  0.39196517389E+00  0.39986912719E+00  0.51100000000E-03 0.  1.
    9000002    1    1    2    0    0 -0.24519357211E+00 -0.39576793619E+00  0.15057447086E+00  0.10579550172E+01  0.93800000000E+00 0.  1.
         22    1    1    2    0    0  0.17728008978E+00  0.35519554244E+00  0.34574603226E+01  0.34801758556E+01  0.00000000000E+00 0.  1.
</event>
<event>
 5    1  0.6076093E+001  0.1596845E+01  0.7818608E-02  0.3356795E+00
         11   -1    0    0    0    0  0.00000000000E+00  0.00000000000E+00  0.39999999674E+01  0.40000000000E+01  0.51100000000E-03 0.  1.
    9000002   -1    0    0    0    0 -0.00000000000E+00 -0.00000000000E+00  0.00000000000E+00  0.93800000000E+00  0.93800000000E+00 0. -1.
         11    1    1    2    0    0  0.73562403752E-03 -0.23539590390E-01  0.16064126044E+00  0.16235925947E+00  0.51100000000E-03 0.  1.
    9000002    1    1    2    0    0  0.39358622394E+00  0.10972097263E+00  0.11511059571E+00  0.10295840212E+01  0.93800000000E+00 0. -1.
         22    1    1    2    0    0 -0.39432184798E+00 -0.86181382242E-01  0.37242481112E+01  0.37460567193E+01  0.00000000000E+00 0.  1.
</event>
<event>
 5    1  0.6076093E+001  0.1522456E+01  0.7818608E-02  0.3442081E+00
         11   -1    0    0    0    0  0.00000000000E+00  0.00000000000E+00  0.39999999674E+01  0.40000000000E+01  0.51100000000E-03 0. -1.
    9000002   -1    0    0    0    0 -0.00000000000E+00 -0.00000000000E+00  0.00000000000E+00  0.93800000000E+00  0.93800000000E+00 0. -1.
         11    1    1    2    0    0 -0.18065548121E+00  0.16478785363E+00  0.87789104978E+00  0.91130916598E+00  0.51100000000E-03 0. -1.
    9000002    1    1    2    0    0 -0.21044324744E+00 -0.11697959198E-01  0.89954658455E-01  0.96558740838E+00  0.93800000000E+00 0. -1.
         22    1    1    2    0    0  0.39109872865E+00 -0.15308989444E+00  0.30321542591E+01  0.30611034256E+01  0.00000000000E+00 0. -1.
</event>
<event>
 5    1  0.6076093E+001  0.1563979E+01  0.7818608E-02  0.3393412E+00
         11   -1    0    0    0    0  0.00000000000E+00  0.00000000000E+00  0.39999999674E+01  0.40000000000E+01  0.51100000000E-03 0. -1.
    9000002   -1    0    0    0    0 -0.00000000000E+00 -0.00000000000E+00  0.00000000000E+00  0.93800000000E+00  0.93800000000E+00 0. -1.
         11    1    1    2    0    0  0.90328923872E-01 -0.24320305628E+00  0.55453714795E+00  0.61222442834E+00  0.51100000000E-03 0. -1.
    9000002    1    1    2    0    0 -0.13320096696E+00  0.59952649837E+00  0.30096224934E+00  0.11608603686E+01  0.93800000000E+00 0. -1.
         22    1    1    2    0    0  0.42872043086E-01 -0.35632344210E+00  0.31445005701E+01  0.31649152031E+01  0.00000000000E+00 0. -1.
</event>
<event>
 5    1  0.6076093E+001  0.1574813E+01  0.7818608E-02  0.3381163E+00
         11   -1    0    0    0    0  0.00000000000E+00  0.00000000000E+00  0.39999999674E+01  0.40000000000E+01  0.51100000000E-03 0.  1.
    9000002   -1    0    0    0    0 -0.00000000000E+00 -0.00000000000E+00  0.00000000000E+00  0.93800000000E+00  0.93800000000E+00 0. -1.
         11    1    1    2    0    0 -0.37043645527E-01 -0.11457310658E+00  0.90196349008E+00  0.90996572846E+00  0.51100000000E-03 0.  1.
    9000002    1    1    2    0    0 -0.25481540543E-01 -0.16996608226E+00  0.38220447626E-01  0.95438073149E+00  0.93800000000E+00 0. -1.
         22    1    1    2    0    0  0.62525186070E-01  0.28453918884E+00  0.30598160297E+01  0.30736535400E+01  0.00000000000E+00 0.  1.
</event>
<event>
 5    1  0.6076093E+001  0.1599674E+01  0.7818608E-02  0.3353717E+00
         11   -1    0    0    0    0  0.00000000000E+00  0.00000000000E+00  0.39999999674E+01  0.40000000000E+01  0.51100000000E-03 0. -1.
    9000002   -1    0    0    0    0 -0.00000000000E+00 -0.00000000000E+00  0.00000000000E+00  0.93800000000E+00  0.93800000000E+00 0. -1.
         11    1    1    2    0    0 -0.33050579365E-01 -0.24933807944E-01  0.29092243002E+00  0.29385397221E+00  0.51100000000E-03 0. -1.
    9000002    1    1    2    0    0  0.43355433199E+00  0.31360350108E+00  0.19721231899E+00  0.10977491578E+01  0.93800000000E+00 0. -1.
         22    1    1    2    0    0 -0.40050375263E+00 -0.28866969314E+00  0.35118652184E+01  0.35463968700E+01  0.00000000000E+00 0. -1.
</event>
<event>
 5    1  0.6076093E+001  0.1599665E+01  0.7818608E-02  0.3353727E+00
         11   -1    0    0    0    0  0.00000000000E+00  0.00000000000E+00  0.39999999674E+01  0.40000000000E+01  0.51100000000E-03 0.  1.
    9000002   -1    0    0    0    0 -0.00000000000E+00 -0.00000000000E+00  0.00000000000E+00  0.93800000000E+00  0.93800000000E+00 0. -1.
         11    1    1    2    0    0 -0.20318004378E-01 -0.75613309411E-01  0.85918025399E+00  0.86274049623E+00  0.51100000000E-03 0.  1.
    9000002    1    1    2    0    0  0.10749311360E+00  0.34080117309E+00  0.85703934154E-01  0.10074171794E+01  0.93800000000E+00 0. -1.
         22    1    1    2    0    0 -0.87175109223E-01 -0.26518786368E+00  0.30551157792E+01  0.30678423244E+01  0.00000000000E+00 0.  1.
</event>
<event>
 5    1  0.6076093E+001  0.1599661E+01  0.7818608E-02  0.3353731E+00
         11   -1    0    0    0    0  0.00000000000E+00  0.00000000000E+00  0.39999999674E+01  0.40000000000E+01  0.51100000000E-03 0. -1.
    9000002   -1    0    0    0    0 -0.00000000000E+00 -0.00000000000E+00  0.00000000000E+00  0.93800000000E+00  0.93800000000E+00 0.  1.
         11    1    1    2    0    0  0.39014086393E-01  0.13389171352E+00  0.12774416793E+01  0.12850317486E+01  0.51100000000E-03 0. -1.
    9000002    1    1    2    0    0 -0.12062958360E+00 -0.39364697536E+00  0.11452578452E+00  0.10307616567E+01  0.93800000000E+00 0.  1.
         22    1    1    2    0    0  0.81615497209E-01  0.25975526184E+00  0.26080325035E+01  0.26222065946E+01  0.00000000000E+00 0. -1.
</event>
<event>
 5    1  0.6754792E+001  0.1575129E+01  0.7818608E-02  0.3380808E+00
         11   -1    0    0    0    0  0.00000000000E+00  0.00000000000E+00  0.39999999674E+01  0.40000000000E+01  0.51100000000E-03 0.  1.
    9000002   -1    0    0    0    0 -0.00000000000E+00 -0.00000000000E+00  0.00000000000E+00  0.93800000000E+00  0.93800000000E+00 0.  1.
         11    1    1    2    0    0 -0.11776994248E+00 -0.33350990903E-01  0.84042585882E+00  0.84929260755E+00  0.51100000000E-03 0.  1.
    9000002    1    1    2    0    0 -0.99989073857E-01 -0.15782150975E+00  0.41633823204E-01  0.95733109166E+00  0.93800000000E+00 0.  1.
         22    1    1    2    0    0  0.21775901634E+00  0.19117250065E+00  0.31179402853E+01  0.31313763008E+01  0.00000000000E+00 0.  1.
</event>
<event>
 5    1  0.6076093E+001  0.1599673E+01  0.7818608E-02  0.3353718E+00
         11   -1    0    0    0    0  0.00000000000E+00  0.00000000000E+00  0.39999999674E+01  0.40000000000E+01  0.51100000000E-03 0. -1.
    9000002   -1    0    0    0    0 -0.00000000000E+00 -0.00000000000E+00  0.00000000000E+00  0.93800000000E+00  0.93800000000E+00 0. -1.
         11    1    1    2    0    0  0.54138253310E-01  0.31437335309E-02  0.58508479621E+00  0.58759281259E+00  0.51100000000E-03 0. -1.
    9000002    1    1    2    0    0 -0.36039947400E+00 -0.10431246123E-01  0.87270231429E-01  0.10086905794E+01  0.93800000000E+00 0. -1.
         22    1    1    2    0    0  0.30626122069E+00  0.72875125920E-02  0.33276449397E+01  0.33417166080E+01  0.00000000000E+00 0. -1.
</event>
<event>
 5    1  0.6076093E+001  0.1598905E+01  0.7818608E-02  0.3354552E+00
         11   -1    0    0    0    0  0.00000000000E+00  0.00000000000E+00  0.39999999674E+01  0.40000000000E+01  0.51100000000E-03 0.  1.
    9000002   -1    0    0    0    0 -0.00000000000E+00 -0.00000000000E+00  0.00000000000E+00  0.93800000000E+00  0.93800000000E+00 0.  1.
         11    1    1    2    0    0  0.10152842903E-01 -0.38052903593E-02  0.46886494361E-01  0.48126551177E-01  0.51100000000E-03 0.  1.
    9000002    1    1    2    0    0 -0.23425354737E+00  0.38698448970E+00  0.13969922350E+00  0.10507100422E+01  0.93800000000E+00 0.  1.
         22    1    1    2    0    0  0.22410070446E+00 -0.38317919934E+00  0.38134142495E+01  0.38391634066E+01  0.00000000000E+00 0.  1.
</event>
<event>
 5    1  0.6076093E+001  0.1599555E+01  0.7818608E-02  0.3353846E+00
         11   -1    0    0    0    0  0.00000000000E+00  0.00000000000E+00  0.39999999674E+01  0.40000000000E+01  0.51100000000E-03 0. -1.
    9000002   -1    0    0    0    0 -0.00000000000E+00 -0.00000000000E+00  0.00000000000E+00  0.93800000000E+00  0.93800000000E+00 0. -1.
         11    1    1    2    0    0  0.18856027613E-01 -0.30042786815E-02  0.21555248220E+00  0.21639710990E+00  0.51100000000E-03 0. -1.
    9000002    1    1    2    0    0 -0.38227926092E+00  0.15495321009E+00  0.11505773139E+00  0.10311305505E+01  0.93800000000E+00 0. -1.
         22    1    1    2    0    0  0.36342323330E+00 -0.15194893140E+00  0.36693897538E+01  0.36904723396E+01  0.00000000000E+00 0. -1.
</event>
<event>
 5    1  0.6076093E+001  0.1594421E+01  0.7818608E-02  0.3359441E+00
         11   -1    0    0    0    0  0.00000000000E+00  0.00000000000E+00  0.39999999674E+01  0.40000000000E+01  0.51100000000E-03 0. -1.
    9000002   -1    0    0    0    0 -0.00000000000E+00 -0.00000000000E+00  0.00000000000E+00  0.93800000000E+00  0.93800000000E+00 0. -1.
         11    1    1    2    0    0 -0.66829657541E-01  0.69198647925E-01  0.90544846912E+00  0.91054480799E+00  0.51100000000E-03 0. -1.
    9000002    1    1    2    0    0 -0.26644373463E-01 -0.33855868626E+00  0.81461628978E-01  0.10009055418E+01  0.93800000000E+00 0. -1.
         22    1    1    2    0    0  0.93474031004E-01  0.26936003834E+00  0.30130898693E+01  0.30265496502E+01  0.00000000000E+00 0.  1.
</event>
<event>
 5    1  0.6076093E+001  0.1594174E+01  0.7818608E-02  0.3359711E+00
         11   -1    0    0    0    0  0.00000000000E+00  0.00000000000E+00  0.39999999674E+01  0.40000000000E+01  0.51100000000E-03 0. -1.
    9000002   -1    0    0    0    0 -0.00000000000E+00 -0.00000000000E+00  0.00000000000E+00  0.93800000000E+00  0.93800000000E+00 0.  1.
         11    1    1    2    0    0  0.80763310368E-01  0.35020720871E-01  0.10160496063E+01  0.10198559834E+01  0.51100000000E-03 0. -1.
    9000002    1    1    2    0    0 -0.38072041913E+00  0.15736882533E+00  0.11928587690E+00  0.10314000704E+01  0.93800000000E+00 0.  1.
         22    1    1    2    0    0  0.29995710876E+00 -0.19238954620E+00  0.28646644842E+01  0.28867439463E+01  0.00000000000E+00 0. -1.
</event>
<event>
 5    1  0.6794743E+001  0.1587038E+01  0.7818608E-02  0.3367554E+00
         11   -1    0    0    0    0  0.00000000000E+00  0.00000000000E+00  0.39999999674E+01  0.40000000000E+01  0.51100000000E-03 0.  1.
    9000002   -1    0    0    0    0 -0.00000000000E+00 -0.00000000000E+00  0.00000000000E+00  0.93800000000E+00  0.93800000000E+00 0.  1.
         11    1    1    2    0    0 -0.40373193200E-01  0.53429216925E-01  0.13300754160E+01  0.13317603197E+01  0.51100000000E-03 0.  1.
    9000002    1    1    2    0    0 -0.82207010942E-01  0.16336650036E+00  0.31598292574E-01  0.95618463603E+00  0.93800000000E+00 0.  1.
         22    1    1    2    0    0  0.12258020414E+00 -0.21679571728E+00  0.26383262588E+01  0.26500550442E+01  0.00000000000E+00 0.  1.
</event>
<event>
 5    1  0.6076093E+001  0.1598723E+01  0.7818608E-02  0.3354750E+00
         11   -1    0    0    0    0  0.00000000000E+00  0.00000000000E+00  0.39999999674E+01  0.40000000000E+01  0.51100000000E-03 0. -1.
    9000002   -1    0    0    0    0 -0.00000000000E+00 -0.00000000000E+00  0.00000000000E+00  0.93800000000E+00  0.93800000000E+00 0. -1.
         11    1    1    2    0    0 -0.11188164467E+00 -0.77385891278E-01  0.12249857201E+01  0.12325162693E+01  0.51100000000E-03 0. -1.
    9000002    1    1    2    0    0  0.40208432022E+00  0.14666807745E+00  0.12483421266E+00  0.10385619414E+01  0.93800000000E+00 0. -1.
         22    1    1    2    0    0 -0.29020267556E+00 -0.69282186168E-01  0.26501800346E+01  0.26669217893E+01  0.00000000000E+00 0. -1.
</event>
<event>
 5    1  0.6076093E+001  0.1594173E+01  0.7818608E-02  0.3359712E+00
         11   -1    0    0    0    0  0.00000000000E+00  0.00000000000E+00  0.39999999674E+01  0.40000000000E+01  0.51100000000E-03 0. -1.
    9000002   -1    0    0    0    0 -0.00000000000E+00 -0.00000000000E+00  0.00000000000E+00  0.93800000000E+00  0.93800000000E+00 0. -1.
         11    1    1    2    0    0 -0.55069954578E-02  0.40541049616E-02  0.52098622594E-02  0.86120004514E-02  0.51100000000E-03 0. -1.
    9000002    1    1    2    0    0 -0.51735936495E+00 -0.52400303045E-01  0.19081210075E+00  0.10893391401E+01  0.93800000000E+00 0. -1.
         22    1    1    2    0    0  0.52286636041E+00  0.48346198084E-01  0.38039780044E+01  0.38400488595E+01  0.00000000000E+00 0. -1.
</event>
<event>
 5    1  0.6076093E+001  0.1599553E+01  0.7818608E-02  0.3353849E+00
         11   -1    0    0    0    0  0.00000000000E+00  0.00000000000E+00  0.39999999674E+01  0.40000000000E+01  0.51100000000E-03 0. -1.
    9000002   -1    0    0    0    0 -0.00000000000E+00 -0.00000000000E+00  0.00000000000E+00  0.93800000000E+00  0.93800000000E+00 0. -1.
         11    1    1    2    0    0  0.57360452002E-01 -0.66546046046E-01  0.10027072378E+01  0.10065488879E+01  0.51100000000E-03 0. -1.
    9000002    1    1    2    0    0 -0.26899821630E+00  0.25421001460E+00  0.92160307996E-01  0.10125810063E+01  0.93800000000E+00 0. -1.
         22    1    1    2    0    0  0.21163776430E+00 -0.18766396856E+00  0.29051324215E+01  0.29188701059E+01  0.00000000000E+00 0. -1.
</event>
<event>
 5    1  0.6076093E+001  0.1596818E+01  0.7818608E-02  0.3356824E+00
         11   -1    0    0    0    0  0.00000000000E+00  0.00000000000E+00  0.39999999674E+01  0.40000000000E+01  0.51100000000E-03 0. -1.
    9000002   -1    0    0    0    0 -0.00000000000E+00 -0.00000000000E+00  0.00000000000E+00  0.93800000000E+00  0.93800000000E+00 0. -1.
         11    1    1    2    0    0 -0.66502886929E-01  0.51625883323E-02  0.94205326336E+00  0.94441193259E+00  0.51100000000E-03 0. -1.
    9000002    1    1    2    0    0  0.35741098801E+00  0.19091329267E+00  0.11321539196E+00  0.10280331827E+01  0.93800000000E+00 0. -1.
         22    1    1    2    0    0 -0.29090810108E+00 -0.19607588100E+00  0.29447313120E+01  0.29655548848E+01  0.00000000000E+00 0. -1.
</event>
<event>
 5    1  0.6076093E+001  0.1598992E+01  0.7818608E-02  0.3354458E+00
         11   -1    0    0    0    0  0.00000000000E+00  0.00000000000E+00  0.39999999674E+01  0.40000000000E+01  0.51100000000E-03 0.  1.
    9000002   -1    0    0    0    0 -0.00000000000E+00 -0.00000000000E+00  0.00000000000E+00  0.93800000000E+00  0.93800000000E+00 0.  1.
         11    1    1    2    0    0 -0.75698361109E-02 -0.14495058853E+00  0.92172927420E+00  0.93308793346E+00  0.51100000000E-03 0.  1.
    9000002    1    1    2    0    0  0.13977196340E+00  0.60167932393E+00  0.26793481429E+00  0.11546372917E+01  0.93800000000E+00 0.  1.
         22    1    1    2    0    0 -0.13220212728E+00 -0.45672873540E+00  0.28103358789E+01  0.28502747749E+01  0.00000000000E+00 0.  1.
</event>
<event>
 5    1  0.6076093E+001  0.1599634E+01  0.7818608E-02  0.3353760E+00
         11   -1    0    0    0    0  0.00000000000E+00  0.00000000000E+00  0.39999999674E+01  0.40000000000E+01  0.51100000000E-03 0. -1.
    9000002   -1    0    0    0    0 -0.00000000000E+00 -0.00000000000E+00  0.00000000000E+00  0.93800000000E+00  0.93800000000E+00 0.  1.
         11    1    1    2    0    0 -0.10190978719E+00 -0.87849058452E-01  0.11315447869E+01  0.11395160936E+01  0.51100000000E-03 0. -1.
    9000002    1    1    2    0    0  0.35242415152E+00  0.27593923272E+00  0.13606007345E+00  0.10481896710E+01  0.93800000000E+00 0.  1.
         22    1    1    2    0    0 -0.25051436434E+00 -0.18809017427E+00  0.27323951070E+01  0.27502942354E+01  0.00000000000E+00 0. -1.
</event>
<event>
 5    1  0.6076093E+001  0.1598274E+01  0.7818608E-02  0.3355239E+00
         11   -1    0    0    0    0  0.00000000000E+00  0.00000000000E+00  0.39999999674E+01  0.40000000000E+01  0.51100000000E-03 0.  1.
    9000002   -1    0    0    0    0 -0.00000000000E+00 -0.00000000000E+00  0.00000000000E+00  0.93800000000E+00  0.93800000000E+00 0. -1.
         11    1    1    2    0    0 -0.80631362691E-02 -0.84360777977E-01  0.44915494129E+00  0.45708005583E+00  0.51100000000E-03 0.  1.
    9000002    1    1    2    0    0  0.80980007974E-03  0.48052090636E+00  0.15880446975E+00  0.10658160521E+01  0.93800000000E+00 0. -1.
         22    1    1    2    0    0  0.72533361894E-02 -0.39616012838E+00  0.33920405563E+01  0.34151038921E+01  0.00000000000E+00 0.  1.
</event>
<event>
 5    1  0.6076093E+001  0.1597635E+01  0.7818608E-02  0.3355935E+00
         11   -1    0    0    0    0  0.00000000000E+00  0.00000000000E+00  0.39999999674E+01  0.40000000000E+01  0.51100000000E-03 0.  1.
    9000002   -1    0    0    0    0 -0.00000000000E+00 -0.00000000000E+00  0.00000000000E+00  0.93800000000E+00  0.93800000000E+00 0. -1.
         11    1    1    2    0    0 -0.60158929023E-02  0.12636769921E-01  0.65731245681E-01  0.67206671553E-01  0.51100000000E-03 0.  1.
    9000002    1    1    2    0    0 -0.32166032913E+00 -0.26491476957E+00  0.11910647739E+00  0.10332838697E+01  0.93800000000E+00 0. -1.
         22    1    1    2    0    0  0.32767622203E+00  0.25227799965E+00  0.38151622443E+01  0.38375094587E+01  0.00000000000E+00 0.  1.
</event>
<event>
 5    1  0.6076093E+001  0.1599673E+01  0.7818608E-02  0.3353718E+00
         11   -1    0    0    0    0  0.00000000000E+00  0.00000000000E+00  0.39999999674E+01  0.40000000000E+01  0.51100000000E-03 0. -1.
    9000002   -1    0    0    0    0 -0.00000000000E+00 -0.00000000000E+00  0.00000000000E+00  0.93800000000E+00  0.93800000000E+00 0.  1.
         11    1    1    2    0    0 -0.32774728732E-01 -0.42207444639E-01  0.53801440317E+00  0.54066201121E+00  0.51100000000E-03 0. -1.
    9000002    1    1    2    0    0  0.23620816083E+00  0.31662682532E+00  0.10519303717E+00  0.10232088823E+01  0.93800000000E+00 0.  1.
         22    1    1    2    0    0 -0.20343343210E+00 -0.27441938069E+00  0.33567925270E+01  0.33741291065E+01  0.00000000000E+00 0. -1.
</event>
<event>
 5    1  0.6076093E+001  0.1589855E+01  0.7818608E-02  0.3364449E+00
         11   -1    0    0    0    0  0.00000000000E+00  0.00000000000E+00  0.39999999674E+01  0.40000000000E+01  0.51100000000E-03 0. -1.
    9000002   -1    0    0    0    0 -0.00000000000E+00 -0.00000000000E+00  0.00000000000E+00  0.93800000000E+00  0.93800000000E+00 0.  1.
         11    1    1    2    0    0  0.12990955518E-01  0.15608345305E+00  0.79932992566E+00  0.81453017158E+00  0.51100000000E-03 0. -1.
    9000002    1    1    2    0    0  0.18917394537E+00 -0.36058577096E+00  0.12020577518E+00  0.10296126982E+01  0.93800000000E+00 0.  1.
         22    1    1    2    0    0 -0.20216490089E+00  0.20450231791E+00  0.30804642665E+01  0.30938571303E+01  0.00000000000E+00 0. -1.
</event>
<event>
 5    1  0.6076093E+001  0.1598807E+01  0.7818608E-02  0.3354659E+00
         11   -1    0    0    0    0  0.00000000000E+00  0.00000000000E+00  0.39999999674E+01  0.40000000000E+01  0.51100000000E-03 0. -1.
    9000002   -1    0    0    0    0 -0.00000000000E+00 -0.00000000000E+00  0.00000000000E+00  0.93800000000E+00  0.93800000000E+00 0. -1.
         11    1    1    2    0    0 -0.10371098320E-01  0.24880645153E-02  0.42685796873E-01  0.44001005910E-01  0.51100000000E-03 0. -1.
    9000002    1    1    2    0    0  0.34811086426E+00  0.91679417179E-01  0.87691096540E-01  0.10085236823E+01  0.93800000000E+00 0. -1.
         22    1    1    2    0    0 -0.33773976594E+00 -0.94167481694E-01  0.38696230739E+01  0.38854753118E+01  0.00000000000E+00 0. -1.
</event>
<event>
 5    1  0.6076093E+001  0.1599054E+01  0.7818608E-02  0.3354390E+00
         11   -1    0    0    0    0  0.00000000000E+00  0.00000000000E+00  0.39999999674E+01  0.40000000000E+01  0.51100000000E-03 0. -1.
    9000002   -1    0    0    0    0 -0.00000000000E+00 -0.00000000000E+00  0.00000000000E+00  0.93800000000E+00  0.93800000000E+00 0.  1.
         11    1    1    2    0    0  0.68424141385E-01  0.78516487557E-01  0.12068741444E+01  0.12113596342E+01  0.51100000000E-03 0. -1.
    9000002    1    1    2    0    0 -0.18586408847E+00 -0.33635468766E+00  0.99929595020E-01  0.10185822791E+01  0.93800000000E+00 0.  1.
         22    1    1    2    0    0  0.11743994709E+00  0.25783820010E+00  0.26931962279E+01  0.27080580867E+01  0.00000000000E+00 0. -1.
</event>
<event>
 5    1  0.6076093E+001  0.1599124E+01  0.7818608E-02  0.3354314E+00
         11   -1    0    0    0    0  0.00000000000E+00  0.00000000000E+00  0.39999999674E+01  0.40000000000E+01  0.51100000000E-03 0.  1.
    9000002   -1    0    0    0    0 -0.00000000000E+00 -0.00000000000E+00  0.00000000000E+00  0.93800000000E+00  0.93800000000E+00 0. -1.
         11    1    1    2    0    0 -0.11355446344E+00 -0.15895305757E-01  0.11344276748E+01  0.11402077387E+01  0.51100000000E-03 0.  1.
    9000002    1    1    2    0    0  0.45031210334E+00 -0.65417179572E-02  0.13823970486E+00  0.10496561344E+01  0.93800000000E+00 0. -1.
         22    1    1    2    0    0 -0.33675763990E+00  0.22437023714E-01  0.27273325876E+01  0.27481361269E+01  0.00000000000E+00 0.  1.
</event>
<event>
 5    1  0.6076093E+001  0.1597284E+01  0.7818608E-02  0.3356316E+00
         11   -1    0    0    0    0  0.00000000000E+00  0.00000000000E+00  0.39999999674E+01  0.40000000000E+01  0.51100000000E-03 0.  1.
    9000002   -1    0    0    0    0 -0.00000000000E+00 -0.00000000000E+00  0.00000000000E+00  0.93800000000E+00  0.93800000000E+00 0.  1.
         11    1    1    2    0    0 -0.20102112742E-02 -0.72621716886E-01  0.99175637727E+00  0.99441386137E+00  0.51100000000E-03 0.  1.
    9000002    1    1    2    0    0  0.87253418749E-01  0.46584606051E+00  0.15522968113E+00  0.10623398539E+01  0.93800000000E+00 0.  1.
         22    1    1    2    0    0 -0.85243207475E-01 -0.39322434363E+00  0.28530139090E+01  0.28812462848E+01  0.00000000000E+00 0.  1.
</event>
<event>
 5    1  0.6076093E+001  0.1571026E+01  0.7818608E-02  0.3385423E+00
         11   -1    0    0    0    0  0.00000000000E+00  0.00000000000E+00  0.39999999674E+01  0.40000000000E+01  0.51100000000E-03 0. -1.
    9000002   -1    0    0    0    0 -0.00000000000E+00 -0.00000000000E+00  0.00000000000E+00  0.93800000000E+00  0.93800000000E+00 0. -1.
         11    1    1    2    0    0 -0.33854547277E-02 -0.85614161778E-01  0.13567911025E+00  0.16046908762E+00  0.51100000000E-03 0. -1.
    9000002    1    1    2    0    0 -0.62122360032E+00  0.26906320985E+00  0.35745908909E+00  0.12107579332E+01  0.93800000000E+00 0. -1.
         22    1    1    2    0    0  0.62460905504E+00 -0.18344904807E+00  0.35068617680E+01  0.35667729792E+01  0.00000000000E+00 0. -1.
</event>
<event>
 5    1  0.6076093E+001  0.1599618E+01  0.7818608E-02  0.3353778E+00
         11   -1    0    0    0    0  0.00000000000E+00  0.00000000000E+00  0.39999999674E+01  0.40000000000E+01  0.51100000000E-03 0. -1.
    9000002   -1    0    0    0    0 -0.00000000000E+00 -0.00000000000E+00  0.00000000000E+00  0.93800000000E+00  0.93800000000E+00 0. -1.
         11    1    1    2    0    0 -0.68705116525E-01 -0.59324371149E-01  0.79389694208E+00  0.79906970272E+00  0.51100000000E-03 0. -1.
    9000002    1    1    2    0    0  0.33732311368E+00  0.25347356192E+00  0.12048801854E+00  0.10355660733E+01  0.93800000000E+00 0. -1.
         22    1    1    2    0    0 -0.26861799716E+00 -0.19414919077E+00  0.30856150067E+01  0.31033642239E+01  0.00000000000E+00 0. -1.
</event>
<event>
 5    1  0.6076093E+001  0.1599665E+01  0.7818608E-02  0.3353727E+00
         11   -1    0    0    0    0  0.00000000000E+00  0.00000000000E+00  0.39999999674E+01  0.40000000000E+01  0.51100000000E-03 0.  1.
    9000002   -1    0    0    0    0 -0.00000000000E+00 -0.00000000000E+00  0.00000000000E+00  0.93800000000E+00  0.93800000000E+00 0.  1.
         11    1    1    2    0    0  0.22179381261E+00 -0.86170560249E-01  0.94408885750E+00  0.97361280432E+00  0.51100000000E-03 0.  1.
    9000002    1    1    2    0    0 -0.80279605004E+00  0.32619021285E+00  0.56682287483E+00  0.13971448473E+01  0.93800000000E+00 0.  1.
         22    1    1    2    0    0  0.58100223742E+00 -0.24001965260E+00  0.24890882350E+01  0.25672423484E+01  0.00000000000E+00 0.  1.
</event>
<event>
 5    1  0.6076093E+001  0.1598124E+01  0.7818608E-02  0.3355402E+00
         11   -1    0    0    0    0  0.00000000000E+00  0.00000000000E+00  0.39999999674E+01  0.40000000000E+01  0.51100000000E-03 0. -1.
    9000002   -1    0    0    0    0 -0.00000000000E+00 -0.00000000000E+00  0.00000000000E+00  0.93800000000E+00  0.93800000000E+00 0. -1.
         11    1    1    2    0    0 -0.19219154967E+00  0.70771520595E-01  0.14113734251E+01  0.14261561647E+01  0.51100000000E-03 0. -1.
    9000002    1    1    2    0    0  0.54106609950E+00 -0.30456263392E+00  0.27178586115E+00  0.11572478025E+01  0.93800000000E+00 0. -1.
         22    1    1    2    0    0 -0.34887454983E+00  0.23379111332E+00  0.23168406811E+01  0.23545960329E+01  0.00000000000E+00 0. -1.
</event>
<event>
 5    1  0.6076093E+001  0.1581775E+01  0.7818608E-02  0.3373385E+00
         11   -1    0    0    0    0  0.00000000000E+00  0.00000000000E+00  0.39999999674E+01  0.40000000000E+01  0.51100000000E-03 0.  1.
    9000002   -1    0    0    0    0 -0.00000000000E+00 -0.00000000000E+00  0.00000000000E+00  0.93800000000E+00  0.93800000000E+00 0.  1.
         11    1    1    2    0    0  0.86753410365E-01 -0.55470545631E-01  0.85203013569E+00  0.85823000931E+00  0.51100000000E-03 0.  1.
    9000002    1    1    2    0    0 -0.14651214458E+00 -0.30111649292E+00  0.89491526400E-01  0.99999484204E+00  0.93800000000E+00 0.  1.
         22    1    1    2    0    0  0.59758734212E-01  0.35658703855E+00  0.30584783053E+01  0.30797751486E+01  0.00000000000E+00 0.  1.
</event>
<event>
 5    1  0.6076093E+001  0.1599452E+01  0.7818608E-02  0.3353958E+00
         11   -1    0    0    0    0  0.00000000000E+00  0.00000000000E+00  0.39999999674E+01  0.40000000000E+01  0.51100000000E-03 0.  1.
    9000002   -1    0    0    0    0 -0.00000000000E+00 -0.00000000000E+00  0.00000000000E+00  0.93800000000E+00  0.93800000000E+00 0. -1.
         11    1    1    2    0    0 -0.23021293046E-01 -0.19642219414E+00  0.14667640972E+01  0.14800367685E+01  0.51100000000E-03 0.  1.
    9000002    1    1    2    0    0  0.10513207280E+00  0.50457044353E+00  0.18253399868E+00  0.10857286705E+01  0.93800000000E+00 0. -1.
         22    1    1    2    0    0 -0.82110779754E-01 -0.30814824939E+00  0.23507018715E+01  0.23722345610E+01  0.00000000000E+00 0.  1.
</event>
<event>
 5    1  0.6076093E+001  0.1581218E+01  0.7818608E-02  0.3374004E+00
         11   -1    0    0    0    0  0.00000000000E+00  0.00000000000E+00  0.39999999674E+01  0.40000000000E+01  0.51100000000E-03 0. -1.
    9000002   -1    0    0    0    0 -0.00000000000E+00 -0.00000000000E+00  0.00000000000E+00  0.93800000000E+00  0.93800000000E+00 0. -1.
         11    1    1    2    0    0  0.44048586686E-01 -0.70476374721E-01  0.53486645772E+00  0.54128512458E+00  0.51100000000E-03 0. -1.
    9000002    1    1    2    0    0 -0.97629317737E-02 -0.24362179079E+00  0.53674808953E-01  0.97065538524E+00  0.93800000000E+00 0. -1.
         22    1    1    2    0    0 -0.34285654912E-01  0.31409816551E+00  0.34114587007E+01  0.34260594902E+01  0.00000000000E+00 0. -1.
</event>
<event>
 5    1  0.6076093E+001  0.1599668E+01  0.7818608E-02  0.3353724E+00
         11   -1    0    0    0    0  0.00000000000E+00  0.00000000000E+00  0.39999999674E+01  0.40000000000E+01  0.51100000000E-03 0.  1.
    9000002   -1    0    0    0    0 -0.00000000000E+00 -0.00000000000E+00  0.00000000000E+00  0.93800000000E+00  0.93800000000E+00 0.  1.
         11    1    1    2    0    0 -0.19306905856E-01 -0.97987108470E-02  0.17066891867E+00  0.17203753158E+00  0.51100000000E-03 0.  1.
    9000002    1    1    2    0    0  0.45787940048E+00  0.23685267533E+00  0.18241438391E+00  0.10857586024E+01  0.93800000000E+00 0.  1.
         22    1    1    2    0    0 -0.43857249462E+00 -0.22705396448E+00  0.36469166648E+01  0.36802038660E+01  0.00000000000E+00 0.  1.
</event>
<event>
 5    1  0.6744554E+001  0.1597932E+01  0.7818608E-02  0.3355611E+00
         11   -1    0    0    0    0  0.00000000000E+00  0.00000000000E+00  0.39999999674E+01  0.40000000000E+01  0.51100000000E-03 0.  1.
    9000002   -1    0    0    0    0 -0.00000000000E+00 -0.00000000000E+00  0.00000000000E+00  0.93800000000E+00  0.93800000000E+00 0. -1.
         11    1    1    2    0    0 -0.44765548300E-01 -0.65663925060E-01  0.14416058777E+01  0.14437948168E+01  0.51100000000E-03 0.  1.
    9000002    1    1    2    0    0  0.14017413301E+00  0.30955165602E+00  0.78736859303E-01  0.10007569677E+01  0.93800000000E+00 0. -1.
         22    1    1    2    0    0 -0.95408584708E-01 -0.24388773097E+00  0.24796572303E+01  0.24934482155E+01  0.00000000000E+00 0.  1.
</event>
<event>
 5    1  0.6076093E+001  0.1522688E+01  0.7818608E-02  0.3441801E+00
         11   -1    0    0    0    0  0.00000000000E+00  0.00000000000E+00  0.39999999674E+01  0.40000000000E+01  0.51100000000E-03 0.  1.
    9000002   -1    0    0    0    0 -0.00000000000E+00 -0.00000000000E+00  0.00000000000E+00  0.93800000000E+00  0.93800000000E+00 0.  1.
         11    1    1    2    0    0  0.61010112409E-01  0.33833958589E+00  0.80335243685E+00  0.87382567375E+00  0.51100000000E-03 0.  1.
    9000002    1    1    2    0    0  0.24008950025E+00 -0.39517230350E+00  0.21604054698E+00  0.10678584342E+01  0.93800000000E+00 0.  1.
         22    1    1    2    0    0 -0.30109961266E+00  0.56832717609E-01  0.29806069835E+01  0.29963158920E+01  0.00000000000E+00 0.  1.
</event>
<event>
 5    1  0.6076093E+001  0.1599639E+01  0.7818608E-02  0.3353755E+00
         11   -1    0    0    0    0  0.00000000000E+00  0.00000000000E+00  0.39999999674E+01  0.40000000000E+01  0.51100000000E-03 0.  1.
    9000002   -1    0    0    0    0 -0.00000000000E+00 -0.00000000000E+00  0.00000000000E+00  0.93800000000E+00  0.93800000000E+00 0. -1.
         11    1    1    2    0    0  0.11016872827E-01 -0.18077321444E-01  0.17207421758E+00  0.17337231185E+00  0.51100000000E-03 0.  1.
    9000002    1    1    2    0    0 -0.30857215231E+00  0.42033166557E+00  0.18685159150E+00  0.10893360361E+01  0.93800000000E+00 0. -1.
         22    1    1    2    0    0  0.29755527949E+00 -0.40225434412E+00  0.36410741583E+01  0.36752916521E+01  0.00000000000E+00 0.  1.
</event>
<event>
 5    1  0.6076093E+001  0.1599676E+01  0.7818608E-02  0.3353715E+00
         11   -1    0    0    0    0  0.00000000000E+00  0.00000000000E+00  0.39999999674E+01  0.40000000000E+01  0.51100000000E-03 0. -1.
    9000002   -1    0    0    0    0 -0.00000000000E+00 -0.00000000000E+00  0.00000000000E+00  0.93800000000E+00  0.93800000000E+00 0.  1.
         11    1    1    2    0    0 -0.13890590011E-01  0.10148146301E+00  0.81193993309E+00  0.81837531237E+00  0.51100000000E-03 0. -1.
    9000002    1    1    2    0    0  0.64212313064E-01 -0.48378444183E+00  0.16271953152E+00  0.10698094472E+01  0.93800000000E+00 0.  1.
         22    1    1    2    0    0 -0.50321723053E-01  0.38230297882E+00  0.30253405027E+01  0.30498152405E+01  0.00000000000E+00 0. -1.
</event>
<event>
 5    1  0.6076093E+001  0.1599676E+01  0.7818608E-02  0.3353715E+00
         11   -1    0    0    0    0  0.00000000000E+00  0.00000000000E+00  0.39999999674E+01  0.40000000000E+01  0.51100000000E-03 0.  1.
    9000002   -1    0    0    0    0 -0.00000000000E+00 -0.00000000000E+00  0.00000000000E+00  0.93800000000E+00  0.93800000000E+00 0. -1.
         11    1    1    2    0    0 -0.23249599238E-01 -0.29263254457E-01  0.23833781831E+00  0.24125102836E+00  0.51100000000E-03 0.  1.
    9000002    1    1    2    0    0  0.37059350294E+00  0.45712302900E+00  0.24102821198E+00  0.11332429603E+01  0.93800000000E+00 0. -1.
         22    1    1    2    0    0 -0.34734390370E+00 -0.42785977455E+00  0.35206339371E+01  0.35635060114E+01  0.00000000000E+00 0.  1.
</event>
<event>
 5    1  0.6076093E+001  0.1597942E+01  0.7818608E-02  0.3355600E+00
         11   -1    0    0    0    0  0.00000000000E+00  0.00000000000E+00  0.39999999674E+01  0.40000000000E+01  0.51100000000E-03 0. -1.
    9000002   -1    0    0    0    0 -0.00000000000E+00 -0.00000000000E+00  0.00000000000E+00  0.93800000000E+00  0.93800000000E+00 0.  1.
         11    1    1    2    0    0  0.66129773186E-01 -0.10343189170E-01  0.10197319159E+01  0.10219264014E+01  0.51100000000E-03 0. -1.
    9000002    1    1    2    0    0 -0.33058018568E+00  0.18955719241E+00  0.99145729317E-01  0.10172949739E+01  0.93800000000E+00 0.  1.
         22    1    1    2    0    0  0.26445041249E+00 -0.17921400324E+00  0.28811223221E+01  0.28987786246E+01  0.00000000000E+00 0. -1.
</event>
<event>
 5    1  0.6076093E+001  0.1599675E+01  0.7818608E-02  0.3353717E+00
         11   -1    0    0    0    0  0.00000000000E+00  0.00000000000E+00  0.39999999674E+01  0.40000000000E+01  0.51100000000E-03 0.  1.
    9000002   -1    0    0    0    0 -0.00000000000E+00 -0.00000000000E+00  0.00000000000E+00  0.93800000000E+00  0.93800000000E+00 0.  1.
         11    1    1    2    0    0  0.24124781858E+00  0.10391384982E+00  0.10634698286E+01  0.10954300231E+01  0.51100000000E-03 0.  1.
    9000002    1    1    2    0    0 -0.78189795530E+00 -0.34264449068E+00  0.54735409279E+00  0.13813798038E+01  0.93800000000E+00 0.  1.
         22    1    1    2    0    0  0.54065013671E+00  0.23873064086E+00  0.23891760460E+01  0.24611901731E+01  0.00000000000E+00 0.  1.
</event>
<event>
 5    1  0.6124216E+001  0.1597524E+01  0.7818608E-02  0.3356055E+00
         11   -1    0    0    0    0  0.00000000000E+00  0.00000000000E+00  0.39999999674E+01  0.40000000000E+01  0.51100000000E-03 0.  1.
    9000002   -1    0    0    0    0 -0.00000000000E+00 -0.00000000000E+00  0.00000000000E+00  0.93800000000E+00  0.93800000000E+00 0.  1.
         11    1    1    2    0    0 -0.25330765580E-01 -0.41117726373E-01  0.12197466440E+01  0.12207024419E+01  0.51100000000E-03 0.  1.
    9000002    1    1    2    0    0  0.54213961376E-01  0.29741097003E+00  0.62671220612E-01  0.98750398510E+00  0.93800000000E+00 0.  1.
         22    1    1    2    0    0 -0.28883195796E-01 -0.25629324365E+00  0.27175821028E+01  0.27297935730E+01  0.00000000000E+00 0.  1.
</event>
<event>
 5    1  0.6076093E+001  0.1597979E+01  0.7818608E-02  0.3355560E+00
         11   -1    0    0    0    0  0.00000000000E+00  0.00000000000E+00  0.39999999674E+01  0.40000000000E+01  0.51100000000E-03 0. -1.
    9000002   -1    0    0    0    0 -0.00000000000E+00 -0.00000000000E+00  0.00000000000E+00  0.93800000000E+00  0.93800000000E+00 0. -1.
         11    1    1    2    0    0 -0.52125228963E-01 -0.35542524211E-01  0.63558663353E+00  0.63871037283E+00  0.51100000000E-03 0. -1.
    9000002    1    1    2    0    0  0.28937224643E+00  0.43429296377E+00  0.18870289099E+00  0.10898621273E+01  0.93800000000E+00 0. -1.
         22    1    1    2    0    0 -0.23724701747E+00 -0.39875043956E+00  0.31757104428E+01  0.32094274999E+01  0.00000000000E+00 0. -1.
</event>
<event>
 5    1  0.6076093E+001  0.1598918E+01  0.7818608E-02  0.3354539E+00
         11   -1    0    0    0    0  0.00000000000E+00  0.00000000000E+00  0.39999999674E+01  0.40000000000E+01  0.51100000000E-03 0.  1.
    9000002   -1    0    0    0    0 -0.00000000000E+00 -0.00000000000E+00  0.00000000000E+00  0.93800000000E+00  0.93800000000E+00 0. -1.
         11    1    1    2    0    0 -0.73462794836E-01 -0.55454360934E-01  0.92471585479E+00  0.92928555438E+00  0.51100000000E-03 0.  1.
    9000002    1    1    2    0    0  0.21726625722E+00  0.30853461084E+00  0.96402997579E-01  0.10156454945E+01  0.93800000000E+00 0. -1.
         22    1    1    2    0    0 -0.14380346239E+00 -0.25308024991E+00  0.29788811150E+01  0.29930689511E+01  0.00000000000E+00 0.  1.
</event>
<event>
 5    1  0.6076093E+001  0.1491487E+01  0.7818608E-02  0.3480272E+00
         11   -1    0    0    0    0  0.00000000000E+00  0.00000000000E+00  0.39999999674E+01  0.40000000000E+01  0.51100000000E-03 0. -1.
    9000002   -1    0    0    0    0 -0.00000000000E+00 -0.00000000000E+00  0.00000000000E+00  0.93800000000E+00  0.93800000000E+00 0. -1.
         11    1    1    2    0    0  0.31684781637E+00 -0.77964880822E-01  0.72113356106E+00  0.79152064748E+00  0.51100000000E-03 0. -1.
    9000002    1    1    2    0    0 -0.16576817111E+00 -0.27300009209E+00  0.15931039276E+00  0.10036094550E+01  0.93800000000E+00 0. -1.
         22    1    1    2    0    0 -0.15107964526E+00  0.35096497291E+00  0.31195560135E+01  0.31428698976E+01  0.00000000000E+00 0. -1.
</event>
<event>
 5    1  0.6076093E+001  0.1599647E+01  0.7818608E-02  0.3353746E+00
         11   -1    0    0    0    0  0.00000000000E+00  0.00000000000E+00  0.39999999674E+01  0.40000000000E+01  0.51100000000E-03 0. -1.
    9000002   -1    0    0    0    0 -0.00000000000E+00 -0.00000000000E+00  0.00000000000E+00  0.93800000000E+00  0.93800000000E+00 0.  1.
         11    1    1    2    0    0 -0.85594232849E-01 -0.60720329908E-01  0.87364130975E+00  0.87992200244E+00  0.51100000000E-03 0. -1.
    9000002    1    1    2    0    0  0.35484173890E+00  0.27432057260E+00  0.13662359971E+00  0.10486536341E+01  0.93800000000E+00 0.  1.
         22    1    1    2    0    0 -0.26924750605E+00 -0.21360024269E+00  0.29897350579E+01  0.30094243635E+01  0.00000000000E+00 0. -1.
</event>
<event>
 5    1  0.6076093E+001  0.1599533E+01  0.7818608E-02  0.3353870E+00
         11   -1    0    0    0    0  0.00000000000E+00  0.00000000000E+00  0.39999999674E+01  0.40000000000E+01  0.51100000000E-03 0. -1.
    9000002   -1    0    0    0    0 -0.00000000000E+00 -0.00000000000E+00  0.00000000000E+00  0.93800000000E+00  0.93800000000E+00 0.  1.
         11    1    1    2    0    0  0.91076047386E-01  0.15365650946E+00  0.10548524242E+01  0.10698687149E+01  0.51100000000E-03 0. -1.
    9000002    1    1    2    0    0 -0.27726351739E+00 -0.55340066791E+00  0.26856375563E+00  0.11554643431E+01  0.93800000000E+00 0.  1.
         22    1    1    2    0    0  0.18618747001E+00  0.39974415845E+00  0.26765837876E+01  0.27126669420E+01  0.00000000000E+00 0. -1.
</event>
<event>
 5    1  0.6076093E+001  0.1590972E+01  0.7818608E-02  0.3363220E+00
         11   -1    0    0    0    0  0.00000000000E+00  0.00000000000E+00  0.39999999674E+01  0.40000000000E+01  0.51100000000E-03 0.  1.
    9000002   -1    0    0    0    0 -0.00000000000E+00 -0.00000000000E+00  0.00000000000E+00  0.93800000000E+00  0.93800000000E+00 0. -1.
         11    1    1    2    0    0 -0.24624373862E+00 -0.50117270900E-01  0.14357933044E+01  0.14576180548E+01  0.51100000000E-03 0.  1.
    9000002    1    1    2    0    0  0.40423835388E+00  0.27772525443E+00  0.17221879778E+00  0.10724007078E+01  0.93800000000E+00 0. -1.
         22    1    1    2    0    0 -0.15799461526E+00 -0.22760798353E+00  0.23919878652E+01  0.24079812374E+01  0.00000000000E+00 0.  1.
</event>
<event>
 5    1  0.6076093E+001  0.1599677E+01  0.7818608E-02  0.3353714E+00
         11   -1    0    0    0    0  0.00000000000E+00  0.00000000000E+00  0.39999999674E+01  0.40000000000E+01  0.51100000000E-03 0. -1.
    9000002   -1    0    0    0    0 -0.00000000000E+00 -0.00000000000E+00  0.00000000000E+00  0.93800000000E+00  0.93800000000E+00 0.  1.
         11    1    1    2    0    0  0.14578136407E+00 -0.10112912119E+00  0.12055441564E+01  0.12185303769E+01  0.51100000000E-03 0. -1.
    9000002    1    1    2    0    0 -0.45675250295E+00  0.31775853138E+00  0.21409894339E+00  0.11114295708E+01  0.93800000000E+00 0.  1.
         22    1    1    2    0    0  0.31097113888E+00 -0.21662941019E+00  0.25803568675E+01  0.26080400523E+01  0.00000000000E+00 0. -1.
</event>
<event>
 5    1  0.6076093E+001  0.1599677E+01  0.7818608E-02  0.3353714E+00
         11   -1    0    0    0    0  0.00000000000E+00  0.00000000000E+00  0.39999999674E+01  0.40000000000E+01  0.51100000000E-03 0. -1.
    9000002   -1    0    0    0    0 -0.00000000000E+00 -0.00000000000E+00  0.00000000000E+00  0.93800000000E+00  0.93800000000E+00 0. -1.
         11    1    1    2    0    0  0.47964037635E-01  0.90761245424E-01  0.95933819631E+00  0.96481510591E+00  0.51100000000E-03 0. -1.
    9000002    1    1    2    0    0 -0.19571757432E+00 -0.36824564979E+00  0.11756914238E+00  0.10332360479E+01  0.93800000000E+00 0. -1.
         22    1    1    2    0    0  0.14775353668E+00  0.27748440436E+00  0.29230926287E+01  0.29399488462E+01  0.00000000000E+00 0.  1.
</event>
<event>
 5    1  0.6076093E+001  0.1598948E+01  0.7818608E-02  0.3354507E+00
         11   -1    0    0    0    0  0.00000000000E+00  0.00000000000E+00  0.39999999674E+01  0.40000000000E+01  0.51100000000E-03 0.  1.
    9000002   -1    0    0    0    0 -0.00000000000E+00 -0.00000000000E+00  0.00000000000E+00  0.93800000000E+00  0.93800000000E+00 0.  1.
         11    1    1    2    0    0  0.80984380541E-01 -0.75321715312E-01  0.81410781454E+00  0.82158604267E+00  0.51100000000E-03 0.  1.
    9000002    1    1    2    0    0 -0.41744977489E+00  0.23511398348E+00  0.15724456199E+00  0.10649473001E+01  0.93800000000E+00 0.  1.
         22    1    1    2    0    0  0.33646539435E+00 -0.15979226817E+00  0.30286475908E+01  0.30514666572E+01  0.00000000000E+00 0.  1.
</event>
<event>
 5    1  0.6076093E+001  0.1599667E+01  0.7818608E-02  0.3353724E+00
         11   -1    0    0    0    0  0.00000000000E+00  0.00000000000E+00  0.39999999674E+01  0.40000000000E+01  0.51100000000E-03 0.  1.
    9000002   -1    0    0    0    0 -0.00000000000E+00 -0.00000000000E+00  0.00000000000E+00  0.93800000000E+00  0.93800000000E+00 0. -1.
         11    1    1    2    0    0  0.11210415449E+00 -0.25647034309E-01  0.79670777208E+00  0.80496499740E+00  0.51100000000E-03 0.  1.
    9000002    1    1    2    0    0 -0.52274845260E+00  0.11465809704E+00  0.19728810187E+00  0.10978064579E+01  0.93800000000E+00 0. -1.
         22    1    1    2    0    0  0.41064429812E+00 -0.89011062729E-01  0.30060040934E+01  0.30352285447E+01  0.00000000000E+00 0.  1.
</event>
<event>
 5    1  0.6076093E+001  0.1597572E+01  0.7818608E-02  0.3356003E+00
         11   -1    0    0    0    0  0.00000000000E+00  0.00000000000E+00  0.39999999674E+01  0.40000000000E+01  0.51100000000E-03 0.  1.
    9000002   -1    0    0    0    0 -0.00000000000E+00 -0.00000000000E+00  0.00000000000E+00  0.93800000000E+00  0.93800000000E+00 0.  1.
         11    1    1    2    0    0  0.32493872226E-01  0.87634509496E-02  0.52610621510E+00  0.52718180971E+00  0.51100000000E-03 0.  1.
    9000002    1    1    2    0    0 -0.51150572447E+00 -0.31363673601E-01  0.18208163710E+00  0.10842598899E+01  0.93800000000E+00 0.  1.
         22    1    1    2    0    0  0.47901185224E+00  0.22600222651E-01  0.32918121152E+01  0.33265583004E+01  0.00000000000E+00 0.  1.
</event>
<event>
 5    1  0.6076093E+001  0.1599674E+01  0.7818608E-02  0.3353718E+00
         11   -1    0    0    0    0  0.00000000000E+00  0.00000000000E+00  0.39999999674E+01  0.40000000000E+01  0.51100000000E-03 0.  1.
    9000002   -1    0    0    0    0 -0.00000000000E+00 -0.00000000000E+00  0.00000000000E+00  0.93800000000E+00  0.93800000000E+00 0.  1.
         11    1    1    2    0    0  0.28548337622E-01  0.72645356708E-01  0.69759915409E+00  0.70195241744E+00  0.51100000000E-03 0.  1.
    9000002    1    1    2    0    0 -0.14928043781E+00 -0.40210417387E+00  0.12457709519E+00  0.10389109049E+01  0.93800000000E+00 0.  1.
         22    1    1    2    0    0  0.12073210019E+00  0.32945881717E+00  0.31778237181E+01  0.31971366776E+01  0.00000000000E+00 0.  1.
</event>
<event>
 5    1  0.6076093E+001  0.1520309E+01  0.7818608E-02  0.3444674E+00
         11   -1    0    0    0    0  0.00000000000E+00  0.00000000000E+00  0.39999999674E+01  0.40000000000E+01  0.51100000000E-03 0. -1.
    9000002   -1    0    0    0    0 -0.00000000000E+00 -0.00000000000E+00  0.00000000000E+00  0.93800000000E+00  0.93800000000E+00 0. -1.
         11    1    1    2    0    0 -0.36772307704E+00  0.13974709664E+00  0.42947272206E+00  0.58240586580E+00  0.51100000000E-03 0. -1.
    9000002    1    1    2    0    0  0.99286959489E-01  0.45732552027E-01  0.19492035867E+00  0.96425479665E+00  0.93800000000E+00 0. -1.
         22    1    1    2    0    0  0.26843611756E+00 -0.18547964867E+00  0.33756068866E+01  0.33913393375E+01  0.00000000000E+00 0. -1.
</event>
<event>
 5    1  0.6076093E+001  0.1598281E+01  0.7818608E-02  0.3355231E+00
         11   -1    0    0    0    0  0.00000000000E+00  0.00000000000E+00  0.39999999674E+01  0.40000000000E+01  0.51100000000E-03 0.  1.
    9000002   -1    0    0    0    0 -0.00000000000E+00 -0.00000000000E+00  0.00000000000E+00  0.93800000000E+00  0.93800000000E+00 0.  1.
         11    1    1    2    0    0 -0.68746550316E-02 -0.16835020322E+00  0.11254327036E+01  0.11379754318E+01  0.51100000000E-03 0.  1.
    9000002    1    1    2    0    0  0.13046913815E+00  0.48297671458E+00  0.17260347223E+00  0.10769979858E+01  0.93800000000E+00 0.  1.
         22    1    1    2    0    0 -0.12359448312E+00 -0.31462651136E+00  0.27019637915E+01  0.27230265824E+01  0.00000000000E+00 0.  1.
</event>
<event>
 5    1  0.6076093E+001  0.1599642E+01  0.7818608E-02  0.3353752E+00
         11   -1    0    0    0    0  0.00000000000E+00  0.00000000000E+00  0.39999999674E+01  0.40000000000E+01  0.51100000000E-03 0. -1.
    9000002   -1    0    0    0    0 -0.00000000000E+00 -0.00000000000E+00  0.00000000000E+00  0.93800000000E+00  0.93800000000E+00 0. -1.
         11    1    1    2    0    0  0.75321357489E-02  0.23581660148E+00  0.11348203939E+01  0.11590874816E+01  0.51100000000E-03 0. -1.
    9000002    1    1    2    0    0 -0.44308850047E-01 -0.75026846942E+00  0.40972661454E+00  0.12698763519E+01  0.93800000000E+00 0. -1.
         22    1    1    2    0    0  0.36776714298E-01  0.51445186794E+00  0.24554529589E+01  0.25090361665E+01  0.00000000000E+00 0. -1.
</event>
<event>
 5    1  0.6076093E+001  0.1552070E+01  0.7818608E-02  0.3407087E+00
         11   -1    0    0    0    0  0.00000000000E+00  0.00000000000E+00  0.39999999674E+01  0.40000000000E+01  0.51100000000E-03 0. -1.
    9000002   -1    0    0    0    0 -0.00000000000E+00 -0.00000000000E+00  0.00000000000E+00  0.93800000000E+00  0.93800000000E+00 0.  1.
         11    1    1    2    0    0 -0.92135762269E-01 -0.15130247222E+00  0.65959608903E+00  0.68297049612E+00  0.51100000000E-03 0. -1.
    9000002    1    1    2    0    0 -0.14052102564E+00 -0.46095845441E-01  0.50416544974E-01  0.95092418921E+00  0.93800000000E+00 0.  1.
         22    1    1    2    0    0  0.23265678791E+00  0.19739831766E+00  0.32899873334E+01  0.33041053147E+01  0.00000000000E+00 0. -1.
</event>
<event>
 5    1  0.6076093E+001  0.1599673E+01  0.7818608E-02  0.3353718E+00
         11   -1    0    0    0    0  0.00000000000E+00  0.00000000000E+00  0.39999999674E+01  0.40000000000E+01  0.51100000000E-03 0. -1.
    9000002   -1    0    0    0    0 -0.00000000000E+00 -0.00000000000E+00  0.00000000000E+00  0.93800000000E+00  0.93800000000E+00 0.  1.
         11    1    1    2    0    0  0.16117440261E+00  0.17070942613E+00  0.14552654468E+01  0.14740816389E+01  0.51100000000E-03 0. -1.
    9000002    1    1    2    0    0 -0.41999021969E+00 -0.44093058989E+00  0.25921889378E+00  0.11479764826E+01  0.93800000000E+00 0.  1.
         22    1    1    2    0    0  0.25881581707E+00  0.27022116376E+00  0.22855156267E+01  0.23159418785E+01  0.00000000000E+00 0. -1.
</event>
<event>
 5    1  0.6076093E+001  0.1568093E+01  0.7818608E-02  0.3388740E+00
         11   -1    0    0    0    0  0.00000000000E+00  0.00000000000E+00  0.39999999674E+01  0.40000000000E+01  0.51100000000E-03 0. -1.
    9000002   -1    0    0    0    0 -0.00000000000E+00 -0.00000000000E+00  0.00000000000E+00  0.93800000000E+00  0.93800000000E+00 0.  1.
         11    1    1    2    0    0  0.10550010977E+00 -0.30840228587E-01  0.59534819758E+00  0.60540988623E+00  0.51100000000E-03 0. -1.
    9000002    1    1    2    0    0  0.26267723875E+00 -0.12255425907E+00  0.81010136861E-01  0.98510178177E+00  0.93800000000E+00 0.  1.
         22    1    1    2    0    0 -0.36817734852E+00  0.15339448765E+00  0.33236416329E+01  0.33474883320E+01  0.00000000000E+00 0. -1.
</event>
<event>
 5    1  0.6076093E+001  0.1599241E+01  0.7818608E-02  0.3354187E+00
         11   -1    0    0    0    0  0.00000000000E+00  0.00000000000E+00  0.39999999674E+01  0.40000000000E+01  0.51100000000E-03 0.  1.
    9000002   -1    0    0    0    0 -0.00000000000E+00 -0.00000000000E+00  0.00000000000E+00  0.93800000000E+00  0.93800000000E+00 0.  1.
         11    1    1    2    0    0  0.16896840939E+00 -0.70133515301E-01  0.10689750634E+01  0.10845169343E+01  0.51100000000E-03 0.  1.
    9000002    1    1    2    0    0 -0.59348528333E+00  0.16566169212E+00  0.26626983578E+00  0.11534349584E+01  0.93800000000E+00 0.  1.
         22    1    1    2    0    0  0.42451687395E+00 -0.95528176822E-01  0.26647550681E+01  0.27000481073E+01  0.00000000000E+00 0.  1.
</event>
<event>
 5    1  0.6076093E+001  0.1599670E+01  0.7818608E-02  0.3353721E+00
         11   -1    0    0    0    0  0.00000000000E+00  0.00000000000E+00  0.39999999674E+01  0.40000000000E+01  0.51100000000E-03 0.  1.
    9000002   -1    0    0    0    0 -0.00000000000E+00 -0.00000000000E+00  0.00000000000E+00  0.93800000000E+00  0.93800000000E+00 0. -1.
         11    1    1    2    0    0  0.36361824598E-01  0.12986369777E+00  0.12011603786E+01  0.12087072758E+01  0.51100000000E-03 0.  1.
    9000002    1    1    2    0    0 -0.12622534886E+00 -0.42070658280E+00  0.13083387493E+00  0.10439771886E+01  0.93800000000E+00 0. -1.
         22    1    1    2    0    0  0.89863524263E-01  0.29084288503E+00  0.26680057138E+01  0.26853155356E+01  0.00000000000E+00 0.  1.
</event>
<event>
 5    1  0.6076093E+001  0.1599542E+01  0.7818608E-02  0.3353861E+00
         11   -1    0    0    0    0  0.00000000000E+00  0.00000000000E+00  0.39999999674E+01  0.40000000000E+01  0.51100000000E-03 0. -1.
    9000002   -1    0    0    0    0 -0.00000000000E+00 -0.00000000000E+00  0.00000000000E+00  0.93800000000E+00  0.93800000000E+00 0. -1.
         11    1    1    2    0    0 -0.49330003476E-01 -0.98179823671E-02  0.36605758745E+00  0.36949730780E+00  0.51100000000E-03 0. -1.
    9000002    1    1    2    0    0  0.43778845741E+00  0.13184624469E+00  0.14224828650E+00  0.10531480146E+01  0.93800000000E+00 0. -1.
         22    1    1    2    0    0 -0.38845845393E+00 -0.12202826232E+00  0.34916940934E+01  0.35153546776E+01  0.00000000000E+00 0. -1.
</event>
<event>
 5    1  0.6076093E+001  0.1595270E+01  0.7818608E-02  0.3358513E+00
         11   -1    0    0    0    0  0.00000000000E+00  0.00000000000E+00  0.39999999674E+01  0.40000000000E+01  0.51100000000E-03 0.  1.
    9000002   -1    0    0    0    0 -0.00000000000E+00 -0.00000000000E+00  0.00000000000E+00  0.93800000000E+00  0.93800000000E+00 0. -1.
         11    1    1    2    0    0  0.62979682677E-01 -0.17925135056E-01  0.12457742823E+01  0.12474941180E+01  0.51100000000E-03 0.  1.
    9000002    1    1    2    0    0 -0.41296649727E+00  0.13891064230E+00  0.13244192330E+00  0.10426995528E+01  0.93800000000E+00 0. -1.
         22    1    1    2    0    0  0.34998681460E+00 -0.12098550725E+00  0.26217837618E+01  0.26478063292E+01  0.00000000000E+00 0.  1.
</event>
<event>
 5    1  0.6076093E+001  0.1538301E+01  0.7818608E-02  0.3423177E+00
         11   -1    0    0    0    0  0.00000000000E+00  0.00000000000E+00  0.39999999674E+01  0.40000000000E+01  0.51100000000E-03 0.  1.
    9000002   -1    0    0    0    0 -0.00000000000E+00 -0.00000000000E+00  0.00000000000E+00  0.93800000000E+00  0.93800000000E+00 0.  1.
         11    1    1    2    0    0  0.21694808647E+00 -0.11102313961E+00  0.51511657565E-01  0.24909099088E+00  0.51100000000E-03 0.  1.
    9000002    1    1    2    0    0 -0.41506556211E+00 -0.34100801269E+00  0.47527186250E+00  0.11808019431E+01  0.93800000000E+00 0.  1.
         22    1    1    2    0    0  0.19811747564E+00  0.45203115230E+00  0.34732164473E+01  0.35081070660E+01  0.00000000000E+00 0.  1.
</event>
<event>
 5    1  0.6076093E+001  0.1599598E+01  0.7818608E-02  0.3353800E+00
         11   -1    0    0    0    0  0.00000000000E+00  0.00000000000E+00  0.39999999674E+01  0.40000000000E+01  0.51100000000E-03 0. -1.
    9000002   -1    0    0    0    0 -0.00000000000E+00 -0.00000000000E+00  0.00000000000E+00  0.93800000000E+00  0.93800000000E+00 0.  1.
         11    1    1    2    0    0 -0.25229222370E-03 -0.17802665449E-02  0.26739904880E-01  0.26805160591E-01  0.51100000000E-03 0. -1.
    9000002    1    1    2    0    0  0.28131263398E+00  0.22389247075E+00  0.86829819694E-01  0.10082896677E+01  0.93800000000E+00 0.  1.
         22    1    1    2    0    0 -0.28106034175E+00 -0.22211220420E+00  0.38864302428E+01  0.39029051717E+01  0.00000000000E+00 0. -1.
</event>
<event>
 5    1  0.6089716E+001  0.1599500E+01  0.7818608E-02  0.3353906E+00
         11   -1    0    0    0    0  0.00000000000E+00  0.00000000000E+00  0.39999999674E+01  0.40000000000E+01  0.51100000000E-03 0.  1.
    9000002   -1    0    0    0    0 -0.00000000000E+00 -0.00000000000E+00  0.00000000000E+00  0.93800000000E+00  0.93800000000E+00 0. -1.
         11    1    1    2    0    0  0.12860889404E+00  0.54185602172E-01  0.13424609742E+01  0.13496955418E+01  0.51100000000E-03 0.  1.
    9000002    1    1    2    0    0 -0.37434418133E+00 -0.11313837174E+00  0.10318649398E+00  0.10214819185E+01  0.93800000000E+00 0. -1.
         22    1    1    2    0    0  0.24573528728E+00  0.58952769564E-01  0.25543524992E+01  0.25668225398E+01  0.00000000000E+00 0.  1.
</event>
<event>
 5    1  0.6076093E+001  0.1596652E+01  0.7818608E-02  0.3357005E+00
         11   -1    0    0    0    0  0.00000000000E+00  0.00000000000E+00  0.39999999674E+01  0.40000000000E+01  0.51100000000E-03 0.  1.
    9000002   -1    0    0    0    0 -0.00000000000E+00 -0.00000000000E+00  0.00000000000E+00  0.93800000000E+00  0.93800000000E+00 0.  1.
         11    1    1    2    0    0 -0.29286567455E-02  0.27693839967E-02  0.37062806740E-02  0.54994686551E-02  0.51100000000E-03 0.  1.
    9000002    1    1    2    0    0 -0.25042411848E+00  0.33735065747E+00  0.12193973974E+00  0.10350029011E+01  0.93800000000E+00 0.  1.
         22    1    1    2    0    0  0.25335277523E+00 -0.34012004146E+00  0.38743539469E+01  0.38974976302E+01  0.00000000000E+00 0.  1.
</event>
<event>
 5    1  0.6076093E+001  0.1599514E+01  0.7818608E-02  0.3353891E+00
         11   -1    0    0    0    0  0.00000000000E+00  0.00000000000E+00  0.39999999674E+01  0.40000000000E+01  0.51100000000E-03 0.  1.
    9000002   -1    0    0    0    0 -0.00000000000E+00 -0.00000000000E+00  0.00000000000E+00  0.93800000000E+00  0.93800000000E+00 0.  1.
         11    1    1    2    0    0 -0.98210147288E-02  0.12870893046E-01  0.26006419954E+00  0.26056815082E+00  0.51100000000E-03 0.  1.
    9000002    1    1    2    0    0  0.23294227144E+00 -0.27164055192E+00  0.86066690106E-01  0.10076220355E+01  0.93800000000E+00 0.  1.
         22    1    1    2    0    0 -0.22312125671E+00  0.25876965887E+00  0.36538690777E+01  0.36698098137E+01  0.00000000000E+00 0.  1.
</event>
<event>
 5    1  0.6076093E+001  0.1599669E+01  0.7818608E-02  0.3353723E+00
         11   -1    0    0    0    0  0.00000000000E+00  0.00000000000E+00  0.39999999674E+01  0.40000000000E+01  0.51100000000E-03 0. -1.
    9000002   -1    0    0    0    0 -0.00000000000E+00 -0.00000000000E+00  0.00000000000E+00  0.93800000000E+00  0.93800000000E+00 0. -1.
         11    1    1    2    0    0 -0.90227854288E-01 -0.68688347841E-02  0.98883841322E+00  0.99297024888E+00  0.51100000000E-03 0. -1.
    9000002    1    1    2    0    0  0.36569108480E+00  0.34694131846E-01  0.90658903861E-01  0.10114329880E+01  0.93800000000E+00 0. -1.
         22    1    1    2    0    0 -0.27546323051E+00 -0.27825297062E-01  0.29205026503E+01  0.29335967632E+01  0.00000000000E+00 0. -1.
</event>
<event>
 5    1  0.6076093E+001  0.1599371E+01  0.7818608E-02  0.3354046E+00
         11   -1    0    0    0    0  0.00000000000E+00  0.00000000000E+00  0.39999999674E+01  0.40000000000E+01  0.51100000000E-03 0. -1.
    9000002   -1    0    0    0    0 -0.00000000000E+00 -0.00000000000E+00  0.00000000000E+00  0.93800000000E+00  0.93800000000E+00 0. -1.
         11    1    1    2    0    0 -0.67247718374E-01 -0.32552937152E-01  0.10217227384E+01  0.10244508600E+01  0.51100000000E-03 0. -1.
    9000002    1    1    2    0    0  0.30653262699E+00  0.17639636476E+00  0.84146920868E-01  0.10059834160E+01  0.93800000000E+00 0. -1.
         22    1    1    2    0    0 -0.23928490861E+00 -0.14384342761E+00  0.28941303081E+01  0.29075657240E+01  0.00000000000E+00 0. -1.
</event>
<event>
 5    1  0.6076093E+001  0.1595479E+01  0.7818608E-02  0.3358285E+00
         11   -1    0    0    0    0  0.00000000000E+00  0.00000000000E+00  0.39999999674E+01  0.40000000000E+01  0.51100000000E-03 0. -1.
    9000002   -1    0    0    0    0 -0.00000000000E+00 -0.00000000000E+00  0.00000000000E+00  0.93800000000E+00  0.93800000000E+00 0. -1.
         11    1    1    2    0    0 -0.32845954926E-01 -0.82809432737E-01  0.39549281299E+00  0.40540237438E+00  0.51100000000E-03 0. -1.
    9000002    1    1    2    0    0  0.48205411035E+00  0.36145426391E+00  0.25761529701E+00  0.11442180699E+01  0.93800000000E+00 0. -1.
         22    1    1    2    0    0 -0.44920815542E+00 -0.27864483117E+00  0.33468918574E+01  0.33883795557E+01  0.00000000000E+00 0. -1.
</event>
<event>
 5    1  0.6076093E+001  0.1599676E+01  0.7818608E-02  0.3353715E+00
         11   -1    0    0    0    0  0.00000000000E+00  0.00000000000E+00  0.39999999674E+01  0.40000000000E+01  0.51100000000E-03 0. -1.
    9000002   -1    0    0    0    0 -0.00000000000E+00 -0.00000000000E+00  0.00000000000E+00  0.93800000000E+00  0.93800000000E+00 0.  1.
         11    1    1    2    0    0  0.92721020628E-01 -0.11599814157E+00  0.14583587795E+01  0.14659001833E+01  0.51100000000E-03 0. -1.
    9000002    1    1    2    0    0 -0.24448740699E+00  0.30926714399E+00  0.10475803643E+00  0.10228580081E+01  0.93800000000E+00 0.  1.
         22    1    1    2    0    0  0.15176638637E+00 -0.19326900242E+00  0.24368831514E+01  0.24492418086E+01  0.00000000000E+00 0. -1.
</event>
<event>
 5    1  0.6076093E+001  0.1599622E+01  0.7818608E-02  0.3353774E+00
         11   -1    0    0    0    0  0.00000000000E+00  0.00000000000E+00  0.39999999674E+01  0.40000000000E+01  0.51100000000E-03 0. -1.
    9000002   -1    0    0    0    0 -0.00000000000E+00 -0.00000000000E+00  0.00000000000E+00  0.93800000000E+00  0.93800000000E+00 0.  1.
         11    1    1    2    0    0 -0.84770908352E-01 -0.13486167955E+00  0.11511297532E+01  0.11620988552E+01  0.51100000000E-03 0. -1.
    9000002    1    1    2    0    0  0.25986929018E+00  0.43166893296E+00  0.17395128270E+00  0.10788758800E+01  0.93800000000E+00 0.  1.
         22    1    1    2    0    0 -0.17509838183E+00 -0.29680725341E+00  0.26749189315E+01  0.26970252648E+01  0.00000000000E+00 0.  1.
</event>
<event>
 5    1  0.6076093E+001  0.1570048E+01  0.7818608E-02  0.3386528E+00
         11   -1    0    0    0    0  0.00000000000E+00  0.00000000000E+00  0.39999999674E+01  0.40000000000E+01  0.51100000000E-03 0. -1.
    9000002   -1    0    0    0    0 -0.00000000000E+00 -0.00000000000E+00  0.00000000000E+00  0.93800000000E+00  0.93800000000E+00 0. -1.
         11    1    1    2    0    0 -0.65200595464E-01 -0.99070433903E-01  0.10883057335E+01  0.10947491490E+01  0.51100000000E-03 0. -1.
    9000002    1    1    2    0    0 -0.24276992977E+00 -0.11061777385E+00  0.70515789305E-01  0.97774741484E+00  0.93800000000E+00 0. -1.
         22    1    1    2    0    0  0.30797052523E+00  0.20968820775E+00  0.28411784445E+01  0.28655034361E+01  0.00000000000E+00 0. -1.
</event>
<event>
 5    1  0.6076093E+001  0.1599593E+01  0.7818608E-02  0.3353805E+00
         11   -1    0    0    0    0  0.00000000000E+00  0.00000000000E+00  0.39999999674E+01  0.40000000000E+01  0.51100000000E-03 0. -1.
    9000002   -1    0    0    0    0 -0.00000000000E+00 -0.00000000000E+00  0.00000000000E+00  0.93800000000E+00  0.93800000000E+00 0. -1.
         11    1    1    2    0    0 -0.79166176337E-01 -0.79662817776E-01  0.10503059117E+01  0.10562936227E+01  0.51100000000E-03 0. -1.
    9000002    1    1    2    0    0  0.26462350256E+00  0.27438774873E+00  0.97856636015E-01  0.10172188339E+01  0.93800000000E+00 0. -1.
         22    1    1    2    0    0 -0.18545732623E+00 -0.19472493096E+00  0.28518374196E+01  0.28644875434E+01  0.00000000000E+00 0. -1.
</event>
<event>
 5    1  0.6076093E+001  0.1546867E+01  0.7818608E-02  0.3413131E+00
         11   -1    0    0    0    0  0.00000000000E+00  0.00000000000E+00  0.39999999674E+01  0.40000000000E+01  0.51100000000E-03 0. -1.
    9000002   -1    0    0    0    0 -0.00000000000E+00 -0.00000000000E+00  0.00000000000E+00  0.93800000000E+00  0.93800000000E+00 0. -1.
         11    1    1    2    0    0  0.10243107792E+00 -0.17472306144E+00  0.93385931140E+00  0.95556985539E+00  0.51100000000E-03 0. -1.
    9000002    1    1    2    0    0  0.64034404036E-01 -0.12310255483E+00  0.52631530333E-01  0.94966769024E+00  0.93800000000E+00 0. -1.
         22    1    1    2    0    0 -0.16646548195E+00  0.29782561626E+00  0.30135091256E+01  0.30327624544E+01  0.00000000000E+00 0. -1.
</event>
<event>
 5    1  0.6076093E+001  0.1599674E+01  0.7818608E-02  0.3353717E+00
         11   -1    0    0    0    0  0.00000000000E+00  0.00000000000E+00  0.39999999674E+01  0.40000000000E+01  0.51100000000E-03 0. -1.
    9000002   -1    0    0    0    0 -0.00000000000E+00 -0.00000000000E+00  0.00000000000E+00  0.93800000000E+00  0.93800000000E+00 0.  1.
         11    1    1    2    0    0 -0.62557654628E-01  0.42849157344E-01  0.49527417195E+00  0.50104518454E+00  0.51100000000E-03 0. -1.
    9000002    1    1    2    0    0  0.46654339209E+00 -0.32469327658E+00  0.22395926230E+00  0.11194151204E+01  0.93800000000E+00 0.  1.
         22    1    1    2    0    0 -0.40398573747E+00  0.28184411924E+00  0.32807665331E+01  0.33175396951E+01  0.00000000000E+00 0. -1.
</event>
<event>
 5    1  0.6076093E+001  0.1599515E+01  0.7818608E-02  0.3353890E+00
         11   -1    0    0    0    0  0.00000000000E+00  0.00000000000E+00  0.39999999674E+01  0.40000000000E+01  0.51100000000E-03 0.  1.
    9000002   -1    0    0    0    0 -0.00000000000E+00 -0.00000000000E+00  0.00000000000E+00  0.93800000000E+00  0.93800000000E+00 0.  1.
         11    1    1    2    0    0  0.36248234463E-01 -0.10792111286E+00  0.87516235573E+00  0.88253629450E+00  0.51100000000E-03 0.  1.
    9000002    1    1    2    0    0 -0.10419277337E+00  0.48672905657E+00  0.16968872319E+00  0.10753602054E+01  0.93800000000E+00 0.  1.
         22    1    1    2    0    0  0.67944538907E-01 -0.37880794370E+00  0.29551488884E+01  0.29801035001E+01  0.00000000000E+00 0.  1.
</event>
<event>
 5    1  0.6076093E+001  0.1596114E+01  0.7818608E-02  0.3357592E+00
         11   -1    0    0    0    0  0.00000000000E+00  0.00000000000E+00  0.39999999674E+01  0.40000000000E+01  0.51100000000E-03 0.  1.
    9000002   -1    0    0    0    0 -0.00000000000E+00 -0.00000000000E+00  0.00000000000E+00  0.93800000000E+00  0.93800000000E+00 0.  1.
         11    1    1    2    0    0 -0.42464064497E-01 -0.11159987659E+00  0.95546215039E+00  0.96289454831E+00  0.51100000000E-03 0.  1.
    9000002    1    1    2    0    0 -0.78635087969E-01  0.43953129244E+00  0.13841557131E+00  0.10480334463E+01  0.93800000000E+00 0.  1.
         22    1    1    2    0    0  0.12109915247E+00 -0.32793141585E+00  0.29061222457E+01  0.29270720054E+01  0.00000000000E+00 0.  1.
</event>
<event>
 5    1  0.6076093E+001  0.1599090E+01  0.7818608E-02  0.3354351E+00
         11   -1    0    0    0    0  0.00000000000E+00  0.00000000000E+00  0.39999999674E+01  0.40000000000E+01  0.51100000000E-03 0. -1.
    9000002   -1    0    0    0    0 -0.00000000000E+00 -0.00000000000E+00  0.00000000000E+00  0.93800000000E+00  0.93800000000E+00 0.  1.
         11    1    1    2    0    0 -0.23703358785E-01 -0.39477260139E-02  0.14339093534E+00  0.14539138632E+00  0.51100000000E-03 0. -1.
    9000002    1    1    2    0    0  0.36609653456E+00 -0.15330177157E-02  0.90508858901E-01  0.10109722431E+01  0.93800000000E+00 0.  1.
         22    1    1    2    0    0 -0.34239317578E+00  0.54807437296E-02  0.37661001731E+01  0.37816363706E+01  0.00000000000E+00 0. -1.
</event>
<event>
 5    1  0.6076093E+001  0.1599677E+01  0.7818608E-02  0.3353715E+00
         11   -1    0    0    0    0  0.00000000000E+00  0.00000000000E+00  0.39999999674E+01  0.40000000000E+01  0.51100000000E-03 0. -1.
    9000002   -1    0    0    0    0 -0.00000000000E+00 -0.00000000000E+00  0.00000000000E+00  0.93800000000E+00  0.93800000000E+00 0.  1.
         11    1    1    2    0    0  0.20980452966E+00 -0.34333993734E-01  0.80352562925E+00  0.83117414648E+00  0.51100000000E-03 0. -1.
    9000002    1    1    2    0    0 -0.88496666660E+00  0.14214111117E+00  0.61393763367E+00  0.14353165207E+01  0.93800000000E+00 0.  1.
         22    1    1    2    0    0  0.67516213694E+00 -0.10780711744E+00  0.25825367044E+01  0.26715093328E+01  0.00000000000E+00 0. -1.
</event>
<event>
 5    1  0.6076093E+001  0.1589981E+01  0.7818608E-02  0.3364310E+00
         11   -1    0    0    0    0  0.00000000000E+00  0.00000000000E+00  0.39999999674E+01  0.40000000000E+01  0.51100000000E-03 0.  1.
    9000002   -1    0    0    0    0 -0.00000000000E+00 -0.00000000000E+00  0.00000000000E+00  0.93800000000E+00  0.93800000000E+00 0. -1.
         11    1    1    2    0    0  0.29628955535E-01  0.19739418400E+00  0.91351649249E+00  0.93506950653E+00  0.51100000000E-03 0.  1.
    9000002    1    1    2    0    0 -0.27556529321E+00 -0.42713163730E+00  0.18597539642E+00  0.10829628408E+01  0.93800000000E+00 0. -1.
         22    1    1    2    0    0  0.24593633767E+00  0.22973745330E+00  0.29005080785E+01  0.29199676527E+01  0.00000000000E+00 0.  1.
</event>
<event>
 5    1  0.6076093E+001  0.1599566E+01  0.7818608E-02  0.3353834E+00
         11   -1    0    0    0    0  0.00000000000E+00  0.00000000000E+00  0.39999999674E+01  0.40000000000E+01  0.51100000000E-03 0. -1.
    9000002   -1    0    0    0    0 -0.00000000000E+00 -0.00000000000E+00  0.00000000000E+00  0.93800000000E+00  0.93800000000E+00 0.  1.
         11    1    1    2    0    0 -0.12862195552E+00 -0.46710528632E-01  0.13719157114E+01  0.13787234898E+01  0.51100000000E-03 0. -1.
    9000002    1    1    2    0    0  0.39666263103E+00  0.12107951298E+00  0.11633598092E+00  0.10321722491E+01  0.93800000000E+00 0.  1.
         22    1    1    2    0    0 -0.26804067551E+00 -0.74368984350E-01  0.25117482750E+01  0.25271042612E+01  0.00000000000E+00 0. -1.
</event>
<event>
 5    1  0.6076093E+001  0.1599425E+01  0.7818608E-02  0.3353988E+00
         11   -1    0    0    0    0  0.00000000000E+00  0.00000000000E+00  0.39999999674E+01  0.40000000000E+01  0.51100000000E-03 0.  1.
    9000002   -1    0    0    0    0 -0.00000000000E+00 -0.00000000000E+00  0.00000000000E+00  0.93800000000E+00  0.93800000000E+00 0.  1.
         11    1    1    2    0    0  0.17750778277E-01 -0.22487836186E-01  0.21726241650E+00  0.21914381500E+00  0.51100000000E-03 0.  1.
    9000002    1    1    2    0    0 -0.43092465353E+00  0.29526999389E+00  0.18775726745E+00  0.10899436764E+01  0.93800000000E+00 0.  1.
         22    1    1    2    0    0  0.41317387526E+00 -0.27278215771E+00  0.35949802834E+01  0.36289125086E+01  0.00000000000E+00 0.  1.
</event>
<event>
 5    1  0.6076093E+001  0.1599675E+01  0.7818608E-02  0.3353716E+00
         11   -1    0    0    0    0  0.00000000000E+00  0.00000000000E+00  0.39999999674E+01  0.40000000000E+01  0.51100000000E-03 0. -1.
    9000002   -1    0    0    0    0 -0.00000000000E+00 -0.00000000000E+00  0.00000000000E+00  0.93800000000E+00  0.93800000000E+00 0.  1.
         11    1    1    2    0    0 -0.88576925219E-02 -0.14792187669E-01  0.11836951761E+00  0.11961969467E+00  0.51100000000E-03 0.  1.
    9000002    1    1    2    0    0  0.28050841601E+00  0.46817833653E+00  0.20558072137E+00  0.11045285688E+01  0.93800000000E+00 0.  1.
         22    1    1    2    0    0 -0.27165072348E+00 -0.45338614886E+00  0.36760497284E+01  0.37138517365E+01  0.00000000000E+00 0. -1.
</event>
<event>
 5    1  0.6076093E+001  0.1599388E+01  0.7818608E-02  0.3354028E+00
         11   -1    0    0    0    0  0.00000000000E+00  0.00000000000E+00  0.39999999674E+01  0.40000000000E+01  0.51100000000E-03 0.  1.
    9000002   -1    0    0    0    0 -0.00000000000E+00 -0.00000000000E+00  0.00000000000E+00  0.93800000000E+00  0.93800000000E+00 0. -1.
         11    1    1    2    0    0 -0.15763880385E+00  0.36280580582E-01  0.93649532441E+00  0.95036310259E+00  0.51100000000E-03 0.  1.
    9000002    1    1    2    0    0  0.56341537007E+00 -0.13214746099E+00  0.23290507312E+00  0.11264939431E+01  0.93800000000E+00 0. -1.
         22    1    1    2    0    0 -0.40577656623E+00  0.95866880410E-01  0.28305995698E+01  0.28611429543E+01  0.00000000000E+00 0.  1.
</event>
<event>
 5    1  0.6076093E+001  0.1599572E+01  0.7818608E-02  0.3353828E+00
         11   -1    0    0    0    0  0.00000000000E+00  0.00000000000E+00  0.39999999674E+01  0.40000000000E+01  0.51100000000E-03 0.  1.
    9000002   -1    0    0    0    0 -0.00000000000E+00 -0.00000000000E+00  0.00000000000E+00  0.93800000000E+00  0.93800000000E+00 0.  1.
         11    1    1    2    0    0 -0.15212784676E+00 -0.17151316119E+00  0.11340699435E+01  0.11570110389E+01  0.51100000000E-03 0.  1.
    9000002    1    1    2    0    0  0.51789327454E+00  0.53424754023E+00  0.40075899263E+00  0.12625710468E+01  0.93800000000E+00 0.  1.
         22    1    1    2    0    0 -0.36576542778E+00 -0.36273437904E+00  0.24651710313E+01  0.25184179143E+01  0.00000000000E+00 0.  1.
</event>
<event>
 5    1  0.6076093E+001  0.1599665E+01  0.7818608E-02  0.3353727E+00
         11   -1    0    0    0    0  0.00000000000E+00  0.00000000000E+00  0.39999999674E+01  0.40000000000E+01  0.51100000000E-03 0.  1.
    9000002   -1    0    0    0    0 -0.00000000000E+00 -0.00000000000E+00  0.00000000000E+00  0.93800000000E+00  0.93800000000E+00 0.  1.
         11    1    1    2    0    0 -0.13732017040E+00  0.44955780396E-01  0.74337514492E+00  0.75728773831E+00  0.51100000000E-03 0.  1.
    9000002    1    1    2    0    0  0.68658119206E+00 -0.21656951669E+00  0.37246433284E+00  0.12397055167E+01  0.93800000000E+00 0.  1.
         22    1    1    2    0    0 -0.54926102166E+00  0.17161373630E+00  0.28841604896E+01  0.29410067450E+01  0.00000000000E+00 0.  1.
</event>
<event>
 5    1  0.6076093E+001  0.1599488E+01  0.7818608E-02  0.3353919E+00
         11   -1    0    0    0    0  0.00000000000E+00  0.00000000000E+00  0.39999999674E+01  0.40000000000E+01  0.51100000000E-03 0. -1.
    9000002   -1    0    0    0    0 -0.00000000000E+00 -0.00000000000E+00  0.00000000000E+00  0.93800000000E+00  0.93800000000E+00 0.  1.
         11    1    1    2    0    0 -0.94186925388E-01  0.28374998015E-01  0.28959940528E+00  0.30585028051E+00  0.51100000000E-03 0. -1.
    9000002    1    1    2    0    0  0.95569732596E+00 -0.39044767047E+00  0.87470275112E+00  0.16464372642E+01  0.93800000000E+00 0.  1.
         22    1    1    2    0    0 -0.86151040057E+00  0.36207267246E+00  0.28356978110E+01  0.29857124553E+01  0.00000000000E+00 0. -1.
</event>
<event>
 5    1  0.6076093E+001  0.1599677E+01  0.7818608E-02  0.3353714E+00
         11   -1    0    0    0    0  0.00000000000E+00  0.00000000000E+00  0.39999999674E+01  0.40000000000E+01  0.51100000000E-03 0.  1.
    9000002   -1    0    0    0    0 -0.00000000000E+00 -0.00000000000E+00  0.00000000000E+00  0.93800000000E+00  0.93800000000E+00 0. -1.
         11    1    1    2    0    0  0.81175217662E-01 -0.47478799254E-01  0.72211160510E+00  0.72820950535E+00  0.51100000000E-03 0.  1.
    9000002    1    1    2    0    0 -0.42915706737E+00  0.25390701449E+00  0.17017276915E+00  0.10758472623E+01  0.93800000000E+00 0. -1.
         22    1    1    2    0    0  0.34798184971E+00 -0.20642821524E+00  0.31077155931E+01  0.31339432323E+01  0.00000000000E+00 0.  1.
</event>
<event>
 5    1  0.6076093E+001  0.1599647E+01  0.7818608E-02  0.3353746E+00
         11   -1    0    0    0    0  0.00000000000E+00  0.00000000000E+00  0.39999999674E+01  0.40000000000E+01  0.51100000000E-03 0. -1.
    9000002   -1    0    0    0    0 -0.00000000000E+00 -0.00000000000E+00  0.00000000000E+00  0.93800000000E+00  0.93800000000E+00 0. -1.
         11    1    1    2    0    0  0.69619669057E-01  0.32790539443E-01  0.79412913686E+00  0.79784927457E+00  0.51100000000E-03 0. -1.
    9000002    1    1    2    0    0 -0.35629944822E+00 -0.13947877785E+00  0.98562110082E-01  0.10178222418E+01  0.93800000000E+00 0. -1.
         22    1    1    2    0    0  0.28667977916E+00  0.10668823841E+00  0.31073087204E+01  0.31223284837E+01  0.00000000000E+00 0. -1.
</event>
<event>
 5    1  0.6076093E+001  0.1599536E+01  0.7818608E-02  0.3353867E+00
         11   -1    0    0    0    0  0.00000000000E+00  0.00000000000E+00  0.39999999674E+01  0.40000000000E+01  0.51100000000E-03 0.  1.
    9000002   -1    0    0    0    0 -0.00000000000E+00 -0.00000000000E+00  0.00000000000E+00  0.93800000000E+00  0.93800000000E+00 0.  1.
         11    1    1    2    0    0  0.27138167668E+00  0.79457310105E-01  0.12213545971E+01  0.12536621521E+01  0.51100000000E-03 0.  1.
    9000002    1    1    2    0    0 -0.76303858063E+00 -0.26334969797E+00  0.48133697328E+00  0.13278216073E+01  0.93800000000E+00 0.  1.
         22    1    1    2    0    0  0.49165690396E+00  0.18389238787E+00  0.22973083970E+01  0.23565162406E+01  0.00000000000E+00 0.  1.
</event>
<event>
 5    1  0.6076093E+001  0.1598497E+01  0.7818608E-02  0.3354996E+00
         11   -1    0    0    0    0  0.00000000000E+00  0.00000000000E+00  0.39999999674E+01  0.40000000000E+01  0.51100000000E-03 0.  1.
    9000002   -1    0    0    0    0 -0.00000000000E+00 -0.00000000000E+00  0.00000000000E+00  0.93800000000E+00  0.93800000000E+00 0. -1.
         11    1    1    2    0    0  0.80779284014E-01 -0.83609550691E-01  0.71349244420E+00  0.72290219168E+00  0.51100000000E-03 0.  1.
    9000002    1    1    2    0    0 -0.25916261841E+00  0.46299894392E+00  0.19485022910E+00  0.10951456052E+01  0.93800000000E+00 0. -1.
         22    1    1    2    0    0  0.17838333440E+00 -0.37938939323E+00  0.30916572941E+01  0.31199522031E+01  0.00000000000E+00 0.  1.
</event>
<event>
 5    1  0.6076093E+001  0.1576723E+01  0.7818608E-02  0.3379021E+00
         11   -1    0    0    0    0  0.00000000000E+00  0.00000000000E+00  0.39999999674E+01  0.40000000000E+01  0.51100000000E-03 0. -1.
    9000002   -1    0    0    0    0 -0.00000000000E+00 -0.00000000000E+00  0.00000000000E+00  0.93800000000E+00  0.93800000000E+00 0. -1.
         11    1    1    2    0    0 -0.14224651093E+00  0.28739776161E+00  0.93215354424E+00  0.98576976745E+00  0.51100000000E-03 0. -1.
    9000002    1    1    2    0    0  0.17016848364E+00 -0.62667202763E+00  0.32207012690E+00  0.11854316976E+01  0.93800000000E+00 0. -1.
         22    1    1    2    0    0 -0.27921972708E-01  0.33927426602E+00  0.27457762962E+01  0.27667985350E+01  0.00000000000E+00 0. -1.
</event>
<event>
 5    1  0.6076093E+001  0.1599555E+01  0.7818608E-02  0.3353847E+00
         11   -1    0    0    0    0  0.00000000000E+00  0.00000000000E+00  0.39999999674E+01  0.40000000000E+01  0.51100000000E-03 0.  1.
    9000002   -1    0    0    0    0 -0.00000000000E+00 -0.00000000000E+00  0.00000000000E+00  0.93800000000E+00  0.93800000000E+00 0. -1.
         11    1    1    2    0    0  0.16925782661E+00  0.44895717359E-01  0.63461757070E+00  0.65833392702E+00  0.51100000000E-03 0.  1.
    9000002    1    1    2    0    0 -0.85176563028E+00 -0.23303077672E+00  0.59279301824E+00  0.14181169184E+01  0.93800000000E+00 0. -1.
         22    1    1    2    0    0  0.68250780367E+00  0.18813505936E+00  0.27725893784E+01  0.28615491546E+01  0.00000000000E+00 0.  1.
</event>
<event>
 5    1  0.6076093E+001  0.1599244E+01  0.7818608E-02  0.3354185E+00
         11   -1    0    0    0    0  0.00000000000E+00  0.00000000000E+00  0.39999999674E+01  0.40000000000E+01  0.51100000000E-03 0. -1.
    9000002   -1    0    0    0    0 -0.00000000000E+00 -0.00000000000E+00  0.00000000000E+00  0.93800000000E+00  0.93800000000E+00 0. -1.
         11    1    1    2    0    0  0.22461958847E-01  0.31766925073E-02  0.35197811141E+00  0.35270877931E+00  0.51100000000E-03 0. -1.
    9000002    1    1    2    0    0 -0.38881618933E+00 -0.10998130602E+00  0.11055114549E+00  0.10272971686E+01  0.93800000000E+00 0. -1.
         22    1    1    2    0    0  0.36635423048E+00  0.10680461351E+00  0.35374707105E+01  0.35579940521E+01  0.00000000000E+00 0. -1.
</event>
<event>
 5    1  0.6076093E+001  0.1596348E+01  0.7818608E-02  0.3357336E+00
         11   -1    0    0    0    0  0.00000000000E+00  0.00000000000E+00  0.39999999674E+01  0.40000000000E+01  0.51100000000E-03 0. -1.
    9000002   -1    0    0    0    0 -0.00000000000E+00 -0.00000000000E+00  0.00000000000E+00  0.93800000000E+00  0.93800000000E+00 0. -1.
         11    1    1    2    0    0  0.25518079308E+00  0.33943108127E+00  0.12274411627E+01  0.12988236082E+01  0.51100000000E-03 0. -1.
    9000002    1    1    2    0    0 -0.53618920673E+00 -0.78959755006E+00  0.72097443285E+00  0.15200695015E+01  0.93800000000E+00 0. -1.
         22    1    1    2    0    0  0.28100841365E+00  0.45016646880E+00  0.20515843718E+01  0.21191068904E+01  0.00000000000E+00 0. -1.
</event>
<event>
 5    1  0.6076093E+001  0.1597608E+01  0.7818608E-02  0.3355963E+00
         11   -1    0    0    0    0  0.00000000000E+00  0.00000000000E+00  0.39999999674E+01  0.40000000000E+01  0.51100000000E-03 0. -1.
    9000002   -1    0    0    0    0 -0.00000000000E+00 -0.00000000000E+00  0.00000000000E+00  0.93800000000E+00  0.93800000000E+00 0.  1.
         11    1    1    2    0    0 -0.44286352129E-01 -0.45177997547E-01  0.88640030605E+00  0.88865521781E+00  0.51100000000E-03 0. -1.
    9000002    1    1    2    0    0  0.39018133742E-01  0.32820842868E+00  0.74744721572E-01  0.99733342510E+00  0.93800000000E+00 0.  1.
         22    1    1    2    0    0  0.52682183873E-02 -0.28303043113E+00  0.30388549397E+01  0.30520113571E+01  0.00000000000E+00 0. -1.
</event>
<event>
 5    1  0.6076093E+001  0.1578683E+01  0.7818608E-02  0.3376830E+00
         11   -1    0    0    0    0  0.00000000000E+00  0.00000000000E+00  0.39999999674E+01  0.40000000000E+01  0.51100000000E-03 0.  1.
    9000002   -1    0    0    0    0 -0.00000000000E+00 -0.00000000000E+00  0.00000000000E+00  0.93800000000E+00  0.93800000000E+00 0. -1.
         11    1    1    2    0    0  0.11838934281E+00 -0.10183285840E+00  0.11063878984E+01  0.11173542009E+01  0.51100000000E-03 0.  1.
    9000002    1    1    2    0    0 -0.22460674634E+00 -0.15981706726E+00  0.66997329785E-01  0.97996037047E+00  0.93800000000E+00 0. -1.
         22    1    1    2    0    0  0.10621740353E+00  0.26164992567E+00  0.28266147392E+01  0.28406854286E+01  0.00000000000E+00 0.  1.
</event>
<event>
 5    1  0.6076093E+001  0.1540708E+01  0.7818608E-02  0.3420343E+00
         11   -1    0    0    0    0  0.00000000000E+00  0.00000000000E+00  0.39999999674E+01  0.40000000000E+01  0.51100000000E-03 0.  1.
    9000002   -1    0    0    0    0 -0.00000000000E+00 -0.00000000000E+00  0.00000000000E+00  0.93800000000E+00  0.93800000000E+00 0. -1.
         11    1    1    2    0    0 -0.23019117060E+00  0.45329075892E-01  0.91498732671E+00  0.94458708932E+00  0.51100000000E-03 0.  1.
    9000002    1    1    2    0    0 -0.71796700915E-01 -0.12199522471E+00  0.57983407432E-01  0.95039132817E+00  0.93800000000E+00 0. -1.
         22    1    1    2    0    0  0.30198787151E+00  0.76666148820E-01  0.30270292332E+01  0.30430215825E+01  0.00000000000E+00 0.  1.
</event>
<event>
 5    1  0.6076093E+001  0.1599581E+01  0.7818608E-02  0.3353818E+00
         11   -1    0    0    0    0  0.00000000000E+00  0.00000000000E+00  0.39999999674E+01  0.40000000000E+01  0.51100000000E-03 0.  1.
    9000002   -1    0    0    0    0 -0.00000000000E+00 -0.00000000000E+00  0.00000000000E+00  0.93800000000E+00  0.93800000000E+00 0.  1.
         11    1    1    2    0    0 -0.66002341634E-01 -0.81588918137E-01  0.87907868225E+00  0.88532064890E+00  0.51100000000E-03 0.  1.
    9000002    1    1    2    0    0  0.28001305683E+00  0.31774671919E+00  0.12144822907E+00  0.10363223253E+01  0.93800000000E+00 0.  1.
         22    1    1    2    0    0 -0.21401071520E+00 -0.23615780105E+00  0.29994730560E+01  0.30163570258E+01  0.00000000000E+00 0.  1.
</event>
<event>
 5    1  0.6076093E+001  0.1599496E+01  0.7818608E-02  0.3353911E+00
         11   -1    0    0    0    0  0.00000000000E+00  0.00000000000E+00  0.39999999674E+01  0.40000000000E+01  0.51100000000E-03 0.  1.
    9000002   -1    0    0    0    0 -0.00000000000E+00 -0.00000000000E+00  0.00000000000E+00  0.93800000000E+00  0.93800000000E+00 0. -1.
         11    1    1    2    0    0 -0.24244387607E-01 -0.96046932422E-01  0.98147162742E+00  0.98645811878E+00  0.51100000000E-03 0.  1.
    9000002    1    1    2    0    0  0.15007469490E+00  0.39283797720E+00  0.11976225501E+00  0.10349063185E+01  0.93800000000E+00 0. -1.
         22    1    1    2    0    0 -0.12583030730E+00 -0.29679104478E+00  0.28987660849E+01  0.29166355627E+01  0.00000000000E+00 0.  1.
</event>
<event>
 5    1  0.6076093E+001  0.1599668E+01  0.7818608E-02  0.3353724E+00
         11   -1    0    0    0    0  0.00000000000E+00  0.00000000000E+00  0.39999999674E+01  0.40000000000E+01  0.51100000000E-03 0. -1.
    9000002   -1    0    0    0    0 -0.00000000000E+00 -0.00000000000E+00  0.00000000000E+00  0.93800000000E+00  0.93800000000E+00 0.  1.
         11    1    1    2    0    0 -0.90139228303E-01  0.13320536151E-01  0.93639990717E+00  0.94082281245E+00  0.51100000000E-03 0. -1.
    9000002    1    1    2    0    0  0.37277821001E+00 -0.68127583152E-01  0.96618509409E-01  0.10162598574E+01  0.93800000000E+00 0.  1.
         22    1    1    2    0    0 -0.28263898171E+00  0.54807047001E-01  0.29669815508E+01  0.29809173301E+01  0.00000000000E+00 0. -1.
</event>
<event>
 5    1  0.6215515E+001  0.1591639E+01  0.7818608E-02  0.3362489E+00
         11   -1    0    0    0    0  0.00000000000E+00  0.00000000000E+00  0.39999999674E+01  0.40000000000E+01  0.51100000000E-03 0.  1.
    9000002   -1    0    0    0    0 -0.00000000000E+00 -0.00000000000E+00  0.00000000000E+00  0.93800000000E+00  0.93800000000E+00 0.  1.
         11    1    1    2    0    0  0.15305381367E-01 -0.30139085518E-02  0.12348048111E+01  0.12349034460E+01  0.51100000000E-03 0.  1.
    9000002    1    1    2    0    0  0.23291787292E+00  0.16078560391E+00  0.59619368724E-01  0.98158097734E+00  0.93800000000E+00 0.  1.
         22    1    1    2    0    0 -0.24822325428E+00 -0.15777169536E+00  0.27055757876E+01  0.27215155767E+01  0.00000000000E+00 0.  1.
</event>
<event>
 5    1  0.6076093E+001  0.1563255E+01  0.7818608E-02  0.3394237E+00
         11   -1    0    0    0    0  0.00000000000E+00  0.00000000000E+00  0.39999999674E+01  0.40000000000E+01  0.51100000000E-03 0.  1.
    9000002   -1    0    0    0    0 -0.00000000000E+00 -0.00000000000E+00  0.00000000000E+00  0.93800000000E+00  0.93800000000E+00 0. -1.
         11    1    1    2    0    0 -0.91922067581E-01  0.29249561120E+00  0.14432140021E+01  0.14754220637E+01  0.51100000000E-03 0.  1.
    9000002    1    1    2    0    0 -0.20380453280E+00 -0.39022340597E+00  0.16335912776E+00  0.10489713050E+01  0.93800000000E+00 0. -1.
         22    1    1    2    0    0  0.29572660038E+00  0.97727794770E-01  0.23934268375E+01  0.24136066312E+01  0.00000000000E+00 0.  1.
</event>
<event>
 5    1  0.6076093E+001  0.1599426E+01  0.7818608E-02  0.3353987E+00
         11   -1    0    0    0    0  0.00000000000E+00  0.00000000000E+00  0.39999999674E+01  0.40000000000E+01  0.51100000000E-03 0.  1.
    9000002   -1    0    0    0    0 -0.00000000000E+00 -0.00000000000E+00  0.00000000000E+00  0.93800000000E+00  0.93800000000E+00 0. -1.
         11    1    1    2    0    0 -0.21529718942E-01 -0.53212210083E-02  0.15534584617E+00  0.15692175513E+00  0.51100000000E-03 0.  1.
    9000002    1    1    2    0    0  0.35744121497E+00  0.93829767324E-01  0.91979324881E-01  0.10123598390E+01  0.93800000000E+00 0. -1.
         22    1    1    2    0    0 -0.33591149603E+00 -0.88508546315E-01  0.37526747963E+01  0.37687184059E+01  0.00000000000E+00 0.  1.
</event>
<event>
 5    1  0.6076093E+001  0.1599676E+01  0.7818608E-02  0.3353715E+00
         11   -1    0    0    0    0  0.00000000000E+00  0.00000000000E+00  0.39999999674E+01  0.40000000000E+01  0.51100000000E-03 0. -1.
    9000002   -1    0    0    0    0 -0.00000000000E+00 -0.00000000000E+00  0.00000000000E+00  0.93800000000E+00  0.93800000000E+00 0.  1.
         11    1    1    2    0    0 -0.60260269060E-01 -0.10848525734E+00  0.65257022411E+00  0.66426539094E+00  0.51100000000E-03 0. -1.
    9000002    1    1    2    0    0  0.33375506574E+00  0.60473516564E+00  0.34012962004E+00  0.12135193542E+01  0.93800000000E+00 0.  1.
         22    1    1    2    0    0 -0.27349479668E+00 -0.49624990830E+00  0.30073001232E+01  0.30602152549E+01  0.00000000000E+00 0. -1.
</event>
<event>
 5    1  0.6076093E+001  0.1594319E+01  0.7818608E-02  0.3359552E+00
         11   -1    0    0    0    0  0.00000000000E+00  0.00000000000E+00  0.39999999674E+01  0.40000000000E+01  0.51100000000E-03 0. -1.
    9000002   -1    0    0    0    0 -0.00000000000E+00 -0.00000000000E+00  0.00000000000E+00  0.93800000000E+00  0.93800000000E+00 0.  1.
         11    1    1    2    0    0  0.10499543258E-01  0.40604107073E-01  0.23043939781E+00  0.23422534258E+00  0.51100000000E-03 0. -1.
    9000002    1    1    2    0    0  0.32604904072E+00 -0.19513332388E+00  0.10155807361E+00  0.10171248858E+01  0.93800000000E+00 0.  1.
         22    1    1    2    0    0 -0.33654858398E+00  0.15452921681E+00  0.36680024959E+01  0.36866497716E+01  0.00000000000E+00 0. -1.
</event>
<event>
 5    1  0.6076093E+001  0.1599382E+01  0.7818608E-02  0.3354035E+00
         11   -1    0    0    0    0  0.00000000000E+00  0.00000000000E+00  0.39999999674E+01  0.40000000000E+01  0.51100000000E-03 0. -1.
    9000002   -1    0    0    0    0 -0.00000000000E+00 -0.00000000000E+00  0.00000000000E+00  0.93800000000E+00  0.93800000000E+00 0. -1.
         11    1    1    2    0    0 -0.24583433791E-01 -0.11318699527E+00  0.93378879155E+00  0.94094495560E+00  0.51100000000E-03 0. -1.
    9000002    1    1    2    0    0  0.67308092489E-01  0.52640314305E+00  0.19410041229E+00  0.10950569019E+01  0.93800000000E+00 0. -1.
         22    1    1    2    0    0 -0.42724658698E-01 -0.41321614778E+00  0.28721107635E+01  0.29019981425E+01  0.00000000000E+00 0. -1.
</event>
<event>
 5    1  0.6076093E+001  0.1512369E+01  0.7818608E-02  0.3454336E+00
         11   -1    0    0    0    0  0.00000000000E+00  0.00000000000E+00  0.39999999674E+01  0.40000000000E+01  0.51100000000E-03 0.  1.
    9000002   -1    0    0    0    0 -0.00000000000E+00 -0.00000000000E+00  0.00000000000E+00  0.93800000000E+00  0.93800000000E+00 0. -1.
         11    1    1    2    0    0 -0.22461379503E+00  0.25380541408E+00  0.10706873754E+01  0.11230495368E+01  0.51100000000E-03 0.  1.
    9000002    1    1    2    0    0 -0.42712025413E-02 -0.10660488088E+00  0.74267039103E-01  0.94696485515E+00  0.93800000000E+00 0. -1.
         22    1    1    2    0    0  0.22888499757E+00 -0.14720053320E+00  0.28550455529E+01  0.28679856081E+01  0.00000000000E+00 0. -1.
</event>
<event>
 5    1  0.6076093E+001  0.1540896E+01  0.7818608E-02  0.3420121E+00
         11   -1    0    0    0    0  0.00000000000E+00  0.00000000000E+00  0.39999999674E+01  0.40000000000E+01  0.51100000000E-03 0. -1.
    9000002   -1    0    0    0    0 -0.00000000000E+00 -0.00000000000E+00  0.00000000000E+00  0.93800000000E+00  0.93800000000E+00 0. -1.
         11    1    1    2    0    0 -0.85371944938E-01  0.58957785667E-02  0.76963376198E-01  0.11509453325E+00  0.51100000000E-03 0. -1.
    9000002    1    1    2    0    0 -0.16420603991E+00  0.30978280927E+00  0.13139570480E+00  0.10099692291E+01  0.93800000000E+00 0. -1.
         22    1    1    2    0    0  0.24957798485E+00 -0.31567858783E+00  0.37916408864E+01  0.38129362377E+01  0.00000000000E+00 0. -1.
</event>
<event>
 5    1  0.6076093E+001  0.1557108E+01  0.7818608E-02  0.3401275E+00
         11   -1    0    0    0    0  0.00000000000E+00  0.00000000000E+00  0.39999999674E+01  0.40000000000E+01  0.51100000000E-03 0. -1.
    9000002   -1    0    0    0    0 -0.00000000000E+00 -0.00000000000E+00  0.00000000000E+00  0.93800000000E+00  0.93800000000E+00 0.  1.
         11    1    1    2    0    0  0.10590451314E+00 -0.19902826999E+00  0.11698476371E+01  0.11913739015E+01  0.51100000000E-03 0. -1.
    9000002    1    1    2    0    0  0.17831147816E+00  0.12345652142E+00  0.63986133112E-01  0.96487031313E+00  0.93800000000E+00 0.  1.
         22    1    1    2    0    0 -0.28421599130E+00  0.75571748572E-01  0.27661661972E+01  0.27817557854E+01  0.00000000000E+00 0. -1.
</event>
<event>
 5    1  0.9332581E+001  0.1592330E+01  0.7818608E-02  0.3361731E+00
         11   -1    0    0    0    0  0.00000000000E+00  0.00000000000E+00  0.39999999674E+01  0.40000000000E+01  0.51100000000E-03 0.  1.
    9000002   -1    0    0    0    0 -0.00000000000E+00 -0.00000000000E+00  0.00000000000E+00  0.93800000000E+00  0.93800000000E+00 0.  1.
         11    1    1    2    0    0 -0.46424836642E-01  0.15849829715E-01  0.10150464914E+01  0.10162313336E+01  0.51100000000E-03 0.  1.
    9000002    1    1    2    0    0 -0.13037758681E+00 -0.22403333210E+00  0.50324266024E-01  0.97445665927E+00  0.93800000000E+00 0.  1.
         22    1    1    2    0    0  0.17680242346E+00  0.20818350239E+00  0.29346292099E+01  0.29473120071E+01  0.00000000000E+00 0. -1.
</event>
<event>
 5    1  0.6076093E+001  0.1599175E+01  0.7818608E-02  0.3354259E+00
         11   -1    0    0    0    0  0.00000000000E+00  0.00000000000E+00  0.39999999674E+01  0.40000000000E+01  0.51100000000E-03 0.  1.
    9000002   -1    0    0    0    0 -0.00000000000E+00 -0.00000000000E+00  0.00000000000E+00  0.93800000000E+00  0.93800000000E+00 0.  1.
         11    1    1    2    0    0 -0.61068111081E-01  0.79752451977E-01  0.13975894402E+01  0.14011945876E+01  0.51100000000E-03 0.  1.
    9000002    1    1    2    0    0  0.22424809434E+00 -0.27293675906E+00  0.84102295107E-01  0.10058324305E+01  0.93800000000E+00 0.  1.
         22    1    1    2    0    0 -0.16317998325E+00  0.19318430708E+00  0.25183082321E+01  0.25309729819E+01  0.00000000000E+00 0.  1.
</event>
<event>
 5    1  0.6076093E+001  0.1516953E+01  0.7818608E-02  0.3448745E+00
         11   -1    0    0    0    0  0.00000000000E+00  0.00000000000E+00  0.39999999674E+01  0.40000000000E+01  0.51100000000E-03 0. -1.
    9000002   -1    0    0    0    0 -0.00000000000E+00 -0.00000000000E+00  0.00000000000E+00  0.93800000000E+00  0.93800000000E+00 0. -1.
         11    1    1    2    0    0 -0.15165426328E+00  0.73322735726E-01  0.28495423442E+00  0.33102026521E+00  0.51100000000E-03 0. -1.
    9000002    1    1    2    0    0 -0.20519889352E+00  0.87741248506E-01  0.98385689176E-01  0.96918979381E+00  0.93800000000E+00 0. -1.
         22    1    1    2    0    0  0.35685315680E+00 -0.16106398423E+00  0.36166600438E+01  0.36377899410E+01  0.00000000000E+00 0. -1.
</event>
<event>
 5    1  0.6076093E+001  0.1599676E+01  0.7818608E-02  0.3353715E+00
         11   -1    0    0    0    0  0.00000000000E+00  0.00000000000E+00  0.39999999674E+01  0.40000000000E+01  0.51100000000E-03 0. -1.
    9000002   -1    0    0    0    0 -0.00000000000E+00 -0.00000000000E+00  0.00000000000E+00  0.93800000000E+00  0.93800000000E+00 0.  1.
         11    1    1    2    0    0  0.38915900232E-01  0.21805419480E-01  0.43518685787E+00  0.43746746850E+00  0.51100000000E-03 0.  1.
    9000002    1    1    2    0    0 -0.35140934305E+00 -0.19093228873E+00  0.10788496757E+00  0.10253910627E+01  0.93800000000E+00 0.  1.
         22    1    1    2    0    0  0.31249344281E+00  0.16912686925E+00  0.34569281419E+01  0.34751414688E+01  0.00000000000E+00 0. -1.
</event>
<event>
 5    1  0.6076093E+001  0.1599677E+01  0.7818608E-02  0.3353714E+00
         11   -1    0    0    0    0  0.00000000000E+00  0.00000000000E+00  0.39999999674E+01  0.40000000000E+01  0.51100000000E-03 0. -1.
    9000002   -1    0    0    0    0 -0.00000000000E+00 -0.00000000000E+00  0.00000000000E+00  0.93800000000E+00  0.93800000000E+00 0.  1.
         11    1    1    2    0    0 -0.16776616810E+00 -0.76885242660E-01  0.14706760688E+01  0.14822095628E+01  0.51100000000E-03 0.  1.
    9000002    1    1    2    0    0  0.43938553808E+00  0.20108534550E+00  0.15940014240E+00  0.10671210675E+01  0.93800000000E+00 0.  1.
         22    1    1    2    0    0 -0.27161936998E+00 -0.12420010284E+00  0.23699237562E+01  0.23886693697E+01  0.00000000000E+00 0. -1.
</event>
<event>
 5    1  0.6076093E+001  0.1574171E+01  0.7818608E-02  0.3381883E+00
         11   -1    0    0    0    0  0.00000000000E+00  0.00000000000E+00  0.39999999674E+01  0.40000000000E+01  0.51100000000E-03 0.  1.
    9000002   -1    0    0    0    0 -0.00000000000E+00 -0.00000000000E+00  0.00000000000E+00  0.93800000000E+00  0.93800000000E+00 0.  1.
         11    1    1    2    0    0 -0.68637909904E-01 -0.11714163059E+00  0.10850036577E+01  0.10934653733E+01  0.51100000000E-03 0.  1.
    9000002    1    1    2    0    0  0.11960394176E-01 -0.15077661859E+00  0.34178941167E-01  0.95073068729E+00  0.93800000000E+00 0.  1.
         22    1    1    2    0    0  0.56677515728E-01  0.26791824918E+00  0.28808173685E+01  0.28938039394E+01  0.00000000000E+00 0.  1.
</event>
<event>
 5    1  0.6076093E+001  0.1599650E+01  0.7818608E-02  0.3353743E+00
         11   -1    0    0    0    0  0.00000000000E+00  0.00000000000E+00  0.39999999674E+01  0.40000000000E+01  0.51100000000E-03 0.  1.
    9000002   -1    0    0    0    0 -0.00000000000E+00 -0.00000000000E+00  0.00000000000E+00  0.93800000000E+00  0.93800000000E+00 0.  1.
         11    1    1    2    0    0  0.32392250909E-02  0.23220115380E-01  0.18894942412E+00  0.19039908700E+00  0.51100000000E-03 0.  1.
    9000002    1    1    2    0    0 -0.17856076678E-01 -0.44960819074E+00  0.13753455143E+00  0.10493932140E+01  0.93800000000E+00 0.  1.
         22    1    1    2    0    0  0.14616851588E-01  0.42638807536E+00  0.36735159918E+01  0.36982076990E+01  0.00000000000E+00 0.  1.
</event>
<event>
 5    1  0.6076093E+001  0.1599676E+01  0.7818608E-02  0.3353715E+00
         11   -1    0    0    0    0  0.00000000000E+00  0.00000000000E+00  0.39999999674E+01  0.40000000000E+01  0.51100000000E-03 0. -1.
    9000002   -1    0    0    0    0 -0.00000000000E+00 -0.00000000000E+00  0.00000000000E+00  0.93800000000E+00  0.93800000000E+00 0.  1.
         11    1    1    2    0    0 -0.30023127841E-01 -0.71004746964E-01  0.74805211635E+00  0.75201415691E+00  0.51100000000E-03 0. -1.
    9000002    1    1    2    0    0  0.15948453122E+00  0.36570837714E+00  0.10735548387E+00  0.10249620153E+01  0.93800000000E+00 0.  1.
         22    1    1    2    0    0 -0.12946140338E+00 -0.29470363018E+00  0.31445923671E+01  0.31610238278E+01  0.00000000000E+00 0. -1.
</event>
<event>
 5    1  0.6076093E+001  0.1551432E+01  0.7818608E-02  0.3407825E+00
         11   -1    0    0    0    0  0.00000000000E+00  0.00000000000E+00  0.39999999674E+01  0.40000000000E+01  0.51100000000E-03 0. -1.
    9000002   -1    0    0    0    0 -0.00000000000E+00 -0.00000000000E+00  0.00000000000E+00  0.93800000000E+00  0.93800000000E+00 0. -1.
         11    1    1    2    0    0  0.86104705379E-01  0.18872861103E+00  0.67894456866E+00  0.70992851566E+00  0.51100000000E-03 0. -1.
    9000002    1    1    2    0    0  0.24719480545E+00 -0.19342107626E+00  0.10487737093E+00  0.99466589743E+00  0.93800000000E+00 0. -1.
         22    1    1    2    0    0 -0.33329951083E+00  0.46924652335E-02  0.32161780278E+01  0.32334055869E+01  0.00000000000E+00 0. -1.
</event>
<event>
 5    1  0.6076093E+001  0.1598045E+01  0.7818608E-02  0.3355488E+00
         11   -1    0    0    0    0  0.00000000000E+00  0.00000000000E+00  0.39999999674E+01  0.40000000000E+01  0.51100000000E-03 0.  1.
    9000002   -1    0    0    0    0 -0.00000000000E+00 -0.00000000000E+00  0.00000000000E+00  0.93800000000E+00  0.93800000000E+00 0. -1.
         11    1    1    2    0    0 -0.79098428048E-01 -0.39268470643E-01  0.12868576295E+01  0.12898842560E+01  0.51100000000E-03 0.  1.
    9000002    1    1    2    0    0  0.37789039160E+00  0.10847588798E+00  0.10552133331E+00  0.10225198864E+01  0.93800000000E+00 0. -1.
         22    1    1    2    0    0 -0.29879196355E+00 -0.69207417334E-01  0.26076210046E+01  0.26255958576E+01  0.00000000000E+00 0.  1.
</event>
<event>
 5    1  0.6076093E+001  0.1599676E+01  0.7818608E-02  0.3353715E+00
         11   -1    0    0    0    0  0.00000000000E+00  0.00000000000E+00  0.39999999674E+01  0.40000000000E+01  0.51100000000E-03 0.  1.
    9000002   -1    0    0    0    0 -0.00000000000E+00 -0.00000000000E+00  0.00000000000E+00  0.93800000000E+00  0.93800000000E+00 0. -1.
         11    1    1    2    0    0  0.75694248353E-01 -0.71487331817E-01  0.11514300123E+01  0.11561277578E+01  0.51100000000E-03 0.  1.
    9000002    1    1    2    0    0 -0.25959443583E+00  0.24588119513E+00  0.85795761788E-01  0.10074977647E+01  0.93800000000E+00 0. -1.
         22    1    1    2    0    0  0.18390018748E+00 -0.17439386332E+00  0.27627741932E+01  0.27743744775E+01  0.00000000000E+00 0.  1.
</event>
<event>
 5    1  0.6076093E+001  0.1599582E+01  0.7818608E-02  0.3353817E+00
         11   -1    0    0    0    0  0.00000000000E+00  0.00000000000E+00  0.39999999674E+01  0.40000000000E+01  0.51100000000E-03 0.  1.
    9000002   -1    0    0    0    0 -0.00000000000E+00 -0.00000000000E+00  0.00000000000E+00  0.93800000000E+00  0.93800000000E+00 0.  1.
         11    1    1    2    0    0 -0.41169438701E-02 -0.30073890699E-01  0.21522446124E+00  0.21735505048E+00  0.51100000000E-03 0.  1.
    9000002    1    1    2    0    0  0.16628812428E+00  0.51212525923E+00  0.19990688612E+00  0.10998776225E+01  0.93800000000E+00 0.  1.
         22    1    1    2    0    0 -0.16217118041E+00 -0.48205136853E+00  0.35848686200E+01  0.36207673270E+01  0.00000000000E+00 0.  1.
</event>
<event>
 5    1  0.6076093E+001  0.1592870E+01  0.7818608E-02  0.3361138E+00
         11   -1    0    0    0    0  0.00000000000E+00  0.00000000000E+00  0.39999999674E+01  0.40000000000E+01  0.51100000000E-03 0.  1.
    9000002   -1    0    0    0    0 -0.00000000000E+00 -0.00000000000E+00  0.00000000000E+00  0.93800000000E+00  0.93800000000E+00 0. -1.
         11    1    1    2    0    0  0.20498560086E-01 -0.33590699477E-01  0.20647251038E+00  0.21018963990E+00  0.51100000000E-03 0.  1.
    9000002    1    1    2    0    0  0.39337127639E+00  0.31524311910E+00  0.18025827633E+00  0.10800260327E+01  0.93800000000E+00 0. -1.
         22    1    1    2    0    0 -0.41386983648E+00 -0.28165241962E+00  0.36132691807E+01  0.36477843274E+01  0.00000000000E+00 0.  1.
</event>
<event>
 5    1  0.6076093E+001  0.1598085E+01  0.7818608E-02  0.3355444E+00
         11   -1    0    0    0    0  0.00000000000E+00  0.00000000000E+00  0.39999999674E+01  0.40000000000E+01  0.51100000000E-03 0. -1.
    9000002   -1    0    0    0    0 -0.00000000000E+00 -0.00000000000E+00  0.00000000000E+00  0.93800000000E+00  0.93800000000E+00 0.  1.
         11    1    1    2    0    0  0.14120917069E+00  0.45063191335E-01  0.14608748790E+01  0.14683754269E+01  0.51100000000E-03 0. -1.
    9000002    1    1    2    0    0 -0.43269192454E+00 -0.22468269357E+00  0.16380698740E+00  0.10697576097E+01  0.93800000000E+00 0.  1.
         22    1    1    2    0    0  0.29148275385E+00  0.17961950224E+00  0.23753181009E+01  0.23998669634E+01  0.00000000000E+00 0. -1.
</event>
<event>
 5    1  0.6076093E+001  0.1599580E+01  0.7818608E-02  0.3353820E+00
         11   -1    0    0    0    0  0.00000000000E+00  0.00000000000E+00  0.39999999674E+01  0.40000000000E+01  0.51100000000E-03 0. -1.
    9000002   -1    0    0    0    0 -0.00000000000E+00 -0.00000000000E+00  0.00000000000E+00  0.93800000000E+00  0.93800000000E+00 0.  1.
         11    1    1    2    0    0 -0.37455546866E-01  0.16490450965E+00  0.14871361184E+01  0.14967199174E+01  0.51100000000E-03 0. -1.
    9000002    1    1    2    0    0  0.11749061545E+00 -0.40731931367E+00  0.12168831137E+00  0.10365158528E+01  0.93800000000E+00 0.  1.
         22    1    1    2    0    0 -0.80035068586E-01  0.24241480402E+00  0.23911755376E+01  0.24047642298E+01  0.00000000000E+00 0. -1.
</event>
<event>
 5    1  0.6076093E+001  0.1599677E+01  0.7818608E-02  0.3353714E+00
         11   -1    0    0    0    0  0.00000000000E+00  0.00000000000E+00  0.39999999674E+01  0.40000000000E+01  0.51100000000E-03 0. -1.
    9000002   -1    0    0    0    0 -0.00000000000E+00 -0.00000000000E+00  0.00000000000E+00  0.93800000000E+00  0.93800000000E+00 0. -1.
         11    1    1    2    0    0 -0.74395105093E-01  0.87739456226E-01  0.78858601163E+00  0.79693224474E+00  0.51100000000E-03 0. -1.
    9000002    1    1    2    0    0  0.35538576000E+00 -0.42261623769E+00  0.21068488963E+00  0.11086639011E+01  0.93800000000E+00 0. -1.
         22    1    1    2    0    0 -0.28099065491E+00  0.33487678147E+00  0.30007290661E+01  0.30324038542E+01  0.00000000000E+00 0. -1.
</event>
<event>
 5    1  0.6076093E+001  0.1586771E+01  0.7818608E-02  0.3367848E+00
         11   -1    0    0    0    0  0.00000000000E+00  0.00000000000E+00  0.39999999674E+01  0.40000000000E+01  0.51100000000E-03 0. -1.
    9000002   -1    0    0    0    0 -0.00000000000E+00 -0.00000000000E+00  0.00000000000E+00  0.93800000000E+00  0.93800000000E+00 0.  1.
         11    1    1    2    0    0  0.66030641491E-01  0.10565989648E+00  0.45846123169E+00  0.47509054024E+00  0.51100000000E-03 0. -1.
    9000002    1    1    2    0    0  0.17051753585E-01 -0.40564157712E+00  0.12213517844E+00  0.10293672101E+01  0.93800000000E+00 0.  1.
         22    1    1    2    0    0 -0.83082395076E-01  0.29998168064E+00  0.34194035572E+01  0.34335422497E+01  0.00000000000E+00 0. -1.
</event>
<event>
 5    1  0.6076093E+001  0.1598165E+01  0.7818608E-02  0.3355358E+00
         11   -1    0    0    0    0  0.00000000000E+00  0.00000000000E+00  0.39999999674E+01  0.40000000000E+01  0.51100000000E-03 0. -1.
    9000002   -1    0    0    0    0 -0.00000000000E+00 -0.00000000000E+00  0.00000000000E+00  0.93800000000E+00  0.93800000000E+00 0.  1.
         11    1    1    2    0    0  0.17163610532E-01 -0.15195141489E-01  0.26607039337E+00  0.26705654307E+00  0.51100000000E-03 0. -1.
    9000002    1    1    2    0    0 -0.34191266451E+00 -0.11117322018E+00  0.87991055429E-01  0.10083898953E+01  0.93800000000E+00 0.  1.
         22    1    1    2    0    0  0.32474905398E+00  0.12636836167E+00  0.36459385186E+01  0.36625535617E+01  0.00000000000E+00 0. -1.
</event>
<event>
 5    1  0.6076093E+001  0.1561443E+01  0.7818608E-02  0.3396305E+00
         11   -1    0    0    0    0  0.00000000000E+00  0.00000000000E+00  0.39999999674E+01  0.40000000000E+01  0.51100000000E-03 0. -1.
    9000002   -1    0    0    0    0 -0.00000000000E+00 -0.00000000000E+00  0.00000000000E+00  0.93800000000E+00  0.93800000000E+00 0. -1.
         11    1    1    2    0    0 -0.13174057175E+00 -0.60283102350E-01  0.88166642035E+00  0.89349066507E+00  0.51100000000E-03 0. -1.
    9000002    1    1    2    0    0 -0.27237969796E+00  0.10363130577E+00  0.87027594255E-01  0.98607705052E+00  0.93800000000E+00 0. -1.
         22    1    1    2    0    0  0.40412026971E+00 -0.43348203420E-01  0.30313059528E+01  0.30584322844E+01  0.00000000000E+00 0. -1.
</event>
<event>
 5    1  0.6076093E+001  0.1506239E+01  0.7818608E-02  0.3461869E+00
         11   -1    0    0    0    0  0.00000000000E+00  0.00000000000E+00  0.39999999674E+01  0.40000000000E+01  0.51100000000E-03 0. -1.
    9000002   -1    0    0    0    0 -0.00000000000E+00 -0.00000000000E+00  0.00000000000E+00  0.93800000000E+00  0.93800000000E+00 0. -1.
         11    1    1    2    0    0 -0.25929511031E+00 -0.17317243245E+00  0.85143312223E+00  0.90673108932E+00  0.51100000000E-03 0. -1.
    9000002    1    1    2    0    0  0.13353331586E+00 -0.13274239070E+00  0.96760991207E-01  0.96159158594E+00  0.93800000000E+00 0. -1.
         22    1    1    2    0    0  0.12576179445E+00  0.30591482315E+00  0.30518058539E+01  0.30696773247E+01  0.00000000000E+00 0. -1.
</event>
<event>
 5    1  0.6076093E+001  0.1531879E+01  0.7818608E-02  0.3430789E+00
         11   -1    0    0    0    0  0.00000000000E+00  0.00000000000E+00  0.39999999674E+01  0.40000000000E+01  0.51100000000E-03 0. -1.
    9000002   -1    0    0    0    0 -0.00000000000E+00 -0.00000000000E+00  0.00000000000E+00  0.93800000000E+00  0.93800000000E+00 0. -1.
         11    1    1    2    0    0  0.25373202457E+00 -0.18509370678E+00  0.13910697862E+01  0.14260838096E+01  0.51100000000E-03 0. -1.
    9000002    1    1    2    0    0  0.51296119074E-01  0.16404752778E+00  0.71677898444E-01  0.95630779790E+00  0.93800000000E+00 0. -1.
         22    1    1    2    0    0 -0.30502814364E+00  0.21046179004E-01  0.25372522827E+01  0.25556083925E+01  0.00000000000E+00 0. -1.
</event>
<event>
 5    1  0.6076093E+001  0.1599424E+01  0.7818608E-02  0.3353988E+00
         11   -1    0    0    0    0  0.00000000000E+00  0.00000000000E+00  0.39999999674E+01  0.40000000000E+01  0.51100000000E-03 0.  1.
    9000002   -1    0    0    0    0 -0.00000000000E+00 -0.00000000000E+00  0.00000000000E+00  0.93800000000E+00  0.93800000000E+00 0. -1.
         11    1    1    2    0    0  0.17868744010E+00 -0.11915662641E+00  0.13242358225E+01  0.13415395177E+01  0.51100000000E-03 0.  1.
    9000002    1    1    2    0    0 -0.46316164119E+00  0.36590523430E+00  0.24283050648E+00  0.11345554201E+01  0.93800000000E+00 0. -1.
         22    1    1    2    0    0  0.28447420109E+00 -0.24674860789E+00  0.24329336384E+01  0.24619050622E+01  0.00000000000E+00 0.  1.
</event>
<event>
 5    1  0.6076093E+001  0.1599674E+01  0.7818608E-02  0.3353717E+00
         11   -1    0    0    0    0  0.00000000000E+00  0.00000000000E+00  0.39999999674E+01  0.40000000000E+01  0.51100000000E-03 0.  1.
    9000002   -1    0    0    0    0 -0.00000000000E+00 -0.00000000000E+00  0.00000000000E+00  0.93800000000E+00  0.93800000000E+00 0.  1.
         11    1    1    2    0    0  0.54824557722E-01 -0.19685000713E-01  0.42501630167E+00  0.42898991735E+00  0.51100000000E-03 0. -1.
    9000002    1    1    2    0    0 -0.48952373950E+00  0.16614351987E+00  0.18347401289E+00  0.10866203910E+01  0.93800000000E+00 0.  1.
         22    1    1    2    0    0  0.43469918177E+00 -0.14645851916E+00  0.33915096528E+01  0.34223896917E+01  0.00000000000E+00 0.  1.
</event>
<event>
 5    1  0.6076093E+001  0.1589993E+01  0.7818608E-02  0.3364297E+00
         11   -1    0    0    0    0  0.00000000000E+00  0.00000000000E+00  0.39999999674E+01  0.40000000000E+01  0.51100000000E-03 0.  1.
    9000002   -1    0    0    0    0 -0.00000000000E+00 -0.00000000000E+00  0.00000000000E+00  0.93800000000E+00  0.93800000000E+00 0.  1.
         11    1    1    2    0    0 -0.10769948954E+00  0.18979704778E+00  0.10087484182E-01  0.21845850373E+00  0.51100000000E-03 0.  1.
    9000002    1    1    2    0    0 -0.45351181535E+00  0.49075912923E-01  0.46456033594E+00  0.11418150978E+01  0.93800000000E+00 0.  1.
         22    1    1    2    0    0  0.56121130489E+00 -0.23887296070E+00  0.35253521472E+01  0.35777263984E+01  0.00000000000E+00 0.  1.
</event>
<event>
 5    1  0.6076093E+001  0.1585948E+01  0.7818608E-02  0.3368758E+00
         11   -1    0    0    0    0  0.00000000000E+00  0.00000000000E+00  0.39999999674E+01  0.40000000000E+01  0.51100000000E-03 0. -1.
    9000002   -1    0    0    0    0 -0.00000000000E+00 -0.00000000000E+00  0.00000000000E+00  0.93800000000E+00  0.93800000000E+00 0.  1.
         11    1    1    2    0    0  0.83709905496E-01 -0.18204911438E+00  0.14543563837E+01  0.14680946769E+01  0.51100000000E-03 0. -1.
    9000002    1    1    2    0    0 -0.42541404714E+00  0.18293124875E+00  0.15801351816E+00  0.10579476477E+01  0.93800000000E+00 0.  1.
         22    1    1    2    0    0  0.34170414164E+00 -0.88213436225E-03  0.23876300655E+01  0.24119576755E+01  0.00000000000E+00 0. -1.
</event>
<event>
 5    1  0.6076093E+001  0.1598393E+01  0.7818608E-02  0.3355110E+00
         11   -1    0    0    0    0  0.00000000000E+00  0.00000000000E+00  0.39999999674E+01  0.40000000000E+01  0.51100000000E-03 0. -1.
    9000002   -1    0    0    0    0 -0.00000000000E+00 -0.00000000000E+00  0.00000000000E+00  0.93800000000E+00  0.93800000000E+00 0. -1.
         11    1    1    2    0    0  0.17508381254E+00  0.82542557328E-01  0.14436127046E+01  0.14565320172E+01  0.51100000000E-03 0. -1.
    9000002    1    1    2    0    0 -0.55178921374E+00 -0.15938136293E+00  0.23017436241E+00  0.11236983547E+01  0.93800000000E+00 0. -1.
         22    1    1    2    0    0  0.37670540121E+00  0.76838805598E-01  0.23262129003E+01  0.23577696281E+01  0.00000000000E+00 0. -1.
</event>
<event>
 5    1  0.6076093E+001  0.1599667E+01  0.7818608E-02  0.3353724E+00
         11   -1    0    0    0    0  0.00000000000E+00  0.00000000000E+00  0.39999999674E+01  0.40000000000E+01  0.51100000000E-03 0.  1.
    9000002   -1    0    0    0    0 -0.00000000000E+00 -0.00000000000E+00  0.00000000000E+00  0.93800000000E+00  0.93800000000E+00 0.  1.
         11    1    1    2    0    0  0.71091304063E-01  0.14458017967E-01  0.45299766697E+00  0.45877026408E+00  0.51100000000E-03 0.  1.
    9000002    1    1    2    0    0 -0.57611599457E+00 -0.13458471206E+00  0.24378741295E+00  0.11354730233E+01  0.93800000000E+00 0.  1.
         22    1    1    2    0    0  0.50502469050E+00  0.12012669409E+00  0.33032148874E+01  0.33437567126E+01  0.00000000000E+00 0.  1.
</event>
<event>
 5    1  0.6076093E+001  0.1599626E+01  0.7818608E-02  0.3353770E+00
         11   -1    0    0    0    0  0.00000000000E+00  0.00000000000E+00  0.39999999674E+01  0.40000000000E+01  0.51100000000E-03 0. -1.
    9000002   -1    0    0    0    0 -0.00000000000E+00 -0.00000000000E+00  0.00000000000E+00  0.93800000000E+00  0.93800000000E+00 0.  1.
         11    1    1    2    0    0 -0.78886422372E-01 -0.25932408035E-02  0.55302725515E+00  0.55863154099E+00  0.51100000000E-03 0. -1.
    9000002    1    1    2    0    0  0.52424901986E+00  0.55106503572E-01  0.19116638330E+00  0.10928231090E+01  0.93800000000E+00 0.  1.
         22    1    1    2    0    0 -0.44536259749E+00 -0.52513262769E-01  0.32558063289E+01  0.32865453500E+01  0.00000000000E+00 0. -1.
</event>
<event>
 5    1  0.6076093E+001  0.1450852E+01  0.7818608E-02  0.3533063E+00
         11   -1    0    0    0    0  0.00000000000E+00  0.00000000000E+00  0.39999999674E+01  0.40000000000E+01  0.51100000000E-03 0. -1.
    9000002   -1    0    0    0    0 -0.00000000000E+00 -0.00000000000E+00  0.00000000000E+00  0.93800000000E+00  0.93800000000E+00 0. -1.
         11    1    1    2    0    0 -0.16211689336E-01 -0.41211887334E+00  0.11601491470E+01  0.12312802642E+01  0.51100000000E-03 0. -1.
    9000002    1    1    2    0    0  0.11020557357E+00 -0.77854364409E-01  0.13616495037E+00  0.95738783375E+00  0.93800000000E+00 0. -1.
         22    1    1    2    0    0 -0.93993884238E-01  0.48997323775E+00  0.27036858700E+01  0.27493319020E+01  0.00000000000E+00 0. -1.
</event>
<event>
 5    1  0.6076093E+001  0.1576411E+01  0.7818608E-02  0.3379371E+00
         11   -1    0    0    0    0  0.00000000000E+00  0.00000000000E+00  0.39999999674E+01  0.40000000000E+01  0.51100000000E-03 0.  1.
    9000002   -1    0    0    0    0 -0.00000000000E+00 -0.00000000000E+00  0.00000000000E+00  0.93800000000E+00  0.93800000000E+00 0.  1.
         11    1    1    2    0    0  0.28460063931E+00 -0.48088868733E-01  0.12001574013E+00  0.31259254980E+00  0.51100000000E-03 0.  1.
    9000002    1    1    2    0    0  0.78430499328E-01 -0.34941527327E+00  0.36327541623E+00  0.10677337704E+01  0.93800000000E+00 0.  1.
         22    1    1    2    0    0 -0.36303113864E+00  0.39750414200E+00  0.35167088110E+01  0.35576736798E+01  0.00000000000E+00 0.  1.
</event>
<event>
 5    1  0.6076093E+001  0.1590699E+01  0.7818608E-02  0.3363520E+00
         11   -1    0    0    0    0  0.00000000000E+00  0.00000000000E+00  0.39999999674E+01  0.40000000000E+01  0.51100000000E-03 0.  1.
    9000002   -1    0    0    0    0 -0.00000000000E+00 -0.00000000000E+00  0.00000000000E+00  0.93800000000E+00  0.93800000000E+00 0.  1.
         11    1    1    2    0    0  0.84574644201E-01  0.56667616171E-01  0.36263883086E+00  0.37665803049E+00  0.51100000000E-03 0.  1.
    9000002    1    1    2    0    0 -0.43461278671E+00 -0.57317587938E-01  0.13802502436E+00  0.10445422383E+01  0.93800000000E+00 0.  1.
         22    1    1    2    0    0  0.35003814251E+00  0.64997176661E-03  0.34993361121E+01  0.35167997312E+01  0.00000000000E+00 0.  1.
</event>
<event>
 5    1  0.6076093E+001  0.1525866E+01  0.7818608E-02  0.3437977E+00
         11   -1    0    0    0    0  0.00000000000E+00  0.00000000000E+00  0.39999999674E+01  0.40000000000E+01  0.51100000000E-03 0. -1.
    9000002   -1    0    0    0    0 -0.00000000000E+00 -0.00000000000E+00  0.00000000000E+00  0.93800000000E+00  0.93800000000E+00 0. -1.
         11    1    1    2    0    0  0.12043758982E+00 -0.25182561081E+00  0.11731536420E+01  0.12059067460E+01  0.51100000000E-03 0. -1.
    9000002    1    1    2    0    0 -0.14658237770E+00 -0.12711912529E+00  0.82299653303E-01  0.96138592584E+00  0.93800000000E+00 0. -1.
         22    1    1    2    0    0  0.26144787882E-01  0.37894473611E+00  0.27445466721E+01  0.27707073282E+01  0.00000000000E+00 0. -1.
</event>
<event>
 5    1  0.6076093E+001  0.1575383E+01  0.7818608E-02  0.3380523E+00
         11   -1    0    0    0    0  0.00000000000E+00  0.00000000000E+00  0.39999999674E+01  0.40000000000E+01  0.51100000000E-03 0.  1.
    9000002   -1    0    0    0    0 -0.00000000000E+00 -0.00000000000E+00  0.00000000000E+00  0.93800000000E+00  0.93800000000E+00 0.  1.
         11    1    1    2    0    0 -0.12908885855E+00  0.15923559351E-01  0.13269537507E+01  0.13333131706E+01  0.51100000000E-03 0.  1.
    9000002    1    1    2    0    0 -0.11705491318E+00 -0.21086705146E+00  0.57343387517E-01  0.97020566386E+00  0.93800000000E+00 0.  1.
         22    1    1    2    0    0  0.24614377173E+00  0.19494349211E+00  0.26157028291E+01  0.26344811656E+01  0.00000000000E+00 0.  1.
</event>
<event>
 5    1  0.6076093E+001  0.1593175E+01  0.7818608E-02  0.3360805E+00
         11   -1    0    0    0    0  0.00000000000E+00  0.00000000000E+00  0.39999999674E+01  0.40000000000E+01  0.51100000000E-03 0.  1.
    9000002   -1    0    0    0    0 -0.00000000000E+00 -0.00000000000E+00  0.00000000000E+00  0.93800000000E+00  0.93800000000E+00 0. -1.
         11    1    1    2    0    0  0.14420584054E-01  0.11600059844E+00  0.11077985989E+01  0.11139488718E+01  0.51100000000E-03 0.  1.
    9000002    1    1    2    0    0 -0.35152838244E+00 -0.36312626972E+00  0.18092640235E+00  0.10807456937E+01  0.93800000000E+00 0. -1.
         22    1    1    2    0    0  0.33710779838E+00  0.24712567129E+00  0.27112749661E+01  0.27433054345E+01  0.00000000000E+00 0.  1.
</event>
<event>
 5    1  0.6076093E+001  0.1599616E+01  0.7818608E-02  0.3353780E+00
         11   -1    0    0    0    0  0.00000000000E+00  0.00000000000E+00  0.39999999674E+01  0.40000000000E+01  0.51100000000E-03 0.  1.
    9000002   -1    0    0    0    0 -0.00000000000E+00 -0.00000000000E+00  0.00000000000E+00  0.93800000000E+00  0.93800000000E+00 0. -1.
         11    1    1    2    0    0 -0.67809415258E-01 -0.15753565446E+00  0.12579398871E+01  0.12695781267E+01  0.51100000000E-03 0.  1.
    9000002    1    1    2    0    0  0.20637995995E+00  0.45271037224E+00  0.16943920000E+00  0.10752176577E+01  0.93800000000E+00 0. -1.
         22    1    1    2    0    0 -0.13857054469E+00 -0.29517471779E+00  0.25726208803E+01  0.25932042156E+01  0.00000000000E+00 0.  1.
</event>
<event>
 5    1  0.6076093E+001  0.1599674E+01  0.7818608E-02  0.3353718E+00
         11   -1    0    0    0    0  0.00000000000E+00  0.00000000000E+00  0.39999999674E+01  0.40000000000E+01  0.51100000000E-03 0.  1.
    9000002   -1    0    0    0    0 -0.00000000000E+00 -0.00000000000E+00  0.00000000000E+00  0.93800000000E+00  0.93800000000E+00 0.  1.
         11    1    1    2    0    0  0.15449840030E+00  0.43754719579E-01  0.13627571821E+01  0.13721849838E+01  0.51100000000E-03 0.  1.
    9000002    1    1    2    0    0 -0.43550705038E+00 -0.12964185237E+00  0.14032792831E+00  0.10516697810E+01  0.93800000000E+00 0.  1.
         22    1    1    2    0    0  0.28100865008E+00  0.85887132789E-01  0.24969148569E+01  0.25141452352E+01  0.00000000000E+00 0.  1.
</event>
<event>
 5    1  0.6076093E+001  0.1599167E+01  0.7818608E-02  0.3354268E+00
         11   -1    0    0    0    0  0.00000000000E+00  0.00000000000E+00  0.39999999674E+01  0.40000000000E+01  0.51100000000E-03 0.  1.
    9000002   -1    0    0    0    0 -0.00000000000E+00 -0.00000000000E+00  0.00000000000E+00  0.93800000000E+00  0.93800000000E+00 0. -1.
         11    1    1    2    0    0 -0.65398942990E-01  0.58863501518E-01  0.52687567198E+00  0.53417241449E+00  0.51100000000E-03 0.  1.
    9000002    1    1    2    0    0  0.41134975196E+00 -0.30490542122E+00  0.18030693804E+00  0.10837575957E+01  0.93800000000E+00 0. -1.
         22    1    1    2    0    0 -0.34595080897E+00  0.24604191970E+00  0.32928173573E+01  0.33200699898E+01  0.00000000000E+00 0.  1.
</event>
<event>
 5    1  0.6076093E+001  0.1599676E+01  0.7818608E-02  0.3353715E+00
         11   -1    0    0    0    0  0.00000000000E+00  0.00000000000E+00  0.39999999674E+01  0.40000000000E+01  0.51100000000E-03 0.  1.
    9000002   -1    0    0    0    0 -0.00000000000E+00 -0.00000000000E+00  0.00000000000E+00  0.93800000000E+00  0.93800000000E+00 0.  1.
         11    1    1    2    0    0 -0.96934128844E-02  0.79060743402E-01  0.67490140272E+00  0.67958570315E+00  0.51100000000E-03 0.  1.
    9000002    1    1    2    0    0  0.54366310137E-01 -0.45560290664E+00  0.14317770652E+00  0.10539798669E+01  0.93800000000E+00 0.  1.
         22    1    1    2    0    0 -0.44672897253E-01  0.37654216324E+00  0.31819208581E+01  0.32044344299E+01  0.00000000000E+00 0.  1.
</event>
<event>
 5    1  0.6076093E+001  0.1599658E+01  0.7818608E-02  0.3353735E+00
         11   -1    0    0    0    0  0.00000000000E+00  0.00000000000E+00  0.39999999674E+01  0.40000000000E+01  0.51100000000E-03 0.  1.
    9000002   -1    0    0    0    0 -0.00000000000E+00 -0.00000000000E+00  0.00000000000E+00  0.93800000000E+00  0.93800000000E+00 0.  1.
         11    1    1    2    0    0  0.40996035483E-01  0.11079534610E+00  0.88667590460E+00  0.89451143345E+00  0.51100000000E-03 0.  1.
    9000002    1    1    2    0    0 -0.18902663352E+00 -0.49039442026E+00  0.18994405066E+00  0.10918518663E+01  0.93800000000E+00 0.  1.
         22    1    1    2    0    0  0.14803059804E+00  0.37959907416E+00  0.29233800121E+01  0.29516367002E+01  0.00000000000E+00 0.  1.
</event>
<event>
 5    1  0.6076093E+001  0.1597622E+01  0.7818608E-02  0.3355948E+00
         11   -1    0    0    0    0  0.00000000000E+00  0.00000000000E+00  0.39999999674E+01  0.40000000000E+01  0.51100000000E-03 0.  1.
    9000002   -1    0    0    0    0 -0.00000000000E+00 -0.00000000000E+00  0.00000000000E+00  0.93800000000E+00  0.93800000000E+00 0.  1.
         11    1    1    2    0    0  0.70213893772E-01  0.18165759674E-01  0.11613227129E+01  0.11635852742E+01  0.51100000000E-03 0.  1.
    9000002    1    1    2    0    0 -0.37243069719E+00  0.37111316583E-01  0.95869801250E-01  0.10144539875E+01  0.93800000000E+00 0.  1.
         22    1    1    2    0    0  0.30221680342E+00 -0.55277076257E-01  0.27428074532E+01  0.27599607383E+01  0.00000000000E+00 0.  1.
</event>
<event>
 5    1  0.6076093E+001  0.1598487E+01  0.7818608E-02  0.3355008E+00
         11   -1    0    0    0    0  0.00000000000E+00  0.00000000000E+00  0.39999999674E+01  0.40000000000E+01  0.51100000000E-03 0.  1.
    9000002   -1    0    0    0    0 -0.00000000000E+00 -0.00000000000E+00  0.00000000000E+00  0.93800000000E+00  0.93800000000E+00 0.  1.
         11    1    1    2    0    0  0.76381145975E-01  0.69014054540E-01  0.10329941315E+01  0.10381108592E+01  0.51100000000E-03 0.  1.
    9000002    1    1    2    0    0 -0.38854336298E+00 -0.16611353932E+00  0.12181015142E+00  0.10359736318E+01  0.93800000000E+00 0.  1.
         22    1    1    2    0    0  0.31216221701E+00  0.97099484781E-01  0.28451956845E+01  0.28639155090E+01  0.00000000000E+00 0.  1.
</event>
<event>
 5    1  0.6076093E+001  0.1509049E+01  0.7818608E-02  0.3458407E+00
         11   -1    0    0    0    0  0.00000000000E+00  0.00000000000E+00  0.39999999674E+01  0.40000000000E+01  0.51100000000E-03 0. -1.
    9000002   -1    0    0    0    0 -0.00000000000E+00 -0.00000000000E+00  0.00000000000E+00  0.93800000000E+00  0.93800000000E+00 0. -1.
         11    1    1    2    0    0 -0.12894835483E+00 -0.16141540715E+00  0.39477414393E+00  0.44556649079E+00  0.51100000000E-03 0. -1.
    9000002    1    1    2    0    0 -0.10906257089E-01 -0.19160114961E+00  0.95449298812E-01  0.96217696689E+00  0.93800000000E+00 0. -1.
         22    1    1    2    0    0  0.13985461192E+00  0.35301655675E+00  0.35097765246E+01  0.35302565423E+01  0.00000000000E+00 0. -1.
</event>
<event>
 5    1  0.6076093E+001  0.1599581E+01  0.7818608E-02  0.3353818E+00
         11   -1    0    0    0    0  0.00000000000E+00  0.00000000000E+00  0.39999999674E+01  0.40000000000E+01  0.51100000000E-03 0. -1.
    9000002   -1    0    0    0    0 -0.00000000000E+00 -0.00000000000E+00  0.00000000000E+00  0.93800000000E+00  0.93800000000E+00 0.  1.
         11    1    1    2    0    0  0.16143696542E+00 -0.53970063080E-01  0.14136248948E+01  0.14238364604E+01  0.51100000000E-03 0. -1.
    9000002    1    1    2    0    0 -0.41514937531E+00  0.16420747962E+00  0.13538196031E+00  0.10476093620E+01  0.93800000000E+00 0.  1.
         22    1    1    2    0    0  0.25371240989E+00 -0.11023741654E+00  0.24509931122E+01  0.24665541776E+01  0.00000000000E+00 0. -1.
</event>
<event>
 5    1  0.6076093E+001  0.1599676E+01  0.7818608E-02  0.3353716E+00
         11   -1    0    0    0    0  0.00000000000E+00  0.00000000000E+00  0.39999999674E+01  0.40000000000E+01  0.51100000000E-03 0.  1.
    9000002   -1    0    0    0    0 -0.00000000000E+00 -0.00000000000E+00  0.00000000000E+00  0.93800000000E+00  0.93800000000E+00 0.  1.
         11    1    1    2    0    0  0.25836409509E-02 -0.91567701514E-01  0.73769428926E+00  0.74336023884E+00  0.51100000000E-03 0.  1.
    9000002    1    1    2    0    0 -0.14997955855E-01  0.47212202202E+00  0.15205935836E+00  0.10611739682E+01  0.93800000000E+00 0.  1.
         22    1    1    2    0    0  0.12414314904E-01 -0.38055432051E+00  0.31102463197E+01  0.31334657929E+01  0.00000000000E+00 0.  1.
</event>
<event>
 5    1  0.6076093E+001  0.1599646E+01  0.7818608E-02  0.3353748E+00
         11   -1    0    0    0    0  0.00000000000E+00  0.00000000000E+00  0.39999999674E+01  0.40000000000E+01  0.51100000000E-03 0. -1.
    9000002   -1    0    0    0    0 -0.00000000000E+00 -0.00000000000E+00  0.00000000000E+00  0.93800000000E+00  0.93800000000E+00 0. -1.
         11    1    1    2    0    0 -0.40742681634E-01 -0.54455225564E-01  0.74229998510E+00  0.74540919413E+00  0.51100000000E-03 0. -1.
    9000002    1    1    2    0    0  0.22828571027E+00  0.31004091210E+00  0.99828459795E-01  0.10188471201E+01  0.93800000000E+00 0. -1.
         22    1    1    2    0    0 -0.18754302863E+00 -0.25558568654E+00  0.31578715225E+01  0.31737436858E+01  0.00000000000E+00 0. -1.
</event>
<event>
 5    1  0.6076093E+001  0.1519447E+01  0.7818608E-02  0.3445718E+00
         11   -1    0    0    0    0  0.00000000000E+00  0.00000000000E+00  0.39999999674E+01  0.40000000000E+01  0.51100000000E-03 0.  1.
    9000002   -1    0    0    0    0 -0.00000000000E+00 -0.00000000000E+00  0.00000000000E+00  0.93800000000E+00  0.93800000000E+00 0.  1.
         11    1    1    2    0    0  0.18642382784E+00  0.72519997412E-01  0.44384317798E+00  0.48683675022E+00  0.51100000000E-03 0.  1.
    9000002    1    1    2    0    0  0.26312493200E+00 -0.27356075442E+00  0.16598314230E+00  0.10254094888E+01  0.93800000000E+00 0.  1.
         22    1    1    2    0    0 -0.44954875984E+00  0.20104075701E+00  0.33901736471E+01  0.34257537610E+01  0.00000000000E+00 0.  1.
</event>
<event>
 5    1  0.6076093E+001  0.1599676E+01  0.7818608E-02  0.3353715E+00
         11   -1    0    0    0    0  0.00000000000E+00  0.00000000000E+00  0.39999999674E+01  0.40000000000E+01  0.51100000000E-03 0. -1.
    9000002   -1    0    0    0    0 -0.00000000000E+00 -0.00000000000E+00  0.00000000000E+00  0.93800000000E+00  0.93800000000E+00 0. -1.
         11    1    1    2    0    0  0.55112857604E-02  0.74989121574E-01  0.81184797223E+00  0.81532271756E+00  0.51100000000E-03 0. -1.
    9000002    1    1    2    0    0 -0.22941604778E-01 -0.35955490515E+00  0.87137404751E-01  0.10085846392E+01  0.93800000000E+00 0. -1.
         22    1    1    2    0    0  0.17430319018E-01  0.28456578358E+00  0.31010145904E+01  0.31140926433E+01  0.00000000000E+00 0. -1.
</event>
<event>
 5    1  0.6076093E+001  0.1599590E+01  0.7818608E-02  0.3353808E+00
         11   -1    0    0    0    0  0.00000000000E+00  0.00000000000E+00  0.39999999674E+01  0.40000000000E+01  0.51100000000E-03 0.  1.
    9000002   -1    0    0    0    0 -0.00000000000E+00 -0.00000000000E+00  0.00000000000E+00  0.93800000000E+00  0.93800000000E+00 0.  1.
         11    1    1    2    0    0 -0.14817286783E-01 -0.15077870663E-01  0.28565683546E+00  0.28643844529E+00  0.51100000000E-03 0.  1.
    9000002    1    1    2    0    0  0.27997895279E+00  0.22721083684E+00  0.87348614683E-01  0.10087054867E+01  0.93800000000E+00 0.  1.
         22    1    1    2    0    0 -0.26516166601E+00 -0.21213296617E+00  0.36269945172E+01  0.36428560680E+01  0.00000000000E+00 0.  1.
</event>
<event>
 5    1  0.6076093E+001  0.1599677E+01  0.7818608E-02  0.3353715E+00
         11   -1    0    0    0    0  0.00000000000E+00  0.00000000000E+00  0.39999999674E+01  0.40000000000E+01  0.51100000000E-03 0. -1.
    9000002   -1    0    0    0    0 -0.00000000000E+00 -0.00000000000E+00  0.00000000000E+00  0.93800000000E+00  0.93800000000E+00 0. -1.
         11    1    1    2    0    0  0.82599468161E-01  0.10818984406E+00  0.91874985572E+00  0.92877837669E+00  0.51100000000E-03 0. -1.
    9000002    1    1    2    0    0 -0.34270032830E+00 -0.44556240148E+00  0.21875056212E+00  0.11151973713E+01  0.93800000000E+00 0. -1.
         22    1    1    2    0    0  0.26010086014E+00  0.33737255742E+00  0.28624995495E+01  0.28940242520E+01  0.00000000000E+00 0. -1.
</event>
<event>
 5    1  0.6076093E+001  0.1599172E+01  0.7818608E-02  0.3354262E+00
         11   -1    0    0    0    0  0.00000000000E+00  0.00000000000E+00  0.39999999674E+01  0.40000000000E+01  0.51100000000E-03 0. -1.
    9000002   -1    0    0    0    0 -0.00000000000E+00 -0.00000000000E+00  0.00000000000E+00  0.93800000000E+00  0.93800000000E+00 0. -1.
         11    1    1    2    0    0 -0.11855619990E+00 -0.18738424318E-01  0.12552789042E+01  0.12610043971E+01  0.51100000000E-03 0. -1.
    9000002    1    1    2    0    0  0.39243823936E+00 -0.16355730652E-01  0.10438423653E+00  0.10222599231E+01  0.93800000000E+00 0. -1.
         22    1    1    2    0    0 -0.27388203946E+00  0.35094154970E-01  0.26403368267E+01  0.26547356798E+01  0.00000000000E+00 0. -1.
</event>
<event>
 5    1  0.6076093E+001  0.1599602E+01  0.7818608E-02  0.3353795E+00
         11   -1    0    0    0    0  0.00000000000E+00  0.00000000000E+00  0.39999999674E+01  0.40000000000E+01  0.51100000000E-03 0. -1.
    9000002   -1    0    0    0    0 -0.00000000000E+00 -0.00000000000E+00  0.00000000000E+00  0.93800000000E+00  0.93800000000E+00 0.  1.
         11    1    1    2    0    0  0.42510148995E-02 -0.89354614498E-01  0.91245615933E+00  0.91683085795E+00  0.51100000000E-03 0. -1.
    9000002    1    1    2    0    0 -0.14395569872E-01  0.41770458680E+00  0.11817014052E+00  0.10336791264E+01  0.93800000000E+00 0.  1.
         22    1    1    2    0    0  0.10144554972E-01 -0.32834997230E+00  0.29693736675E+01  0.29874900156E+01  0.00000000000E+00 0. -1.
</event>
<event>
 5    1  0.6076093E+001  0.1581142E+01  0.7818608E-02  0.3374089E+00
         11   -1    0    0    0    0  0.00000000000E+00  0.00000000000E+00  0.39999999674E+01  0.40000000000E+01  0.51100000000E-03 0.  1.
    9000002   -1    0    0    0    0 -0.00000000000E+00 -0.00000000000E+00  0.00000000000E+00  0.93800000000E+00  0.93800000000E+00 0. -1.
         11    1    1    2    0    0 -0.83006748992E-01  0.10091845861E+00  0.14555495031E+01  0.14614031863E+01  0.51100000000E-03 0.  1.
    9000002    1    1    2    0    0  0.15737537106E+00  0.14967033322E+00  0.45369675054E-01  0.96388309638E+00  0.93800000000E+00 0. -1.
         22    1    1    2    0    0 -0.74368622070E-01 -0.25058879183E+00  0.24990807892E+01  0.25127137174E+01  0.00000000000E+00 0.  1.
</event>
<event>
 5    1  0.6076093E+001  0.1599490E+01  0.7818608E-02  0.3353917E+00
         11   -1    0    0    0    0  0.00000000000E+00  0.00000000000E+00  0.39999999674E+01  0.40000000000E+01  0.51100000000E-03 0. -1.
    9000002   -1    0    0    0    0 -0.00000000000E+00 -0.00000000000E+00  0.00000000000E+00  0.93800000000E+00  0.93800000000E+00 0. -1.
         11    1    1    2    0    0 -0.81457317666E-01 -0.14146599983E+00  0.11986833744E+01  0.12097479146E+01  0.51100000000E-03 0. -1.
    9000002    1    1    2    0    0  0.22072537714E+00  0.42561959587E+00  0.15699707934E+00  0.10650651696E+01  0.93800000000E+00 0. -1.
         22    1    1    2    0    0 -0.13926805947E+00 -0.28415359604E+00  0.26443195136E+01  0.26631869158E+01  0.00000000000E+00 0. -1.
</event>
<event>
 5    1  0.6076093E+001  0.1590744E+01  0.7818608E-02  0.3363471E+00
         11   -1    0    0    0    0  0.00000000000E+00  0.00000000000E+00  0.39999999674E+01  0.40000000000E+01  0.51100000000E-03 0. -1.
    9000002   -1    0    0    0    0 -0.00000000000E+00 -0.00000000000E+00  0.00000000000E+00  0.93800000000E+00  0.93800000000E+00 0.  1.
         11    1    1    2    0    0  0.28979312867E+00  0.33982293192E-01  0.11862417627E+01  0.12215992119E+01  0.51100000000E-03 0. -1.
    9000002    1    1    2    0    0 -0.78161987759E+00 -0.40467468525E+00  0.60143347829E+00  0.14199498099E+01  0.93800000000E+00 0.  1.
         22    1    1    2    0    0  0.49182674892E+00  0.37069239206E+00  0.22123247263E+01  0.22964509782E+01  0.00000000000E+00 0. -1.
</event>
<event>
 5    1  0.6076093E+001  0.1599233E+01  0.7818608E-02  0.3354197E+00
         11   -1    0    0    0    0  0.00000000000E+00  0.00000000000E+00  0.39999999674E+01  0.40000000000E+01  0.51100000000E-03 0.  1.
    9000002   -1    0    0    0    0 -0.00000000000E+00 -0.00000000000E+00  0.00000000000E+00  0.93800000000E+00  0.93800000000E+00 0.  1.
         11    1    1    2    0    0  0.73457782761E-01  0.51814974050E-01  0.55008866719E+00  0.55738554006E+00  0.51100000000E-03 0.  1.
    9000002    1    1    2    0    0 -0.48336917674E+00 -0.23643714195E+00  0.19996083674E+00  0.10997166087E+01  0.93800000000E+00 0.  1.
         22    1    1    2    0    0  0.40991139397E+00  0.18462216790E+00  0.32499504634E+01  0.32808978513E+01  0.00000000000E+00 0.  1.
</event>
<event>
 5    1  0.6076093E+001  0.1598308E+01  0.7818608E-02  0.3355202E+00
         11   -1    0    0    0    0  0.00000000000E+00  0.00000000000E+00  0.39999999674E+01  0.40000000000E+01  0.51100000000E-03 0.  1.
    9000002   -1    0    0    0    0 -0.00000000000E+00 -0.00000000000E+00  0.00000000000E+00  0.93800000000E+00  0.93800000000E+00 0.  1.
         11    1    1    2    0    0  0.20828381626E+00  0.91869236146E-01  0.94146301229E+00  0.96859432648E+00  0.51100000000E-03 0.  1.
    9000002    1    1    2    0    0 -0.65152183743E+00 -0.31814875558E+00  0.37990731431E+00  0.12449389153E+01  0.93800000000E+00 0.  1.
         22    1    1    2    0    0  0.44323802117E+00  0.22627951944E+00  0.26786296408E+01  0.27244667582E+01  0.00000000000E+00 0.  1.
</event>
<event>
 5    1  0.6076093E+001  0.1599592E+01  0.7818608E-02  0.3353806E+00
         11   -1    0    0    0    0  0.00000000000E+00  0.00000000000E+00  0.39999999674E+01  0.40000000000E+01  0.51100000000E-03 0.  1.
    9000002   -1    0    0    0    0 -0.00000000000E+00 -0.00000000000E+00  0.00000000000E+00  0.93800000000E+00  0.93800000000E+00 0. -1.
         11    1    1    2    0    0  0.86780512524E-01  0.97222081941E-02  0.10299619833E+01  0.10336572579E+01  0.51100000000E-03 0.  1.
    9000002    1    1    2    0    0 -0.35210301359E+00 -0.66666095637E-01  0.86256801359E-01  0.10078219765E+01  0.93800000000E+00 0. -1.
         22    1    1    2    0    0  0.26532250106E+00  0.56943887443E-01  0.28837811827E+01  0.28965207656E+01  0.00000000000E+00 0.  1.
</event>
<event>
 5    1  0.6076093E+001  0.1599677E+01  0.7818608E-02  0.3353714E+00
         11   -1    0    0    0    0  0.00000000000E+00  0.00000000000E+00  0.39999999674E+01  0.40000000000E+01  0.51100000000E-03 0.  1.
    9000002   -1    0    0    0    0 -0.00000000000E+00 -0.00000000000E+00  0.00000000000E+00  0.93800000000E+00  0.93800000000E+00 0.  1.
         11    1    1    2    0    0 -0.12298458606E-01 -0.72596501896E-01  0.81164954516E+00  0.81498266819E+00  0.51100000000E-03 0.  1.
    9000002    1    1    2    0    0  0.59466009926E-01  0.35197412848E+00  0.85504327386E-01  0.10072621225E+01  0.93800000000E+00 0.  1.
         22    1    1    2    0    0 -0.47167551320E-01 -0.27937762658E+00  0.31028460948E+01  0.31157552093E+01  0.00000000000E+00 0.  1.
</event>
<event>
 5    1  0.6076093E+001  0.1599670E+01  0.7818608E-02  0.3353722E+00
         11   -1    0    0    0    0  0.00000000000E+00  0.00000000000E+00  0.39999999674E+01  0.40000000000E+01  0.51100000000E-03 0.  1.
    9000002   -1    0    0    0    0 -0.00000000000E+00 -0.00000000000E+00  0.00000000000E+00  0.93800000000E+00  0.93800000000E+00 0.  1.
         11    1    1    2    0    0  0.22563196752E-01 -0.11448450033E-01  0.25296002812E+00  0.25422274053E+00  0.51100000000E-03 0.  1.
    9000002    1    1    2    0    0 -0.36127883613E+00  0.19481598637E+00  0.11380137525E+00  0.10301797993E+01  0.93800000000E+00 0.  1.
         22    1    1    2    0    0  0.33871563938E+00 -0.18336753633E+00  0.36332385640E+01  0.36535974601E+01  0.00000000000E+00 0.  1.
</event>
<event>
 5    1  0.6076093E+001  0.1599661E+01  0.7818608E-02  0.3353731E+00
         11   -1    0    0    0    0  0.00000000000E+00  0.00000000000E+00  0.39999999674E+01  0.40000000000E+01  0.51100000000E-03 0. -1.
    9000002   -1    0    0    0    0 -0.00000000000E+00 -0.00000000000E+00  0.00000000000E+00  0.93800000000E+00  0.93800000000E+00 0. -1.
         11    1    1    2    0    0  0.11447320479E+00  0.33990265613E-01  0.10368260465E+01  0.10436800107E+01  0.51100000000E-03 0. -1.
    9000002    1    1    2    0    0 -0.41174711863E+00 -0.12767033723E+00  0.12588733885E+00  0.10399649161E+01  0.93800000000E+00 0. -1.
         22    1    1    2    0    0  0.29727391384E+00  0.93680071618E-01  0.28372865820E+01  0.28543550732E+01  0.00000000000E+00 0. -1.
</event>
<event>
 5    1  0.6076093E+001  0.1599527E+01  0.7818608E-02  0.3353877E+00
         11   -1    0    0    0    0  0.00000000000E+00  0.00000000000E+00  0.39999999674E+01  0.40000000000E+01  0.51100000000E-03 0. -1.
    9000002   -1    0    0    0    0 -0.00000000000E+00 -0.00000000000E+00  0.00000000000E+00  0.93800000000E+00  0.93800000000E+00 0.  1.
         11    1    1    2    0    0  0.82472158574E-01 -0.34505007544E-02  0.86588413807E+00  0.86980984392E+00  0.51100000000E-03 0. -1.
    9000002    1    1    2    0    0 -0.41168124400E+00 -0.20831824800E-01  0.11492045641E+00  0.10310024844E+01  0.93800000000E+00 0.  1.
         22    1    1    2    0    0  0.32920908543E+00  0.24282325554E-01  0.30191953729E+01  0.30371876717E+01  0.00000000000E+00 0. -1.
</event>
<event>
 5    1  0.6076093E+001  0.1599676E+01  0.7818608E-02  0.3353715E+00
         11   -1    0    0    0    0  0.00000000000E+00  0.00000000000E+00  0.39999999674E+01  0.40000000000E+01  0.51100000000E-03 0. -1.
    9000002   -1    0    0    0    0 -0.00000000000E+00 -0.00000000000E+00  0.00000000000E+00  0.93800000000E+00  0.93800000000E+00 0. -1.
         11    1    1    2    0    0 -0.56390281837E-01  0.30775330917E-01  0.47033298307E+00  0.47470028541E+00  0.51100000000E-03 0. -1.
    9000002    1    1    2    0    0  0.45388971222E+00 -0.24939091046E+00  0.18417136690E+00  0.10871866397E+01  0.93800000000E+00 0. -1.
         22    1    1    2    0    0 -0.39749943038E+00  0.21861557954E+00  0.33454956174E+01  0.33761130749E+01  0.00000000000E+00 0. -1.
</event>
<event>
 5    1  0.6076093E+001  0.1599654E+01  0.7818608E-02  0.3353739E+00
         11   -1    0    0    0    0  0.00000000000E+00  0.00000000000E+00  0.39999999674E+01  0.40000000000E+01  0.51100000000E-03 0.  1.
    9000002   -1    0    0    0    0 -0.00000000000E+00 -0.00000000000E+00  0.00000000000E+00  0.93800000000E+00  0.93800000000E+00 0.  1.
         11    1    1    2    0    0  0.47531325196E-01  0.19903288170E+00  0.13404338729E+01  0.13559633268E+01  0.51100000000E-03 0.  1.
    9000002    1    1    2    0    0 -0.12356162295E+00 -0.57071653136E+00  0.23712689542E+00  0.11300699086E+01  0.93800000000E+00 0.  1.
         22    1    1    2    0    0  0.76030297756E-01  0.37168364966E+00  0.24224391991E+01  0.24519667646E+01  0.00000000000E+00 0.  1.
</event>
<event>
 5    1  0.6076093E+001  0.1597319E+01  0.7818608E-02  0.3356279E+00
         11   -1    0    0    0    0  0.00000000000E+00  0.00000000000E+00  0.39999999674E+01  0.40000000000E+01  0.51100000000E-03 0. -1.
    9000002   -1    0    0    0    0 -0.00000000000E+00 -0.00000000000E+00  0.00000000000E+00  0.93800000000E+00  0.93800000000E+00 0. -1.
         11    1    1    2    0    0  0.13049447397E-01 -0.22178481530E-01  0.67142669563E+00  0.67191981802E+00  0.51100000000E-03 0. -1.
    9000002    1    1    2    0    0 -0.98073378576E-01  0.38422181253E+00  0.10797784318E+00  0.10240839826E+01  0.93800000000E+00 0. -1.
         22    1    1    2    0    0  0.85023931179E-01 -0.36204333100E+00  0.32205954285E+01  0.32419961994E+01  0.00000000000E+00 0. -1.
</event>
<event>
 5    1  0.6076093E+001  0.1502031E+01  0.7818608E-02  0.3467079E+00
         11   -1    0    0    0    0  0.00000000000E+00  0.00000000000E+00  0.39999999674E+01  0.40000000000E+01  0.51100000000E-03 0.  1.
    9000002   -1    0    0    0    0 -0.00000000000E+00 -0.00000000000E+00  0.00000000000E+00  0.93800000000E+00  0.93800000000E+00 0.  1.
         11    1    1    2    0    0 -0.25252316057E+00 -0.16156552331E+00  0.25051342756E+00  0.39067710894E+00  0.51100000000E-03 0.  1.
    9000002    1    1    2    0    0 -0.84900299469E-01  0.12340123873E+00  0.18628652349E+00  0.96797861309E+00  0.93800000000E+00 0.  1.
         22    1    1    2    0    0  0.33742346004E+00  0.38164284579E-01  0.35632000163E+01  0.35793442780E+01  0.00000000000E+00 0.  1.
</event>
<event>
 5    1  0.6076093E+001  0.1546670E+01  0.7818608E-02  0.3413361E+00
         11   -1    0    0    0    0  0.00000000000E+00  0.00000000000E+00  0.39999999674E+01  0.40000000000E+01  0.51100000000E-03 0.  1.
    9000002   -1    0    0    0    0 -0.00000000000E+00 -0.00000000000E+00  0.00000000000E+00  0.93800000000E+00  0.93800000000E+00 0.  1.
         11    1    1    2    0    0  0.22567014295E+00 -0.72128226293E-01  0.66219507911E+00  0.70330084485E+00  0.51100000000E-03 0.  1.
    9000002    1    1    2    0    0 -0.89350948881E-01  0.33448688726E+00  0.12421923014E+00  0.10075413078E+01  0.93800000000E+00 0.  1.
         22    1    1    2    0    0 -0.13631919407E+00 -0.26235866096E+00  0.32135856581E+01  0.32271578473E+01  0.00000000000E+00 0.  1.
</event>
<event>
 5    1  0.6076093E+001  0.1599672E+01  0.7818608E-02  0.3353719E+00
         11   -1    0    0    0    0  0.00000000000E+00  0.00000000000E+00  0.39999999674E+01  0.40000000000E+01  0.51100000000E-03 0. -1.
    9000002   -1    0    0    0    0 -0.00000000000E+00 -0.00000000000E+00  0.00000000000E+00  0.93800000000E+00  0.93800000000E+00 0.  1.
         11    1    1    2    0    0  0.63120905346E-01  0.46920177783E-01  0.66101191233E+00  0.66567466614E+00  0.51100000000E-03 0. -1.
    9000002    1    1    2    0    0 -0.35943017177E+00 -0.26777910505E+00  0.13641346833E+00  0.10484981315E+01  0.93800000000E+00 0.  1.
         22    1    1    2    0    0  0.29630926643E+00  0.22085892727E+00  0.32025745867E+01  0.32238272023E+01  0.00000000000E+00 0. -1.
</event>
<event>
 5    1  0.6076093E+001  0.1599367E+01  0.7818608E-02  0.3354051E+00
         11   -1    0    0    0    0  0.00000000000E+00  0.00000000000E+00  0.39999999674E+01  0.40000000000E+01  0.51100000000E-03 0.  1.
    9000002   -1    0    0    0    0 -0.00000000000E+00 -0.00000000000E+00  0.00000000000E+00  0.93800000000E+00  0.93800000000E+00 0. -1.
         11    1    1    2    0    0 -0.10719157887E-01  0.59054348381E-01  0.45227390101E+00  0.45623925638E+00  0.51100000000E-03 0.  1.
    9000002    1    1    2    0    0  0.84584839868E-01 -0.39080837456E+00  0.10810234352E+00  0.10253857310E+01  0.93800000000E+00 0. -1.
         22    1    1    2    0    0 -0.73865681982E-01  0.33175402618E+00  0.34396237228E+01  0.34563750126E+01  0.00000000000E+00 0.  1.
</event>
<event>
 5    1  0.6076093E+001  0.1573791E+01  0.7818608E-02  0.3382310E+00
         11   -1    0    0    0    0  0.00000000000E+00  0.00000000000E+00  0.39999999674E+01  0.40000000000E+01  0.51100000000E-03 0.  1.
    9000002   -1    0    0    0    0 -0.00000000000E+00 -0.00000000000E+00  0.00000000000E+00  0.93800000000E+00  0.93800000000E+00 0.  1.
         11    1    1    2    0    0 -0.90221143122E-01  0.16442299065E+00  0.83516672899E+00  0.85596641339E+00  0.51100000000E-03 0.  1.
    9000002    1    1    2    0    0 -0.21917383460E+00 -0.38260066570E+00  0.15441864696E+00  0.10479072276E+01  0.93800000000E+00 0.  1.
         22    1    1    2    0    0  0.30939497772E+00  0.21817767505E+00  0.30104145914E+01  0.30341263590E+01  0.00000000000E+00 0.  1.
</event>
<event>
 5    1  0.6076093E+001  0.1596434E+01  0.7818608E-02  0.3357243E+00
         11   -1    0    0    0    0  0.00000000000E+00  0.00000000000E+00  0.39999999674E+01  0.40000000000E+01  0.51100000000E-03 0.  1.
    9000002   -1    0    0    0    0 -0.00000000000E+00 -0.00000000000E+00  0.00000000000E+00  0.93800000000E+00  0.93800000000E+00 0.  1.
         11    1    1    2    0    0  0.20359921837E-01  0.28317892111E-01  0.11430969031E+00  0.11951316183E+00  0.51100000000E-03 0.  1.
    9000002    1    1    2    0    0 -0.45481350869E+00 -0.18861506306E+00  0.16865447241E+00  0.10727158528E+01  0.93800000000E+00 0.  1.
         22    1    1    2    0    0  0.43445358685E+00  0.16029717095E+00  0.37170358046E+01  0.37457709854E+01  0.00000000000E+00 0.  1.
</event>
<event>
 5    1  0.6076093E+001  0.1599410E+01  0.7818608E-02  0.3354004E+00
         11   -1    0    0    0    0  0.00000000000E+00  0.00000000000E+00  0.39999999674E+01  0.40000000000E+01  0.51100000000E-03 0. -1.
    9000002   -1    0    0    0    0 -0.00000000000E+00 -0.00000000000E+00  0.00000000000E+00  0.93800000000E+00  0.93800000000E+00 0.  1.
         11    1    1    2    0    0 -0.92058027278E-01  0.60187629471E-01  0.89422076955E+00  0.90095964224E+00  0.51100000000E-03 0. -1.
    9000002    1    1    2    0    0  0.43400880334E+00 -0.19843983397E+00  0.15555981213E+00  0.10638537795E+01  0.93800000000E+00 0.  1.
         22    1    1    2    0    0 -0.34195077606E+00  0.13825220450E+00  0.29502193857E+01  0.29731865782E+01  0.00000000000E+00 0. -1.
</event>
<event>
 5    1  0.6076093E+001  0.1599019E+01  0.7818608E-02  0.3354429E+00
         11   -1    0    0    0    0  0.00000000000E+00  0.00000000000E+00  0.39999999674E+01  0.40000000000E+01  0.51100000000E-03 0. -1.
    9000002   -1    0    0    0    0 -0.00000000000E+00 -0.00000000000E+00  0.00000000000E+00  0.93800000000E+00  0.93800000000E+00 0. -1.
         11    1    1    2    0    0  0.53947099111E-01  0.16572640038E-01  0.35220123938E+00  0.35669442951E+00  0.51100000000E-03 0. -1.
    9000002    1    1    2    0    0 -0.43003745767E+00 -0.72021536424E-01  0.12942738833E+00  0.10424561216E+01  0.93800000000E+00 0. -1.
         22    1    1    2    0    0  0.37609035856E+00  0.55448896387E-01  0.35183713397E+01  0.35388494488E+01  0.00000000000E+00 0. -1.
</event>
<event>
 5    1  0.6076093E+001  0.1599677E+01  0.7818608E-02  0.3353715E+00
         11   -1    0    0    0    0  0.00000000000E+00  0.00000000000E+00  0.39999999674E+01  0.40000000000E+01  0.51100000000E-03 0. -1.
    9000002   -1    0    0    0    0 -0.00000000000E+00 -0.00000000000E+00  0.00000000000E+00  0.93800000000E+00  0.93800000000E+00 0.  1.
         11    1    1    2    0    0 -0.12056133132E+00  0.77287247293E-01  0.11914583797E+01  0.12000340349E+01  0.51100000000E-03 0. -1.
    9000002    1    1    2    0    0  0.39099854637E+00 -0.24777081652E+00  0.14581118680E+00  0.10561132245E+01  0.93800000000E+00 0.  1.
         22    1    1    2    0    0 -0.27043721506E+00  0.17048356922E+00  0.26627304008E+01  0.26818527406E+01  0.00000000000E+00 0. -1.
</event>
<event>
 5    1  0.6076093E+001  0.1599674E+01  0.7818608E-02  0.3353718E+00
         11   -1    0    0    0    0  0.00000000000E+00  0.00000000000E+00  0.39999999674E+01  0.40000000000E+01  0.51100000000E-03 0. -1.
    9000002   -1    0    0    0    0 -0.00000000000E+00 -0.00000000000E+00  0.00000000000E+00  0.93800000000E+00  0.93800000000E+00 0. -1.
         11    1    1    2    0    0  0.14260257553E-01  0.42159742141E-01  0.46090772647E+00  0.46305182458E+00  0.51100000000E-03 0. -1.
    9000002    1    1    2    0    0 -0.12172695391E+00 -0.34622855483E+00  0.90488945917E-01  0.10112981325E+01  0.93800000000E+00 0. -1.
         22    1    1    2    0    0  0.10746669635E+00  0.30406881269E+00  0.34486032950E+01  0.34636500429E+01  0.00000000000E+00 0. -1.
</event>
<event>
 5    1  0.6076093E+001  0.1584658E+01  0.7818608E-02  0.3370185E+00
         11   -1    0    0    0    0  0.00000000000E+00  0.00000000000E+00  0.39999999674E+01  0.40000000000E+01  0.51100000000E-03 0. -1.
    9000002   -1    0    0    0    0 -0.00000000000E+00 -0.00000000000E+00  0.00000000000E+00  0.93800000000E+00  0.93800000000E+00 0. -1.
         11    1    1    2    0    0  0.68843165327E-01  0.34761400825E-01  0.86946646952E+00  0.87288025476E+00  0.51100000000E-03 0. -1.
    9000002    1    1    2    0    0  0.81668776423E-01  0.23268508664E+00  0.51935963322E-01  0.97126385852E+00  0.93800000000E+00 0. -1.
         22    1    1    2    0    0 -0.15051194175E+00 -0.26744648746E+00  0.30785975345E+01  0.30938558867E+01  0.00000000000E+00 0. -1.
</event>
<event>
 5    1  0.6076093E+001  0.1599292E+01  0.7818608E-02  0.3354132E+00
         11   -1    0    0    0    0  0.00000000000E+00  0.00000000000E+00  0.39999999674E+01  0.40000000000E+01  0.51100000000E-03 0.  1.
    9000002   -1    0    0    0    0 -0.00000000000E+00 -0.00000000000E+00  0.00000000000E+00  0.93800000000E+00  0.93800000000E+00 0.  1.
         11    1    1    2    0    0 -0.91439594244E-01 -0.74050417797E-01  0.97758511497E+00  0.98464083903E+00  0.51100000000E-03 0.  1.
    9000002    1    1    2    0    0  0.33270914513E+00  0.36684691792E+00  0.16811465942E+00  0.10739546430E+01  0.93800000000E+00 0.  1.
         22    1    1    2    0    0 -0.24126955089E+00 -0.29279650012E+00  0.28543001930E+01  0.28794045180E+01  0.00000000000E+00 0.  1.
</event>
<event>
 5    1  0.6076093E+001  0.1599676E+01  0.7818608E-02  0.3353716E+00
         11   -1    0    0    0    0  0.00000000000E+00  0.00000000000E+00  0.39999999674E+01  0.40000000000E+01  0.51100000000E-03 0. -1.
    9000002   -1    0    0    0    0 -0.00000000000E+00 -0.00000000000E+00  0.00000000000E+00  0.93800000000E+00  0.93800000000E+00 0. -1.
         11    1    1    2    0    0 -0.63628263474E-01 -0.70031319896E-01  0.62527344256E+00  0.63239234718E+00  0.51100000000E-03 0. -1.
    9000002    1    1    2    0    0  0.37932709116E+00  0.42681467912E+00  0.22613472103E+00  0.11211782751E+01  0.93800000000E+00 0. -1.
         22    1    1    2    0    0 -0.31569882768E+00 -0.35678335923E+00  0.31485918038E+01  0.31844293778E+01  0.00000000000E+00 0. -1.
</event>
<event>
 5    1  0.6076093E+001  0.1599411E+01  0.7818608E-02  0.3354003E+00
         11   -1    0    0    0    0  0.00000000000E+00  0.00000000000E+00  0.39999999674E+01  0.40000000000E+01  0.51100000000E-03 0. -1.
    9000002   -1    0    0    0    0 -0.00000000000E+00 -0.00000000000E+00  0.00000000000E+00  0.93800000000E+00  0.93800000000E+00 0.  1.
         11    1    1    2    0    0 -0.10225554314E+00 -0.70475801628E-01  0.75649130907E+00  0.76661750341E+00  0.51100000000E-03 0. -1.
    9000002    1    1    2    0    0  0.57559233278E+00  0.34268346856E+00  0.31848732180E+00  0.11958330432E+01  0.93800000000E+00 0.  1.
         22    1    1    2    0    0 -0.47333678964E+00 -0.27220766693E+00  0.29250213365E+01  0.29755494533E+01  0.00000000000E+00 0. -1.
</event>
<event>
 5    1  0.6076093E+001  0.1599668E+01  0.7818608E-02  0.3353724E+00
         11   -1    0    0    0    0  0.00000000000E+00  0.00000000000E+00  0.39999999674E+01  0.40000000000E+01  0.51100000000E-03 0. -1.
    9000002   -1    0    0    0    0 -0.00000000000E+00 -0.00000000000E+00  0.00000000000E+00  0.93800000000E+00  0.93800000000E+00 0. -1.
         11    1    1    2    0    0  0.89470144958E-01 -0.12580060464E-01  0.89917656853E+00  0.90370455751E+00  0.51100000000E-03 0. -1.
    9000002    1    1    2    0    0 -0.38177259233E+00  0.42658658914E-01  0.99349047359E-01  0.10184715542E+01  0.93800000000E+00 0. -1.
         22    1    1    2    0    0  0.29230244737E+00 -0.30078598450E-01  0.30014743515E+01  0.30158238883E+01  0.00000000000E+00 0. -1.
</event>
<event>
 5    1  0.6076093E+001  0.1597558E+01  0.7818608E-02  0.3356018E+00
         11   -1    0    0    0    0  0.00000000000E+00  0.00000000000E+00  0.39999999674E+01  0.40000000000E+01  0.51100000000E-03 0.  1.
    9000002   -1    0    0    0    0 -0.00000000000E+00 -0.00000000000E+00  0.00000000000E+00  0.93800000000E+00  0.93800000000E+00 0.  1.
         11    1    1    2    0    0 -0.18946086334E-01 -0.39948145803E-01  0.44854435833E+00  0.45071843878E+00  0.51100000000E-03 0.  1.
    9000002    1    1    2    0    0  0.34148330072E+00  0.96050009325E-01  0.86132308836E-01  0.10065283024E+01  0.93800000000E+00 0.  1.
         22    1    1    2    0    0 -0.32253721439E+00 -0.56101863521E-01  0.34653233002E+01  0.34807532588E+01  0.00000000000E+00 0.  1.
</event>
<event>
 5    1  0.6076093E+001  0.1594774E+01  0.7818608E-02  0.3359055E+00
         11   -1    0    0    0    0  0.00000000000E+00  0.00000000000E+00  0.39999999674E+01  0.40000000000E+01  0.51100000000E-03 0. -1.
    9000002   -1    0    0    0    0 -0.00000000000E+00 -0.00000000000E+00  0.00000000000E+00  0.93800000000E+00  0.93800000000E+00 0.  1.
         11    1    1    2    0    0  0.11733304711E+00 -0.88515084470E-01  0.14554761953E+01  0.14628783888E+01  0.51100000000E-03 0. -1.
    9000002    1    1    2    0    0 -0.46455059083E+00  0.82649357922E-01  0.15603752291E+00  0.10615224333E+01  0.93800000000E+00 0.  1.
         22    1    1    2    0    0  0.34721754372E+00  0.58657265483E-02  0.23884862491E+01  0.24135991779E+01  0.00000000000E+00 0. -1.
</event>
<event>
 5    1  0.6076093E+001  0.1599676E+01  0.7818608E-02  0.3353715E+00
         11   -1    0    0    0    0  0.00000000000E+00  0.00000000000E+00  0.39999999674E+01  0.40000000000E+01  0.51100000000E-03 0. -1.
    9000002   -1    0    0    0    0 -0.00000000000E+00 -0.00000000000E+00  0.00000000000E+00  0.93800000000E+00  0.93800000000E+00 0.  1.
         11    1    1    2    0    0  0.43099104233E-01  0.85957083942E-01  0.98460968669E+00  0.98929401561E+00  0.51100000000E-03 0. -1.
    9000002    1    1    2    0    0 -0.16857978090E+00 -0.33718668797E+00  0.95586177717E-01  0.10154283443E+01  0.93800000000E+00 0.  1.
         22    1    1    2    0    0  0.12548067667E+00  0.25122960403E+00  0.29198041029E+01  0.29332776401E+01  0.00000000000E+00 0.  1.
</event>
<event>
 5    1  0.6076093E+001  0.1599616E+01  0.7818608E-02  0.3353780E+00
         11   -1    0    0    0    0  0.00000000000E+00  0.00000000000E+00  0.39999999674E+01  0.40000000000E+01  0.51100000000E-03 0.  1.
    9000002   -1    0    0    0    0 -0.00000000000E+00 -0.00000000000E+00  0.00000000000E+00  0.93800000000E+00  0.93800000000E+00 0. -1.
         11    1    1    2    0    0 -0.20857583910E-01  0.76675472945E-02  0.16962227536E+00  0.17107252119E+00  0.51100000000E-03 0.  1.
    9000002    1    1    2    0    0  0.38950183383E+00 -0.16596817423E+00  0.12134021857E+00  0.10362550661E+01  0.93800000000E+00 0. -1.
         22    1    1    2    0    0 -0.36864424992E+00  0.15830062693E+00  0.37090374734E+01  0.37306724127E+01  0.00000000000E+00 0.  1.
</event>
<event>
 5    1  0.6076093E+001  0.1599676E+01  0.7818608E-02  0.3353715E+00
         11   -1    0    0    0    0  0.00000000000E+00  0.00000000000E+00  0.39999999674E+01  0.40000000000E+01  0.51100000000E-03 0.  1.
    9000002   -1    0    0    0    0 -0.00000000000E+00 -0.00000000000E+00  0.00000000000E+00  0.93800000000E+00  0.93800000000E+00 0.  1.
         11    1    1    2    0    0 -0.61296741160E-01 -0.35146141286E-01  0.61023552675E+00  0.61431278756E+00  0.51100000000E-03 0.  1.
    9000002    1    1    2    0    0  0.39030642008E+00  0.22720630765E+00  0.13856178812E+00  0.10502405329E+01  0.93800000000E+00 0.  1.
         22    1    1    2    0    0 -0.32900967892E+00 -0.19206016637E+00  0.32512026525E+01  0.32734466796E+01  0.00000000000E+00 0.  1.
</event>
<event>
 5    1  0.6076093E+001  0.1597761E+01  0.7818608E-02  0.3355797E+00
         11   -1    0    0    0    0  0.00000000000E+00  0.00000000000E+00  0.39999999674E+01  0.40000000000E+01  0.51100000000E-03 0.  1.
    9000002   -1    0    0    0    0 -0.00000000000E+00 -0.00000000000E+00  0.00000000000E+00  0.93800000000E+00  0.93800000000E+00 0.  1.
         11    1    1    2    0    0  0.41189686091E-01  0.16267719925E-01  0.84278802385E+00  0.84395091280E+00  0.51100000000E-03 0.  1.
    9000002    1    1    2    0    0 -0.32814106665E+00  0.72723095783E-01  0.77162003517E-01  0.99938140020E+00  0.93800000000E+00 0.  1.
         22    1    1    2    0    0  0.28695138056E+00 -0.88990815709E-01  0.30800499400E+01  0.30946676870E+01  0.00000000000E+00 0.  1.
</event>
<event>
 5    1  0.6076093E+001  0.1473144E+01  0.7818608E-02  0.3503712E+00
         11   -1    0    0    0    0  0.00000000000E+00  0.00000000000E+00  0.39999999674E+01  0.40000000000E+01  0.51100000000E-03 0. -1.
    9000002   -1    0    0    0    0 -0.00000000000E+00 -0.00000000000E+00  0.00000000000E+00  0.93800000000E+00  0.93800000000E+00 0. -1.
         11    1    1    2    0    0  0.21076203309E-01 -0.40802812412E+00  0.11530791575E+01  0.12233245526E+01  0.51100000000E-03 0. -1.
    9000002    1    1    2    0    0 -0.22886581219E+00  0.57011406683E-01  0.14010134516E+00  0.97729332720E+00  0.93800000000E+00 0. -1.
         22    1    1    2    0    0  0.20778960888E+00  0.35101671744E+00  0.27068194647E+01  0.27373821202E+01  0.00000000000E+00 0. -1.
</event>
<event>
 5    1  0.6076093E+001  0.1599676E+01  0.7818608E-02  0.3353716E+00
         11   -1    0    0    0    0  0.00000000000E+00  0.00000000000E+00  0.39999999674E+01  0.40000000000E+01  0.51100000000E-03 0. -1.
    9000002   -1    0    0    0    0 -0.00000000000E+00 -0.00000000000E+00  0.00000000000E+00  0.93800000000E+00  0.93800000000E+00 0.  1.
         11    1    1    2    0    0  0.53964606261E-01  0.57002689733E-01  0.52749666539E+00  0.53330523950E+00  0.51100000000E-03 0. -1.
    9000002    1    1    2    0    0 -0.38169263658E+00 -0.40529863051E+00  0.21436466778E+00  0.11116440345E+01  0.93800000000E+00 0.  1.
         22    1    1    2    0    0  0.32772803032E+00  0.34829594077E+00  0.32581386342E+01  0.32930507260E+01  0.00000000000E+00 0. -1.
</event>
<event>
 5    1  0.6076093E+001  0.1562793E+01  0.7818608E-02  0.3394763E+00
         11   -1    0    0    0    0  0.00000000000E+00  0.00000000000E+00  0.39999999674E+01  0.40000000000E+01  0.51100000000E-03 0.  1.
    9000002   -1    0    0    0    0 -0.00000000000E+00 -0.00000000000E+00  0.00000000000E+00  0.93800000000E+00  0.93800000000E+00 0. -1.
         11    1    1    2    0    0  0.21754285382E+00  0.34941998832E-01  0.13946525275E+01  0.14119496344E+01  0.51100000000E-03 0.  1.
    9000002    1    1    2    0    0 -0.22735985416E+00  0.38990581111E+00  0.17100787207E+00  0.10548965528E+01  0.93800000000E+00 0. -1.
         22    1    1    2    0    0  0.98170003370E-02 -0.42484780994E+00  0.24343395678E+01  0.24711538128E+01  0.00000000000E+00 0.  1.
</event>
<event>
 5    1  0.6076093E+001  0.1565778E+01  0.7818608E-02  0.3391365E+00
         11   -1    0    0    0    0  0.00000000000E+00  0.00000000000E+00  0.39999999674E+01  0.40000000000E+01  0.51100000000E-03 0.  1.
    9000002   -1    0    0    0    0 -0.00000000000E+00 -0.00000000000E+00  0.00000000000E+00  0.93800000000E+00  0.93800000000E+00 0. -1.
         11    1    1    2    0    0 -0.79284265044E-01 -0.13872293906E+00  0.10462242997E+01  0.10583551365E+01  0.51100000000E-03 0.  1.
    9000002    1    1    2    0    0  0.38477361983E-01 -0.16684952763E+00  0.44982825432E-01  0.95456101263E+00  0.93800000000E+00 0. -1.
         22    1    1    2    0    0  0.40806903061E-01  0.30557246669E+00  0.29087928422E+01  0.29250838509E+01  0.00000000000E+00 0. -1.
</event>
<event>
 5    1  0.6076093E+001  0.1555657E+01  0.7818608E-02  0.3402945E+00
         11   -1    0    0    0    0  0.00000000000E+00  0.00000000000E+00  0.39999999674E+01  0.40000000000E+01  0.51100000000E-03 0.  1.
    9000002   -1    0    0    0    0 -0.00000000000E+00 -0.00000000000E+00  0.00000000000E+00  0.93800000000E+00  0.93800000000E+00 0.  1.
         11    1    1    2    0    0 -0.16462286203E+00  0.19494695611E-01  0.14283921237E+01  0.14379795026E+01  0.51100000000E-03 0.  1.
    9000002    1    1    2    0    0 -0.21348314888E+00 -0.25206420767E-02  0.64115932696E-01  0.96412460881E+00  0.93800000000E+00 0.  1.
         22    1    1    2    0    0  0.37810601091E+00 -0.16974053534E-01  0.25074919110E+01  0.25358958886E+01  0.00000000000E+00 0.  1.
</event>
<event>
 5    1  0.6076093E+001  0.1599664E+01  0.7818608E-02  0.3353728E+00
         11   -1    0    0    0    0  0.00000000000E+00  0.00000000000E+00  0.39999999674E+01  0.40000000000E+01  0.51100000000E-03 0. -1.
    9000002   -1    0    0    0    0 -0.00000000000E+00 -0.00000000000E+00  0.00000000000E+00  0.93800000000E+00  0.93800000000E+00 0. -1.
         11    1    1    2    0    0 -0.32475154642E-01  0.81157929985E-01  0.93817434737E+00  0.94223808692E+00  0.51100000000E-03 0. -1.
    9000002    1    1    2    0    0  0.14488641690E+00 -0.34975015192E+00  0.96423741275E-01  0.10160997886E+01  0.93800000000E+00 0. -1.
         22    1    1    2    0    0 -0.11241126226E+00  0.26859222194E+00  0.29654018787E+01  0.29796621245E+01  0.00000000000E+00 0. -1.
</event>
<event>
 5    1  0.6076093E+001  0.1599604E+01  0.7818608E-02  0.3353793E+00
         11   -1    0    0    0    0  0.00000000000E+00  0.00000000000E+00  0.39999999674E+01  0.40000000000E+01  0.51100000000E-03 0.  1.
    9000002   -1    0    0    0    0 -0.00000000000E+00 -0.00000000000E+00  0.00000000000E+00  0.93800000000E+00  0.93800000000E+00 0. -1.
         11    1    1    2    0    0  0.52640450704E-01  0.16808902869E+00  0.14685841689E+01  0.14791094147E+01  0.51100000000E-03 0.  1.
    9000002    1    1    2    0    0 -0.14647808069E+00 -0.41744649569E+00  0.13284335920E+00  0.10455662404E+01  0.93800000000E+00 0. -1.
         22    1    1    2    0    0  0.93837629987E-01  0.24935746700E+00  0.23985724393E+01  0.24133243449E+01  0.00000000000E+00 0.  1.
</event>
<event>
 5    1  0.6076093E+001  0.1483014E+01  0.7818608E-02  0.3491021E+00
         11   -1    0    0    0    0  0.00000000000E+00  0.00000000000E+00  0.39999999674E+01  0.40000000000E+01  0.51100000000E-03 0. -1.
    9000002   -1    0    0    0    0 -0.00000000000E+00 -0.00000000000E+00  0.00000000000E+00  0.93800000000E+00  0.93800000000E+00 0.  1.
         11    1    1    2    0    0  0.35607907635E-01  0.30282773897E+00  0.70444393049E+00  0.76760281064E+00  0.51100000000E-03 0. -1.
    9000002    1    1    2    0    0  0.17095610458E+00  0.56612569612E-01  0.11395987952E+00  0.96190531076E+00  0.93800000000E+00 0.  1.
         22    1    1    2    0    0 -0.20656401221E+00 -0.35944030858E+00  0.31815961573E+01  0.32084918786E+01  0.00000000000E+00 0. -1.
</event>
<event>
 5    1  0.6076093E+001  0.1599485E+01  0.7818608E-02  0.3353922E+00
         11   -1    0    0    0    0  0.00000000000E+00  0.00000000000E+00  0.39999999674E+01  0.40000000000E+01  0.51100000000E-03 0.  1.
    9000002   -1    0    0    0    0 -0.00000000000E+00 -0.00000000000E+00  0.00000000000E+00  0.93800000000E+00  0.93800000000E+00 0. -1.
         11    1    1    2    0    0 -0.41279089597E-02  0.11999484323E-01  0.20831677093E+00  0.20870353478E+00  0.51100000000E-03 0.  1.
    9000002    1    1    2    0    0  0.19004143357E-01 -0.35328478528E+00  0.84118608396E-01  0.10060274535E+01  0.93800000000E+00 0. -1.
         22    1    1    2    0    0 -0.14876234397E-01  0.34128530096E+00  0.37075645880E+01  0.37232690117E+01  0.00000000000E+00 0.  1.
</event>
<event>
 5    1  0.6076093E+001  0.1599638E+01  0.7818608E-02  0.3353756E+00
         11   -1    0    0    0    0  0.00000000000E+00  0.00000000000E+00  0.39999999674E+01  0.40000000000E+01  0.51100000000E-03 0. -1.
    9000002   -1    0    0    0    0 -0.00000000000E+00 -0.00000000000E+00  0.00000000000E+00  0.93800000000E+00  0.93800000000E+00 0.  1.
         11    1    1    2    0    0  0.11575367636E-01  0.14887204083E+00  0.63372804200E+00  0.65108245715E+00  0.51100000000E-03 0. -1.
    9000002    1    1    2    0    0 -0.95389628357E-01 -0.82241546556E+00  0.50994796176E+00  0.13510578459E+01  0.93800000000E+00 0.  1.
         22    1    1    2    0    0  0.83814260720E-01  0.67354342473E+00  0.28563239636E+01  0.29358596970E+01  0.00000000000E+00 0. -1.
</event>
<event>
 5    1  0.7312566E+001  0.1593725E+01  0.7818608E-02  0.3360203E+00
         11   -1    0    0    0    0  0.00000000000E+00  0.00000000000E+00  0.39999999674E+01  0.40000000000E+01  0.51100000000E-03 0.  1.
    9000002   -1    0    0    0    0 -0.00000000000E+00 -0.00000000000E+00  0.00000000000E+00  0.93800000000E+00  0.93800000000E+00 0.  1.
         11    1    1    2    0    0 -0.53686191464E-01 -0.38019793288E-01  0.88498523106E+00  0.88742708555E+00  0.51100000000E-03 0.  1.
    9000002    1    1    2    0    0 -0.85654976605E-01  0.28571924020E+00  0.64014095227E-01  0.98636406242E+00  0.93800000000E+00 0.  1.
         22    1    1    2    0    0  0.13934116807E+00 -0.24769944691E+00  0.30510006411E+01  0.30642088520E+01  0.00000000000E+00 0.  1.
</event>
<event>
 5    1  0.7361023E+001  0.1591260E+01  0.7818608E-02  0.3362904E+00
         11   -1    0    0    0    0  0.00000000000E+00  0.00000000000E+00  0.39999999674E+01  0.40000000000E+01  0.51100000000E-03 0.  1.
    9000002   -1    0    0    0    0 -0.00000000000E+00 -0.00000000000E+00  0.00000000000E+00  0.93800000000E+00  0.93800000000E+00 0. -1.
         11    1    1    2    0    0 -0.48706324698E-01 -0.18918906626E-01  0.12981210177E+01  0.12991723015E+01  0.51100000000E-03 0.  1.
    9000002    1    1    2    0    0 -0.13122154866E+00  0.20484140742E+00  0.45733325427E-01  0.97011062982E+00  0.93800000000E+00 0. -1.
         22    1    1    2    0    0  0.17992787336E+00 -0.18592250080E+00  0.26561456242E+01  0.26687170687E+01  0.00000000000E+00 0.  1.
</event>
<event>
 5    1  0.6076093E+001  0.1599382E+01  0.7818608E-02  0.3354034E+00
         11   -1    0    0    0    0  0.00000000000E+00  0.00000000000E+00  0.39999999674E+01  0.40000000000E+01  0.51100000000E-03 0.  1.
    9000002   -1    0    0    0    0 -0.00000000000E+00 -0.00000000000E+00  0.00000000000E+00  0.93800000000E+00  0.93800000000E+00 0. -1.
         11    1    1    2    0    0  0.10658769322E+00  0.93497918452E-01  0.11960313956E+01  0.12044061430E+01  0.51100000000E-03 0.  1.
    9000002    1    1    2    0    0 -0.28417100373E+00 -0.29925709131E+00  0.11531447635E+00  0.10312368276E+01  0.93800000000E+00 0. -1.
         22    1    1    2    0    0  0.17758331051E+00  0.20575917285E+00  0.26886540954E+01  0.27023570294E+01  0.00000000000E+00 0.  1.
</event>
<event>
 5    1  0.6076093E+001  0.1587939E+01  0.7818608E-02  0.3366559E+00
         11   -1    0    0    0    0  0.00000000000E+00  0.00000000000E+00  0.39999999674E+01  0.40000000000E+01  0.51100000000E-03 0. -1.
    9000002   -1    0    0    0    0 -0.00000000000E+00 -0.00000000000E+00  0.00000000000E+00  0.93800000000E+00  0.93800000000E+00 0.  1.
         11    1    1    2    0    0  0.10097123271E+00 -0.35480424775E-01  0.93874749080E+00  0.94482864213E+00  0.51100000000E-03 0. -1.
    9000002    1    1    2    0    0  0.15452337713E-01  0.30554826549E+00  0.71749414989E-01  0.98923733039E+00  0.93800000000E+00 0.  1.
         22    1    1    2    0    0 -0.11642357043E+00 -0.27006784071E+00  0.29895030616E+01  0.30039340275E+01  0.00000000000E+00 0. -1.
</event>
<event>
 5    1  0.6076093E+001  0.1598640E+01  0.7818608E-02  0.3354840E+00
         11   -1    0    0    0    0  0.00000000000E+00  0.00000000000E+00  0.39999999674E+01  0.40000000000E+01  0.51100000000E-03 0.  1.
    9000002   -1    0    0    0    0 -0.00000000000E+00 -0.00000000000E+00  0.00000000000E+00  0.93800000000E+00  0.93800000000E+00 0. -1.
         11    1    1    2    0    0 -0.52349192719E-01 -0.36177872839E-02  0.81378826167E+00  0.81547846220E+00  0.51100000000E-03 0.  1.
    9000002    1    1    2    0    0  0.34231574128E+00  0.13839545370E+00  0.92458255003E-01  0.10122874578E+01  0.93800000000E+00 0. -1.
         22    1    1    2    0    0 -0.28996654856E+00 -0.13477766641E+00  0.30937534507E+01  0.31102340800E+01  0.00000000000E+00 0.  1.
</event>
<event>
 5    1  0.6076093E+001  0.1599677E+01  0.7818608E-02  0.3353714E+00
         11   -1    0    0    0    0  0.00000000000E+00  0.00000000000E+00  0.39999999674E+01  0.40000000000E+01  0.51100000000E-03 0. -1.
    9000002   -1    0    0    0    0 -0.00000000000E+00 -0.00000000000E+00  0.00000000000E+00  0.93800000000E+00  0.93800000000E+00 0. -1.
         11    1    1    2    0    0 -0.40857606719E-01  0.12087874369E+00  0.12883408119E+01  0.12946440914E+01  0.51100000000E-03 0. -1.
    9000002    1    1    2    0    0  0.12533283499E+00 -0.36465864676E+00  0.10010939590E+00  0.10190928021E+01  0.93800000000E+00 0. -1.
         22    1    1    2    0    0 -0.84475228272E-01  0.24377990307E+00  0.26115497595E+01  0.26242631064E+01  0.00000000000E+00 0. -1.
</event>
<event>
 5    1  0.6076093E+001  0.1599671E+01  0.7818608E-02  0.3353721E+00
         11   -1    0    0    0    0  0.00000000000E+00  0.00000000000E+00  0.39999999674E+01  0.40000000000E+01  0.51100000000E-03 0.  1.
    9000002   -1    0    0    0    0 -0.00000000000E+00 -0.00000000000E+00  0.00000000000E+00  0.93800000000E+00  0.93800000000E+00 0.  1.
         11    1    1    2    0    0  0.11836545583E-01  0.11654824367E-01  0.10160058337E+00  0.10295085431E+00  0.51100000000E-03 0.  1.
    9000002    1    1    2    0    0 -0.44874374030E+00 -0.40188440577E+00  0.25331839433E+00  0.11431956215E+01  0.93800000000E+00 0.  1.
         22    1    1    2    0    0  0.43690719471E+00  0.39022958141E+00  0.36450809897E+01  0.36918535242E+01  0.00000000000E+00 0.  1.
</event>
<event>
 5    1  0.6076093E+001  0.1508834E+01  0.7818608E-02  0.3458672E+00
         11   -1    0    0    0    0  0.00000000000E+00  0.00000000000E+00  0.39999999674E+01  0.40000000000E+01  0.51100000000E-03 0. -1.
    9000002   -1    0    0    0    0 -0.00000000000E+00 -0.00000000000E+00  0.00000000000E+00  0.93800000000E+00  0.93800000000E+00 0. -1.
         11    1    1    2    0    0 -0.15236444594E+00  0.56629906529E-01  0.15574615979E+00  0.22511996382E+00  0.51100000000E-03 0. -1.
    9000002    1    1    2    0    0  0.31013494055E+00  0.54325444220E+00  0.37436031037E+00  0.11879809394E+01  0.93800000000E+00 0. -1.
         22    1    1    2    0    0 -0.15777049462E+00 -0.59988434872E+00  0.34698934972E+01  0.35248990968E+01  0.00000000000E+00 0. -1.
</event>
<event>
 5    1  0.6076093E+001  0.1599668E+01  0.7818608E-02  0.3353724E+00
         11   -1    0    0    0    0  0.00000000000E+00  0.00000000000E+00  0.39999999674E+01  0.40000000000E+01  0.51100000000E-03 0.  1.
    9000002   -1    0    0    0    0 -0.00000000000E+00 -0.00000000000E+00  0.00000000000E+00  0.93800000000E+00  0.93800000000E+00 0. -1.
         11    1    1    2    0    0  0.38006487027E-01 -0.77644384352E-01  0.75482321339E+00  0.75975751926E+00  0.51100000000E-03 0.  1.
    9000002    1    1    2    0    0 -0.19234733729E+00  0.38439508899E+00  0.12512882741E+00  0.10393547547E+01  0.93800000000E+00 0. -1.
         22    1    1    2    0    0  0.15434085027E+00 -0.30675070464E+00  0.31200479266E+01  0.31388877261E+01  0.00000000000E+00 0.  1.
</event>
<event>
 5    1  0.6076093E+001  0.1599649E+01  0.7818608E-02  0.3353744E+00
         11   -1    0    0    0    0  0.00000000000E+00  0.00000000000E+00  0.39999999674E+01  0.40000000000E+01  0.51100000000E-03 0. -1.
    9000002   -1    0    0    0    0 -0.00000000000E+00 -0.00000000000E+00  0.00000000000E+00  0.93800000000E+00  0.93800000000E+00 0. -1.
         11    1    1    2    0    0  0.16900904007E-01  0.24096305662E+00  0.11151391126E+01  0.11410014623E+01  0.51100000000E-03 0. -1.
    9000002    1    1    2    0    0 -0.35701670515E-01 -0.76741123777E+00  0.43029708516E+00  0.12865435083E+01  0.93800000000E+00 0. -1.
         22    1    1    2    0    0  0.18800766508E-01  0.52644818115E+00  0.24545637696E+01  0.25104550295E+01  0.00000000000E+00 0. -1.
</event>
<event>
 5    1  0.6076093E+001  0.1510528E+01  0.7818608E-02  0.3456591E+00
         11   -1    0    0    0    0  0.00000000000E+00  0.00000000000E+00  0.39999999674E+01  0.40000000000E+01  0.51100000000E-03 0.  1.
    9000002   -1    0    0    0    0 -0.00000000000E+00 -0.00000000000E+00  0.00000000000E+00  0.93800000000E+00  0.93800000000E+00 0.  1.
         11    1    1    2    0    0 -0.23968515935E+00  0.12180435519E+00  0.46306772969E+00  0.53545985840E+00  0.51100000000E-03 0.  1.
    9000002    1    1    2    0    0  0.15705653236E-01 -0.52337568587E+00  0.27571594403E+00  0.11090681034E+01  0.93800000000E+00 0.  1.
         22    1    1    2    0    0  0.22397950611E+00  0.40157133069E+00  0.32612162936E+01  0.32934720382E+01  0.00000000000E+00 0.  1.
</event>
<event>
 5    1  0.6076093E+001  0.1599508E+01  0.7818608E-02  0.3353897E+00
         11   -1    0    0    0    0  0.00000000000E+00  0.00000000000E+00  0.39999999674E+01  0.40000000000E+01  0.51100000000E-03 0.  1.
    9000002   -1    0    0    0    0 -0.00000000000E+00 -0.00000000000E+00  0.00000000000E+00  0.93800000000E+00  0.93800000000E+00 0. -1.
         11    1    1    2    0    0 -0.28121741627E-02 -0.41281165827E-01  0.50696432615E+00  0.50865030432E+00  0.51100000000E-03 0.  1.
    9000002    1    1    2    0    0 -0.51978016956E-01  0.35261941420E+00  0.85380688526E-01  0.10070630703E+01  0.93800000000E+00 0. -1.
         22    1    1    2    0    0  0.54790191118E-01 -0.31133824837E+00  0.34076549527E+01  0.34222866254E+01  0.00000000000E+00 0.  1.
</event>
<event>
 5    1  0.6076093E+001  0.1599658E+01  0.7818608E-02  0.3353734E+00
         11   -1    0    0    0    0  0.00000000000E+00  0.00000000000E+00  0.39999999674E+01  0.40000000000E+01  0.51100000000E-03 0. -1.
    9000002   -1    0    0    0    0 -0.00000000000E+00 -0.00000000000E+00  0.00000000000E+00  0.93800000000E+00  0.93800000000E+00 0. -1.
         11    1    1    2    0    0  0.12009000606E+00 -0.26086275954E-01  0.12850350420E+01  0.12908979137E+01  0.51100000000E-03 0. -1.
    9000002    1    1    2    0    0 -0.36091140539E+00  0.93613775961E-01  0.93474027454E-01  0.10137070461E+01  0.93800000000E+00 0. -1.
         22    1    1    2    0    0  0.24082139933E+00 -0.67527500007E-01  0.26214908979E+01  0.26333950401E+01  0.00000000000E+00 0. -1.
</event>
<event>
 5    1  0.6076093E+001  0.1599669E+01  0.7818608E-02  0.3353722E+00
         11   -1    0    0    0    0  0.00000000000E+00  0.00000000000E+00  0.39999999674E+01  0.40000000000E+01  0.51100000000E-03 0.  1.
    9000002   -1    0    0    0    0 -0.00000000000E+00 -0.00000000000E+00  0.00000000000E+00  0.93800000000E+00  0.93800000000E+00 0. -1.
         11    1    1    2    0    0  0.60201277297E-01  0.32085979936E-01  0.47143498739E+00  0.47634537087E+00  0.51100000000E-03 0.  1.
    9000002    1    1    2    0    0 -0.46913712457E+00 -0.26503971637E+00  0.20012293548E+00  0.11001040324E+01  0.93800000000E+00 0. -1.
         22    1    1    2    0    0  0.40893584727E+00  0.23295373643E+00  0.33284420445E+01  0.33615505967E+01  0.00000000000E+00 0.  1.
</event>
<event>
 5    1  0.6076093E+001  0.1599672E+01  0.7818608E-02  0.3353720E+00
         11   -1    0    0    0    0  0.00000000000E+00  0.00000000000E+00  0.39999999674E+01  0.40000000000E+01  0.51100000000E-03 0. -1.
    9000002   -1    0    0    0    0 -0.00000000000E+00 -0.00000000000E+00  0.00000000000E+00  0.93800000000E+00  0.93800000000E+00 0. -1.
         11    1    1    2    0    0  0.36354755453E-01  0.11879321142E+00  0.13295544616E+01  0.13353459562E+01  0.51100000000E-03 0. -1.
    9000002    1    1    2    0    0 -0.10471975721E+00 -0.34240451607E+00  0.86045797506E-01  0.10076978513E+01  0.93800000000E+00 0. -1.
         22    1    1    2    0    0  0.68365001760E-01  0.22361130465E+00  0.25843997083E+01  0.25949561925E+01  0.00000000000E+00 0.  1.
</event>
<event>
 5    1  0.6076093E+001  0.1599663E+01  0.7818608E-02  0.3353729E+00
         11   -1    0    0    0    0  0.00000000000E+00  0.00000000000E+00  0.39999999674E+01  0.40000000000E+01  0.51100000000E-03 0.  1.
    9000002   -1    0    0    0    0 -0.00000000000E+00 -0.00000000000E+00  0.00000000000E+00  0.93800000000E+00  0.93800000000E+00 0. -1.
         11    1    1    2    0    0 -0.35170389628E-01  0.54820146334E-02  0.29245197776E+00  0.29461064002E+00  0.51100000000E-03 0.  1.
    9000002    1    1    2    0    0  0.43895923296E+00 -0.89368254085E-01  0.13626425351E+00  0.10483719950E+01  0.93800000000E+00 0. -1.
         22    1    1    2    0    0 -0.40378884334E+00  0.83886239451E-01  0.35712837361E+01  0.35950173650E+01  0.00000000000E+00 0.  1.
</event>
<event>
 5    1  0.6076093E+001  0.1599676E+01  0.7818608E-02  0.3353715E+00
         11   -1    0    0    0    0  0.00000000000E+00  0.00000000000E+00  0.39999999674E+01  0.40000000000E+01  0.51100000000E-03 0. -1.
    9000002   -1    0    0    0    0 -0.00000000000E+00 -0.00000000000E+00  0.00000000000E+00  0.93800000000E+00  0.93800000000E+00 0. -1.
         11    1    1    2    0    0  0.79098971214E-01 -0.80858386640E-01  0.91298325038E+00  0.91996380501E+00  0.51100000000E-03 0. -1.
    9000002    1    1    2    0    0 -0.33554036716E+00  0.34230441148E+00  0.15675313471E+00  0.10649766163E+01  0.93800000000E+00 0. -1.
         22    1    1    2    0    0  0.25644139594E+00 -0.26144602484E+00  0.29302635823E+01  0.29530595786E+01  0.00000000000E+00 0. -1.
</event>
<event>
 5    1  0.6076093E+001  0.1599674E+01  0.7818608E-02  0.3353717E+00
         11   -1    0    0    0    0  0.00000000000E+00  0.00000000000E+00  0.39999999674E+01  0.40000000000E+01  0.51100000000E-03 0.  1.
    9000002   -1    0    0    0    0 -0.00000000000E+00 -0.00000000000E+00  0.00000000000E+00  0.93800000000E+00  0.93800000000E+00 0. -1.
         11    1    1    2    0    0  0.25843748735E+00  0.42963991783E-01  0.14033232869E+01  0.14275686842E+01  0.51100000000E-03 0.  1.
    9000002    1    1    2    0    0 -0.67435652400E+00 -0.11735330055E+00  0.33347896479E+00  0.12081310933E+01  0.93800000000E+00 0. -1.
         22    1    1    2    0    0  0.41591903665E+00  0.74389308765E-01  0.22631977157E+01  0.23023002225E+01  0.00000000000E+00 0.  1.
</event>
<event>
 5    1  0.6076093E+001  0.1599674E+01  0.7818608E-02  0.3353717E+00
         11   -1    0    0    0    0  0.00000000000E+00  0.00000000000E+00  0.39999999674E+01  0.40000000000E+01  0.51100000000E-03 0. -1.
    9000002   -1    0    0    0    0 -0.00000000000E+00 -0.00000000000E+00  0.00000000000E+00  0.93800000000E+00  0.93800000000E+00 0. -1.
         11    1    1    2    0    0  0.44633406404E-01 -0.22184425166E-01  0.52766203272E+00  0.53001110515E+00  0.51100000000E-03 0. -1.
    9000002    1    1    2    0    0 -0.33902679134E+00  0.15966972267E+00  0.94432040036E-01  0.10144924819E+01  0.93800000000E+00 0. -1.
         22    1    1    2    0    0  0.29439338493E+00 -0.13748529750E+00  0.33779058946E+01  0.33934964130E+01  0.00000000000E+00 0. -1.
</event>
<event>
 5    1  0.6076093E+001  0.1598964E+01  0.7818608E-02  0.3354489E+00
         11   -1    0    0    0    0  0.00000000000E+00  0.00000000000E+00  0.39999999674E+01  0.40000000000E+01  0.51100000000E-03 0. -1.
    9000002   -1    0    0    0    0 -0.00000000000E+00 -0.00000000000E+00  0.00000000000E+00  0.93800000000E+00  0.93800000000E+00 0. -1.
         11    1    1    2    0    0  0.68922781436E-01  0.51592044592E-01  0.95697165925E+00  0.96083667009E+00  0.51100000000E-03 0. -1.
    9000002    1    1    2    0    0 -0.28896421328E+00 -0.32089246389E+00  0.12692576244E+00  0.10403972506E+01  0.93800000000E+00 0. -1.
         22    1    1    2    0    0  0.22004143184E+00  0.26930041930E+00  0.29161025457E+01  0.29367660793E+01  0.00000000000E+00 0. -1.
</event>
<event>
 5    1  0.6076093E+001  0.1598724E+01  0.7818608E-02  0.3354750E+00
         11   -1    0    0    0    0  0.00000000000E+00  0.00000000000E+00  0.39999999674E+01  0.40000000000E+01  0.51100000000E-03 0. -1.
    9000002   -1    0    0    0    0 -0.00000000000E+00 -0.00000000000E+00  0.00000000000E+00  0.93800000000E+00  0.93800000000E+00 0. -1.
         11    1    1    2    0    0  0.23192523723E-01 -0.16655428522E+00  0.12807180147E+01  0.12917109264E+01  0.51100000000E-03 0. -1.
    9000002    1    1    2    0    0 -0.96963216404E-01  0.40199315216E+00  0.11634858902E+00  0.10316885935E+01  0.93800000000E+00 0. -1.
         22    1    1    2    0    0  0.73770692681E-01 -0.23543886694E+00  0.26029333637E+01  0.26146004802E+01  0.00000000000E+00 0. -1.
</event>
<event>
 5    1  0.6076093E+001  0.1358795E+01  0.7818608E-02  0.3675287E+00
         11   -1    0    0    0    0  0.00000000000E+00  0.00000000000E+00  0.39999999674E+01  0.40000000000E+01  0.51100000000E-03 0. -1.
    9000002   -1    0    0    0    0 -0.00000000000E+00 -0.00000000000E+00  0.00000000000E+00  0.93800000000E+00  0.93800000000E+00 0. -1.
         11    1    1    2    0    0 -0.72255857012E-01 -0.59801939937E+00  0.98378450249E+00  0.11535511776E+01  0.51100000000E-03 0. -1.
    9000002    1    1    2    0    0 -0.82514526091E-01  0.27419999328E+00  0.27323051553E+00  0.10180830997E+01  0.93800000000E+00 0. -1.
         22    1    1    2    0    0  0.15477038310E+00  0.32381940608E+00  0.27429849493E+01  0.27663657227E+01  0.00000000000E+00 0. -1.
</event>
<event>
 5    1  0.6076093E+001  0.1598059E+01  0.7818608E-02  0.3355473E+00
         11   -1    0    0    0    0  0.00000000000E+00  0.00000000000E+00  0.39999999674E+01  0.40000000000E+01  0.51100000000E-03 0. -1.
    9000002   -1    0    0    0    0 -0.00000000000E+00 -0.00000000000E+00  0.00000000000E+00  0.93800000000E+00  0.93800000000E+00 0.  1.
         11    1    1    2    0    0 -0.15887070006E-01 -0.48176320253E-01  0.28645036866E+00  0.29090794361E+00  0.51100000000E-03 0. -1.
    9000002    1    1    2    0    0  0.26505230648E+00  0.31190424791E+00  0.11450049274E+00  0.10298016061E+01  0.93800000000E+00 0.  1.
         22    1    1    2    0    0 -0.24916523647E+00 -0.26372792766E+00  0.35990491060E+01  0.36172904503E+01  0.00000000000E+00 0. -1.
</event>
<event>
 5    1  0.6076093E+001  0.1599677E+01  0.7818608E-02  0.3353714E+00
         11   -1    0    0    0    0  0.00000000000E+00  0.00000000000E+00  0.39999999674E+01  0.40000000000E+01  0.51100000000E-03 0. -1.
    9000002   -1    0    0    0    0 -0.00000000000E+00 -0.00000000000E+00  0.00000000000E+00  0.93800000000E+00  0.93800000000E+00 0. -1.
         11    1    1    2    0    0 -0.10387763208E+00  0.62389658980E-01  0.11641600720E+01  0.11704494720E+01  0.51100000000E-03 0.  1.
    9000002    1    1    2    0    0  0.34815307458E+00 -0.20719250431E+00  0.11078906466E+00  0.10277438952E+01  0.93800000000E+00 0. -1.
         22    1    1    2    0    0 -0.24427544251E+00  0.14480284533E+00  0.27250508307E+01  0.27398066329E+01  0.00000000000E+00 0. -1.
</event>
<event>
 5    1  0.6076093E+001  0.1596016E+01  0.7818608E-02  0.3357699E+00
         11   -1    0    0    0    0  0.00000000000E+00  0.00000000000E+00  0.39999999674E+01  0.40000000000E+01  0.51100000000E-03 0. -1.
    9000002   -1    0    0    0    0 -0.00000000000E+00 -0.00000000000E+00  0.00000000000E+00  0.93800000000E+00  0.93800000000E+00 0.  1.
         11    1    1    2    0    0  0.31258555676E-01 -0.56924645671E-01  0.88078178501E+00  0.88317287465E+00  0.51100000000E-03 0. -1.
    9000002    1    1    2    0    0  0.11251220219E+00  0.35157170602E+00  0.94553100451E-01  0.10124455289E+01  0.93800000000E+00 0.  1.
         22    1    1    2    0    0 -0.14377075787E+00 -0.29464706035E+00  0.30246650819E+01  0.30423815965E+01  0.00000000000E+00 0.  1.
</event>
<event>
 5    1  0.6076093E+001  0.1599675E+01  0.7818608E-02  0.3353716E+00
         11   -1    0    0    0    0  0.00000000000E+00  0.00000000000E+00  0.39999999674E+01  0.40000000000E+01  0.51100000000E-03 0.  1.
    9000002   -1    0    0    0    0 -0.00000000000E+00 -0.00000000000E+00  0.00000000000E+00  0.93800000000E+00  0.93800000000E+00 0. -1.
         11    1    1    2    0    0  0.82827217268E-01 -0.13794451814E+00  0.11126707794E+01  0.11242444407E+01  0.51100000000E-03 0.  1.
    9000002    1    1    2    0    0 -0.28496639233E+00  0.46599509807E+00  0.20593025149E+00  0.11048115426E+01  0.93800000000E+00 0. -1.
         22    1    1    2    0    0  0.20213917506E+00 -0.32805057993E+00  0.26813989365E+01  0.27089440167E+01  0.00000000000E+00 0.  1.
</event>
<event>
 5    1  0.6076093E+001  0.1599674E+01  0.7818608E-02  0.3353717E+00
         11   -1    0    0    0    0  0.00000000000E+00  0.00000000000E+00  0.39999999674E+01  0.40000000000E+01  0.51100000000E-03 0. -1.
    9000002   -1    0    0    0    0 -0.00000000000E+00 -0.00000000000E+00  0.00000000000E+00  0.93800000000E+00  0.93800000000E+00 0.  1.
         11    1    1    2    0    0  0.59108516584E-01  0.15441081820E-01  0.55308922074E+00  0.55645322442E+00  0.51100000000E-03 0. -1.
    9000002    1    1    2    0    0 -0.40957841770E+00 -0.11589248777E+00  0.12263373042E+00  0.10373372551E+01  0.93800000000E+00 0.  1.
         22    1    1    2    0    0  0.35046990112E+00  0.10045140595E+00  0.33242770162E+01  0.33442095205E+01  0.00000000000E+00 0. -1.
</event>
<event>
 5    1  0.6076093E+001  0.1515618E+01  0.7818608E-02  0.3450369E+00
         11   -1    0    0    0    0  0.00000000000E+00  0.00000000000E+00  0.39999999674E+01  0.40000000000E+01  0.51100000000E-03 0.  1.
    9000002   -1    0    0    0    0 -0.00000000000E+00 -0.00000000000E+00  0.00000000000E+00  0.93800000000E+00  0.93800000000E+00 0. -1.
         11    1    1    2    0    0 -0.23697047635E+00  0.19025461662E-01  0.64828578060E+00  0.69050104221E+00  0.51100000000E-03 0.  1.
    9000002    1    1    2    0    0 -0.13391959427E+00  0.81133276024E-01  0.81135261212E-01  0.95443386194E+00  0.93800000000E+00 0. -1.
         22    1    1    2    0    0  0.37089007062E+00 -0.10015873769E+00  0.32705789256E+01  0.32930650958E+01  0.00000000000E+00 0.  1.
</event>
<event>
 5    1  0.6076093E+001  0.1599612E+01  0.7818608E-02  0.3353784E+00
         11   -1    0    0    0    0  0.00000000000E+00  0.00000000000E+00  0.39999999674E+01  0.40000000000E+01  0.51100000000E-03 0. -1.
    9000002   -1    0    0    0    0 -0.00000000000E+00 -0.00000000000E+00  0.00000000000E+00  0.93800000000E+00  0.93800000000E+00 0. -1.
         11    1    1    2    0    0  0.82480981576E-02 -0.24617717157E-01  0.21954561329E+00  0.22107600629E+00  0.51100000000E-03 0. -1.
    9000002    1    1    2    0    0 -0.18731159664E+00  0.36849369388E+00  0.11551351454E+00  0.10315331350E+01  0.93800000000E+00 0. -1.
         22    1    1    2    0    0  0.17906349848E+00 -0.34387597672E+00  0.36649408395E+01  0.36853908587E+01  0.00000000000E+00 0. -1.
</event>
<event>
 5    1  0.6076093E+001  0.1586429E+01  0.7818608E-02  0.3368226E+00
         11   -1    0    0    0    0  0.00000000000E+00  0.00000000000E+00  0.39999999674E+01  0.40000000000E+01  0.51100000000E-03 0.  1.
    9000002   -1    0    0    0    0 -0.00000000000E+00 -0.00000000000E+00  0.00000000000E+00  0.93800000000E+00  0.93800000000E+00 0.  1.
         11    1    1    2    0    0  0.17392856738E+00  0.32963927887E+00  0.12650035776E+01  0.13187674220E+01  0.51100000000E-03 0.  1.
    9000002    1    1    2    0    0 -0.74653878406E+00 -0.69577423388E+00  0.87555526679E+00  0.16394703309E+01  0.93800000000E+00 0.  1.
         22    1    1    2    0    0  0.57261021668E+00  0.36613495501E+00  0.18594411229E+01  0.19797622471E+01  0.00000000000E+00 0.  1.
</event>
<event>
 5    1  0.6076093E+001  0.1599675E+01  0.7818608E-02  0.3353716E+00
         11   -1    0    0    0    0  0.00000000000E+00  0.00000000000E+00  0.39999999674E+01  0.40000000000E+01  0.51100000000E-03 0.  1.
    9000002   -1    0    0    0    0 -0.00000000000E+00 -0.00000000000E+00  0.00000000000E+00  0.93800000000E+00  0.93800000000E+00 0. -1.
         11    1    1    2    0    0 -0.79366865546E-01 -0.40648856222E-01  0.94358364621E+00  0.94778783879E+00  0.51100000000E-03 0.  1.
    9000002    1    1    2    0    0  0.32314846113E+00  0.17093086551E+00  0.89768207606E-01  0.10107149053E+01  0.93800000000E+00 0. -1.
         22    1    1    2    0    0 -0.24378159558E+00 -0.13028200929E+00  0.29666481135E+01  0.29794972559E+01  0.00000000000E+00 0.  1.
</event>
<event>
 5    1  0.6076093E+001  0.1599671E+01  0.7818608E-02  0.3353720E+00
         11   -1    0    0    0    0  0.00000000000E+00  0.00000000000E+00  0.39999999674E+01  0.40000000000E+01  0.51100000000E-03 0.  1.
    9000002   -1    0    0    0    0 -0.00000000000E+00 -0.00000000000E+00  0.00000000000E+00  0.93800000000E+00  0.93800000000E+00 0. -1.
         11    1    1    2    0    0 -0.10331525843E+00 -0.14723926753E+00  0.13135368951E+01  0.13257951880E+01  0.51100000000E-03 0.  1.
    9000002    1    1    2    0    0  0.29590447467E+00  0.42132173511E+00  0.18192299364E+00  0.10853623534E+01  0.93800000000E+00 0. -1.
         22    1    1    2    0    0 -0.19258921623E+00 -0.27408246757E+00  0.25045400786E+01  0.25268424586E+01  0.00000000000E+00 0.  1.
</event>
<event>
 5    1  0.6076093E+001  0.1591855E+01  0.7818608E-02  0.3362252E+00
         11   -1    0    0    0    0  0.00000000000E+00  0.00000000000E+00  0.39999999674E+01  0.40000000000E+01  0.51100000000E-03 0. -1.
    9000002   -1    0    0    0    0 -0.00000000000E+00 -0.00000000000E+00  0.00000000000E+00  0.93800000000E+00  0.93800000000E+00 0.  1.
         11    1    1    2    0    0 -0.24091917004E-01 -0.68096122968E-01  0.10792505292E+01  0.10816651369E+01  0.51100000000E-03 0. -1.
    9000002    1    1    2    0    0 -0.24920582419E+00  0.16888148067E+00  0.66613561962E-01  0.98737321412E+00  0.93800000000E+00 0.  1.
         22    1    1    2    0    0  0.27329774119E+00 -0.10078535771E+00  0.28541358762E+01  0.28689616490E+01  0.00000000000E+00 0. -1.
</event>
<event>
 5    1  0.6076093E+001  0.1599676E+01  0.7818608E-02  0.3353715E+00
         11   -1    0    0    0    0  0.00000000000E+00  0.00000000000E+00  0.39999999674E+01  0.40000000000E+01  0.51100000000E-03 0.  1.
    9000002   -1    0    0    0    0 -0.00000000000E+00 -0.00000000000E+00  0.00000000000E+00  0.93800000000E+00  0.93800000000E+00 0. -1.
         11    1    1    2    0    0  0.14258345047E+00  0.99042396458E-01  0.14261705594E+01  0.14366983546E+01  0.51100000000E-03 0.  1.
    9000002    1    1    2    0    0 -0.38768853691E+00 -0.26903579443E+00  0.15174718743E+00  0.10609212361E+01  0.93800000000E+00 0. -1.
         22    1    1    2    0    0  0.24510508644E+00  0.16999339797E+00  0.24220822206E+01  0.24403804093E+01  0.00000000000E+00 0.  1.
</event>
<event>
 5    1  0.6076093E+001  0.1595462E+01  0.7818608E-02  0.3358303E+00
         11   -1    0    0    0    0  0.00000000000E+00  0.00000000000E+00  0.39999999674E+01  0.40000000000E+01  0.51100000000E-03 0. -1.
    9000002   -1    0    0    0    0 -0.00000000000E+00 -0.00000000000E+00  0.00000000000E+00  0.93800000000E+00  0.93800000000E+00 0.  1.
         11    1    1    2    0    0  0.32271846211E-01  0.38317469161E-01  0.13237197475E+01  0.13246674797E+01  0.51100000000E-03 0. -1.
    9000002    1    1    2    0    0 -0.12569098514E+00 -0.33024982269E+00  0.87161459719E-01  0.10061333357E+01  0.93800000000E+00 0.  1.
         22    1    1    2    0    0  0.93419138927E-01  0.29193235353E+00  0.25891187601E+01  0.26071991847E+01  0.00000000000E+00 0. -1.
</event>
<event>
 5    1  0.6076093E+001  0.1599638E+01  0.7818608E-02  0.3353756E+00
         11   -1    0    0    0    0  0.00000000000E+00  0.00000000000E+00  0.39999999674E+01  0.40000000000E+01  0.51100000000E-03 0. -1.
    9000002   -1    0    0    0    0 -0.00000000000E+00 -0.00000000000E+00  0.00000000000E+00  0.93800000000E+00  0.93800000000E+00 0. -1.
         11    1    1    2    0    0  0.25778397237E-01  0.12628242621E-01  0.34540410062E+00  0.34659522807E+00  0.51100000000E-03 0. -1.
    9000002    1    1    2    0    0 -0.32083668746E+00 -0.18105843944E+00  0.91222385316E-01  0.10118714652E+01  0.93800000000E+00 0. -1.
         22    1    1    2    0    0  0.29505829022E+00  0.16843019682E+00  0.35633734814E+01  0.35795333067E+01  0.00000000000E+00 0. -1.
</event>
<event>
 5    1  0.6076093E+001  0.1599651E+01  0.7818608E-02  0.3353742E+00
         11   -1    0    0    0    0  0.00000000000E+00  0.00000000000E+00  0.39999999674E+01  0.40000000000E+01  0.51100000000E-03 0. -1.
    9000002   -1    0    0    0    0 -0.00000000000E+00 -0.00000000000E+00  0.00000000000E+00  0.93800000000E+00  0.93800000000E+00 0. -1.
         11    1    1    2    0    0 -0.43159828272E-01  0.65372442184E-01  0.67082510574E+00  0.67538352852E+00  0.51100000000E-03 0. -1.
    9000002    1    1    2    0    0  0.23115982142E+00 -0.39629767926E+00  0.14316927852E+00  0.10539583274E+01  0.93800000000E+00 0. -1.
         22    1    1    2    0    0 -0.18799999315E+00  0.33092523708E+00  0.31860055831E+01  0.32086581441E+01  0.00000000000E+00 0. -1.
</event>
<event>
 5    1  0.6076093E+001  0.1541949E+01  0.7818608E-02  0.3418884E+00
         11   -1    0    0    0    0  0.00000000000E+00  0.00000000000E+00  0.39999999674E+01  0.40000000000E+01  0.51100000000E-03 0. -1.
    9000002   -1    0    0    0    0 -0.00000000000E+00 -0.00000000000E+00  0.00000000000E+00  0.93800000000E+00  0.93800000000E+00 0. -1.
         11    1    1    2    0    0  0.20717959340E+00 -0.45007882458E-01  0.10161571657E+01  0.10380388913E+01  0.51100000000E-03 0. -1.
    9000002    1    1    2    0    0  0.17859019858E+00  0.20945496629E+00  0.96478742511E-01  0.98230239218E+00  0.93800000000E+00 0. -1.
         22    1    1    2    0    0 -0.38576979198E+00 -0.16444708383E+00  0.28873640592E+01  0.29176587165E+01  0.00000000000E+00 0. -1.
</event>
<event>
 5    1  0.6076093E+001  0.1593680E+01  0.7818608E-02  0.3360252E+00
         11   -1    0    0    0    0  0.00000000000E+00  0.00000000000E+00  0.39999999674E+01  0.40000000000E+01  0.51100000000E-03 0.  1.
    9000002   -1    0    0    0    0 -0.00000000000E+00 -0.00000000000E+00  0.00000000000E+00  0.93800000000E+00  0.93800000000E+00 0.  1.
         11    1    1    2    0    0 -0.31065198168E-02  0.14322949673E-01  0.82773873896E+00  0.82786863599E+00  0.51100000000E-03 0.  1.
    9000002    1    1    2    0    0  0.12656333922E+00  0.27553366046E+00  0.66067492738E-01  0.98800100733E+00  0.93800000000E+00 0.  1.
         22    1    1    2    0    0 -0.12345681941E+00 -0.28985661013E+00  0.31061937357E+01  0.31221303567E+01  0.00000000000E+00 0.  1.
</event>
<event>
 5    1  0.6076093E+001  0.1599675E+01  0.7818608E-02  0.3353717E+00
         11   -1    0    0    0    0  0.00000000000E+00  0.00000000000E+00  0.39999999674E+01  0.40000000000E+01  0.51100000000E-03 0.  1.
    9000002   -1    0    0    0    0 -0.00000000000E+00 -0.00000000000E+00  0.00000000000E+00  0.93800000000E+00  0.93800000000E+00 0.  1.
         11    1    1    2    0    0 -0.11234190639E+00  0.56053639722E-01  0.90870338443E+00  0.91733571633E+00  0.51100000000E-03 0.  1.
    9000002    1    1    2    0    0  0.47300831742E+00 -0.24082453483E+00  0.19390326094E+00  0.10950688561E+01  0.93800000000E+00 0.  1.
         22    1    1    2    0    0 -0.36066641103E+00  0.18477089511E+00  0.28973933220E+01  0.29255954276E+01  0.00000000000E+00 0.  1.
</event>
<event>
 5    1  0.6076093E+001  0.1580748E+01  0.7818608E-02  0.3374527E+00
         11   -1    0    0    0    0  0.00000000000E+00  0.00000000000E+00  0.39999999674E+01  0.40000000000E+01  0.51100000000E-03 0.  1.
    9000002   -1    0    0    0    0 -0.00000000000E+00 -0.00000000000E+00  0.00000000000E+00  0.93800000000E+00  0.93800000000E+00 0. -1.
         11    1    1    2    0    0 -0.29420018146E+00 -0.97144453959E-01  0.57076790718E+00  0.64943595273E+00  0.51100000000E-03 0.  1.
    9000002    1    1    2    0    0  0.84087649654E+00  0.68685764641E+00  0.10524020940E+01  0.17793934012E+01  0.93800000000E+00 0. -1.
         22    1    1    2    0    0 -0.54667631507E+00 -0.58971319245E+00  0.23768299662E+01  0.25091706461E+01  0.00000000000E+00 0.  1.
</event>
<event>
 5    1  0.6076093E+001  0.1480930E+01  0.7818608E-02  0.3493686E+00
         11   -1    0    0    0    0  0.00000000000E+00  0.00000000000E+00  0.39999999674E+01  0.40000000000E+01  0.51100000000E-03 0.  1.
    9000002   -1    0    0    0    0 -0.00000000000E+00 -0.00000000000E+00  0.00000000000E+00  0.93800000000E+00  0.93800000000E+00 0.  1.
         11    1    1    2    0    0 -0.72814076228E-01  0.19277939551E+00  0.25061734239E+00  0.32446124338E+00  0.51100000000E-03 0.  1.
    9000002    1    1    2    0    0 -0.11453499811E+00  0.97761138311E-01  0.10839320362E+00  0.95617393425E+00  0.93800000000E+00 0.  1.
         22    1    1    2    0    0  0.18734907434E+00 -0.29054053383E+00  0.36409894214E+01  0.36573648224E+01  0.00000000000E+00 0.  1.
</event>
<event>
 5    1  0.6076093E+001  0.1521953E+01  0.7818608E-02  0.3442688E+00
         11   -1    0    0    0    0  0.00000000000E+00  0.00000000000E+00  0.39999999674E+01  0.40000000000E+01  0.51100000000E-03 0. -1.
    9000002   -1    0    0    0    0 -0.00000000000E+00 -0.00000000000E+00  0.00000000000E+00  0.93800000000E+00  0.93800000000E+00 0.  1.
         11    1    1    2    0    0 -0.15758923539E+00 -0.13866467344E+00  0.32687463381E+00  0.38847077898E+00  0.51100000000E-03 0. -1.
    9000002    1    1    2    0    0 -0.10105655709E+00  0.41324146656E+00  0.19160590530E+00  0.10476343639E+01  0.93800000000E+00 0.  1.
         22    1    1    2    0    0  0.25864579248E+00 -0.27457679312E+00  0.34815194282E+01  0.35018948572E+01  0.00000000000E+00 0. -1.
</event>
<event>
 5    1  0.6076093E+001  0.1520509E+01  0.7818608E-02  0.3444433E+00
         11   -1    0    0    0    0  0.00000000000E+00  0.00000000000E+00  0.39999999674E+01  0.40000000000E+01  0.51100000000E-03 0. -1.
    9000002   -1    0    0    0    0 -0.00000000000E+00 -0.00000000000E+00  0.00000000000E+00  0.93800000000E+00  0.93800000000E+00 0. -1.
         11    1    1    2    0    0 -0.22123978961E+00 -0.63246687002E-01  0.63997068251E+00  0.68008082131E+00  0.51100000000E-03 0. -1.
    9000002    1    1    2    0    0 -0.13262423518E+00 -0.22349353011E-01  0.72576476822E-01  0.95036836349E+00  0.93800000000E+00 0. -1.
         22    1    1    2    0    0  0.35386402479E+00  0.85596040013E-01  0.32874528080E+01  0.33075508152E+01  0.00000000000E+00 0. -1.
</event>
<event>
 5    1  0.6076093E+001  0.1580172E+01  0.7818608E-02  0.3375169E+00
         11   -1    0    0    0    0  0.00000000000E+00  0.00000000000E+00  0.39999999674E+01  0.40000000000E+01  0.51100000000E-03 0.  1.
    9000002   -1    0    0    0    0 -0.00000000000E+00 -0.00000000000E+00  0.00000000000E+00  0.93800000000E+00  0.93800000000E+00 0. -1.
         11    1    1    2    0    0 -0.19487720112E-02 -0.13842211164E+00  0.39290954152E+00  0.41658450240E+00  0.51100000000E-03 0.  1.
    9000002    1    1    2    0    0  0.30196507146E+00  0.37716424399E+00  0.17688100362E+00  0.10698442227E+01  0.93800000000E+00 0. -1.
         22    1    1    2    0    0 -0.30001629945E+00 -0.23874213235E+00  0.34302094222E+01  0.34515712749E+01  0.00000000000E+00 0.  1.
</event>
<event>
 5    1  0.6076093E+001  0.1599667E+01  0.7818608E-02  0.3353725E+00
         11   -1    0    0    0    0  0.00000000000E+00  0.00000000000E+00  0.39999999674E+01  0.40000000000E+01  0.51100000000E-03 0. -1.
    9000002   -1    0    0    0    0 -0.00000000000E+00 -0.00000000000E+00  0.00000000000E+00  0.93800000000E+00  0.93800000000E+00 0. -1.
         11    1    1    2    0    0 -0.19696718967E+00 -0.21721662914E-02  0.13708155729E+01  0.13848958041E+01  0.51100000000E-03 0. -1.
    9000002    1    1    2    0    0  0.54395128023E+00 -0.41350176509E-02  0.20415582013E+00  0.11033692458E+01  0.93800000000E+00 0. -1.
         22    1    1    2    0    0 -0.34698409056E+00  0.63071839423E-02  0.24250285743E+01  0.24497349501E+01  0.00000000000E+00 0. -1.
</event>
<event>
 5    1  0.6076093E+001  0.1595360E+01  0.7818608E-02  0.3358415E+00
         11   -1    0    0    0    0  0.00000000000E+00  0.00000000000E+00  0.39999999674E+01  0.40000000000E+01  0.51100000000E-03 0.  1.
    9000002   -1    0    0    0    0 -0.00000000000E+00 -0.00000000000E+00  0.00000000000E+00  0.93800000000E+00  0.93800000000E+00 0.  1.
         11    1    1    2    0    0  0.60155971271E-01  0.68266015508E-01  0.97774371168E+00  0.98196843972E+00  0.51100000000E-03 0.  1.
    9000002    1    1    2    0    0 -0.37458958001E-02 -0.40914430269E+00  0.11668219466E+00  0.10299863236E+01  0.93800000000E+00 0.  1.
         22    1    1    2    0    0 -0.56410075471E-01  0.34087828718E+00  0.29055740610E+01  0.29260452367E+01  0.00000000000E+00 0.  1.
</event>
<event>
 5    1  0.6076093E+001  0.1597994E+01  0.7818608E-02  0.3355543E+00
         11   -1    0    0    0    0  0.00000000000E+00  0.00000000000E+00  0.39999999674E+01  0.40000000000E+01  0.51100000000E-03 0.  1.
    9000002   -1    0    0    0    0 -0.00000000000E+00 -0.00000000000E+00  0.00000000000E+00  0.93800000000E+00  0.93800000000E+00 0.  1.
         11    1    1    2    0    0 -0.57855878318E-01 -0.10662594673E+00  0.85844545490E+00  0.86697477203E+00  0.51100000000E-03 0.  1.
    9000002    1    1    2    0    0  0.15176625331E+00  0.61346280317E+00  0.28235800574E+00  0.11657356690E+01  0.93800000000E+00 0.  1.
         22    1    1    2    0    0 -0.93910374988E-01 -0.50683685644E+00  0.28591965067E+01  0.29052895590E+01  0.00000000000E+00 0.  1.
</event>
<event>
 5    1  0.6076093E+001  0.1599663E+01  0.7818608E-02  0.3353730E+00
         11   -1    0    0    0    0  0.00000000000E+00  0.00000000000E+00  0.39999999674E+01  0.40000000000E+01  0.51100000000E-03 0. -1.
    9000002   -1    0    0    0    0 -0.00000000000E+00 -0.00000000000E+00  0.00000000000E+00  0.93800000000E+00  0.93800000000E+00 0.  1.
         11    1    1    2    0    0 -0.94379543177E-01  0.43440740354E-01  0.79723250868E+00  0.80397420986E+00  0.51100000000E-03 0. -1.
    9000002    1    1    2    0    0  0.45865614748E+00 -0.22482615842E+00  0.17895057430E+00  0.10829494777E+01  0.93800000000E+00 0.  1.
         22    1    1    2    0    0 -0.36427660431E+00  0.18138541806E+00  0.30238168844E+01  0.30510763125E+01  0.00000000000E+00 0. -1.
</event>
<event>
 5    1  0.6076093E+001  0.1598483E+01  0.7818608E-02  0.3355011E+00
         11   -1    0    0    0    0  0.00000000000E+00  0.00000000000E+00  0.39999999674E+01  0.40000000000E+01  0.51100000000E-03 0. -1.
    9000002   -1    0    0    0    0 -0.00000000000E+00 -0.00000000000E+00  0.00000000000E+00  0.93800000000E+00  0.93800000000E+00 0. -1.
         11    1    1    2    0    0 -0.69292684191E-01  0.11087306299E+00  0.14852956865E+01  0.14910391845E+01  0.51100000000E-03 0. -1.
    9000002    1    1    2    0    0  0.11383418626E+00 -0.37232141776E+00  0.10309340020E+00  0.10208103199E+01  0.93800000000E+00 0. -1.
         22    1    1    2    0    0 -0.44541502065E-01  0.26144835477E+00  0.24116108806E+01  0.24261504956E+01  0.00000000000E+00 0. -1.
</event>
<event>
 5    1  0.6076093E+001  0.1599163E+01  0.7818608E-02  0.3354273E+00
         11   -1    0    0    0    0  0.00000000000E+00  0.00000000000E+00  0.39999999674E+01  0.40000000000E+01  0.51100000000E-03 0. -1.
    9000002   -1    0    0    0    0 -0.00000000000E+00 -0.00000000000E+00  0.00000000000E+00  0.93800000000E+00  0.93800000000E+00 0.  1.
         11    1    1    2    0    0 -0.12443348943E+00 -0.20700664532E+00  0.13132191720E+01  0.13352454079E+01  0.51100000000E-03 0. -1.
    9000002    1    1    2    0    0  0.32636366624E+00  0.64271407588E+00  0.37407129819E+00  0.12407126831E+01  0.93800000000E+00 0.  1.
         22    1    1    2    0    0 -0.20193017681E+00 -0.43570743056E+00  0.23127094972E+01  0.23620419090E+01  0.00000000000E+00 0. -1.
</event>
<event>
 5    1  0.6889852E+001  0.1585643E+01  0.7818608E-02  0.3369095E+00
         11   -1    0    0    0    0  0.00000000000E+00  0.00000000000E+00  0.39999999674E+01  0.40000000000E+01  0.51100000000E-03 0. -1.
    9000002   -1    0    0    0    0 -0.00000000000E+00 -0.00000000000E+00  0.00000000000E+00  0.93800000000E+00  0.93800000000E+00 0. -1.
         11    1    1    2    0    0  0.10767238001E+00 -0.83042552109E-01  0.14222376484E+01  0.14287230650E+01  0.51100000000E-03 0. -1.
    9000002    1    1    2    0    0 -0.21085978399E+00 -0.13904329828E+00  0.53201365014E-01  0.97286652350E+00  0.93800000000E+00 0. -1.
         22    1    1    2    0    0  0.10318740398E+00  0.22208585039E+00  0.25245609539E+01  0.25364104115E+01  0.00000000000E+00 0. -1.
</event>
<event>
 5    1  0.6076093E+001  0.1599516E+01  0.7818608E-02  0.3353889E+00
         11   -1    0    0    0    0  0.00000000000E+00  0.00000000000E+00  0.39999999674E+01  0.40000000000E+01  0.51100000000E-03 0.  1.
    9000002   -1    0    0    0    0 -0.00000000000E+00 -0.00000000000E+00  0.00000000000E+00  0.93800000000E+00  0.93800000000E+00 0. -1.
         11    1    1    2    0    0  0.16345898532E+00 -0.18243854073E+00  0.13617102596E+01  0.13835670397E+01  0.51100000000E-03 0.  1.
    9000002    1    1    2    0    0 -0.45601992095E+00  0.45780844724E+00  0.29453839165E+00  0.11764946268E+01  0.93800000000E+00 0. -1.
         22    1    1    2    0    0  0.29256093564E+00 -0.27536990650E+00  0.23437513161E+01  0.23779383335E+01  0.00000000000E+00 0.  1.
</event>
<event>
 5    1  0.6076093E+001  0.1599618E+01  0.7818608E-02  0.3353778E+00
         11   -1    0    0    0    0  0.00000000000E+00  0.00000000000E+00  0.39999999674E+01  0.40000000000E+01  0.51100000000E-03 0. -1.
    9000002   -1    0    0    0    0 -0.00000000000E+00 -0.00000000000E+00  0.00000000000E+00  0.93800000000E+00  0.93800000000E+00 0. -1.
         11    1    1    2    0    0 -0.36607429397E-01 -0.26420920772E-01  0.43384452671E+00  0.43618746362E+00  0.51100000000E-03 0. -1.
    9000002    1    1    2    0    0  0.30366111855E+00  0.19311669900E+00  0.86977646922E-01  0.10084211647E+01  0.93800000000E+00 0. -1.
         22    1    1    2    0    0 -0.26705368915E+00 -0.16669577823E+00  0.34791777937E+01  0.34933913717E+01  0.00000000000E+00 0. -1.
</event>
<event>
 5    1  0.6076093E+001  0.1598845E+01  0.7818608E-02  0.3354618E+00
         11   -1    0    0    0    0  0.00000000000E+00  0.00000000000E+00  0.39999999674E+01  0.40000000000E+01  0.51100000000E-03 0. -1.
    9000002   -1    0    0    0    0 -0.00000000000E+00 -0.00000000000E+00  0.00000000000E+00  0.93800000000E+00  0.93800000000E+00 0.  1.
         11    1    1    2    0    0  0.15788348561E+00 -0.36659561687E-01  0.78827421705E+00  0.80476556890E+00  0.51100000000E-03 0. -1.
    9000002    1    1    2    0    0 -0.76655194299E+00  0.46061014199E-01  0.43090404159E+00  0.12865635590E+01  0.93800000000E+00 0.  1.
         22    1    1    2    0    0  0.60866845737E+00 -0.94014525125E-02  0.27808217087E+01  0.28466708721E+01  0.00000000000E+00 0. -1.
</event>
<event>
 5    1  0.6076093E+001  0.1599641E+01  0.7818608E-02  0.3353753E+00
         11   -1    0    0    0    0  0.00000000000E+00  0.00000000000E+00  0.39999999674E+01  0.40000000000E+01  0.51100000000E-03 0. -1.
    9000002   -1    0    0    0    0 -0.00000000000E+00 -0.00000000000E+00  0.00000000000E+00  0.93800000000E+00  0.93800000000E+00 0.  1.
         11    1    1    2    0    0 -0.33947272628E-01  0.83381710966E-01  0.76290355531E+00  0.76819725519E+00  0.51100000000E-03 0. -1.
    9000002    1    1    2    0    0  0.18407489978E+00 -0.44599274846E+00  0.15893448779E+00  0.10667226780E+01  0.93800000000E+00 0.  1.
         22    1    1    2    0    0 -0.15012762715E+00  0.36261103750E+00  0.30781619243E+01  0.31030800668E+01  0.00000000000E+00 0. -1.
</event>
<event>
 5    1  0.6076093E+001  0.1531140E+01  0.7818608E-02  0.3431669E+00
         11   -1    0    0    0    0  0.00000000000E+00  0.00000000000E+00  0.39999999674E+01  0.40000000000E+01  0.51100000000E-03 0. -1.
    9000002   -1    0    0    0    0 -0.00000000000E+00 -0.00000000000E+00  0.00000000000E+00  0.93800000000E+00  0.93800000000E+00 0. -1.
         11    1    1    2    0    0  0.42436570730E-01  0.24902222168E+00  0.92507338147E+00  0.95894418589E+00  0.51100000000E-03 0. -1.
    9000002    1    1    2    0    0 -0.31137582324E+00  0.76645796772E-01  0.12511826221E+00  0.99916368079E+00  0.93800000000E+00 0. -1.
         22    1    1    2    0    0  0.26893925251E+00 -0.32566801846E+00  0.29498083237E+01  0.29798921333E+01  0.00000000000E+00 0. -1.
</event>
<event>
 5    1  0.6076093E+001  0.1599411E+01  0.7818608E-02  0.3354003E+00
         11   -1    0    0    0    0  0.00000000000E+00  0.00000000000E+00  0.39999999674E+01  0.40000000000E+01  0.51100000000E-03 0. -1.
    9000002   -1    0    0    0    0 -0.00000000000E+00 -0.00000000000E+00  0.00000000000E+00  0.93800000000E+00  0.93800000000E+00 0. -1.
         11    1    1    2    0    0  0.13278137081E+00 -0.61038838369E-01  0.10645680231E+01  0.10745519854E+01  0.51100000000E-03 0. -1.
    9000002    1    1    2    0    0 -0.42320340956E+00  0.19233845017E+00  0.14732973348E+00  0.10571874269E+01  0.93800000000E+00 0. -1.
         22    1    1    2    0    0  0.29042203875E+00 -0.13129961180E+00  0.27881022107E+01  0.28062605877E+01  0.00000000000E+00 0. -1.
</event>
<event>
 5    1  0.6076093E+001  0.1599238E+01  0.7818608E-02  0.3354191E+00
         11   -1    0    0    0    0  0.00000000000E+00  0.00000000000E+00  0.39999999674E+01  0.40000000000E+01  0.51100000000E-03 0. -1.
    9000002   -1    0    0    0    0 -0.00000000000E+00 -0.00000000000E+00  0.00000000000E+00  0.93800000000E+00  0.93800000000E+00 0. -1.
         11    1    1    2    0    0 -0.44819577783E-01  0.25536339298E-01  0.79773644099E+00  0.79940264547E+00  0.51100000000E-03 0. -1.
    9000002    1    1    2    0    0  0.27466960781E+00 -0.20934072309E+00  0.80281476159E-01  0.10027741756E+01  0.93800000000E+00 0. -1.
         22    1    1    2    0    0 -0.22985003003E+00  0.18380438379E+00  0.31219820502E+01  0.31358231790E+01  0.00000000000E+00 0. -1.
</event>
<event>
 5    1  0.6076093E+001  0.1599663E+01  0.7818608E-02  0.3353729E+00
         11   -1    0    0    0    0  0.00000000000E+00  0.00000000000E+00  0.39999999674E+01  0.40000000000E+01  0.51100000000E-03 0. -1.
    9000002   -1    0    0    0    0 -0.00000000000E+00 -0.00000000000E+00  0.00000000000E+00  0.93800000000E+00  0.93800000000E+00 0. -1.
         11    1    1    2    0    0 -0.23669329832E-01  0.25763276137E-02  0.21261432445E+00  0.21394388685E+00  0.51100000000E-03 0. -1.
    9000002    1    1    2    0    0  0.46551256185E+00 -0.48483452729E-01  0.14919531327E+00  0.10588464629E+01  0.93800000000E+00 0. -1.
         22    1    1    2    0    0 -0.44184323202E+00  0.45907125116E-01  0.36381903296E+01  0.36652096503E+01  0.00000000000E+00 0. -1.
</event>
<event>
 5    1  0.6076093E+001  0.1599677E+01  0.7818608E-02  0.3353714E+00
         11   -1    0    0    0    0  0.00000000000E+00  0.00000000000E+00  0.39999999674E+01  0.40000000000E+01  0.51100000000E-03 0. -1.
    9000002   -1    0    0    0    0 -0.00000000000E+00 -0.00000000000E+00  0.00000000000E+00  0.93800000000E+00  0.93800000000E+00 0. -1.
         11    1    1    2    0    0  0.60898499479E-01  0.13286587212E-01  0.36348229648E+00  0.36878828834E+00  0.51100000000E-03 0.  1.
    9000002    1    1    2    0    0 -0.62236366187E+00 -0.13801793396E+00  0.28591826132E+00  0.11696062286E+01  0.93800000000E+00 0. -1.
         22    1    1    2    0    0  0.56146516239E+00  0.12473134674E+00  0.33505994096E+01  0.33996054831E+01  0.00000000000E+00 0. -1.
</event>
<event>
 5    1  0.6076093E+001  0.1599676E+01  0.7818608E-02  0.3353715E+00
         11   -1    0    0    0    0  0.00000000000E+00  0.00000000000E+00  0.39999999674E+01  0.40000000000E+01  0.51100000000E-03 0.  1.
    9000002   -1    0    0    0    0 -0.00000000000E+00 -0.00000000000E+00  0.00000000000E+00  0.93800000000E+00  0.93800000000E+00 0. -1.
         11    1    1    2    0    0  0.59296144759E-01 -0.20998367918E+00  0.14124738945E+01  0.14292277433E+01  0.51100000000E-03 0.  1.
    9000002    1    1    2    0    0 -0.15513799564E+00  0.55937293805E+00  0.23414517337E+00  0.11276674349E+01  0.93800000000E+00 0. -1.
         22    1    1    2    0    0  0.95841850878E-01 -0.34938925887E+00  0.23533808994E+01  0.23811048218E+01  0.00000000000E+00 0. -1.
</event>
<event>
 5    1  0.6076093E+001  0.1599675E+01  0.7818608E-02  0.3353716E+00
         11   -1    0    0    0    0  0.00000000000E+00  0.00000000000E+00  0.39999999674E+01  0.40000000000E+01  0.51100000000E-03 0. -1.
    9000002   -1    0    0    0    0 -0.00000000000E+00 -0.00000000000E+00  0.00000000000E+00  0.93800000000E+00  0.93800000000E+00 0.  1.
         11    1    1    2    0    0  0.99162788212E-02 -0.12475070235E+00  0.98530168886E+00  0.99321737274E+00  0.51100000000E-03 0. -1.
    9000002    1    1    2    0    0 -0.34694524602E-01  0.48317305093E+00  0.16022767011E+00  0.10677906225E+01  0.93800000000E+00 0.  1.
         22    1    1    2    0    0  0.24778245781E-01 -0.35842234858E+00  0.28544706084E+01  0.28769920048E+01  0.00000000000E+00 0. -1.
</event>
<event>
 5    1  0.6076093E+001  0.1585645E+01  0.7818608E-02  0.3369093E+00
         11   -1    0    0    0    0  0.00000000000E+00  0.00000000000E+00  0.39999999674E+01  0.40000000000E+01  0.51100000000E-03 0.  1.
    9000002   -1    0    0    0    0 -0.00000000000E+00 -0.00000000000E+00  0.00000000000E+00  0.93800000000E+00  0.93800000000E+00 0. -1.
         11    1    1    2    0    0 -0.33061745473E-01 -0.30350478860E-02  0.44852883676E-01  0.55806207759E-01  0.51100000000E-03 0.  1.
    9000002    1    1    2    0    0  0.14024630150E+00 -0.33955379190E+00  0.10218597271E+00  0.10125471721E+01  0.93800000000E+00 0. -1.
         22    1    1    2    0    0 -0.10718455603E+00  0.34258883979E+00  0.38529611110E+01  0.38696466202E+01  0.00000000000E+00 0.  1.
</event>
<event>
 5    1  0.6076093E+001  0.1599672E+01  0.7818608E-02  0.3353719E+00
         11   -1    0    0    0    0  0.00000000000E+00  0.00000000000E+00  0.39999999674E+01  0.40000000000E+01  0.51100000000E-03 0. -1.
    9000002   -1    0    0    0    0 -0.00000000000E+00 -0.00000000000E+00  0.00000000000E+00  0.93800000000E+00  0.93800000000E+00 0.  1.
         11    1    1    2    0    0  0.36871619824E-02  0.51341486704E-01  0.43445315387E+00  0.43749211130E+00  0.51100000000E-03 0. -1.
    9000002    1    1    2    0    0 -0.41039880101E-01 -0.44520338504E+00  0.13570831519E+00  0.10479270359E+01  0.93800000000E+00 0.  1.
         22    1    1    2    0    0  0.37352718118E-01  0.39386189834E+00  0.34298384983E+01  0.34525808528E+01  0.00000000000E+00 0. -1.
</event>
<event>
 5    1  0.6076093E+001  0.1599675E+01  0.7818608E-02  0.3353717E+00
         11   -1    0    0    0    0  0.00000000000E+00  0.00000000000E+00  0.39999999674E+01  0.40000000000E+01  0.51100000000E-03 0. -1.
    9000002   -1    0    0    0    0 -0.00000000000E+00 -0.00000000000E+00  0.00000000000E+00  0.93800000000E+00  0.93800000000E+00 0. -1.
         11    1    1    2    0    0 -0.19500981396E+00  0.37938058114E+00  0.12810279205E+01  0.13501819311E+01  0.51100000000E-03 0. -1.
    9000002    1    1    2    0    0  0.47779274866E+00 -0.92269950131E+00  0.88948033634E+00  0.16585172743E+01  0.93800000000E+00 0. -1.
         22    1    1    2    0    0 -0.28278293470E+00  0.54331892017E+00  0.18294917105E+01  0.19293007946E+01  0.00000000000E+00 0. -1.
</event>
<event>
 5    1  0.6076093E+001  0.1598470E+01  0.7818608E-02  0.3355026E+00
         11   -1    0    0    0    0  0.00000000000E+00  0.00000000000E+00  0.39999999674E+01  0.40000000000E+01  0.51100000000E-03 0. -1.
    9000002   -1    0    0    0    0 -0.00000000000E+00 -0.00000000000E+00  0.00000000000E+00  0.93800000000E+00  0.93800000000E+00 0. -1.
         11    1    1    2    0    0 -0.44932834696E-02 -0.12808890391E+00  0.14046213068E+01  0.14104567464E+01  0.51100000000E-03 0. -1.
    9000002    1    1    2    0    0  0.12381332933E+00  0.36179480446E+00  0.99407714829E-01  0.10178168376E+01  0.93800000000E+00 0. -1.
         22    1    1    2    0    0 -0.11932004586E+00 -0.23370590055E+00  0.24959709457E+01  0.25097264160E+01  0.00000000000E+00 0. -1.
</event>
<event>
 5    1  0.6076093E+001  0.1599672E+01  0.7818608E-02  0.3353719E+00
         11   -1    0    0    0    0  0.00000000000E+00  0.00000000000E+00  0.39999999674E+01  0.40000000000E+01  0.51100000000E-03 0.  1.
    9000002   -1    0    0    0    0 -0.00000000000E+00 -0.00000000000E+00  0.00000000000E+00  0.93800000000E+00  0.93800000000E+00 0.  1.
         11    1    1    2    0    0  0.12249506331E+00 -0.50306694648E-02  0.77331143686E+00  0.78296946790E+00  0.51100000000E-03 0.  1.
    9000002    1    1    2    0    0 -0.59091112035E+00  0.14987651318E-01  0.24332270747E+00  0.11350993445E+01  0.93800000000E+00 0.  1.
         22    1    1    2    0    0  0.46841605705E+00 -0.99569818530E-02  0.29833658230E+01  0.30199311876E+01  0.00000000000E+00 0.  1.
</event>
<event>
 5    1  0.6076093E+001  0.1562689E+01  0.7818608E-02  0.3394883E+00
         11   -1    0    0    0    0  0.00000000000E+00  0.00000000000E+00  0.39999999674E+01  0.40000000000E+01  0.51100000000E-03 0.  1.
    9000002   -1    0    0    0    0 -0.00000000000E+00 -0.00000000000E+00  0.00000000000E+00  0.93800000000E+00  0.93800000000E+00 0. -1.
         11    1    1    2    0    0 -0.27691151286E-01 -0.17623012058E+00  0.10488889090E+01  0.10639511548E+01  0.51100000000E-03 0.  1.
    9000002    1    1    2    0    0  0.85488288104E-01 -0.10594625529E+00  0.39945596476E-01  0.94866880790E+00  0.93800000000E+00 0. -1.
         22    1    1    2    0    0 -0.57797136818E-01  0.28217637588E+00  0.29111654619E+01  0.29253800373E+01  0.00000000000E+00 0.  1.
</event>
<event>
 5    1  0.6076093E+001  0.1598239E+01  0.7818608E-02  0.3355277E+00
         11   -1    0    0    0    0  0.00000000000E+00  0.00000000000E+00  0.39999999674E+01  0.40000000000E+01  0.51100000000E-03 0. -1.
    9000002   -1    0    0    0    0 -0.00000000000E+00 -0.00000000000E+00  0.00000000000E+00  0.93800000000E+00  0.93800000000E+00 0. -1.
         11    1    1    2    0    0 -0.13692761989E-01  0.87479347291E-01  0.64255377097E+00  0.64862603836E+00  0.51100000000E-03 0. -1.
    9000002    1    1    2    0    0  0.25884393645E+00 -0.42197029509E+00  0.16890813981E+00  0.10739800152E+01  0.93800000000E+00 0. -1.
         22    1    1    2    0    0 -0.24515117446E+00  0.33449094780E+00  0.31885380566E+01  0.32153939464E+01  0.00000000000E+00 0. -1.
</event>
<event>
 5    1  0.6076093E+001  0.1566764E+01  0.7818608E-02  0.3390246E+00
         11   -1    0    0    0    0  0.00000000000E+00  0.00000000000E+00  0.39999999674E+01  0.40000000000E+01  0.51100000000E-03 0.  1.
    9000002   -1    0    0    0    0 -0.00000000000E+00 -0.00000000000E+00  0.00000000000E+00  0.93800000000E+00  0.93800000000E+00 0.  1.
         11    1    1    2    0    0  0.91049599172E-01 -0.19287041161E+00  0.12467576455E+01  0.12648691288E+01  0.51100000000E-03 0.  1.
    9000002    1    1    2    0    0  0.19375645004E+00  0.18393858282E+00  0.73270118688E-01  0.97805289963E+00  0.93800000000E+00 0.  1.
         22    1    1    2    0    0 -0.28480604921E+00  0.89318287942E-02  0.26799722031E+01  0.26950779716E+01  0.00000000000E+00 0.  1.
</event>
<event>
 5    1  0.6076093E+001  0.1599672E+01  0.7818608E-02  0.3353719E+00
         11   -1    0    0    0    0  0.00000000000E+00  0.00000000000E+00  0.39999999674E+01  0.40000000000E+01  0.51100000000E-03 0.  1.
    9000002   -1    0    0    0    0 -0.00000000000E+00 -0.00000000000E+00  0.00000000000E+00  0.93800000000E+00  0.93800000000E+00 0.  1.
         11    1    1    2    0    0 -0.73404184723E-02 -0.14598653826E-01  0.12849070082E+00  0.12952653687E+00  0.51100000000E-03 0.  1.
    9000002    1    1    2    0    0  0.20810545400E+00  0.45656911988E+00  0.17240134426E+00  0.10776499732E+01  0.93800000000E+00 0.  1.
         22    1    1    2    0    0 -0.20076503553E+00 -0.44197046605E+00  0.36991079223E+01  0.37308234899E+01  0.00000000000E+00 0.  1.
</event>
<event>
 5    1  0.6076093E+001  0.1599677E+01  0.7818608E-02  0.3353714E+00
         11   -1    0    0    0    0  0.00000000000E+00  0.00000000000E+00  0.39999999674E+01  0.40000000000E+01  0.51100000000E-03 0.  1.
    9000002   -1    0    0    0    0 -0.00000000000E+00 -0.00000000000E+00  0.00000000000E+00  0.93800000000E+00  0.93800000000E+00 0. -1.
         11    1    1    2    0    0  0.97689943413E-01  0.36376022001E-01  0.57684387938E+00  0.58618739522E+00  0.51100000000E-03 0.  1.
    9000002    1    1    2    0    0 -0.62483179970E+00 -0.23379893136E+00  0.31538819118E+00  0.11934782903E+01  0.93800000000E+00 0. -1.
         22    1    1    2    0    0  0.52714185629E+00  0.19742290936E+00  0.31077678968E+01  0.31583343145E+01  0.00000000000E+00 0.  1.
</event>
<event>
 5    1  0.6076093E+001  0.1590473E+01  0.7818608E-02  0.3363769E+00
         11   -1    0    0    0    0  0.00000000000E+00  0.00000000000E+00  0.39999999674E+01  0.40000000000E+01  0.51100000000E-03 0. -1.
    9000002   -1    0    0    0    0 -0.00000000000E+00 -0.00000000000E+00  0.00000000000E+00  0.93800000000E+00  0.93800000000E+00 0.  1.
         11    1    1    2    0    0 -0.37635650048E-01 -0.50587907129E-01  0.39776509947E+00  0.40273181396E+00  0.51100000000E-03 0. -1.
    9000002    1    1    2    0    0 -0.28539167775E+00  0.29045325388E+00  0.11968480052E+00  0.10295532788E+01  0.93800000000E+00 0.  1.
         22    1    1    2    0    0  0.32302732780E+00 -0.23986534675E+00  0.34825500674E+01  0.35057149072E+01  0.00000000000E+00 0. -1.
</event>
<event>
 5    1  0.6076093E+001  0.1599581E+01  0.7818608E-02  0.3353819E+00
         11   -1    0    0    0    0  0.00000000000E+00  0.00000000000E+00  0.39999999674E+01  0.40000000000E+01  0.51100000000E-03 0.  1.
    9000002   -1    0    0    0    0 -0.00000000000E+00 -0.00000000000E+00  0.00000000000E+00  0.93800000000E+00  0.93800000000E+00 0.  1.
         11    1    1    2    0    0  0.65962349100E-01  0.57896364595E-01  0.38545801749E+00  0.39532412638E+00  0.51100000000E-03 0.  1.
    9000002    1    1    2    0    0 -0.66189433544E+00 -0.51660834032E+00  0.52681126244E+00  0.13646839908E+01  0.93800000000E+00 0.  1.
         22    1    1    2    0    0  0.59593198634E+00  0.45871197572E+00  0.30877306874E+01  0.31779918828E+01  0.00000000000E+00 0.  1.
</event>
<event>
 5    1  0.6076093E+001  0.1598618E+01  0.7818608E-02  0.3354865E+00
         11   -1    0    0    0    0  0.00000000000E+00  0.00000000000E+00  0.39999999674E+01  0.40000000000E+01  0.51100000000E-03 0. -1.
    9000002   -1    0    0    0    0 -0.00000000000E+00 -0.00000000000E+00  0.00000000000E+00  0.93800000000E+00  0.93800000000E+00 0.  1.
         11    1    1    2    0    0 -0.53560144253E-01  0.17001387573E+00  0.10620484681E+01  0.10769032532E+01  0.51100000000E-03 0. -1.
    9000002    1    1    2    0    0  0.80342668285E-01 -0.54615824477E+00  0.21157059868E+00  0.11087605201E+01  0.93800000000E+00 0.  1.
         22    1    1    2    0    0 -0.26782524033E-01  0.37614436904E+00  0.27263809005E+01  0.27523362267E+01  0.00000000000E+00 0. -1.
</event>
<event>
 5    1  0.8339899E+001  0.1595927E+01  0.7818608E-02  0.3357796E+00
         11   -1    0    0    0    0  0.00000000000E+00  0.00000000000E+00  0.39999999674E+01  0.40000000000E+01  0.51100000000E-03 0.  1.
    9000002   -1    0    0    0    0 -0.00000000000E+00 -0.00000000000E+00  0.00000000000E+00  0.93800000000E+00  0.93800000000E+00 0.  1.
         11    1    1    2    0    0  0.22199144936E-01  0.69751861007E-01  0.13572969048E+01  0.13592693894E+01  0.51100000000E-03 0.  1.
    9000002    1    1    2    0    0 -0.25723410118E+00 -0.13755870122E+00  0.59650547341E-01  0.98412091071E+00  0.93800000000E+00 0.  1.
         22    1    1    2    0    0  0.23503495624E+00  0.67806840211E-01  0.25830525152E+01  0.25946096999E+01  0.00000000000E+00 0.  1.
</event>
<event>
 5    1  0.6076093E+001  0.1599676E+01  0.7818608E-02  0.3353715E+00
         11   -1    0    0    0    0  0.00000000000E+00  0.00000000000E+00  0.39999999674E+01  0.40000000000E+01  0.51100000000E-03 0.  1.
    9000002   -1    0    0    0    0 -0.00000000000E+00 -0.00000000000E+00  0.00000000000E+00  0.93800000000E+00  0.93800000000E+00 0.  1.
         11    1    1    2    0    0 -0.56178909037E-01  0.31527637068E-02  0.28292338334E+00  0.28846474950E+00  0.51100000000E-03 0.  1.
    9000002    1    1    2    0    0  0.71954386581E+00 -0.45863906394E-01  0.37367911009E+00  0.12406961554E+01  0.93800000000E+00 0.  1.
         22    1    1    2    0    0 -0.66336495677E+00  0.42711142687E-01  0.33433974739E+01  0.34088390951E+01  0.00000000000E+00 0.  1.
</event>
<event>
 5    1  0.6076093E+001  0.1597878E+01  0.7818608E-02  0.3355669E+00
         11   -1    0    0    0    0  0.00000000000E+00  0.00000000000E+00  0.39999999674E+01  0.40000000000E+01  0.51100000000E-03 0. -1.
    9000002   -1    0    0    0    0 -0.00000000000E+00 -0.00000000000E+00  0.00000000000E+00  0.93800000000E+00  0.93800000000E+00 0. -1.
         11    1    1    2    0    0  0.12608320014E+00 -0.91871104882E-01  0.94127888218E+00  0.95411921081E+00  0.51100000000E-03 0. -1.
    9000002    1    1    2    0    0 -0.37687274110E+00  0.26079112839E+00  0.14440144486E+00  0.10539169099E+01  0.93800000000E+00 0. -1.
         22    1    1    2    0    0  0.25078954096E+00 -0.16892002351E+00  0.29143196403E+01  0.29299638793E+01  0.00000000000E+00 0. -1.
</event>
<event>
 5    1  0.6076093E+001  0.1599676E+01  0.7818608E-02  0.3353715E+00
         11   -1    0    0    0    0  0.00000000000E+00  0.00000000000E+00  0.39999999674E+01  0.40000000000E+01  0.51100000000E-03 0.  1.
    9000002   -1    0    0    0    0 -0.00000000000E+00 -0.00000000000E+00  0.00000000000E+00  0.93800000000E+00  0.93800000000E+00 0.  1.
         11    1    1    2    0    0 -0.10476644592E+00  0.95126407050E-01  0.14295010846E+01  0.14364883061E+01  0.51100000000E-03 0.  1.
    9000002    1    1    2    0    0  0.28360246614E+00 -0.25999120604E+00  0.99655702549E-01  0.10187252059E+01  0.93800000000E+00 0.  1.
         22    1    1    2    0    0 -0.17883602021E+00  0.16486479899E+00  0.24708431802E+01  0.24827864880E+01  0.00000000000E+00 0.  1.
</event>
<event>
 5    1  0.6076093E+001  0.1599667E+01  0.7818608E-02  0.3353724E+00
         11   -1    0    0    0    0  0.00000000000E+00  0.00000000000E+00  0.39999999674E+01  0.40000000000E+01  0.51100000000E-03 0.  1.
    9000002   -1    0    0    0    0 -0.00000000000E+00 -0.00000000000E+00  0.00000000000E+00  0.93800000000E+00  0.93800000000E+00 0.  1.
         11    1    1    2    0    0  0.11582001909E+00 -0.20309049039E-01  0.10485387038E+01  0.10551115622E+01  0.51100000000E-03 0.  1.
    9000002    1    1    2    0    0 -0.41807657603E+00  0.68606643894E-01  0.12146206466E+00  0.10363840640E+01  0.93800000000E+00 0.  1.
         22    1    1    2    0    0  0.30225655694E+00 -0.48297594855E-01  0.28299991989E+01  0.28465043738E+01  0.00000000000E+00 0.  1.
</event>
<event>
 5    1  0.6076093E+001  0.1597958E+01  0.7818608E-02  0.3355583E+00
         11   -1    0    0    0    0  0.00000000000E+00  0.00000000000E+00  0.39999999674E+01  0.40000000000E+01  0.51100000000E-03 0.  1.
    9000002   -1    0    0    0    0 -0.00000000000E+00 -0.00000000000E+00  0.00000000000E+00  0.93800000000E+00  0.93800000000E+00 0.  1.
         11    1    1    2    0    0  0.20853645070E+00 -0.17793702361E-01  0.71256851511E+00  0.74266965534E+00  0.51100000000E-03 0.  1.
    9000002    1    1    2    0    0 -0.85946374388E+00  0.22702195242E+00  0.60460134630E+00  0.14267458365E+01  0.93800000000E+00 0. -1.
         22    1    1    2    0    0  0.65092729318E+00 -0.20922825006E+00  0.26828301059E+01  0.27685845082E+01  0.00000000000E+00 0.  1.
</event>
<event>
 5    1  0.6076093E+001  0.1599674E+01  0.7818608E-02  0.3353717E+00
         11   -1    0    0    0    0  0.00000000000E+00  0.00000000000E+00  0.39999999674E+01  0.40000000000E+01  0.51100000000E-03 0.  1.
    9000002   -1    0    0    0    0 -0.00000000000E+00 -0.00000000000E+00  0.00000000000E+00  0.93800000000E+00  0.93800000000E+00 0.  1.
         11    1    1    2    0    0  0.78836833256E-01  0.97772802199E-01  0.12853376247E+01  0.12914595765E+01  0.51100000000E-03 0.  1.
    9000002    1    1    2    0    0 -0.23388987223E+00 -0.29928715188E+00  0.97076169088E-01  0.10166341792E+01  0.93800000000E+00 0.  1.
         22    1    1    2    0    0  0.15505303897E+00  0.20151434968E+00  0.26175861736E+01  0.26299062444E+01  0.00000000000E+00 0.  1.
</event>
<event>
 5    1  0.6076093E+001  0.1599586E+01  0.7818608E-02  0.3353813E+00
         11   -1    0    0    0    0  0.00000000000E+00  0.00000000000E+00  0.39999999674E+01  0.40000000000E+01  0.51100000000E-03 0. -1.
    9000002   -1    0    0    0    0 -0.00000000000E+00 -0.00000000000E+00  0.00000000000E+00  0.93800000000E+00  0.93800000000E+00 0.  1.
         11    1    1    2    0    0  0.91707831600E-01  0.13953063580E-01  0.78781910490E+00  0.79326175852E+00  0.51100000000E-03 0. -1.
    9000002    1    1    2    0    0 -0.44212557545E+00 -0.23708134930E-01  0.13308312702E+00  0.10457495966E+01  0.93800000000E+00 0.  1.
         22    1    1    2    0    0  0.35041774385E+00  0.97550713499E-02  0.30790977354E+01  0.30989886449E+01  0.00000000000E+00 0. -1.
</event>
<event>
 5    1  0.6076093E+001  0.1599503E+01  0.7818608E-02  0.3353902E+00
         11   -1    0    0    0    0  0.00000000000E+00  0.00000000000E+00  0.39999999674E+01  0.40000000000E+01  0.51100000000E-03 0. -1.
    9000002   -1    0    0    0    0 -0.00000000000E+00 -0.00000000000E+00  0.00000000000E+00  0.93800000000E+00  0.93800000000E+00 0. -1.
         11    1    1    2    0    0 -0.51873140123E-01  0.44121429153E-01  0.75101761935E+00  0.75409896490E+00  0.51100000000E-03 0. -1.
    9000002    1    1    2    0    0  0.33322941224E+00 -0.23459630170E+00  0.11227705574E+00  0.10288476093E+01  0.93800000000E+00 0. -1.
         22    1    1    2    0    0 -0.28135627212E+00  0.19047487255E+00  0.31367052923E+01  0.31550534258E+01  0.00000000000E+00 0. -1.
</event>
<event>
 5    1  0.6076093E+001  0.1586337E+01  0.7818608E-02  0.3368327E+00
         11   -1    0    0    0    0  0.00000000000E+00  0.00000000000E+00  0.39999999674E+01  0.40000000000E+01  0.51100000000E-03 0.  1.
    9000002   -1    0    0    0    0 -0.00000000000E+00 -0.00000000000E+00  0.00000000000E+00  0.93800000000E+00  0.93800000000E+00 0. -1.
         11    1    1    2    0    0 -0.13236368466E-01  0.46622884862E-01  0.11770959556E+01  0.11780933938E+01  0.51100000000E-03 0.  1.
    9000002    1    1    2    0    0 -0.16920993013E+00  0.21272130919E+00  0.59532558425E-01  0.97840200396E+00  0.93800000000E+00 0. -1.
         22    1    1    2    0    0  0.18244629859E+00 -0.25934419405E+00  0.27633714533E+01  0.27815046022E+01  0.00000000000E+00 0.  1.
</event>
<event>
 5    1  0.6076093E+001  0.1599667E+01  0.7818608E-02  0.3353725E+00
         11   -1    0    0    0    0  0.00000000000E+00  0.00000000000E+00  0.39999999674E+01  0.40000000000E+01  0.51100000000E-03 0.  1.
    9000002   -1    0    0    0    0 -0.00000000000E+00 -0.00000000000E+00  0.00000000000E+00  0.93800000000E+00  0.93800000000E+00 0. -1.
         11    1    1    2    0    0 -0.23788395807E-01  0.29623329843E-01  0.37597078399E+00  0.37788585708E+00  0.51100000000E-03 0.  1.
    9000002    1    1    2    0    0  0.25076805538E+00 -0.32853301688E+00  0.11542968770E+00  0.10314972485E+01  0.93800000000E+00 0. -1.
         22    1    1    2    0    0 -0.22697965957E+00  0.29890968703E+00  0.35085994957E+01  0.35286168945E+01  0.00000000000E+00 0.  1.
</event>
<event>
 5    1  0.6076093E+001  0.1597293E+01  0.7818608E-02  0.3356306E+00
         11   -1    0    0    0    0  0.00000000000E+00  0.00000000000E+00  0.39999999674E+01  0.40000000000E+01  0.51100000000E-03 0. -1.
    9000002   -1    0    0    0    0 -0.00000000000E+00 -0.00000000000E+00  0.00000000000E+00  0.93800000000E+00  0.93800000000E+00 0.  1.
         11    1    1    2    0    0  0.18285597889E+00 -0.77733665762E-01  0.11059118562E+01  0.11236192089E+01  0.51100000000E-03 0. -1.
    9000002    1    1    2    0    0 -0.48143165453E+00  0.15937354249E+00  0.17842799317E+00  0.10811368613E+01  0.93800000000E+00 0.  1.
         22    1    1    2    0    0  0.29857567564E+00 -0.81639876730E-01  0.27156601180E+01  0.27332439298E+01  0.00000000000E+00 0. -1.
</event>
<event>
 5    1  0.6076093E+001  0.1596024E+01  0.7818608E-02  0.3357690E+00
         11   -1    0    0    0    0  0.00000000000E+00  0.00000000000E+00  0.39999999674E+01  0.40000000000E+01  0.51100000000E-03 0. -1.
    9000002   -1    0    0    0    0 -0.00000000000E+00 -0.00000000000E+00  0.00000000000E+00  0.93800000000E+00  0.93800000000E+00 0. -1.
         11    1    1    2    0    0 -0.30513556978E-01 -0.37953308646E-01  0.37863040327E+00  0.38174962240E+00  0.51100000000E-03 0. -1.
    9000002    1    1    2    0    0 -0.12370222496E+00  0.32318705897E+00  0.83200089353E-01  0.10032538913E+01  0.93800000000E+00 0. -1.
         22    1    1    2    0    0  0.15421578194E+00 -0.28523375032E+00  0.35381694747E+01  0.35529964863E+01  0.00000000000E+00 0. -1.
</event>
<event>
 5    1  0.6076093E+001  0.1587135E+01  0.7818608E-02  0.3367446E+00
         11   -1    0    0    0    0  0.00000000000E+00  0.00000000000E+00  0.39999999674E+01  0.40000000000E+01  0.51100000000E-03 0. -1.
    9000002   -1    0    0    0    0 -0.00000000000E+00 -0.00000000000E+00  0.00000000000E+00  0.93800000000E+00  0.93800000000E+00 0.  1.
         11    1    1    2    0    0 -0.32895100089E-01 -0.43935425626E-01  0.12978436532E+01  0.12990037793E+01  0.51100000000E-03 0. -1.
    9000002    1    1    2    0    0  0.32752192318E+00 -0.17414919458E+00  0.10278573484E+00  0.10139070270E+01  0.93800000000E+00 0.  1.
         22    1    1    2    0    0 -0.29462682309E+00  0.21808462021E+00  0.25993705793E+01  0.26250891937E+01  0.00000000000E+00 0. -1.
</event>
<event>
 5    1  0.6076093E+001  0.1599673E+01  0.7818608E-02  0.3353719E+00
         11   -1    0    0    0    0  0.00000000000E+00  0.00000000000E+00  0.39999999674E+01  0.40000000000E+01  0.51100000000E-03 0. -1.
    9000002   -1    0    0    0    0 -0.00000000000E+00 -0.00000000000E+00  0.00000000000E+00  0.93800000000E+00  0.93800000000E+00 0. -1.
         11    1    1    2    0    0  0.96526206639E-01  0.19789460960E-01  0.50146096199E+00  0.51105018233E+00  0.51100000000E-03 0. -1.
    9000002    1    1    2    0    0 -0.70172099145E+00 -0.13136792370E+00  0.36564083147E+00  0.12341827656E+01  0.93800000000E+00 0. -1.
         22    1    1    2    0    0  0.60519478481E+00  0.11157846274E+00  0.31328981739E+01  0.31927670521E+01  0.00000000000E+00 0. -1.
</event>
<event>
 5    1  0.6076093E+001  0.1587652E+01  0.7818608E-02  0.3366875E+00
         11   -1    0    0    0    0  0.00000000000E+00  0.00000000000E+00  0.39999999674E+01  0.40000000000E+01  0.51100000000E-03 0. -1.
    9000002   -1    0    0    0    0 -0.00000000000E+00 -0.00000000000E+00  0.00000000000E+00  0.93800000000E+00  0.93800000000E+00 0.  1.
         11    1    1    2    0    0 -0.30593407542E+00  0.35760992486E-01  0.12607818145E+01  0.12978619156E+01  0.51100000000E-03 0. -1.
    9000002    1    1    2    0    0  0.55043116731E+00 -0.14629480335E-01  0.22088408782E+00  0.11098748902E+01  0.93800000000E+00 0.  1.
         22    1    1    2    0    0 -0.24449709189E+00 -0.21131512150E-01  0.25183340651E+01  0.25302631942E+01  0.00000000000E+00 0. -1.
</event>
<event>
 5    1  0.6076093E+001  0.1599677E+01  0.7818608E-02  0.3353714E+00
         11   -1    0    0    0    0  0.00000000000E+00  0.00000000000E+00  0.39999999674E+01  0.40000000000E+01  0.51100000000E-03 0. -1.
    9000002   -1    0    0    0    0 -0.00000000000E+00 -0.00000000000E+00  0.00000000000E+00  0.93800000000E+00  0.93800000000E+00 0. -1.
         11    1    1    2    0    0 -0.76736958394E-01  0.16324236191E+00  0.14616644202E+01  0.14727524463E+01  0.51100000000E-03 0. -1.
    9000002    1    1    2    0    0  0.20249093680E+00 -0.42900652167E+00  0.15341897516E+00  0.10622761209E+01  0.93800000000E+00 0. -1.
         22    1    1    2    0    0 -0.12575397841E+00  0.26576415976E+00  0.23849165720E+01  0.24029714328E+01  0.00000000000E+00 0. -1.
</event>
<event>
 5    1  0.6252998E+001  0.1599660E+01  0.7818608E-02  0.3353732E+00
         11   -1    0    0    0    0  0.00000000000E+00  0.00000000000E+00  0.39999999674E+01  0.40000000000E+01  0.51100000000E-03 0. -1.
    9000002   -1    0    0    0    0 -0.00000000000E+00 -0.00000000000E+00  0.00000000000E+00  0.93800000000E+00  0.93800000000E+00 0. -1.
         11    1    1    2    0    0  0.15798902690E+00  0.10215630924E+00  0.14096044206E+01  0.14221045418E+01  0.51100000000E-03 0. -1.
    9000002    1    1    2    0    0 -0.43811025184E+00 -0.28360897345E+00  0.18717698925E+00  0.10896117969E+01  0.93800000000E+00 0. -1.
         22    1    1    2    0    0  0.28012122494E+00  0.18145266421E+00  0.24032185575E+01  0.24262836614E+01  0.00000000000E+00 0. -1.
</event>
<event>
 5    1  0.6076093E+001  0.1599530E+01  0.7818608E-02  0.3353874E+00
         11   -1    0    0    0    0  0.00000000000E+00  0.00000000000E+00  0.39999999674E+01  0.40000000000E+01  0.51100000000E-03 0. -1.
    9000002   -1    0    0    0    0 -0.00000000000E+00 -0.00000000000E+00  0.00000000000E+00  0.93800000000E+00  0.93800000000E+00 0. -1.
         11    1    1    2    0    0  0.11429222052E+00 -0.92003294641E-01  0.78995684734E+00  0.80346711176E+00  0.51100000000E-03 0. -1.
    9000002    1    1    2    0    0 -0.47955765297E+00  0.43399520577E+00  0.29511954243E+00  0.11769736299E+01  0.93800000000E+00 0. -1.
         22    1    1    2    0    0  0.36526543245E+00 -0.34199191113E+00  0.29149235776E+01  0.29575592583E+01  0.00000000000E+00 0. -1.
</event>
<event>
 5    1  0.6076093E+001  0.1599033E+01  0.7818608E-02  0.3354413E+00
         11   -1    0    0    0    0  0.00000000000E+00  0.00000000000E+00  0.39999999674E+01  0.40000000000E+01  0.51100000000E-03 0.  1.
    9000002   -1    0    0    0    0 -0.00000000000E+00 -0.00000000000E+00  0.00000000000E+00  0.93800000000E+00  0.93800000000E+00 0.  1.
         11    1    1    2    0    0  0.32273573438E-03 -0.61312216131E-02  0.11731581179E+00  0.11747747381E+00  0.51100000000E-03 0.  1.
    9000002    1    1    2    0    0 -0.33835956164E+00  0.30936940353E+00  0.14350257890E+00  0.10538660308E+01  0.93800000000E+00 0.  1.
         22    1    1    2    0    0  0.33803682591E+00 -0.30323818192E+00  0.37391815767E+01  0.37666564954E+01  0.00000000000E+00 0.  1.
</event>
<event>
 5    1  0.6076093E+001  0.1597247E+01  0.7818608E-02  0.3356357E+00
         11   -1    0    0    0    0  0.00000000000E+00  0.00000000000E+00  0.39999999674E+01  0.40000000000E+01  0.51100000000E-03 0.  1.
    9000002   -1    0    0    0    0 -0.00000000000E+00 -0.00000000000E+00  0.00000000000E+00  0.93800000000E+00  0.93800000000E+00 0.  1.
         11    1    1    2    0    0  0.14025407424E-01 -0.49844388449E-01  0.35408836802E+00  0.35785473114E+00  0.51100000000E-03 0.  1.
    9000002    1    1    2    0    0  0.18010795296E+00  0.37602670708E+00  0.11956566442E+00  0.10334287142E+01  0.93800000000E+00 0.  1.
         22    1    1    2    0    0 -0.19413336038E+00 -0.32618231863E+00  0.35263459349E+01  0.35467165547E+01  0.00000000000E+00 0.  1.
</event>
<event>
 5    1  0.6076093E+001  0.1599563E+01  0.7818608E-02  0.3353838E+00
         11   -1    0    0    0    0  0.00000000000E+00  0.00000000000E+00  0.39999999674E+01  0.40000000000E+01  0.51100000000E-03 0.  1.
    9000002   -1    0    0    0    0 -0.00000000000E+00 -0.00000000000E+00  0.00000000000E+00  0.93800000000E+00  0.93800000000E+00 0. -1.
         11    1    1    2    0    0  0.22257575866E-01 -0.52595667393E-01  0.52352361442E+00  0.52662979396E+00  0.51100000000E-03 0.  1.
    9000002    1    1    2    0    0 -0.12640559246E+00  0.34091396171E+00  0.88870259580E-01  0.10099220891E+01  0.93800000000E+00 0. -1.
         22    1    1    2    0    0  0.10414801659E+00 -0.28831829431E+00  0.33876060934E+01  0.34014481169E+01  0.00000000000E+00 0.  1.
</event>
<event>
 5    1  0.6076093E+001  0.1589567E+01  0.7818608E-02  0.3364766E+00
         11   -1    0    0    0    0  0.00000000000E+00  0.00000000000E+00  0.39999999674E+01  0.40000000000E+01  0.51100000000E-03 0.  1.
    9000002   -1    0    0    0    0 -0.00000000000E+00 -0.00000000000E+00  0.00000000000E+00  0.93800000000E+00  0.93800000000E+00 0. -1.
         11    1    1    2    0    0  0.62673883627E-01 -0.29561424836E-01  0.74864378391E+00  0.75184417922E+00  0.51100000000E-03 0.  1.
    9000002    1    1    2    0    0  0.10669236406E+00  0.39568203365E+00  0.12194873159E+00  0.10308554823E+01  0.93800000000E+00 0. -1.
         22    1    1    2    0    0 -0.16936624769E+00 -0.36612060881E+00  0.31294074519E+01  0.31553003385E+01  0.00000000000E+00 0.  1.
</event>
<event>
 5    1  0.6076093E+001  0.1588467E+01  0.7818608E-02  0.3365977E+00
         11   -1    0    0    0    0  0.00000000000E+00  0.00000000000E+00  0.39999999674E+01  0.40000000000E+01  0.51100000000E-03 0. -1.
    9000002   -1    0    0    0    0 -0.00000000000E+00 -0.00000000000E+00  0.00000000000E+00  0.93800000000E+00  0.93800000000E+00 0.  1.
         11    1    1    2    0    0 -0.24181276443E-01 -0.50906462747E-02  0.12057931974E+01  0.12060464937E+01  0.51100000000E-03 0. -1.
    9000002    1    1    2    0    0 -0.25543124393E+00 -0.17114233663E+00  0.71971026793E-01  0.98972655237E+00  0.93800000000E+00 0.  1.
         22    1    1    2    0    0  0.27961252037E+00  0.17623298291E+00  0.27222357431E+01  0.27422269540E+01  0.00000000000E+00 0. -1.
</event>
<event>
 5    1  0.6858694E+001  0.1599603E+01  0.7818608E-02  0.3353794E+00
         11   -1    0    0    0    0  0.00000000000E+00  0.00000000000E+00  0.39999999674E+01  0.40000000000E+01  0.51100000000E-03 0. -1.
    9000002   -1    0    0    0    0 -0.00000000000E+00 -0.00000000000E+00  0.00000000000E+00  0.93800000000E+00  0.93800000000E+00 0.  1.
         11    1    1    2    0    0 -0.64005109530E-01 -0.93609352332E-01  0.14082725068E+01  0.14128308743E+01  0.51100000000E-03 0. -1.
    9000002    1    1    2    0    0  0.19415282838E+00  0.28334559733E+00  0.79109968798E-01  0.10020391387E+01  0.93800000000E+00 0.  1.
         22    1    1    2    0    0 -0.13014771885E+00 -0.18973624500E+00  0.25126174917E+01  0.25231299870E+01  0.00000000000E+00 0. -1.
</event>
<event>
 5    1  0.6076093E+001  0.1599676E+01  0.7818608E-02  0.3353715E+00
         11   -1    0    0    0    0  0.00000000000E+00  0.00000000000E+00  0.39999999674E+01  0.40000000000E+01  0.51100000000E-03 0.  1.
    9000002   -1    0    0    0    0 -0.00000000000E+00 -0.00000000000E+00  0.00000000000E+00  0.93800000000E+00  0.93800000000E+00 0.  1.
         11    1    1    2    0    0  0.49199252631E-01  0.37290012546E-01  0.61442488787E+00  0.61751867619E+00  0.51100000000E-03 0.  1.
    9000002    1    1    2    0    0 -0.31563695623E+00 -0.23257031624E+00  0.10358084041E+00  0.10219044136E+01  0.93800000000E+00 0.  1.
         22    1    1    2    0    0  0.26643770359E+00  0.19528030369E+00  0.32819942391E+01  0.32985769102E+01  0.00000000000E+00 0.  1.
</event>
<event>
 5    1  0.6076093E+001  0.1583569E+01  0.7818608E-02  0.3371392E+00
         11   -1    0    0    0    0  0.00000000000E+00  0.00000000000E+00  0.39999999674E+01  0.40000000000E+01  0.51100000000E-03 0.  1.
    9000002   -1    0    0    0    0 -0.00000000000E+00 -0.00000000000E+00  0.00000000000E+00  0.93800000000E+00  0.93800000000E+00 0.  1.
         11    1    1    2    0    0 -0.59761577846E-01  0.53130870734E-01  0.47471836981E+00  0.48140640562E+00  0.51100000000E-03 0.  1.
    9000002    1    1    2    0    0  0.62080437797E-01  0.26178311216E+00  0.60677934027E-01  0.97770659722E+00  0.93800000000E+00 0.  1.
         22    1    1    2    0    0 -0.23188599510E-02 -0.31491398290E+00  0.34646036635E+01  0.34788869972E+01  0.00000000000E+00 0.  1.
</event>
<event>
 5    1  0.6076093E+001  0.1595396E+01  0.7818608E-02  0.3358376E+00
         11   -1    0    0    0    0  0.00000000000E+00  0.00000000000E+00  0.39999999674E+01  0.40000000000E+01  0.51100000000E-03 0. -1.
    9000002   -1    0    0    0    0 -0.00000000000E+00 -0.00000000000E+00  0.00000000000E+00  0.93800000000E+00  0.93800000000E+00 0. -1.
         11    1    1    2    0    0 -0.17300421050E-01  0.10370042269E-01  0.15977390836E+00  0.16104286777E+00  0.51100000000E-03 0. -1.
    9000002    1    1    2    0    0 -0.24415375525E-01  0.36381411205E+00  0.92782919387E-01  0.10106480539E+01  0.93800000000E+00 0. -1.
         22    1    1    2    0    0  0.41715796574E-01 -0.37418415432E+00  0.37474431396E+01  0.37663090783E+01  0.00000000000E+00 0. -1.
</event>
<event>
 5    1  0.6076093E+001  0.1492816E+01  0.7818608E-02  0.3478599E+00
         11   -1    0    0    0    0  0.00000000000E+00  0.00000000000E+00  0.39999999674E+01  0.40000000000E+01  0.51100000000E-03 0. -1.
    9000002   -1    0    0    0    0 -0.00000000000E+00 -0.00000000000E+00  0.00000000000E+00  0.93800000000E+00  0.93800000000E+00 0.  1.
         11    1    1    2    0    0  0.33325806256E+00 -0.30578553400E+00  0.14275402773E+01  0.14974769560E+01  0.51100000000E-03 0. -1.
    9000002    1    1    2    0    0  0.11087036764E-01  0.34032142518E+00  0.16878650002E+00  0.10120644631E+01  0.93800000000E+00 0.  1.
         22    1    1    2    0    0 -0.34434509932E+00 -0.34535891186E-01  0.24036731900E+01  0.24284585810E+01  0.00000000000E+00 0. -1.
</event>
<event>
 5    1  0.6076093E+001  0.1599479E+01  0.7818608E-02  0.3353929E+00
         11   -1    0    0    0    0  0.00000000000E+00  0.00000000000E+00  0.39999999674E+01  0.40000000000E+01  0.51100000000E-03 0.  1.
    9000002   -1    0    0    0    0 -0.00000000000E+00 -0.00000000000E+00  0.00000000000E+00  0.93800000000E+00  0.93800000000E+00 0. -1.
         11    1    1    2    0    0  0.74970857463E-02 -0.28328093753E-01  0.35570231616E+00  0.35690767158E+00  0.51100000000E-03 0.  1.
    9000002    1    1    2    0    0 -0.18761808634E+00  0.32991527470E+00  0.97076330064E-01  0.10165197729E+01  0.93800000000E+00 0. -1.
         22    1    1    2    0    0  0.18012100059E+00 -0.30158718095E+00  0.35472213211E+01  0.35645725555E+01  0.00000000000E+00 0.  1.
</event>
<event>
 5    1  0.6076093E+001  0.1596636E+01  0.7818608E-02  0.3357023E+00
         11   -1    0    0    0    0  0.00000000000E+00  0.00000000000E+00  0.39999999674E+01  0.40000000000E+01  0.51100000000E-03 0.  1.
    9000002   -1    0    0    0    0 -0.00000000000E+00 -0.00000000000E+00  0.00000000000E+00  0.93800000000E+00  0.93800000000E+00 0.  1.
         11    1    1    2    0    0  0.76874958226E-01 -0.36507887938E-01  0.10080674839E+01  0.10116535466E+01  0.51100000000E-03 0.  1.
    9000002    1    1    2    0    0 -0.24534757401E+00  0.35850216754E+00  0.13048654302E+00  0.10419164909E+01  0.93800000000E+00 0.  1.
         22    1    1    2    0    0  0.16847261578E+00 -0.32199427960E+00  0.28614459404E+01  0.28844299625E+01  0.00000000000E+00 0. -1.
</event>
<event>
 5    1  0.6076093E+001  0.1599677E+01  0.7818608E-02  0.3353714E+00
         11   -1    0    0    0    0  0.00000000000E+00  0.00000000000E+00  0.39999999674E+01  0.40000000000E+01  0.51100000000E-03 0.  1.
    9000002   -1    0    0    0    0 -0.00000000000E+00 -0.00000000000E+00  0.00000000000E+00  0.93800000000E+00  0.93800000000E+00 0. -1.
         11    1    1    2    0    0 -0.51245695691E-01  0.11009357902E+00  0.11821041709E+01  0.11883253971E+01  0.51100000000E-03 0.  1.
    9000002    1    1    2    0    0  0.16786140299E+00 -0.36166376556E+00  0.10721647417E+00  0.10248499901E+01  0.93800000000E+00 0. -1.
         22    1    1    2    0    0 -0.11661570730E+00  0.25157018653E+00  0.27106793223E+01  0.27248246128E+01  0.00000000000E+00 0.  1.
</event>
<event>
 5    1  0.6076093E+001  0.1599459E+01  0.7818608E-02  0.3353951E+00
         11   -1    0    0    0    0  0.00000000000E+00  0.00000000000E+00  0.39999999674E+01  0.40000000000E+01  0.51100000000E-03 0.  1.
    9000002   -1    0    0    0    0 -0.00000000000E+00 -0.00000000000E+00  0.00000000000E+00  0.93800000000E+00  0.93800000000E+00 0. -1.
         11    1    1    2    0    0  0.85794177007E-01  0.44175319676E-01  0.11658836915E+01  0.11698705667E+01  0.51100000000E-03 0.  1.
    9000002    1    1    2    0    0 -0.32275493269E+00 -0.18968701708E+00  0.94414459941E-01  0.10143520105E+01  0.93800000000E+00 0. -1.
         22    1    1    2    0    0  0.23696075569E+00  0.14551169740E+00  0.27397018159E+01  0.27537774228E+01  0.00000000000E+00 0.  1.
</event>
<event>
 5    1  0.6076093E+001  0.1599676E+01  0.7818608E-02  0.3353715E+00
         11   -1    0    0    0    0  0.00000000000E+00  0.00000000000E+00  0.39999999674E+01  0.40000000000E+01  0.51100000000E-03 0. -1.
    9000002   -1    0    0    0    0 -0.00000000000E+00 -0.00000000000E+00  0.00000000000E+00  0.93800000000E+00  0.93800000000E+00 0. -1.
         11    1    1    2    0    0 -0.37851559748E-01 -0.13105742233E+00  0.14793397923E+01  0.14856161250E+01  0.51100000000E-03 0. -1.
    9000002    1    1    2    0    0  0.10162516887E+00  0.34442860332E+00  0.86556963989E-01  0.10081145003E+01  0.93800000000E+00 0. -1.
         22    1    1    2    0    0 -0.63773609123E-01 -0.21337118098E+00  0.24341032110E+01  0.24442693747E+01  0.00000000000E+00 0. -1.
</event>
<event>
 5    1  0.6076093E+001  0.1599675E+01  0.7818608E-02  0.3353716E+00
         11   -1    0    0    0    0  0.00000000000E+00  0.00000000000E+00  0.39999999674E+01  0.40000000000E+01  0.51100000000E-03 0.  1.
    9000002   -1    0    0    0    0 -0.00000000000E+00 -0.00000000000E+00  0.00000000000E+00  0.93800000000E+00  0.93800000000E+00 0.  1.
         11    1    1    2    0    0 -0.10024363265E-01  0.63042430410E-01  0.69081106534E+00  0.69375429729E+00  0.51100000000E-03 0.  1.
    9000002    1    1    2    0    0  0.63898977698E-01 -0.35443837066E+00  0.87072513537E-01  0.10085312393E+01  0.93800000000E+00 0.  1.
         22    1    1    2    0    0 -0.53874614433E-01  0.29139594024E+00  0.32221163885E+01  0.32357144635E+01  0.00000000000E+00 0.  1.
</event>
<event>
 5    1  0.6076093E+001  0.1599665E+01  0.7818608E-02  0.3353727E+00
         11   -1    0    0    0    0  0.00000000000E+00  0.00000000000E+00  0.39999999674E+01  0.40000000000E+01  0.51100000000E-03 0. -1.
    9000002   -1    0    0    0    0 -0.00000000000E+00 -0.00000000000E+00  0.00000000000E+00  0.93800000000E+00  0.93800000000E+00 0. -1.
         11    1    1    2    0    0  0.17120220518E-01  0.11724210583E+00  0.10225497452E+01  0.10293915950E+01  0.51100000000E-03 0. -1.
    9000002    1    1    2    0    0 -0.69525297006E-01 -0.45517558894E+00  0.14423553505E+00  0.10548300684E+01  0.93800000000E+00 0. -1.
         22    1    1    2    0    0  0.52405076488E-01  0.33793348311E+00  0.28332146871E+01  0.28537783366E+01  0.00000000000E+00 0. -1.
</event>
<event>
 5    1  0.6076093E+001  0.1536023E+01  0.7818608E-02  0.3425871E+00
         11   -1    0    0    0    0  0.00000000000E+00  0.00000000000E+00  0.39999999674E+01  0.40000000000E+01  0.51100000000E-03 0.  1.
    9000002   -1    0    0    0    0 -0.00000000000E+00 -0.00000000000E+00  0.00000000000E+00  0.93800000000E+00  0.93800000000E+00 0.  1.
         11    1    1    2    0    0  0.21701101432E+00 -0.58863804502E-01  0.12614952196E+01  0.12813778436E+01  0.51100000000E-03 0.  1.
    9000002    1    1    2    0    0  0.20393671902E+00  0.10796679299E+00  0.85235594221E-01  0.96971960910E+00  0.93800000000E+00 0.  1.
         22    1    1    2    0    0 -0.42094773334E+00 -0.49102988485E-01  0.26532691536E+01  0.26869025473E+01  0.00000000000E+00 0.  1.
</event>
<event>
 5    1  0.6076093E+001  0.1456667E+01  0.7818608E-02  0.3525313E+00
         11   -1    0    0    0    0  0.00000000000E+00  0.00000000000E+00  0.39999999674E+01  0.40000000000E+01  0.51100000000E-03 0.  1.
    9000002   -1    0    0    0    0 -0.00000000000E+00 -0.00000000000E+00  0.00000000000E+00  0.93800000000E+00  0.93800000000E+00 0. -1.
         11    1    1    2    0    0  0.42108302358E+00 -0.85925887911E-01  0.82565564226E+00  0.93080700023E+00  0.51100000000E-03 0.  1.
    9000002    1    1    2    0    0 -0.17661791300E+00 -0.21269792561E+00  0.18773495719E+00  0.99575233312E+00  0.93800000000E+00 0. -1.
         22    1    1    2    0    0 -0.24446511057E+00  0.29862381352E+00  0.29866093679E+01  0.30114406667E+01  0.00000000000E+00 0.  1.
</event>
<event>
 5    1  0.6076093E+001  0.1474809E+01  0.7818608E-02  0.3501558E+00
         11   -1    0    0    0    0  0.00000000000E+00  0.00000000000E+00  0.39999999674E+01  0.40000000000E+01  0.51100000000E-03 0.  1.
    9000002   -1    0    0    0    0 -0.00000000000E+00 -0.00000000000E+00  0.00000000000E+00  0.93800000000E+00  0.93800000000E+00 0. -1.
         11    1    1    2    0    0  0.19856315065E-01 -0.77056394846E-01 -0.22237063673E-01  0.82623903057E-01  0.51100000000E-03 0.  1.
    9000002    1    1    2    0    0 -0.23113167520E+00  0.43624206032E+00  0.28862341953E+00  0.10985792938E+01  0.93800000000E+00 0. -1.
         22    1    1    2    0    0  0.21127536014E+00 -0.35918566547E+00  0.37336136115E+01  0.37567968031E+01  0.00000000000E+00 0.  1.
</event>
<event>
 5    1  0.6076093E+001  0.1460749E+01  0.7818608E-02  0.3519912E+00
         11   -1    0    0    0    0  0.00000000000E+00  0.00000000000E+00  0.39999999674E+01  0.40000000000E+01  0.51100000000E-03 0. -1.
    9000002   -1    0    0    0    0 -0.00000000000E+00 -0.00000000000E+00  0.00000000000E+00  0.93800000000E+00  0.93800000000E+00 0. -1.
         11    1    1    2    0    0  0.36897143280E+00 -0.19126231554E+00  0.11709157902E+01  0.12424834971E+01  0.51100000000E-03 0. -1.
    9000002    1    1    2    0    0  0.54238110117E-01  0.13422620192E+00  0.12427870795E+00  0.95720825483E+00  0.93800000000E+00 0. -1.
         22    1    1    2    0    0 -0.42320954292E+00  0.57036113616E-01  0.27048054692E+01  0.27383082481E+01  0.00000000000E+00 0. -1.
</event>
<event>
 5    1  0.6076093E+001  0.1578881E+01  0.7818608E-02  0.3376609E+00
         11   -1    0    0    0    0  0.00000000000E+00  0.00000000000E+00  0.39999999674E+01  0.40000000000E+01  0.51100000000E-03 0. -1.
    9000002   -1    0    0    0    0 -0.00000000000E+00 -0.00000000000E+00  0.00000000000E+00  0.93800000000E+00  0.93800000000E+00 0. -1.
         11    1    1    2    0    0  0.18563153040E-01  0.33765216895E-01  0.49804832408E+00  0.49953686027E+00  0.51100000000E-03 0. -1.
    9000002    1    1    2    0    0  0.59117319726E+00  0.24421640853E+00  0.30994681307E+00  0.11768765569E+01  0.93800000000E+00 0. -1.
         22    1    1    2    0    0 -0.60973635030E+00 -0.27798162542E+00  0.31920048302E+01  0.32615865828E+01  0.00000000000E+00 0. -1.
</event>
<event>
 5    1  0.6076093E+001  0.1578217E+01  0.7818608E-02  0.3377351E+00
         11   -1    0    0    0    0  0.00000000000E+00  0.00000000000E+00  0.39999999674E+01  0.40000000000E+01  0.51100000000E-03 0. -1.
    9000002   -1    0    0    0    0 -0.00000000000E+00 -0.00000000000E+00  0.00000000000E+00  0.93800000000E+00  0.93800000000E+00 0.  1.
         11    1    1    2    0    0  0.94474842707E-01 -0.31982071423E-01  0.13004799382E+01  0.13042993060E+01  0.51100000000E-03 0. -1.
    9000002    1    1    2    0    0  0.21405754218E+00  0.14266523329E+00  0.60620827484E-01  0.97452187501E+00  0.93800000000E+00 0.  1.
         22    1    1    2    0    0 -0.30853238489E+00 -0.11068316187E+00  0.26388992016E+01  0.26591788190E+01  0.00000000000E+00 0. -1.
</event>
<event>
 5    1  0.6076093E+001  0.1599674E+01  0.7818608E-02  0.3353717E+00
         11   -1    0    0    0    0  0.00000000000E+00  0.00000000000E+00  0.39999999674E+01  0.40000000000E+01  0.51100000000E-03 0.  1.
    9000002   -1    0    0    0    0 -0.00000000000E+00 -0.00000000000E+00  0.00000000000E+00  0.93800000000E+00  0.93800000000E+00 0.  1.
         11    1    1    2    0    0 -0.19377538674E-01 -0.43786962875E-01  0.52788457836E+00  0.53005205057E+00  0.51100000000E-03 0. -1.
    9000002    1    1    2    0    0  0.15279887292E+00  0.32274913884E+00  0.85569511041E-01  0.10073135775E+01  0.93800000000E+00 0.  1.
         22    1    1    2    0    0 -0.13342133424E+00 -0.27896217597E+00  0.33865458780E+01  0.34006343719E+01  0.00000000000E+00 0.  1.
</event>
<event>
 5    1  0.6076093E+001  0.1598910E+01  0.7818608E-02  0.3354548E+00
         11   -1    0    0    0    0  0.00000000000E+00  0.00000000000E+00  0.39999999674E+01  0.40000000000E+01  0.51100000000E-03 0.  1.
    9000002   -1    0    0    0    0 -0.00000000000E+00 -0.00000000000E+00  0.00000000000E+00  0.93800000000E+00  0.93800000000E+00 0.  1.
         11    1    1    2    0    0 -0.18639185644E+00  0.41204676055E-01  0.12836236041E+01  0.12977401772E+01  0.51100000000E-03 0.  1.
    9000002    1    1    2    0    0  0.46520847314E+00 -0.10435940887E+00  0.15569574927E+00  0.10636705204E+01  0.93800000000E+00 0.  1.
         22    1    1    2    0    0 -0.27881661670E+00  0.63154732816E-01  0.25606806140E+01  0.25765893023E+01  0.00000000000E+00 0.  1.
</event>
<event>
 5    1  0.6076093E+001  0.1530150E+01  0.7818608E-02  0.3432850E+00
         11   -1    0    0    0    0  0.00000000000E+00  0.00000000000E+00  0.39999999674E+01  0.40000000000E+01  0.51100000000E-03 0. -1.
    9000002   -1    0    0    0    0 -0.00000000000E+00 -0.00000000000E+00  0.00000000000E+00  0.93800000000E+00  0.93800000000E+00 0. -1.
         11    1    1    2    0    0  0.15563437996E+00  0.67333024401E-01  0.61828494327E+00  0.64111803016E+00  0.51100000000E-03 0. -1.
    9000002    1    1    2    0    0  0.36449389579E+00  0.15792824366E+00  0.16659355089E+00  0.10321795103E+01  0.93800000000E+00 0. -1.
         22    1    1    2    0    0 -0.52012827575E+00 -0.22526126806E+00  0.32151214732E+01  0.32647024596E+01  0.00000000000E+00 0. -1.
</event>
<event>
 5    1  0.6076093E+001  0.1599676E+01  0.7818608E-02  0.3353715E+00
         11   -1    0    0    0    0  0.00000000000E+00  0.00000000000E+00  0.39999999674E+01  0.40000000000E+01  0.51100000000E-03 0. -1.
    9000002   -1    0    0    0    0 -0.00000000000E+00 -0.00000000000E+00  0.00000000000E+00  0.93800000000E+00  0.93800000000E+00 0. -1.
         11    1    1    2    0    0  0.59828200833E-01  0.23049487755E-01  0.68344568333E+00  0.68644661532E+00  0.51100000000E-03 0.  1.
    9000002    1    1    2    0    0 -0.34109655833E+00 -0.13557888433E+00  0.90512145552E-01  0.10113184189E+01  0.93800000000E+00 0. -1.
         22    1    1    2    0    0  0.28126835749E+00  0.11252939657E+00  0.32260421385E+01  0.32402349657E+01  0.00000000000E+00 0. -1.
</event>
<event>
 5    1  0.6076093E+001  0.1574520E+01  0.7818608E-02  0.3381492E+00
         11   -1    0    0    0    0  0.00000000000E+00  0.00000000000E+00  0.39999999674E+01  0.40000000000E+01  0.51100000000E-03 0. -1.
    9000002   -1    0    0    0    0 -0.00000000000E+00 -0.00000000000E+00  0.00000000000E+00  0.93800000000E+00  0.93800000000E+00 0.  1.
         11    1    1    2    0    0 -0.14165124236E-01  0.10407837480E-01  0.44726857145E-03  0.17590764504E-01  0.51100000000E-03 0. -1.
    9000002    1    1    2    0    0 -0.14475837419E+00  0.33324319159E+00  0.10935966328E+00  0.10118347432E+01  0.93800000000E+00 0.  1.
         22    1    1    2    0    0  0.15892349842E+00 -0.34365102907E+00  0.38901930355E+01  0.39085744923E+01  0.00000000000E+00 0. -1.
</event>
<event>
 5    1  0.6323262E+001  0.1596499E+01  0.7818608E-02  0.3357172E+00
         11   -1    0    0    0    0  0.00000000000E+00  0.00000000000E+00  0.39999999674E+01  0.40000000000E+01  0.51100000000E-03 0.  1.
    9000002   -1    0    0    0    0 -0.00000000000E+00 -0.00000000000E+00  0.00000000000E+00  0.93800000000E+00  0.93800000000E+00 0. -1.
         11    1    1    2    0    0  0.42441401503E-01 -0.33781058947E-02  0.12076409873E+01  0.12083913685E+01  0.51100000000E-03 0.  1.
    9000002    1    1    2    0    0 -0.32172135255E+00 -0.77330604843E-01  0.75794551987E-01  0.99753369128E+00  0.93800000000E+00 0. -1.
         22    1    1    2    0    0  0.27927995104E+00  0.80708710738E-01  0.27165644280E+01  0.27320749402E+01  0.00000000000E+00 0.  1.
</event>
<event>
 5    1  0.6076093E+001  0.1599670E+01  0.7818608E-02  0.3353721E+00
         11   -1    0    0    0    0  0.00000000000E+00  0.00000000000E+00  0.39999999674E+01  0.40000000000E+01  0.51100000000E-03 0.  1.
    9000002   -1    0    0    0    0 -0.00000000000E+00 -0.00000000000E+00  0.00000000000E+00  0.93800000000E+00  0.93800000000E+00 0. -1.
         11    1    1    2    0    0 -0.48848531145E-01 -0.26177197899E-01  0.30257359271E+00  0.30760764752E+00  0.51100000000E-03 0.  1.
    9000002    1    1    2    0    0  0.59288393185E+00  0.33739803243E+00  0.33102034901E+00  0.12061373306E+01  0.93800000000E+00 0. -1.
         22    1    1    2    0    0 -0.54403540070E+00 -0.31122083453E+00  0.33664060256E+01  0.34242550218E+01  0.00000000000E+00 0.  1.
</event>
<event>
 5    1  0.6076093E+001  0.1599677E+01  0.7818608E-02  0.3353714E+00
         11   -1    0    0    0    0  0.00000000000E+00  0.00000000000E+00  0.39999999674E+01  0.40000000000E+01  0.51100000000E-03 0. -1.
    9000002   -1    0    0    0    0 -0.00000000000E+00 -0.00000000000E+00  0.00000000000E+00  0.93800000000E+00  0.93800000000E+00 0. -1.
         11    1    1    2    0    0 -0.10135418784E+00 -0.87532227813E-01  0.13493354492E+01  0.13559649619E+01  0.51100000000E-03 0.  1.
    9000002    1    1    2    0    0  0.29214474492E+00  0.25215781006E+00  0.10028003860E+00  0.10192311805E+01  0.93800000000E+00 0. -1.
         22    1    1    2    0    0 -0.19079055708E+00 -0.16462558225E+00  0.25503844796E+01  0.25628038576E+01  0.00000000000E+00 0. -1.
</event>
<event>
 5    1  0.6076093E+001  0.1599677E+01  0.7818608E-02  0.3353714E+00
         11   -1    0    0    0    0  0.00000000000E+00  0.00000000000E+00  0.39999999674E+01  0.40000000000E+01  0.51100000000E-03 0. -1.
    9000002   -1    0    0    0    0 -0.00000000000E+00 -0.00000000000E+00  0.00000000000E+00  0.93800000000E+00  0.93800000000E+00 0. -1.
         11    1    1    2    0    0 -0.82790175300E-01 -0.11765132398E+00  0.14398888098E+01  0.14470577365E+01  0.51100000000E-03 0. -1.
    9000002    1    1    2    0    0  0.22321468062E+00  0.31919895736E+00  0.10219770530E+00  0.10207845703E+01  0.93800000000E+00 0. -1.
         22    1    1    2    0    0 -0.14042450532E+00 -0.20154763338E+00  0.24579134523E+01  0.24701576932E+01  0.00000000000E+00 0. -1.
</event>
<event>
 5    1  0.6076093E+001  0.1545954E+01  0.7818608E-02  0.3414196E+00
         11   -1    0    0    0    0  0.00000000000E+00  0.00000000000E+00  0.39999999674E+01  0.40000000000E+01  0.51100000000E-03 0.  1.
    9000002   -1    0    0    0    0 -0.00000000000E+00 -0.00000000000E+00  0.00000000000E+00  0.93800000000E+00  0.93800000000E+00 0.  1.
         11    1    1    2    0    0  0.17860416537E+00  0.22840512512E-01  0.40282898694E+00  0.44123983358E+00  0.51100000000E-03 0.  1.
    9000002    1    1    2    0    0 -0.55274138932E-01 -0.37249882047E+00  0.14076435561E+00  0.10205239858E+01  0.93800000000E+00 0.  1.
         22    1    1    2    0    0 -0.12333002644E+00  0.34965830796E+00  0.34564066248E+01  0.34762361807E+01  0.00000000000E+00 0.  1.
</event>
<event>
 5    1  0.6076093E+001  0.1596106E+01  0.7818608E-02  0.3357600E+00
         11   -1    0    0    0    0  0.00000000000E+00  0.00000000000E+00  0.39999999674E+01  0.40000000000E+01  0.51100000000E-03 0. -1.
    9000002   -1    0    0    0    0 -0.00000000000E+00 -0.00000000000E+00  0.00000000000E+00  0.93800000000E+00  0.93800000000E+00 0. -1.
         11    1    1    2    0    0  0.22748559987E-01  0.16423928986E+00  0.93009632743E+00  0.94476001224E+00  0.51100000000E-03 0. -1.
    9000002    1    1    2    0    0  0.98633354881E-01 -0.50674748588E+00  0.18622849601E+00  0.10867596817E+01  0.93800000000E+00 0. -1.
         22    1    1    2    0    0 -0.12138191487E+00  0.34250819602E+00  0.28836751439E+01  0.29064803060E+01  0.00000000000E+00 0. -1.
</event>
<event>
 5    1  0.6076093E+001  0.1505261E+01  0.7818608E-02  0.3463078E+00
         11   -1    0    0    0    0  0.00000000000E+00  0.00000000000E+00  0.39999999674E+01  0.40000000000E+01  0.51100000000E-03 0. -1.
    9000002   -1    0    0    0    0 -0.00000000000E+00 -0.00000000000E+00  0.00000000000E+00  0.93800000000E+00  0.93800000000E+00 0.  1.
         11    1    1    2    0    0 -0.15662315086E+00 -0.14872655322E+00  0.39707622802E+00  0.45201791004E+00  0.51100000000E-03 0. -1.
    9000002    1    1    2    0    0  0.15093352030E-01 -0.18783214336E+00  0.97611944452E-01  0.96170723978E+00  0.93800000000E+00 0.  1.
         22    1    1    2    0    0  0.14152979883E+00  0.33655869658E+00  0.35053117949E+01  0.35242748502E+01  0.00000000000E+00 0. -1.
</event>
<event>
 5    1  0.6076093E+001  0.1599677E+01  0.7818608E-02  0.3353714E+00
         11   -1    0    0    0    0  0.00000000000E+00  0.00000000000E+00  0.39999999674E+01  0.40000000000E+01  0.51100000000E-03 0. -1.
    9000002   -1    0    0    0    0 -0.00000000000E+00 -0.00000000000E+00  0.00000000000E+00  0.93800000000E+00  0.93800000000E+00 0.  1.
         11    1    1    2    0    0 -0.93960129209E-01  0.22128206942E+00  0.14088865548E+01  0.14292500990E+01  0.51100000000E-03 0. -1.
    9000002    1    1    2    0    0  0.24928479112E+00 -0.58321048347E+00  0.28281548884E+00  0.11670929594E+01  0.93800000000E+00 0.  1.
         22    1    1    2    0    0 -0.15532466191E+00  0.36192841406E+00  0.23082979238E+01  0.23416569416E+01  0.00000000000E+00 0. -1.
</event>
<event>
 5    1  0.6076093E+001  0.1599635E+01  0.7818608E-02  0.3353759E+00
         11   -1    0    0    0    0  0.00000000000E+00  0.00000000000E+00  0.39999999674E+01  0.40000000000E+01  0.51100000000E-03 0.  1.
    9000002   -1    0    0    0    0 -0.00000000000E+00 -0.00000000000E+00  0.00000000000E+00  0.93800000000E+00  0.93800000000E+00 0. -1.
         11    1    1    2    0    0  0.96696208868E-02  0.73881647824E-02  0.12616465488E+00  0.12675120437E+00  0.51100000000E-03 0.  1.
    9000002    1    1    2    0    0 -0.24512683090E+00 -0.29230311049E+00  0.97969000774E-01  0.10173348499E+01  0.93800000000E+00 0. -1.
         22    1    1    2    0    0  0.23545721001E+00  0.28491494571E+00  0.37758663117E+01  0.37939139458E+01  0.00000000000E+00 0.  1.
</event>
<event>
 5    1  0.6076093E+001  0.1599518E+01  0.7818608E-02  0.3353886E+00
         11   -1    0    0    0    0  0.00000000000E+00  0.00000000000E+00  0.39999999674E+01  0.40000000000E+01  0.51100000000E-03 0.  1.
    9000002   -1    0    0    0    0 -0.00000000000E+00 -0.00000000000E+00  0.00000000000E+00  0.93800000000E+00  0.93800000000E+00 0.  1.
         11    1    1    2    0    0 -0.74924013579E-01 -0.26474798898E-01  0.79882724802E+00  0.80277005181E+00  0.51100000000E-03 0.  1.
    9000002    1    1    2    0    0  0.35538394807E+00  0.70864437426E-01  0.88302646161E-01  0.10094359199E+01  0.93800000000E+00 0.  1.
         22    1    1    2    0    0 -0.28045993449E+00 -0.44389638528E-01  0.31128700732E+01  0.31257940283E+01  0.00000000000E+00 0.  1.
</event>
<event>
 5    1  0.6076093E+001  0.1599542E+01  0.7818608E-02  0.3353860E+00
         11   -1    0    0    0    0  0.00000000000E+00  0.00000000000E+00  0.39999999674E+01  0.40000000000E+01  0.51100000000E-03 0. -1.
    9000002   -1    0    0    0    0 -0.00000000000E+00 -0.00000000000E+00  0.00000000000E+00  0.93800000000E+00  0.93800000000E+00 0. -1.
         11    1    1    2    0    0 -0.11269600752E+00  0.63391287590E-01  0.10490697520E+01  0.10570082550E+01  0.51100000000E-03 0. -1.
    9000002    1    1    2    0    0  0.38895984212E+00 -0.27106870491E+00  0.15333883195E+00  0.10621321947E+01  0.93800000000E+00 0. -1.
         22    1    1    2    0    0 -0.27626383460E+00  0.20767741732E+00  0.27975913834E+01  0.28188595503E+01  0.00000000000E+00 0. -1.
</event>
<event>
 5    1  0.6076093E+001  0.1595554E+01  0.7818608E-02  0.3358203E+00
         11   -1    0    0    0    0  0.00000000000E+00  0.00000000000E+00  0.39999999674E+01  0.40000000000E+01  0.51100000000E-03 0.  1.
    9000002   -1    0    0    0    0 -0.00000000000E+00 -0.00000000000E+00  0.00000000000E+00  0.93800000000E+00  0.93800000000E+00 0.  1.
         11    1    1    2    0    0 -0.21695503246E-01  0.46992005903E-01  0.89666510343E+00  0.89815784376E+00  0.51100000000E-03 0.  1.
    9000002    1    1    2    0    0  0.37275241172E+00 -0.15654630820E+00  0.11376061753E+00  0.10277337132E+01  0.93800000000E+00 0.  1.
         22    1    1    2    0    0 -0.35105690848E+00  0.10955430230E+00  0.29895742464E+01  0.30121084431E+01  0.00000000000E+00 0.  1.
</event>
<event>
 5    1  0.6076093E+001  0.1599673E+01  0.7818608E-02  0.3353718E+00
         11   -1    0    0    0    0  0.00000000000E+00  0.00000000000E+00  0.39999999674E+01  0.40000000000E+01  0.51100000000E-03 0.  1.
    9000002   -1    0    0    0    0 -0.00000000000E+00 -0.00000000000E+00  0.00000000000E+00  0.93800000000E+00  0.93800000000E+00 0.  1.
         11    1    1    2    0    0  0.40739046724E-01 -0.39561640948E-01  0.56385720970E+00  0.56670980882E+00  0.51100000000E-03 0.  1.
    9000002    1    1    2    0    0 -0.29164389490E+00  0.26965163978E+00  0.10638275069E+00  0.10241725723E+01  0.93800000000E+00 0.  1.
         22    1    1    2    0    0  0.25090484817E+00 -0.23008999884E+00  0.33297600070E+01  0.33471176189E+01  0.00000000000E+00 0.  1.
</event>
<event>
 5    1  0.6076093E+001  0.1599668E+01  0.7818608E-02  0.3353724E+00
         11   -1    0    0    0    0  0.00000000000E+00  0.00000000000E+00  0.39999999674E+01  0.40000000000E+01  0.51100000000E-03 0.  1.
    9000002   -1    0    0    0    0 -0.00000000000E+00 -0.00000000000E+00  0.00000000000E+00  0.93800000000E+00  0.93800000000E+00 0. -1.
         11    1    1    2    0    0  0.12067514893E+00 -0.13382409349E-01  0.13510858087E+01  0.13565303919E+01  0.51100000000E-03 0.  1.
    9000002    1    1    2    0    0 -0.35435196624E+00  0.29715451525E-01  0.84845354541E-01  0.10067229302E+01  0.93800000000E+00 0. -1.
         22    1    1    2    0    0  0.23367681731E+00 -0.16333042177E-01  0.25640688041E+01  0.25747466779E+01  0.00000000000E+00 0. -1.
</event>
<event>
 5    1  0.6076093E+001  0.1456412E+01  0.7818608E-02  0.3525651E+00
         11   -1    0    0    0    0  0.00000000000E+00  0.00000000000E+00  0.39999999674E+01  0.40000000000E+01  0.51100000000E-03 0.  1.
    9000002   -1    0    0    0    0 -0.00000000000E+00 -0.00000000000E+00  0.00000000000E+00  0.93800000000E+00  0.93800000000E+00 0.  1.
         11    1    1    2    0    0  0.11581523660E+00  0.82087006136E-01  0.46479222989E-01  0.14937210213E+00  0.51100000000E-03 0.  1.
    9000002    1    1    2    0    0 -0.17509995979E+00  0.34040858438E+00  0.22759403795E+00  0.10383549713E+01  0.93800000000E+00 0.  1.
         22    1    1    2    0    0  0.59284723197E-01 -0.42249559051E+00  0.37259267064E+01  0.37502729266E+01  0.00000000000E+00 0.  1.
</event>
<event>
 5    1  0.6076093E+001  0.1565866E+01  0.7818608E-02  0.3391265E+00
         11   -1    0    0    0    0  0.00000000000E+00  0.00000000000E+00  0.39999999674E+01  0.40000000000E+01  0.51100000000E-03 0. -1.
    9000002   -1    0    0    0    0 -0.00000000000E+00 -0.00000000000E+00  0.00000000000E+00  0.93800000000E+00  0.93800000000E+00 0.  1.
         11    1    1    2    0    0 -0.13295513443E+00 -0.19552457935E+00  0.10224767729E+01  0.10494598331E+01  0.51100000000E-03 0. -1.
    9000002    1    1    2    0    0  0.39857263320E+00  0.64364177867E-02  0.13582627894E+00  0.10281995669E+01  0.93800000000E+00 0.  1.
         22    1    1    2    0    0 -0.26561749877E+00  0.18908816157E+00  0.28416969155E+01  0.28603406000E+01  0.00000000000E+00 0. -1.
</event>
<event>
 5    1  0.6076093E+001  0.1598199E+01  0.7818608E-02  0.3355321E+00
         11   -1    0    0    0    0  0.00000000000E+00  0.00000000000E+00  0.39999999674E+01  0.40000000000E+01  0.51100000000E-03 0. -1.
    9000002   -1    0    0    0    0 -0.00000000000E+00 -0.00000000000E+00  0.00000000000E+00  0.93800000000E+00  0.93800000000E+00 0.  1.
         11    1    1    2    0    0  0.27469238358E-01 -0.54715374318E-01  0.10287287460E+01  0.10305490892E+01  0.51100000000E-03 0. -1.
    9000002    1    1    2    0    0 -0.35224447154E-01  0.34732364913E+00  0.82900577523E-01  0.10042863061E+01  0.93800000000E+00 0.  1.
         22    1    1    2    0    0  0.77552087957E-02 -0.29260827481E+00  0.28883706438E+01  0.29031646047E+01  0.00000000000E+00 0.  1.
</event>
<event>
 5    1  0.6076093E+001  0.1554065E+01  0.7818608E-02  0.3404781E+00
         11   -1    0    0    0    0  0.00000000000E+00  0.00000000000E+00  0.39999999674E+01  0.40000000000E+01  0.51100000000E-03 0.  1.
    9000002   -1    0    0    0    0 -0.00000000000E+00 -0.00000000000E+00  0.00000000000E+00  0.93800000000E+00  0.93800000000E+00 0. -1.
         11    1    1    2    0    0  0.15360518487E+00 -0.13341683967E+00  0.83085059758E+00  0.85539907794E+00  0.51100000000E-03 0.  1.
    9000002    1    1    2    0    0  0.24581700566E+00  0.39588114694E+00  0.18890061328E+00  0.10642722041E+01  0.93800000000E+00 0. -1.
         22    1    1    2    0    0 -0.39942219053E+00 -0.26246430727E+00  0.29802487565E+01  0.30183287179E+01  0.00000000000E+00 0.  1.
</event>
<event>
 5    1  0.6076093E+001  0.1599677E+01  0.7818608E-02  0.3353714E+00
         11   -1    0    0    0    0  0.00000000000E+00  0.00000000000E+00  0.39999999674E+01  0.40000000000E+01  0.51100000000E-03 0. -1.
    9000002   -1    0    0    0    0 -0.00000000000E+00 -0.00000000000E+00  0.00000000000E+00  0.93800000000E+00  0.93800000000E+00 0.  1.
         11    1    1    2    0    0 -0.36013834322E-01 -0.92392322353E-01  0.10606977287E+01  0.10653230826E+01  0.51100000000E-03 0.  1.
    9000002    1    1    2    0    0  0.13234701341E+00  0.34246885498E+00  0.90561329457E-01  0.10113584938E+01  0.93800000000E+00 0.  1.
         22    1    1    2    0    0 -0.96333179090E-01 -0.25007653263E+00  0.28487409092E+01  0.28613184236E+01  0.00000000000E+00 0. -1.
</event>
<event>
 5    1  0.6076093E+001  0.1598237E+01  0.7818608E-02  0.3355279E+00
         11   -1    0    0    0    0  0.00000000000E+00  0.00000000000E+00  0.39999999674E+01  0.40000000000E+01  0.51100000000E-03 0.  1.
    9000002   -1    0    0    0    0 -0.00000000000E+00 -0.00000000000E+00  0.00000000000E+00  0.93800000000E+00  0.93800000000E+00 0.  1.
         11    1    1    2    0    0 -0.27720656218E-01 -0.73063503188E-01  0.64384848832E+00  0.64857370230E+00  0.51100000000E-03 0.  1.
    9000002    1    1    2    0    0  0.36052639479E+00  0.46180000302E+00  0.24017708976E+00  0.11317100152E+01  0.93800000000E+00 0.  1.
         22    1    1    2    0    0 -0.33280573857E+00 -0.38873649983E+00  0.31159743893E+01  0.31577162825E+01  0.00000000000E+00 0.  1.
</event>
<event>
 5    1  0.6076093E+001  0.1580916E+01  0.7818608E-02  0.3374341E+00
         11   -1    0    0    0    0  0.00000000000E+00  0.00000000000E+00  0.39999999674E+01  0.40000000000E+01  0.51100000000E-03 0. -1.
    9000002   -1    0    0    0    0 -0.00000000000E+00 -0.00000000000E+00  0.00000000000E+00  0.93800000000E+00  0.93800000000E+00 0.  1.
         11    1    1    2    0    0 -0.85076578263E-01 -0.25707671753E+00  0.82323867711E+00  0.86663062690E+00  0.51100000000E-03 0. -1.
    9000002    1    1    2    0    0  0.19638043059E+00  0.56082682562E+00  0.26482706971E+00  0.11415206431E+01  0.93800000000E+00 0.  1.
         22    1    1    2    0    0 -0.11130385233E+00 -0.30375010809E+00  0.29119342205E+01  0.29298487300E+01  0.00000000000E+00 0. -1.
</event>
<event>
 5    1  0.6076093E+001  0.1593562E+01  0.7818608E-02  0.3360381E+00
         11   -1    0    0    0    0  0.00000000000E+00  0.00000000000E+00  0.39999999674E+01  0.40000000000E+01  0.51100000000E-03 0.  1.
    9000002   -1    0    0    0    0 -0.00000000000E+00 -0.00000000000E+00  0.00000000000E+00  0.93800000000E+00  0.93800000000E+00 0.  1.
         11    1    1    2    0    0  0.20563133220E-01 -0.61222213534E-01  0.97883664937E+00  0.98096506010E+00  0.51100000000E-03 0.  1.
    9000002    1    1    2    0    0  0.24344593571E+00  0.22524952410E+00  0.78500322207E-01  0.99800279173E+00  0.93800000000E+00 0.  1.
         22    1    1    2    0    0 -0.26400906893E+00 -0.16402731057E+00  0.29426629958E+01  0.29590321482E+01  0.00000000000E+00 0.  1.
</event>
<event>
 5    1  0.6076093E+001  0.1499323E+01  0.7818608E-02  0.3470449E+00
         11   -1    0    0    0    0  0.00000000000E+00  0.00000000000E+00  0.39999999674E+01  0.40000000000E+01  0.51100000000E-03 0.  1.
    9000002   -1    0    0    0    0 -0.00000000000E+00 -0.00000000000E+00  0.00000000000E+00  0.93800000000E+00  0.93800000000E+00 0.  1.
         11    1    1    2    0    0  0.13753655841E+00  0.86034645269E-01  0.19336346928E+00  0.25240435309E+00  0.51100000000E-03 0.  1.
    9000002    1    1    2    0    0  0.32872341660E+00 -0.45278899504E-01  0.15844169352E+00  0.10075003889E+01  0.93800000000E+00 0.  1.
         22    1    1    2    0    0 -0.46625997500E+00 -0.40755745765E-01  0.36481948046E+01  0.36780952580E+01  0.00000000000E+00 0.  1.
</event>
<event>
 5    1  0.6076093E+001  0.1599677E+01  0.7818608E-02  0.3353714E+00
         11   -1    0    0    0    0  0.00000000000E+00  0.00000000000E+00  0.39999999674E+01  0.40000000000E+01  0.51100000000E-03 0. -1.
    9000002   -1    0    0    0    0 -0.00000000000E+00 -0.00000000000E+00  0.00000000000E+00  0.93800000000E+00  0.93800000000E+00 0. -1.
         11    1    1    2    0    0  0.41302036155E-01 -0.10627458503E+00  0.10358405235E+01  0.10420969230E+01  0.51100000000E-03 0.  1.
    9000002    1    1    2    0    0 -0.15367522073E+00  0.39758187975E+00  0.12298136249E+00  0.10376202774E+01  0.93800000000E+00 0. -1.
         22    1    1    2    0    0  0.11237318458E+00 -0.29130729472E+00  0.28411780813E+01  0.28582827996E+01  0.00000000000E+00 0. -1.
</event>
<event>
 5    1  0.6076093E+001  0.1599633E+01  0.7818608E-02  0.3353762E+00
         11   -1    0    0    0    0  0.00000000000E+00  0.00000000000E+00  0.39999999674E+01  0.40000000000E+01  0.51100000000E-03 0.  1.
    9000002   -1    0    0    0    0 -0.00000000000E+00 -0.00000000000E+00  0.00000000000E+00  0.93800000000E+00  0.93800000000E+00 0. -1.
         11    1    1    2    0    0  0.86581057471E-01 -0.80403247892E-01  0.13663226760E+01  0.13714222100E+01  0.51100000000E-03 0.  1.
    9000002    1    1    2    0    0 -0.25855388013E+00  0.24952888202E+00  0.86699120930E-01  0.10082041011E+01  0.93800000000E+00 0. -1.
         22    1    1    2    0    0  0.17197282266E+00 -0.16912563413E+00  0.25469781704E+01  0.25583736890E+01  0.00000000000E+00 0.  1.
</event>
<event>
 5    1  0.6076093E+001  0.1583846E+01  0.7818608E-02  0.3371085E+00
         11   -1    0    0    0    0  0.00000000000E+00  0.00000000000E+00  0.39999999674E+01  0.40000000000E+01  0.51100000000E-03 0. -1.
    9000002   -1    0    0    0    0 -0.00000000000E+00 -0.00000000000E+00  0.00000000000E+00  0.93800000000E+00  0.93800000000E+00 0. -1.
         11    1    1    2    0    0  0.63241101471E-01 -0.39311898247E-01  0.12058929805E+01  0.12081899700E+01  0.51100000000E-03 0. -1.
    9000002    1    1    2    0    0  0.20718993523E+00  0.31533071934E+00  0.10884119028E+00  0.10168832463E+01  0.93800000000E+00 0. -1.
         22    1    1    2    0    0 -0.27043103670E+00 -0.27601882109E+00  0.26852657966E+01  0.27129267837E+01  0.00000000000E+00 0. -1.
</event>
<event>
 5    1  0.6076093E+001  0.1584964E+01  0.7818608E-02  0.3369847E+00
         11   -1    0    0    0    0  0.00000000000E+00  0.00000000000E+00  0.39999999674E+01  0.40000000000E+01  0.51100000000E-03 0.  1.
    9000002   -1    0    0    0    0 -0.00000000000E+00 -0.00000000000E+00  0.00000000000E+00  0.93800000000E+00  0.93800000000E+00 0. -1.
         11    1    1    2    0    0 -0.38377839211E-01  0.55039339941E-01  0.47335467220E+00  0.47808691082E+00  0.51100000000E-03 0.  1.
    9000002    1    1    2    0    0  0.38999784746E-01  0.28070247507E+00  0.65006754923E-01  0.98203092665E+00  0.93800000000E+00 0. -1.
         22    1    1    2    0    0 -0.62194553438E-03 -0.33574181501E+00  0.34616385402E+01  0.34778821625E+01  0.00000000000E+00 0.  1.
</event>
<event>
 5    1  0.6076093E+001  0.1599674E+01  0.7818608E-02  0.3353717E+00
         11   -1    0    0    0    0  0.00000000000E+00  0.00000000000E+00  0.39999999674E+01  0.40000000000E+01  0.51100000000E-03 0. -1.
    9000002   -1    0    0    0    0 -0.00000000000E+00 -0.00000000000E+00  0.00000000000E+00  0.93800000000E+00  0.93800000000E+00 0.  1.
         11    1    1    2    0    0 -0.12203388168E+00 -0.26692947163E-01  0.11315871848E+01  0.11384615056E+01  0.51100000000E-03 0. -1.
    9000002    1    1    2    0    0  0.42268705656E+00  0.95588243433E-01  0.12724869817E+00  0.10410752572E+01  0.93800000000E+00 0.  1.
         22    1    1    2    0    0 -0.30065317488E+00 -0.68895296270E-01  0.27411640844E+01  0.27584632372E+01  0.00000000000E+00 0. -1.
</event>
<event>
 5    1  0.6076093E+001  0.1590832E+01  0.7818608E-02  0.3363375E+00
         11   -1    0    0    0    0  0.00000000000E+00  0.00000000000E+00  0.39999999674E+01  0.40000000000E+01  0.51100000000E-03 0. -1.
    9000002   -1    0    0    0    0 -0.00000000000E+00 -0.00000000000E+00  0.00000000000E+00  0.93800000000E+00  0.93800000000E+00 0.  1.
         11    1    1    2    0    0  0.11475427912E-01 -0.14583718252E-01  0.10560585353E+01  0.10562216914E+01  0.51100000000E-03 0. -1.
    9000002    1    1    2    0    0 -0.22641407720E+00  0.37436183547E+00  0.13737187090E+00  0.10440905847E+01  0.93800000000E+00 0.  1.
         22    1    1    2    0    0  0.21493864928E+00 -0.35977811721E+00  0.28065695612E+01  0.28376877239E+01  0.00000000000E+00 0. -1.
</event>
<event>
 5    1  0.6076093E+001  0.1579610E+01  0.7818608E-02  0.3375795E+00
         11   -1    0    0    0    0  0.00000000000E+00  0.00000000000E+00  0.39999999674E+01  0.40000000000E+01  0.51100000000E-03 0. -1.
    9000002   -1    0    0    0    0 -0.00000000000E+00 -0.00000000000E+00  0.00000000000E+00  0.93800000000E+00  0.93800000000E+00 0. -1.
         11    1    1    2    0    0 -0.30706441556E+00 -0.19473407848E+00  0.12916096098E+01  0.13418142799E+01  0.51100000000E-03 0. -1.
    9000002    1    1    2    0    0  0.63358413088E+00  0.15260955499E+00  0.32130953327E+00  0.11865084675E+01  0.93800000000E+00 0. -1.
         22    1    1    2    0    0 -0.32651971532E+00  0.42124523494E-01  0.23870808243E+01  0.24096772526E+01  0.00000000000E+00 0. -1.
</event>
<event>
 5    1  0.6076093E+001  0.1599599E+01  0.7818608E-02  0.3353799E+00
         11   -1    0    0    0    0  0.00000000000E+00  0.00000000000E+00  0.39999999674E+01  0.40000000000E+01  0.51100000000E-03 0. -1.
    9000002   -1    0    0    0    0 -0.00000000000E+00 -0.00000000000E+00  0.00000000000E+00  0.93800000000E+00  0.93800000000E+00 0. -1.
         11    1    1    2    0    0  0.26661782885E-01  0.21500328912E-01  0.43991258791E+00  0.44124421915E+00  0.51100000000E-03 0. -1.
    9000002    1    1    2    0    0 -0.27637621327E+00 -0.23614461049E+00  0.88804989712E-01  0.10098902983E+01  0.93800000000E+00 0. -1.
         22    1    1    2    0    0  0.24971443039E+00  0.21464428158E+00  0.34712823897E+01  0.34868654826E+01  0.00000000000E+00 0. -1.
</event>
<event>
 5    1  0.6076093E+001  0.1571394E+01  0.7818608E-02  0.3385009E+00
         11   -1    0    0    0    0  0.00000000000E+00  0.00000000000E+00  0.39999999674E+01  0.40000000000E+01  0.51100000000E-03 0. -1.
    9000002   -1    0    0    0    0 -0.00000000000E+00 -0.00000000000E+00  0.00000000000E+00  0.93800000000E+00  0.93800000000E+00 0. -1.
         11    1    1    2    0    0 -0.13361451905E+00 -0.12173803532E+00  0.11316781242E+01  0.11460229608E+01  0.51100000000E-03 0. -1.
    9000002    1    1    2    0    0 -0.15082605828E+00  0.25631465373E+00  0.81434410638E-01  0.98738101299E+00  0.93800000000E+00 0. -1.
         22    1    1    2    0    0  0.28444057733E+00 -0.13457661842E+00  0.27868874326E+01  0.28045960262E+01  0.00000000000E+00 0. -1.
</event>
<event>
 5    1  0.6076093E+001  0.1488141E+01  0.7818608E-02  0.3484502E+00
         11   -1    0    0    0    0  0.00000000000E+00  0.00000000000E+00  0.39999999674E+01  0.40000000000E+01  0.51100000000E-03 0. -1.
    9000002   -1    0    0    0    0 -0.00000000000E+00 -0.00000000000E+00  0.00000000000E+00  0.93800000000E+00  0.93800000000E+00 0. -1.
         11    1    1    2    0    0  0.88875485565E-01 -0.15902701598E+00  0.15320298502E+00  0.23803331591E+00  0.51100000000E-03 0. -1.
    9000002    1    1    2    0    0 -0.47343764401E+00 -0.13168877106E+00  0.27266509687E+00  0.10934694281E+01  0.93800000000E+00 0. -1.
         22    1    1    2    0    0  0.38456215844E+00  0.29071578704E+00  0.35741318855E+01  0.36064972560E+01  0.00000000000E+00 0. -1.
</event>
<event>
 5    1  0.6076093E+001  0.1596425E+01  0.7818608E-02  0.3357252E+00
         11   -1    0    0    0    0  0.00000000000E+00  0.00000000000E+00  0.39999999674E+01  0.40000000000E+01  0.51100000000E-03 0.  1.
    9000002   -1    0    0    0    0 -0.00000000000E+00 -0.00000000000E+00  0.00000000000E+00  0.93800000000E+00  0.93800000000E+00 0.  1.
         11    1    1    2    0    0 -0.58981223264E-02  0.19022620038E-01  0.45282101399E+00  0.45325906472E+00  0.51100000000E-03 0.  1.
    9000002    1    1    2    0    0 -0.32240144826E+00 -0.94565593286E-01  0.78177336927E-01  0.99942035264E+00  0.93800000000E+00 0.  1.
         22    1    1    2    0    0  0.32829957058E+00  0.75542973248E-01  0.34690016164E+01  0.34853205826E+01  0.00000000000E+00 0.  1.
</event>
<event>
 5    1  0.6076093E+001  0.1598415E+01  0.7818608E-02  0.3355086E+00
         11   -1    0    0    0    0  0.00000000000E+00  0.00000000000E+00  0.39999999674E+01  0.40000000000E+01  0.51100000000E-03 0. -1.
    9000002   -1    0    0    0    0 -0.00000000000E+00 -0.00000000000E+00  0.00000000000E+00  0.93800000000E+00  0.93800000000E+00 0.  1.
         11    1    1    2    0    0 -0.13644091018E+00  0.21853989952E+00  0.13227663324E+01  0.13476226627E+01  0.51100000000E-03 0. -1.
    9000002    1    1    2    0    0  0.38501716102E+00 -0.49841387271E+00  0.27987515827E+00  0.11639710937E+01  0.93800000000E+00 0.  1.
         22    1    1    2    0    0 -0.24857625084E+00  0.27987397319E+00  0.23973584766E+01  0.24264062436E+01  0.00000000000E+00 0. -1.
</event>
<event>
 5    1  0.6076093E+001  0.1589292E+01  0.7818608E-02  0.3365068E+00
         11   -1    0    0    0    0  0.00000000000E+00  0.00000000000E+00  0.39999999674E+01  0.40000000000E+01  0.51100000000E-03 0. -1.
    9000002   -1    0    0    0    0 -0.00000000000E+00 -0.00000000000E+00  0.00000000000E+00  0.93800000000E+00  0.93800000000E+00 0.  1.
         11    1    1    2    0    0  0.26165744811E-01 -0.11935583517E-01  0.55474510466E+00  0.55549032091E+00  0.51100000000E-03 0. -1.
    9000002    1    1    2    0    0  0.34161419999E+00  0.36986225721E+00  0.18307937738E+00  0.10802131315E+01  0.93800000000E+00 0.  1.
         22    1    1    2    0    0 -0.36777994480E+00 -0.35792667369E+00  0.32621754853E+01  0.33022965476E+01  0.00000000000E+00 0. -1.
</event>
<event>
 5    1  0.6076093E+001  0.1599649E+01  0.7818608E-02  0.3353744E+00
         11   -1    0    0    0    0  0.00000000000E+00  0.00000000000E+00  0.39999999674E+01  0.40000000000E+01  0.51100000000E-03 0. -1.
    9000002   -1    0    0    0    0 -0.00000000000E+00 -0.00000000000E+00  0.00000000000E+00  0.93800000000E+00  0.93800000000E+00 0. -1.
         11    1    1    2    0    0  0.48533130495E-01 -0.89997833304E-01  0.86408736952E+00  0.87011626697E+00  0.51100000000E-03 0. -1.
    9000002    1    1    2    0    0 -0.23847836139E+00  0.39279702016E+00  0.14364589108E+00  0.10543431936E+01  0.93800000000E+00 0. -1.
         22    1    1    2    0    0  0.18994523089E+00 -0.30279918686E+00  0.29922667068E+01  0.30135405394E+01  0.00000000000E+00 0. -1.
</event>
<event>
 5    1  0.6076093E+001  0.1599673E+01  0.7818608E-02  0.3353718E+00
         11   -1    0    0    0    0  0.00000000000E+00  0.00000000000E+00  0.39999999674E+01  0.40000000000E+01  0.51100000000E-03 0.  1.
    9000002   -1    0    0    0    0 -0.00000000000E+00 -0.00000000000E+00  0.00000000000E+00  0.93800000000E+00  0.93800000000E+00 0.  1.
         11    1    1    2    0    0 -0.62628271843E-01  0.11895515650E+00  0.99214279482E+00  0.10012093768E+01  0.51100000000E-03 0.  1.
    9000002    1    1    2    0    0  0.24561927319E+00 -0.46291894767E+00  0.18878186047E+00  0.10909195068E+01  0.93800000000E+00 0.  1.
         22    1    1    2    0    0 -0.18299100135E+00  0.34396379117E+00  0.28190753121E+01  0.28458711164E+01  0.00000000000E+00 0.  1.
</event>
<event>
 5    1  0.6076093E+001  0.1598884E+01  0.7818608E-02  0.3354575E+00
         11   -1    0    0    0    0  0.00000000000E+00  0.00000000000E+00  0.39999999674E+01  0.40000000000E+01  0.51100000000E-03 0. -1.
    9000002   -1    0    0    0    0 -0.00000000000E+00 -0.00000000000E+00  0.00000000000E+00  0.93800000000E+00  0.93800000000E+00 0. -1.
         11    1    1    2    0    0 -0.24666770899E-01 -0.97202840676E-01  0.47233858711E+00  0.48286731492E+00  0.51100000000E-03 0. -1.
    9000002    1    1    2    0    0  0.15370460003E-01  0.72373703819E+00  0.37791273505E+00  0.12436613634E+01  0.93800000000E+00 0. -1.
         22    1    1    2    0    0  0.92963108967E-02 -0.62653419752E+00  0.31497486452E+01  0.32114713217E+01  0.00000000000E+00 0. -1.
</event>
<event>
 5    1  0.6076093E+001  0.1589089E+01  0.7818608E-02  0.3365291E+00
         11   -1    0    0    0    0  0.00000000000E+00  0.00000000000E+00  0.39999999674E+01  0.40000000000E+01  0.51100000000E-03 0. -1.
    9000002   -1    0    0    0    0 -0.00000000000E+00 -0.00000000000E+00  0.00000000000E+00  0.93800000000E+00  0.93800000000E+00 0. -1.
         11    1    1    2    0    0 -0.32060444863E-02  0.42067812737E-01  0.60913270548E+00  0.61059224823E+00  0.51100000000E-03 0. -1.
    9000002    1    1    2    0    0 -0.15182711754E+00  0.28038679142E+00  0.76366397811E-01  0.99365187724E+00  0.93800000000E+00 0. -1.
         22    1    1    2    0    0  0.15503316203E+00 -0.32245460416E+00  0.33145008641E+01  0.33337558745E+01  0.00000000000E+00 0. -1.
</event>
<event>
 5    1  0.6076093E+001  0.1599676E+01  0.7818608E-02  0.3353715E+00
         11   -1    0    0    0    0  0.00000000000E+00  0.00000000000E+00  0.39999999674E+01  0.40000000000E+01  0.51100000000E-03 0. -1.
    9000002   -1    0    0    0    0 -0.00000000000E+00 -0.00000000000E+00  0.00000000000E+00  0.93800000000E+00  0.93800000000E+00 0.  1.
         11    1    1    2    0    0 -0.15319460048E+00  0.45533726766E-01  0.12107161065E+01  0.12212189228E+01  0.51100000000E-03 0. -1.
    9000002    1    1    2    0    0  0.48541273504E+00 -0.14637091686E+00  0.17617456788E+00  0.10807087707E+01  0.93800000000E+00 0.  1.
         22    1    1    2    0    0 -0.33221813456E+00  0.10083719009E+00  0.26131092930E+01  0.26360723065E+01  0.00000000000E+00 0. -1.
</event>
<event>
 5    1  0.6076093E+001  0.1591350E+01  0.7818608E-02  0.3362806E+00
         11   -1    0    0    0    0  0.00000000000E+00  0.00000000000E+00  0.39999999674E+01  0.40000000000E+01  0.51100000000E-03 0.  1.
    9000002   -1    0    0    0    0 -0.00000000000E+00 -0.00000000000E+00  0.00000000000E+00  0.93800000000E+00  0.93800000000E+00 0. -1.
         11    1    1    2    0    0 -0.26973463957E-02 -0.12098471269E-01  0.80685630779E+00  0.80695167837E+00  0.51100000000E-03 0.  1.
    9000002    1    1    2    0    0  0.76365159742E-01 -0.36735980079E+00  0.10151549717E+00  0.10153493276E+01  0.93800000000E+00 0. -1.
         22    1    1    2    0    0 -0.73667813347E-01  0.37945827206E+00  0.30916281624E+01  0.31156989940E+01  0.00000000000E+00 0.  1.
</event>
<event>
 5    1  0.6076093E+001  0.1597038E+01  0.7818608E-02  0.3356585E+00
         11   -1    0    0    0    0  0.00000000000E+00  0.00000000000E+00  0.39999999674E+01  0.40000000000E+01  0.51100000000E-03 0. -1.
    9000002   -1    0    0    0    0 -0.00000000000E+00 -0.00000000000E+00  0.00000000000E+00  0.93800000000E+00  0.93800000000E+00 0.  1.
         11    1    1    2    0    0  0.11294927542E+00  0.16038389832E+00  0.11493989078E+01  0.11660182864E+01  0.51100000000E-03 0. -1.
    9000002    1    1    2    0    0 -0.20909095485E+00 -0.44479278264E+00  0.16749038263E+00  0.10721271730E+01  0.93800000000E+00 0.  1.
         22    1    1    2    0    0  0.96141679427E-01  0.28440888432E+00  0.26831106769E+01  0.26998545406E+01  0.00000000000E+00 0. -1.
</event>
<event>
 5    1  0.6076093E+001  0.1599493E+01  0.7818608E-02  0.3353914E+00
         11   -1    0    0    0    0  0.00000000000E+00  0.00000000000E+00  0.39999999674E+01  0.40000000000E+01  0.51100000000E-03 0.  1.
    9000002   -1    0    0    0    0 -0.00000000000E+00 -0.00000000000E+00  0.00000000000E+00  0.93800000000E+00  0.93800000000E+00 0. -1.
         11    1    1    2    0    0  0.12805827330E-01  0.90823766087E-01  0.63950539959E+00  0.64604981459E+00  0.51100000000E-03 0.  1.
    9000002    1    1    2    0    0 -0.84559927942E-01 -0.47245473212E+00  0.15734374114E+00  0.10653473181E+01  0.93800000000E+00 0. -1.
         22    1    1    2    0    0  0.71754100611E-01  0.38163096603E+00  0.32031508266E+01  0.32266028673E+01  0.00000000000E+00 0.  1.
</event>
<event>
 5    1  0.6076093E+001  0.1598855E+01  0.7818608E-02  0.3354607E+00
         11   -1    0    0    0    0  0.00000000000E+00  0.00000000000E+00  0.39999999674E+01  0.40000000000E+01  0.51100000000E-03 0. -1.
    9000002   -1    0    0    0    0 -0.00000000000E+00 -0.00000000000E+00  0.00000000000E+00  0.93800000000E+00  0.93800000000E+00 0. -1.
         11    1    1    2    0    0 -0.15901750185E+00 -0.54422361561E-01  0.11595325454E+01  0.11716502653E+01  0.51100000000E-03 0. -1.
    9000002    1    1    2    0    0  0.46743480341E+00  0.26757247489E+00  0.20070603851E+00  0.11000987404E+01  0.93800000000E+00 0. -1.
         22    1    1    2    0    0 -0.30841730157E+00 -0.21315011333E+00  0.26397613835E+01  0.26662509943E+01  0.00000000000E+00 0. -1.
</event>
<event>
 5    1  0.6076093E+001  0.1599509E+01  0.7818608E-02  0.3353897E+00
         11   -1    0    0    0    0  0.00000000000E+00  0.00000000000E+00  0.39999999674E+01  0.40000000000E+01  0.51100000000E-03 0.  1.
    9000002   -1    0    0    0    0 -0.00000000000E+00 -0.00000000000E+00  0.00000000000E+00  0.93800000000E+00  0.93800000000E+00 0.  1.
         11    1    1    2    0    0 -0.10599808789E-01 -0.55605463244E-01  0.65351822362E+00  0.65596543599E+00  0.51100000000E-03 0.  1.
    9000002    1    1    2    0    0  0.13293992481E+00  0.33814272537E+00  0.88786156657E-01  0.10098220180E+01  0.93800000000E+00 0.  1.
         22    1    1    2    0    0 -0.12234011602E+00 -0.28253726213E+00  0.32576955871E+01  0.32722125461E+01  0.00000000000E+00 0.  1.
</event>
<event>
 5    1  0.6076093E+001  0.1555247E+01  0.7818608E-02  0.3403416E+00
         11   -1    0    0    0    0  0.00000000000E+00  0.00000000000E+00  0.39999999674E+01  0.40000000000E+01  0.51100000000E-03 0.  1.
    9000002   -1    0    0    0    0 -0.00000000000E+00 -0.00000000000E+00  0.00000000000E+00  0.93800000000E+00  0.93800000000E+00 0. -1.
         11    1    1    2    0    0 -0.95593328448E-01 -0.30445732816E-01  0.28810305486E+00  0.30507156280E+00  0.51100000000E-03 0.  1.
    9000002    1    1    2    0    0 -0.34682773923E+00 -0.36021115954E+00  0.21235528628E+00  0.10839650953E+01  0.93800000000E+00 0. -1.
         22    1    1    2    0    0  0.44242106768E+00  0.39065689236E+00  0.34995416262E+01  0.35489633419E+01  0.00000000000E+00 0.  1.
</event>
<event>
 5    1  0.6076093E+001  0.1599666E+01  0.7818608E-02  0.3353726E+00
         11   -1    0    0    0    0  0.00000000000E+00  0.00000000000E+00  0.39999999674E+01  0.40000000000E+01  0.51100000000E-03 0. -1.
    9000002   -1    0    0    0    0 -0.00000000000E+00 -0.00000000000E+00  0.00000000000E+00  0.93800000000E+00  0.93800000000E+00 0.  1.
         11    1    1    2    0    0  0.72277643179E-01 -0.13890309984E+00  0.11267440408E+01  0.11375722058E+01  0.51100000000E-03 0. -1.
    9000002    1    1    2    0    0 -0.24348774334E+00  0.45819911952E+00  0.18491366550E+00  0.10877820453E+01  0.93800000000E+00 0.  1.
         22    1    1    2    0    0  0.17121010016E+00 -0.31929601968E+00  0.26883422611E+01  0.27126457490E+01  0.00000000000E+00 0. -1.
</event>
<event>
 5    1  0.6076093E+001  0.1497092E+01  0.7818608E-02  0.3473235E+00
         11   -1    0    0    0    0  0.00000000000E+00  0.00000000000E+00  0.39999999674E+01  0.40000000000E+01  0.51100000000E-03 0.  1.
    9000002   -1    0    0    0    0 -0.00000000000E+00 -0.00000000000E+00  0.00000000000E+00  0.93800000000E+00  0.93800000000E+00 0. -1.
         11    1    1    2    0    0  0.17758513581E-01 -0.21606913034E+00  0.35957623406E+00  0.41987684279E+00  0.51100000000E-03 0.  1.
    9000002    1    1    2    0    0  0.18128857241E+00 -0.11647446490E+00  0.11251120191E+00  0.96898638691E+00  0.93800000000E+00 0. -1.
         22    1    1    2    0    0 -0.19904708599E+00  0.33254359524E+00  0.35279125314E+01  0.35491367703E+01  0.00000000000E+00 0.  1.
</event>
<event>
 5    1  0.6076093E+001  0.1573937E+01  0.7818608E-02  0.3382146E+00
         11   -1    0    0    0    0  0.00000000000E+00  0.00000000000E+00  0.39999999674E+01  0.40000000000E+01  0.51100000000E-03 0. -1.
    9000002   -1    0    0    0    0 -0.00000000000E+00 -0.00000000000E+00  0.00000000000E+00  0.93800000000E+00  0.93800000000E+00 0.  1.
         11    1    1    2    0    0 -0.57198038671E-01 -0.17507594451E-02  0.11859005251E+00  0.13167589932E+00  0.51100000000E-03 0. -1.
    9000002    1    1    2    0    0 -0.31889662067E+00 -0.23969814924E+00  0.12905619037E+00  0.10274481776E+01  0.93800000000E+00 0.  1.
         22    1    1    2    0    0  0.37609465934E+00  0.24144890868E+00  0.37523537245E+01  0.37788759231E+01  0.00000000000E+00 0. -1.
</event>
<event>
 5    1  0.6076093E+001  0.1599674E+01  0.7818608E-02  0.3353717E+00
         11   -1    0    0    0    0  0.00000000000E+00  0.00000000000E+00  0.39999999674E+01  0.40000000000E+01  0.51100000000E-03 0.  1.
    9000002   -1    0    0    0    0 -0.00000000000E+00 -0.00000000000E+00  0.00000000000E+00  0.93800000000E+00  0.93800000000E+00 0. -1.
         11    1    1    2    0    0 -0.72163829685E-02 -0.85482060880E-01  0.79812620290E+00  0.80272346160E+00  0.51100000000E-03 0.  1.
    9000002    1    1    2    0    0  0.27856242164E-01  0.41268057149E+00  0.11560609884E+00  0.10316443158E+01  0.93800000000E+00 0. -1.
         22    1    1    2    0    0 -0.20639859196E-01 -0.32719851061E+00  0.30862676656E+01  0.31036322226E+01  0.00000000000E+00 0.  1.
</event>
<event>
 5    1  0.6076093E+001  0.1597648E+01  0.7818608E-02  0.3355920E+00
         11   -1    0    0    0    0  0.00000000000E+00  0.00000000000E+00  0.39999999674E+01  0.40000000000E+01  0.51100000000E-03 0. -1.
    9000002   -1    0    0    0    0 -0.00000000000E+00 -0.00000000000E+00  0.00000000000E+00  0.93800000000E+00  0.93800000000E+00 0.  1.
         11    1    1    2    0    0 -0.14046026287E-01  0.81182004737E-01  0.11477793086E+01  0.11507325541E+01  0.51100000000E-03 0. -1.
    9000002    1    1    2    0    0 -0.69224440123E-01 -0.39576939552E+00  0.11060143039E+00  0.10264025107E+01  0.93800000000E+00 0.  1.
         22    1    1    2    0    0  0.83270466410E-01  0.31458739078E+00  0.27416192284E+01  0.27608649352E+01  0.00000000000E+00 0. -1.
</event>
<event>
 5    1  0.6076093E+001  0.1599675E+01  0.7818608E-02  0.3353716E+00
         11   -1    0    0    0    0  0.00000000000E+00  0.00000000000E+00  0.39999999674E+01  0.40000000000E+01  0.51100000000E-03 0. -1.
    9000002   -1    0    0    0    0 -0.00000000000E+00 -0.00000000000E+00  0.00000000000E+00  0.93800000000E+00  0.93800000000E+00 0. -1.
         11    1    1    2    0    0 -0.77849058038E-02 -0.25092331699E-01  0.17319520272E+00  0.17517725090E+00  0.51100000000E-03 0. -1.
    9000002    1    1    2    0    0  0.16739029315E+00  0.55617392488E+00  0.23442800567E+00  0.11278960213E+01  0.93800000000E+00 0. -1.
         22    1    1    2    0    0 -0.15960538734E+00 -0.53108159318E+00  0.35923767590E+01  0.36349267278E+01  0.00000000000E+00 0. -1.
</event>
<event>
 5    1  0.6076093E+001  0.1599649E+01  0.7818608E-02  0.3353745E+00
         11   -1    0    0    0    0  0.00000000000E+00  0.00000000000E+00  0.39999999674E+01  0.40000000000E+01  0.51100000000E-03 0.  1.
    9000002   -1    0    0    0    0 -0.00000000000E+00 -0.00000000000E+00  0.00000000000E+00  0.93800000000E+00  0.93800000000E+00 0.  1.
         11    1    1    2    0    0 -0.62455373840E-01  0.88309507074E-01  0.11564677136E+01  0.11615149920E+01  0.51100000000E-03 0.  1.
    9000002    1    1    2    0    0  0.21852159493E+00 -0.31603720952E+00  0.99406696941E-01  0.10185071903E+01  0.93800000000E+00 0.  1.
         22    1    1    2    0    0 -0.15606622110E+00  0.22772770245E+00  0.27441255568E+01  0.27579778178E+01  0.00000000000E+00 0.  1.
</event>
<event>
 5    1  0.6076093E+001  0.1599426E+01  0.7818608E-02  0.3353987E+00
         11   -1    0    0    0    0  0.00000000000E+00  0.00000000000E+00  0.39999999674E+01  0.40000000000E+01  0.51100000000E-03 0. -1.
    9000002   -1    0    0    0    0 -0.00000000000E+00 -0.00000000000E+00  0.00000000000E+00  0.93800000000E+00  0.93800000000E+00 0. -1.
         11    1    1    2    0    0  0.67385764371E-01 -0.15797370897E+00  0.14661365205E+01  0.14761616077E+01  0.51100000000E-03 0. -1.
    9000002    1    1    2    0    0 -0.12967861995E+00  0.41018332171E+00  0.12555114183E+00  0.10395547081E+01  0.93800000000E+00 0. -1.
         22    1    1    2    0    0  0.62292855574E-01 -0.25220961274E+00  0.24083123050E+01  0.24222836842E+01  0.00000000000E+00 0. -1.
</event>
<event>
 5    1  0.6076093E+001  0.1599315E+01  0.7818608E-02  0.3354108E+00
         11   -1    0    0    0    0  0.00000000000E+00  0.00000000000E+00  0.39999999674E+01  0.40000000000E+01  0.51100000000E-03 0.  1.
    9000002   -1    0    0    0    0 -0.00000000000E+00 -0.00000000000E+00  0.00000000000E+00  0.93800000000E+00  0.93800000000E+00 0. -1.
         11    1    1    2    0    0 -0.15461429229E+00 -0.50811310528E-01  0.12027352086E+01  0.12136966721E+01  0.51100000000E-03 0.  1.
    9000002    1    1    2    0    0  0.43276118606E+00  0.19131974932E+00  0.15291516047E+00  0.10616555642E+01  0.93800000000E+00 0. -1.
         22    1    1    2    0    0 -0.27814689377E+00 -0.14050843879E+00  0.26443495983E+01  0.26626477638E+01  0.00000000000E+00 0.  1.
</event>
<event>
 5    1  0.6076093E+001  0.1514951E+01  0.7818608E-02  0.3451183E+00
         11   -1    0    0    0    0  0.00000000000E+00  0.00000000000E+00  0.39999999674E+01  0.40000000000E+01  0.51100000000E-03 0.  1.
    9000002   -1    0    0    0    0 -0.00000000000E+00 -0.00000000000E+00  0.00000000000E+00  0.93800000000E+00  0.93800000000E+00 0.  1.
         11    1    1    2    0    0  0.35042676708E+00 -0.13093800827E+00  0.61694003128E+00  0.72149770922E+00  0.51100000000E-03 0.  1.
    9000002    1    1    2    0    0 -0.46189225247E+00  0.45544115937E+00  0.39216168279E+00  0.12059875157E+01  0.93800000000E+00 0.  1.
         22    1    1    2    0    0  0.11146548539E+00 -0.32450315110E+00  0.29908982533E+01  0.30105147751E+01  0.00000000000E+00 0.  1.
</event>
<event>
 5    1  0.6076093E+001  0.1599656E+01  0.7818608E-02  0.3353737E+00
         11   -1    0    0    0    0  0.00000000000E+00  0.00000000000E+00  0.39999999674E+01  0.40000000000E+01  0.51100000000E-03 0.  1.
    9000002   -1    0    0    0    0 -0.00000000000E+00 -0.00000000000E+00  0.00000000000E+00  0.93800000000E+00  0.93800000000E+00 0.  1.
         11    1    1    2    0    0  0.10027297052E+00 -0.44837982019E-01  0.12361043160E+01  0.12409751224E+01  0.51100000000E-03 0.  1.
    9000002    1    1    2    0    0 -0.33357716513E+00  0.14154094848E+00  0.88182600575E-01  0.10094195046E+01  0.93800000000E+00 0.  1.
         22    1    1    2    0    0  0.23330419461E+00 -0.96702966462E-01  0.26757130507E+01  0.26876053730E+01  0.00000000000E+00 0.  1.
</event>
<event>
 5    1  0.6076093E+001  0.1598453E+01  0.7818608E-02  0.3355044E+00
         11   -1    0    0    0    0  0.00000000000E+00  0.00000000000E+00  0.39999999674E+01  0.40000000000E+01  0.51100000000E-03 0.  1.
    9000002   -1    0    0    0    0 -0.00000000000E+00 -0.00000000000E+00  0.00000000000E+00  0.93800000000E+00  0.93800000000E+00 0.  1.
         11    1    1    2    0    0 -0.15185002304E+00  0.63777162825E-01  0.10457310658E+01  0.10586215939E+01  0.51100000000E-03 0.  1.
    9000002    1    1    2    0    0  0.47322460950E+00 -0.12377808651E+00  0.16458694614E+00  0.10706051600E+01  0.93800000000E+00 0.  1.
         22    1    1    2    0    0 -0.32137458646E+00  0.60000923682E-01  0.27896819554E+01  0.28087732461E+01  0.00000000000E+00 0. -1.
</event>
<event>
 5    1  0.6076093E+001  0.1599664E+01  0.7818608E-02  0.3353728E+00
         11   -1    0    0    0    0  0.00000000000E+00  0.00000000000E+00  0.39999999674E+01  0.40000000000E+01  0.51100000000E-03 0.  1.
    9000002   -1    0    0    0    0 -0.00000000000E+00 -0.00000000000E+00  0.00000000000E+00  0.93800000000E+00  0.93800000000E+00 0. -1.
         11    1    1    2    0    0  0.10493505244E+00  0.43573253001E-01  0.95390627647E+00  0.96064948811E+00  0.51100000000E-03 0.  1.
    9000002    1    1    2    0    0 -0.41020696003E+00 -0.17637261118E+00  0.13535530590E+00  0.10476364383E+01  0.93800000000E+00 0. -1.
         22    1    1    2    0    0  0.30527190758E+00  0.13279935817E+00  0.29107383850E+01  0.29297140736E+01  0.00000000000E+00 0.  1.
</event>
<event>
 5    1  0.6076093E+001  0.1599530E+01  0.7818608E-02  0.3353874E+00
         11   -1    0    0    0    0  0.00000000000E+00  0.00000000000E+00  0.39999999674E+01  0.40000000000E+01  0.51100000000E-03 0. -1.
    9000002   -1    0    0    0    0 -0.00000000000E+00 -0.00000000000E+00  0.00000000000E+00  0.93800000000E+00  0.93800000000E+00 0.  1.
         11    1    1    2    0    0 -0.13168732731E+00 -0.40048069078E-01  0.13341170286E+01  0.13411986830E+01  0.51100000000E-03 0. -1.
    9000002    1    1    2    0    0  0.36953819289E+00  0.15450934902E+00  0.10834430965E+00  0.10256773881E+01  0.93800000000E+00 0.  1.
         22    1    1    2    0    0 -0.23785086557E+00 -0.11446127994E+00  0.25575386291E+01  0.25711239290E+01  0.00000000000E+00 0. -1.
</event>
<event>
 5    1  0.6076093E+001  0.1599677E+01  0.7818608E-02  0.3353714E+00
         11   -1    0    0    0    0  0.00000000000E+00  0.00000000000E+00  0.39999999674E+01  0.40000000000E+01  0.51100000000E-03 0. -1.
    9000002   -1    0    0    0    0 -0.00000000000E+00 -0.00000000000E+00  0.00000000000E+00  0.93800000000E+00  0.93800000000E+00 0.  1.
         11    1    1    2    0    0  0.19549646432E-01  0.54821023968E-01  0.55047467947E+00  0.55354328395E+00  0.51100000000E-03 0.  1.
    9000002    1    1    2    0    0 -0.13808205946E+00 -0.38641739508E+00  0.11373248633E+00  0.10301282138E+01  0.93800000000E+00 0.  1.
         22    1    1    2    0    0  0.11853241303E+00  0.33159637111E+00  0.33357928016E+01  0.33543285023E+01  0.00000000000E+00 0. -1.
</event>
<event>
 5    1  0.6076093E+001  0.1599666E+01  0.7818608E-02  0.3353726E+00
         11   -1    0    0    0    0  0.00000000000E+00  0.00000000000E+00  0.39999999674E+01  0.40000000000E+01  0.51100000000E-03 0. -1.
    9000002   -1    0    0    0    0 -0.00000000000E+00 -0.00000000000E+00  0.00000000000E+00  0.93800000000E+00  0.93800000000E+00 0.  1.
         11    1    1    2    0    0 -0.59933290210E-01  0.14822139030E+00  0.14477744520E+01  0.14565756777E+01  0.51100000000E-03 0. -1.
    9000002    1    1    2    0    0  0.15841669043E+00 -0.38732358427E+00  0.11841584489E+00  0.10339157214E+01  0.93800000000E+00 0.  1.
         22    1    1    2    0    0 -0.98483400216E-01  0.23910219398E+00  0.24338096705E+01  0.24475086009E+01  0.00000000000E+00 0. -1.
</event>
<event>
 5    1  0.6076093E+001  0.1599674E+01  0.7818608E-02  0.3353717E+00
         11   -1    0    0    0    0  0.00000000000E+00  0.00000000000E+00  0.39999999674E+01  0.40000000000E+01  0.51100000000E-03 0.  1.
    9000002   -1    0    0    0    0 -0.00000000000E+00 -0.00000000000E+00  0.00000000000E+00  0.93800000000E+00  0.93800000000E+00 0.  1.
         11    1    1    2    0    0 -0.15103204791E+00 -0.76847944420E-02  0.12053993451E+01  0.12148487880E+01  0.51100000000E-03 0.  1.
    9000002    1    1    2    0    0  0.48429951593E+00  0.29661160423E-01  0.16077244231E+00  0.10682310536E+01  0.93800000000E+00 0.  1.
         22    1    1    2    0    0 -0.33326746802E+00 -0.21976365980E-01  0.26338281800E+01  0.26549201584E+01  0.00000000000E+00 0.  1.
</event>
<event>
 5    1  0.6076093E+001  0.1599666E+01  0.7818608E-02  0.3353726E+00
         11   -1    0    0    0    0  0.00000000000E+00  0.00000000000E+00  0.39999999674E+01  0.40000000000E+01  0.51100000000E-03 0.  1.
    9000002   -1    0    0    0    0 -0.00000000000E+00 -0.00000000000E+00  0.00000000000E+00  0.93800000000E+00  0.93800000000E+00 0. -1.
         11    1    1    2    0    0 -0.11404569540E+00 -0.10234277904E+00  0.14687705649E+01  0.14767422587E+01  0.51100000000E-03 0.  1.
    9000002    1    1    2    0    0  0.30096292555E+00  0.28077524653E+00  0.11445473469E+00  0.10307071882E+01  0.93800000000E+00 0. -1.
         22    1    1    2    0    0 -0.18691723015E+00 -0.17843246748E+00  0.24167746677E+01  0.24305505530E+01  0.00000000000E+00 0.  1.
</event>
<event>
 5    1  0.6076093E+001  0.1504978E+01  0.7818608E-02  0.3463428E+00
         11   -1    0    0    0    0  0.00000000000E+00  0.00000000000E+00  0.39999999674E+01  0.40000000000E+01  0.51100000000E-03 0. -1.
    9000002   -1    0    0    0    0 -0.00000000000E+00 -0.00000000000E+00  0.00000000000E+00  0.93800000000E+00  0.93800000000E+00 0.  1.
         11    1    1    2    0    0  0.34419959540E+00 -0.27246827370E+00  0.12291101193E+01  0.13051529673E+01  0.51100000000E-03 0. -1.
    9000002    1    1    2    0    0 -0.47105595321E+00 -0.65699943114E-01  0.24314923508E+00  0.10794330661E+01  0.93800000000E+00 0.  1.
         22    1    1    2    0    0  0.12685635781E+00  0.33816821681E+00  0.25277406130E+01  0.25534139666E+01  0.00000000000E+00 0. -1.
</event>
<event>
 5    1  0.6076093E+001  0.1598557E+01  0.7818608E-02  0.3354932E+00
         11   -1    0    0    0    0  0.00000000000E+00  0.00000000000E+00  0.39999999674E+01  0.40000000000E+01  0.51100000000E-03 0. -1.
    9000002   -1    0    0    0    0 -0.00000000000E+00 -0.00000000000E+00  0.00000000000E+00  0.93800000000E+00  0.93800000000E+00 0. -1.
         11    1    1    2    0    0 -0.19947778140E+00 -0.99146212793E-01  0.14798315430E+01  0.14965035963E+01  0.51100000000E-03 0. -1.
    9000002    1    1    2    0    0  0.41927929042E+00  0.22968129501E+00  0.15688580370E+00  0.10644274405E+01  0.93800000000E+00 0. -1.
         22    1    1    2    0    0 -0.21980150902E+00 -0.13053508222E+00  0.23632826206E+01  0.23770689632E+01  0.00000000000E+00 0. -1.
</event>
<event>
 5    1  0.6076093E+001  0.1599640E+01  0.7818608E-02  0.3353754E+00
         11   -1    0    0    0    0  0.00000000000E+00  0.00000000000E+00  0.39999999674E+01  0.40000000000E+01  0.51100000000E-03 0. -1.
    9000002   -1    0    0    0    0 -0.00000000000E+00 -0.00000000000E+00  0.00000000000E+00  0.93800000000E+00  0.93800000000E+00 0.  1.
         11    1    1    2    0    0  0.38036385754E-01 -0.33144790479E-01  0.61790785300E+00  0.61996428905E+00  0.51100000000E-03 0. -1.
    9000002    1    1    2    0    0 -0.26164470729E+00  0.23710450909E+00  0.83655592534E-01  0.10057428892E+01  0.93800000000E+00 0.  1.
         22    1    1    2    0    0  0.22360832153E+00 -0.20395971861E+00  0.32984365218E+01  0.33122928217E+01  0.00000000000E+00 0. -1.
</event>
<event>
 5    1  0.6076093E+001  0.1598992E+01  0.7818608E-02  0.3354458E+00
         11   -1    0    0    0    0  0.00000000000E+00  0.00000000000E+00  0.39999999674E+01  0.40000000000E+01  0.51100000000E-03 0. -1.
    9000002   -1    0    0    0    0 -0.00000000000E+00 -0.00000000000E+00  0.00000000000E+00  0.93800000000E+00  0.93800000000E+00 0. -1.
         11    1    1    2    0    0  0.11311093055E+00  0.70891955818E-01  0.10899455360E+01  0.10980898344E+01  0.51100000000E-03 0. -1.
    9000002    1    1    2    0    0 -0.49183348196E+00 -0.25943734702E+00  0.21446847329E+00  0.11113274212E+01  0.93800000000E+00 0. -1.
         22    1    1    2    0    0  0.37872255140E+00  0.18854539120E+00  0.26955859581E+01  0.27285827444E+01  0.00000000000E+00 0. -1.
</event>
<event>
 5    1  0.6076093E+001  0.1589809E+01  0.7818608E-02  0.3364499E+00
         11   -1    0    0    0    0  0.00000000000E+00  0.00000000000E+00  0.39999999674E+01  0.40000000000E+01  0.51100000000E-03 0. -1.
    9000002   -1    0    0    0    0 -0.00000000000E+00 -0.00000000000E+00  0.00000000000E+00  0.93800000000E+00  0.93800000000E+00 0.  1.
         11    1    1    2    0    0  0.70181339028E-01 -0.36917955738E-01  0.91996403700E+00  0.92337557164E+00  0.51100000000E-03 0. -1.
    9000002    1    1    2    0    0 -0.19220456146E+00 -0.26101530983E+00  0.78126326032E-01  0.99549952699E+00  0.93800000000E+00 0.  1.
         22    1    1    2    0    0  0.12202322243E+00  0.29793326557E+00  0.30019096043E+01  0.30191249014E+01  0.00000000000E+00 0. -1.
</event>
<event>
 5    1  0.6076093E+001  0.1563987E+01  0.7818608E-02  0.3393403E+00
         11   -1    0    0    0    0  0.00000000000E+00  0.00000000000E+00  0.39999999674E+01  0.40000000000E+01  0.51100000000E-03 0.  1.
    9000002   -1    0    0    0    0 -0.00000000000E+00 -0.00000000000E+00  0.00000000000E+00  0.93800000000E+00  0.93800000000E+00 0. -1.
         11    1    1    2    0    0  0.79932464629E-01  0.15037229604E+00  0.97120626460E+00  0.98602378056E+00  0.51100000000E-03 0.  1.
    9000002    1    1    2    0    0 -0.25972376601E+00  0.18342238370E+00  0.96324179265E-01  0.99509926790E+00  0.93800000000E+00 0. -1.
         22    1    1    2    0    0  0.17979130138E+00 -0.33379467974E+00  0.29324695235E+01  0.29568769515E+01  0.00000000000E+00 0.  1.
</event>
<event>
 5    1  0.6076093E+001  0.1599657E+01  0.7818608E-02  0.3353735E+00
         11   -1    0    0    0    0  0.00000000000E+00  0.00000000000E+00  0.39999999674E+01  0.40000000000E+01  0.51100000000E-03 0. -1.
    9000002   -1    0    0    0    0 -0.00000000000E+00 -0.00000000000E+00  0.00000000000E+00  0.93800000000E+00  0.93800000000E+00 0.  1.
         11    1    1    2    0    0  0.84009515267E-01  0.51586033064E-01  0.76269252433E+00  0.76903762278E+00  0.51100000000E-03 0. -1.
    9000002    1    1    2    0    0 -0.40921475006E+00 -0.24406291133E+00  0.15483270885E+00  0.10634098853E+01  0.93800000000E+00 0.  1.
         22    1    1    2    0    0  0.32520523479E+00  0.19247687826E+00  0.30824747342E+01  0.31055524920E+01  0.00000000000E+00 0. -1.
</event>
<event>
 5    1  0.6076093E+001  0.1599677E+01  0.7818608E-02  0.3353714E+00
         11   -1    0    0    0    0  0.00000000000E+00  0.00000000000E+00  0.39999999674E+01  0.40000000000E+01  0.51100000000E-03 0. -1.
    9000002   -1    0    0    0    0 -0.00000000000E+00 -0.00000000000E+00  0.00000000000E+00  0.93800000000E+00  0.93800000000E+00 0. -1.
         11    1    1    2    0    0  0.31465301897E+00  0.43763391902E-01  0.13877554042E+01  0.14236527244E+01  0.51100000000E-03 0. -1.
    9000002    1    1    2    0    0 -0.79939780740E+00 -0.11035831180E+00  0.48084536506E+00  0.13275059610E+01  0.93800000000E+00 0. -1.
         22    1    1    2    0    0  0.48474478843E+00  0.66594919902E-01  0.21313991981E+01  0.21868413145E+01  0.00000000000E+00 0. -1.
</event>
<event>
 5    1  0.6076093E+001  0.1599637E+01  0.7818608E-02  0.3353758E+00
         11   -1    0    0    0    0  0.00000000000E+00  0.00000000000E+00  0.39999999674E+01  0.40000000000E+01  0.51100000000E-03 0.  1.
    9000002   -1    0    0    0    0 -0.00000000000E+00 -0.00000000000E+00  0.00000000000E+00  0.93800000000E+00  0.93800000000E+00 0.  1.
         11    1    1    2    0    0 -0.39552447153E-01  0.91351359338E-03  0.37292956584E+00  0.37502260303E+00  0.51100000000E-03 0.  1.
    9000002    1    1    2    0    0  0.37022627078E+00 -0.25609212073E-01  0.92600346921E-01  0.10129867460E+01  0.93800000000E+00 0.  1.
         22    1    1    2    0    0 -0.33067382362E+00  0.24695698480E-01  0.35344700546E+01  0.35499906510E+01  0.00000000000E+00 0.  1.
</event>
<event>
 5    1  0.6076093E+001  0.1599672E+01  0.7818608E-02  0.3353719E+00
         11   -1    0    0    0    0  0.00000000000E+00  0.00000000000E+00  0.39999999674E+01  0.40000000000E+01  0.51100000000E-03 0.  1.
    9000002   -1    0    0    0    0 -0.00000000000E+00 -0.00000000000E+00  0.00000000000E+00  0.93800000000E+00  0.93800000000E+00 0.  1.
         11    1    1    2    0    0 -0.56957942153E-01  0.24195272788E-01  0.34264224398E+00  0.34818613826E+00  0.51100000000E-03 0.  1.
    9000002    1    1    2    0    0  0.62183715925E+00 -0.27051046527E+00  0.32677278734E+00  0.12026977255E+01  0.93800000000E+00 0.  1.
         22    1    1    2    0    0 -0.56487921710E+00  0.24631519249E+00  0.33305849360E+01  0.33871161362E+01  0.00000000000E+00 0.  1.
</event>
<event>
 5    1  0.6076093E+001  0.1599668E+01  0.7818608E-02  0.3353723E+00
         11   -1    0    0    0    0  0.00000000000E+00  0.00000000000E+00  0.39999999674E+01  0.40000000000E+01  0.51100000000E-03 0. -1.
    9000002   -1    0    0    0    0 -0.00000000000E+00 -0.00000000000E+00  0.00000000000E+00  0.93800000000E+00  0.93800000000E+00 0. -1.
         11    1    1    2    0    0  0.12246967534E+00  0.44932296389E-01  0.13855871622E+01  0.13917146898E+01  0.51100000000E-03 0. -1.
    9000002    1    1    2    0    0 -0.35073766431E+00 -0.11883091419E+00  0.92172323977E-01  0.10126585963E+01  0.93800000000E+00 0. -1.
         22    1    1    2    0    0  0.22826798897E+00  0.73898617799E-01  0.25222404812E+01  0.25336267139E+01  0.00000000000E+00 0. -1.
</event>
<event>
 5    1  0.6076093E+001  0.1527607E+01  0.7818608E-02  0.3435890E+00
         11   -1    0    0    0    0  0.00000000000E+00  0.00000000000E+00  0.39999999674E+01  0.40000000000E+01  0.51100000000E-03 0. -1.
    9000002   -1    0    0    0    0 -0.00000000000E+00 -0.00000000000E+00  0.00000000000E+00  0.93800000000E+00  0.93800000000E+00 0.  1.
         11    1    1    2    0    0  0.35220863911E-01 -0.18911176186E+00  0.24743239074E+00  0.31341157738E+00  0.51100000000E-03 0. -1.
    9000002    1    1    2    0    0  0.24131622496E+00  0.39976292819E+00  0.21456034125E+00  0.10695438557E+01  0.93800000000E+00 0.  1.
         22    1    1    2    0    0 -0.27653708887E+00 -0.21065116632E+00  0.35380072354E+01  0.35550445669E+01  0.00000000000E+00 0. -1.
</event>
<event>
 5    1  0.6076093E+001  0.1599677E+01  0.7818608E-02  0.3353714E+00
         11   -1    0    0    0    0  0.00000000000E+00  0.00000000000E+00  0.39999999674E+01  0.40000000000E+01  0.51100000000E-03 0. -1.
    9000002   -1    0    0    0    0 -0.00000000000E+00 -0.00000000000E+00  0.00000000000E+00  0.93800000000E+00  0.93800000000E+00 0.  1.
         11    1    1    2    0    0  0.78391220356E-01 -0.18166238327E+00  0.10483907410E+01  0.10668972827E+01  0.51100000000E-03 0. -1.
    9000002    1    1    2    0    0 -0.27400858001E+00  0.63545201807E+00  0.34151561809E+00  0.12146426991E+01  0.93800000000E+00 0.  1.
         22    1    1    2    0    0  0.19561735966E+00 -0.45378963480E+00  0.26100936083E+01  0.26564600182E+01  0.00000000000E+00 0. -1.
</event>
<event>
 5    1  0.6076093E+001  0.1599335E+01  0.7818608E-02  0.3354086E+00
         11   -1    0    0    0    0  0.00000000000E+00  0.00000000000E+00  0.39999999674E+01  0.40000000000E+01  0.51100000000E-03 0.  1.
    9000002   -1    0    0    0    0 -0.00000000000E+00 -0.00000000000E+00  0.00000000000E+00  0.93800000000E+00  0.93800000000E+00 0.  1.
         11    1    1    2    0    0  0.48558058967E-02  0.12890446346E+00  0.10157549249E+01  0.10239132132E+01  0.51100000000E-03 0.  1.
    9000002    1    1    2    0    0  0.12401067857E-01 -0.42370166054E+00  0.12187039365E+00  0.10365197907E+01  0.93800000000E+00 0.  1.
         22    1    1    2    0    0 -0.17256873754E-01  0.29479719708E+00  0.28623746488E+01  0.28775669961E+01  0.00000000000E+00 0.  1.
</event>
<event>
 5    1  0.6076093E+001  0.1599677E+01  0.7818608E-02  0.3353714E+00
         11   -1    0    0    0    0  0.00000000000E+00  0.00000000000E+00  0.39999999674E+01  0.40000000000E+01  0.51100000000E-03 0. -1.
    9000002   -1    0    0    0    0 -0.00000000000E+00 -0.00000000000E+00  0.00000000000E+00  0.93800000000E+00  0.93800000000E+00 0. -1.
         11    1    1    2    0    0 -0.76716714717E-01 -0.10311098447E+00  0.95203009487E+00  0.96066585872E+00  0.51100000000E-03 0. -1.
    9000002    1    1    2    0    0  0.30873153309E+00  0.41170027557E+00  0.18173224952E+00  0.10852109873E+01  0.93800000000E+00 0. -1.
         22    1    1    2    0    0 -0.23201481837E+00 -0.30858929110E+00  0.28662376230E+01  0.28921231540E+01  0.00000000000E+00 0. -1.
</event>
<event>
 5    1  0.6076093E+001  0.1599677E+01  0.7818608E-02  0.3353715E+00
         11   -1    0    0    0    0  0.00000000000E+00  0.00000000000E+00  0.39999999674E+01  0.40000000000E+01  0.51100000000E-03 0.  1.
    9000002   -1    0    0    0    0 -0.00000000000E+00 -0.00000000000E+00  0.00000000000E+00  0.93800000000E+00  0.93800000000E+00 0.  1.
         11    1    1    2    0    0 -0.95554571864E-01 -0.64197481376E-02  0.67262687751E+00  0.67941082332E+00  0.51100000000E-03 0.  1.
    9000002    1    1    2    0    0  0.53903544775E+00  0.39139706007E-01  0.20138691955E+00  0.11011320638E+01  0.93800000000E+00 0.  1.
         22    1    1    2    0    0 -0.44348087589E+00 -0.32719957869E-01  0.31259861703E+01  0.31574571129E+01  0.00000000000E+00 0.  1.
</event>
<event>
 5    1  0.6076093E+001  0.1593867E+01  0.7818608E-02  0.3360047E+00
         11   -1    0    0    0    0  0.00000000000E+00  0.00000000000E+00  0.39999999674E+01  0.40000000000E+01  0.51100000000E-03 0.  1.
    9000002   -1    0    0    0    0 -0.00000000000E+00 -0.00000000000E+00  0.00000000000E+00  0.93800000000E+00  0.93800000000E+00 0.  1.
         11    1    1    2    0    0  0.11638663407E+00  0.16037579973E+00  0.13771916186E+01  0.13913745941E+01  0.51100000000E-03 0.  1.
    9000002    1    1    2    0    0 -0.81221219680E-01 -0.47969485403E+00  0.16686729905E+00  0.10697629340E+01  0.93800000000E+00 0.  1.
         22    1    1    2    0    0 -0.35165414386E-01  0.31931905429E+00  0.24559410497E+01  0.24768624718E+01  0.00000000000E+00 0.  1.
</event>
<event>
 5    1  0.6076093E+001  0.1597148E+01  0.7818608E-02  0.3356465E+00
         11   -1    0    0    0    0  0.00000000000E+00  0.00000000000E+00  0.39999999674E+01  0.40000000000E+01  0.51100000000E-03 0.  1.
    9000002   -1    0    0    0    0 -0.00000000000E+00 -0.00000000000E+00  0.00000000000E+00  0.93800000000E+00  0.93800000000E+00 0. -1.
         11    1    1    2    0    0  0.68899425831E-01  0.13392316616E+00  0.13326844303E+01  0.13411676246E+01  0.51100000000E-03 0.  1.
    9000002    1    1    2    0    0 -0.23247101454E+00 -0.53816998224E+00  0.24156590008E+00  0.11321960018E+01  0.93800000000E+00 0. -1.
         22    1    1    2    0    0  0.16357158871E+00  0.40424681608E+00  0.24257496369E+01  0.24646363736E+01  0.00000000000E+00 0.  1.
</event>
<event>
 5    1  0.6076093E+001  0.1599676E+01  0.7818608E-02  0.3353715E+00
         11   -1    0    0    0    0  0.00000000000E+00  0.00000000000E+00  0.39999999674E+01  0.40000000000E+01  0.51100000000E-03 0.  1.
    9000002   -1    0    0    0    0 -0.00000000000E+00 -0.00000000000E+00  0.00000000000E+00  0.93800000000E+00  0.93800000000E+00 0. -1.
         11    1    1    2    0    0  0.77528783728E-01  0.61075943440E-01  0.95609328741E+00  0.96117408336E+00  0.51100000000E-03 0.  1.
    9000002    1    1    2    0    0 -0.31836793814E+00 -0.25093505412E+00  0.11091935667E+00  0.10278490400E+01  0.93800000000E+00 0. -1.
         22    1    1    2    0    0  0.24083915441E+00  0.18985911067E+00  0.29329873233E+01  0.29489768766E+01  0.00000000000E+00 0.  1.
</event>
<event>
 5    1  0.6076093E+001  0.1599674E+01  0.7818608E-02  0.3353718E+00
         11   -1    0    0    0    0  0.00000000000E+00  0.00000000000E+00  0.39999999674E+01  0.40000000000E+01  0.51100000000E-03 0. -1.
    9000002   -1    0    0    0    0 -0.00000000000E+00 -0.00000000000E+00  0.00000000000E+00  0.93800000000E+00  0.93800000000E+00 0. -1.
         11    1    1    2    0    0  0.66657802179E-01 -0.81649496057E-01  0.10223182781E+01  0.10277377223E+01  0.51100000000E-03 0. -1.
    9000002    1    1    2    0    0 -0.25669865968E+00  0.31694221278E+00  0.11232126727E+00  0.10289833017E+01  0.93800000000E+00 0. -1.
         22    1    1    2    0    0  0.19004085750E+00 -0.23529271673E+00  0.28653604220E+01  0.28812789760E+01  0.00000000000E+00 0. -1.
</event>
<event>
 5    1  0.6076093E+001  0.1599674E+01  0.7818608E-02  0.3353717E+00
         11   -1    0    0    0    0  0.00000000000E+00  0.00000000000E+00  0.39999999674E+01  0.40000000000E+01  0.51100000000E-03 0.  1.
    9000002   -1    0    0    0    0 -0.00000000000E+00 -0.00000000000E+00  0.00000000000E+00  0.93800000000E+00  0.93800000000E+00 0. -1.
         11    1    1    2    0    0 -0.36249442316E-01  0.10809414491E+00  0.11029791820E+01  0.11088560336E+01  0.51100000000E-03 0.  1.
    9000002    1    1    2    0    0  0.13324789194E+00 -0.38424760214E+00  0.11166558556E+00  0.10284524410E+01  0.93800000000E+00 0. -1.
         22    1    1    2    0    0 -0.96998449624E-01  0.27615345723E+00  0.27853551998E+01  0.28006915254E+01  0.00000000000E+00 0.  1.
</event>
<event>
 5    1  0.6076093E+001  0.1461786E+01  0.7818608E-02  0.3518545E+00
         11   -1    0    0    0    0  0.00000000000E+00  0.00000000000E+00  0.39999999674E+01  0.40000000000E+01  0.51100000000E-03 0.  1.
    9000002   -1    0    0    0    0 -0.00000000000E+00 -0.00000000000E+00  0.00000000000E+00  0.93800000000E+00  0.93800000000E+00 0.  1.
         11    1    1    2    0    0  0.20352165579E+00 -0.16300393625E+00  0.23873310959E+00  0.35353232715E+00  0.51100000000E-03 0.  1.
    9000002    1    1    2    0    0 -0.16709505356E-03  0.46183565619E+00  0.27713695605E+00  0.10816381528E+01  0.93800000000E+00 0.  1.
         22    1    1    2    0    0 -0.20335456074E+00 -0.29883171994E+00  0.34841299017E+01  0.35028295200E+01  0.00000000000E+00 0.  1.
</event>
<event>
 5    1  0.6076093E+001  0.1599672E+01  0.7818608E-02  0.3353719E+00
         11   -1    0    0    0    0  0.00000000000E+00  0.00000000000E+00  0.39999999674E+01  0.40000000000E+01  0.51100000000E-03 0. -1.
    9000002   -1    0    0    0    0 -0.00000000000E+00 -0.00000000000E+00  0.00000000000E+00  0.93800000000E+00  0.93800000000E+00 0. -1.
         11    1    1    2    0    0  0.46347390829E+00 -0.70681033168E-01  0.13077061210E+01  0.13892082033E+01  0.51100000000E-03 0. -1.
    9000002    1    1    2    0    0 -0.10685542315E+01  0.16807736215E+00  0.99311171239E+00  0.17424617696E+01  0.93800000000E+00 0. -1.
         22    1    1    2    0    0  0.60508032316E+00 -0.97396328979E-01  0.16991821340E+01  0.18063300271E+01  0.00000000000E+00 0. -1.
</event>
<event>
 5    1  0.6076093E+001  0.1566021E+01  0.7818608E-02  0.3391090E+00
         11   -1    0    0    0    0  0.00000000000E+00  0.00000000000E+00  0.39999999674E+01  0.40000000000E+01  0.51100000000E-03 0.  1.
    9000002   -1    0    0    0    0 -0.00000000000E+00 -0.00000000000E+00  0.00000000000E+00  0.93800000000E+00  0.93800000000E+00 0.  1.
         11    1    1    2    0    0  0.55880840282E-01 -0.12268525508E+00  0.35520837677E+00  0.37993103608E+00  0.51100000000E-03 0.  1.
    9000002    1    1    2    0    0  0.26857821315E+00  0.23954738713E+00  0.11472702690E+00  0.10111990397E+01  0.93800000000E+00 0.  1.
         22    1    1    2    0    0 -0.32445905344E+00 -0.11686213205E+00  0.35300645637E+01  0.35468699242E+01  0.00000000000E+00 0.  1.
</event>
<event>
 5    1  0.6076093E+001  0.1578675E+01  0.7818608E-02  0.3376839E+00
         11   -1    0    0    0    0  0.00000000000E+00  0.00000000000E+00  0.39999999674E+01  0.40000000000E+01  0.51100000000E-03 0. -1.
    9000002   -1    0    0    0    0 -0.00000000000E+00 -0.00000000000E+00  0.00000000000E+00  0.93800000000E+00  0.93800000000E+00 0. -1.
         11    1    1    2    0    0  0.28670997275E-03 -0.11230805179E+00  0.11472973251E+01  0.11527812429E+01  0.51100000000E-03 0. -1.
    9000002    1    1    2    0    0 -0.10227080859E+00 -0.14893246280E+00  0.37389014030E-01  0.95597182758E+00  0.93800000000E+00 0. -1.
         22    1    1    2    0    0  0.10198409862E+00  0.26124051458E+00  0.28153136282E+01  0.28292469295E+01  0.00000000000E+00 0. -1.
</event>
<event>
 5    1  0.6076093E+001  0.1598381E+01  0.7818608E-02  0.3355122E+00
         11   -1    0    0    0    0  0.00000000000E+00  0.00000000000E+00  0.39999999674E+01  0.40000000000E+01  0.51100000000E-03 0.  1.
    9000002   -1    0    0    0    0 -0.00000000000E+00 -0.00000000000E+00  0.00000000000E+00  0.93800000000E+00  0.93800000000E+00 0. -1.
         11    1    1    2    0    0  0.11954958901E+00  0.14270763304E+00  0.11684191125E+01  0.11831572408E+01  0.51100000000E-03 0.  1.
    9000002    1    1    2    0    0 -0.33019383099E+00 -0.35266151472E+00  0.16048210081E+00  0.10672378435E+01  0.93800000000E+00 0. -1.
         22    1    1    2    0    0  0.21064424198E+00  0.20995388168E+00  0.26710987540E+01  0.26876049157E+01  0.00000000000E+00 0.  1.
</event>
<event>
 5    1  0.6076093E+001  0.1571819E+01  0.7818608E-02  0.3384530E+00
         11   -1    0    0    0    0  0.00000000000E+00  0.00000000000E+00  0.39999999674E+01  0.40000000000E+01  0.51100000000E-03 0.  1.
    9000002   -1    0    0    0    0 -0.00000000000E+00 -0.00000000000E+00  0.00000000000E+00  0.93800000000E+00  0.93800000000E+00 0.  1.
         11    1    1    2    0    0  0.53811293405E-01  0.71612240254E-01  0.29871579339E+00  0.31185790770E+00  0.51100000000E-03 0.  1.
    9000002    1    1    2    0    0  0.31041111937E+00  0.31739871524E-01  0.87304528840E-01  0.99238528971E+00  0.93800000000E+00 0.  1.
         22    1    1    2    0    0 -0.36422241278E+00 -0.10335211178E+00  0.36139796451E+01  0.36337568026E+01  0.00000000000E+00 0.  1.
</event>
<event>
 5    1  0.6076093E+001  0.1592845E+01  0.7818608E-02  0.3361166E+00
         11   -1    0    0    0    0  0.00000000000E+00  0.00000000000E+00  0.39999999674E+01  0.40000000000E+01  0.51100000000E-03 0. -1.
    9000002   -1    0    0    0    0 -0.00000000000E+00 -0.00000000000E+00  0.00000000000E+00  0.93800000000E+00  0.93800000000E+00 0. -1.
         11    1    1    2    0    0  0.23943539743E-01  0.15153459638E-01  0.24922201369E+00  0.25082821545E+00  0.51100000000E-03 0. -1.
    9000002    1    1    2    0    0  0.25112586219E+00  0.19594634745E+00  0.73226221166E-01  0.99331024821E+00  0.93800000000E+00 0. -1.
         22    1    1    2    0    0 -0.27506940193E+00 -0.21109980709E+00  0.36775517325E+01  0.36938615363E+01  0.00000000000E+00 0. -1.
</event>
<event>
 5    1  0.6076093E+001  0.1599673E+01  0.7818608E-02  0.3353719E+00
         11   -1    0    0    0    0  0.00000000000E+00  0.00000000000E+00  0.39999999674E+01  0.40000000000E+01  0.51100000000E-03 0. -1.
    9000002   -1    0    0    0    0 -0.00000000000E+00 -0.00000000000E+00  0.00000000000E+00  0.93800000000E+00  0.93800000000E+00 0.  1.
         11    1    1    2    0    0 -0.12565708551E+00  0.44188524637E-01  0.88359978328E+00  0.89358332963E+00  0.51100000000E-03 0. -1.
    9000002    1    1    2    0    0  0.54001011059E+00 -0.18056170957E+00  0.22478425408E+00  0.11200827699E+01  0.93800000000E+00 0.  1.
         22    1    1    2    0    0 -0.41435302509E+00  0.13637318494E+00  0.28916159300E+01  0.29243339005E+01  0.00000000000E+00 0. -1.
</event>
<event>
 5    1  0.6076093E+001  0.1558621E+01  0.7818608E-02  0.3399536E+00
         11   -1    0    0    0    0  0.00000000000E+00  0.00000000000E+00  0.39999999674E+01  0.40000000000E+01  0.51100000000E-03 0.  1.
    9000002   -1    0    0    0    0 -0.00000000000E+00 -0.00000000000E+00  0.00000000000E+00  0.93800000000E+00  0.93800000000E+00 0.  1.
         11    1    1    2    0    0  0.63798929451E-01 -0.10834573535E+00  0.38578067879E+00  0.40575373690E+00  0.51100000000E-03 0.  1.
    9000002    1    1    2    0    0  0.31502602914E-01 -0.21754423629E+00  0.63685429069E-01  0.96551423739E+00  0.93800000000E+00 0.  1.
         22    1    1    2    0    0 -0.95301532365E-01  0.32588997163E+00  0.35505338595E+01  0.35667320257E+01  0.00000000000E+00 0.  1.
</event>
<event>
 5    1  0.6076093E+001  0.1599254E+01  0.7818608E-02  0.3354174E+00
         11   -1    0    0    0    0  0.00000000000E+00  0.00000000000E+00  0.39999999674E+01  0.40000000000E+01  0.51100000000E-03 0. -1.
    9000002   -1    0    0    0    0 -0.00000000000E+00 -0.00000000000E+00  0.00000000000E+00  0.93800000000E+00  0.93800000000E+00 0. -1.
         11    1    1    2    0    0 -0.60606187747E-01 -0.93471722011E-01  0.65257815392E+00  0.66201856538E+00  0.51100000000E-03 0. -1.
    9000002    1    1    2    0    0  0.44571478883E+00  0.53438283935E+00  0.34615314317E+00  0.12181513414E+01  0.93800000000E+00 0. -1.
         22    1    1    2    0    0 -0.38510860109E+00 -0.44091111734E+00  0.30012686703E+01  0.30578300932E+01  0.00000000000E+00 0. -1.
</event>
<event>
 5    1  0.6076093E+001  0.1599676E+01  0.7818608E-02  0.3353715E+00
         11   -1    0    0    0    0  0.00000000000E+00  0.00000000000E+00  0.39999999674E+01  0.40000000000E+01  0.51100000000E-03 0.  1.
    9000002   -1    0    0    0    0 -0.00000000000E+00 -0.00000000000E+00  0.00000000000E+00  0.93800000000E+00  0.93800000000E+00 0.  1.
         11    1    1    2    0    0  0.61379921036E-01 -0.59210473324E-03  0.62829271774E+00  0.63128428270E+00  0.51100000000E-03 0.  1.
    9000002    1    1    2    0    0 -0.38535137342E+00  0.67784165169E-02  0.10001168532E+00  0.10190132311E+01  0.93800000000E+00 0.  1.
         22    1    1    2    0    0  0.32397145238E+00 -0.61863117837E-02  0.32716955643E+01  0.32877024862E+01  0.00000000000E+00 0.  1.
</event>
<event>
 5    1  0.6076093E+001  0.1599649E+01  0.7818608E-02  0.3353744E+00
         11   -1    0    0    0    0  0.00000000000E+00  0.00000000000E+00  0.39999999674E+01  0.40000000000E+01  0.51100000000E-03 0.  1.
    9000002   -1    0    0    0    0 -0.00000000000E+00 -0.00000000000E+00  0.00000000000E+00  0.93800000000E+00  0.93800000000E+00 0. -1.
         11    1    1    2    0    0  0.15388225069E+00  0.94532114178E-01  0.68927857693E+00  0.71254563743E+00  0.51100000000E-03 0.  1.
    9000002    1    1    2    0    0 -0.73781777545E+00 -0.47134013163E+00  0.58076105710E+00  0.14084260701E+01  0.93800000000E+00 0. -1.
         22    1    1    2    0    0  0.58393552477E+00  0.37680801745E+00  0.27299603333E+01  0.28170282925E+01  0.00000000000E+00 0.  1.
</event>
<event>
 5    1  0.6076093E+001  0.1474875E+01  0.7818608E-02  0.3501472E+00
         11   -1    0    0    0    0  0.00000000000E+00  0.00000000000E+00  0.39999999674E+01  0.40000000000E+01  0.51100000000E-03 0.  1.
    9000002   -1    0    0    0    0 -0.00000000000E+00 -0.00000000000E+00  0.00000000000E+00  0.93800000000E+00  0.93800000000E+00 0. -1.
         11    1    1    2    0    0  0.24815381485E+00 -0.20291826146E+00  0.42483466129E+00  0.53220380233E+00  0.51100000000E-03 0.  1.
    9000002    1    1    2    0    0  0.67373776431E-01 -0.85565691272E-01  0.15250382481E+00  0.95653652824E+00  0.93800000000E+00 0. -1.
         22    1    1    2    0    0 -0.31552759129E+00  0.28848395274E+00  0.34226614813E+01  0.34492596694E+01  0.00000000000E+00 0.  1.
</event>
<event>
 5    1  0.6076093E+001  0.1572740E+01  0.7818608E-02  0.3383492E+00
         11   -1    0    0    0    0  0.00000000000E+00  0.00000000000E+00  0.39999999674E+01  0.40000000000E+01  0.51100000000E-03 0. -1.
    9000002   -1    0    0    0    0 -0.00000000000E+00 -0.00000000000E+00  0.00000000000E+00  0.93800000000E+00  0.93800000000E+00 0. -1.
         11    1    1    2    0    0  0.94821540190E-01  0.14241375660E-01  0.88692560116E+00  0.89209373072E+00  0.51100000000E-03 0. -1.
    9000002    1    1    2    0    0  0.27493417220E+00  0.16437580330E+00  0.90216470236E-01  0.99528448961E+00  0.93800000000E+00 0. -1.
         22    1    1    2    0    0 -0.36975571239E+00 -0.17861717896E+00  0.30228578960E+01  0.30506217797E+01  0.00000000000E+00 0. -1.
</event>
<event>
 5    1  0.6076093E+001  0.1579436E+01  0.7818608E-02  0.3375990E+00
         11   -1    0    0    0    0  0.00000000000E+00  0.00000000000E+00  0.39999999674E+01  0.40000000000E+01  0.51100000000E-03 0. -1.
    9000002   -1    0    0    0    0 -0.00000000000E+00 -0.00000000000E+00  0.00000000000E+00  0.93800000000E+00  0.93800000000E+00 0. -1.
         11    1    1    2    0    0  0.15287924232E+00 -0.14913460217E+00  0.10717961181E+01  0.10928679574E+01  0.51100000000E-03 0. -1.
    9000002    1    1    2    0    0 -0.47904469878E+00 -0.13268350274E-01  0.17481290814E+00  0.10677375265E+01  0.93800000000E+00 0. -1.
         22    1    1    2    0    0  0.32616545647E+00  0.16240295244E+00  0.27533909411E+01  0.27773945162E+01  0.00000000000E+00 0. -1.
</event>
<event>
 5    1  0.6076093E+001  0.1599677E+01  0.7818608E-02  0.3353714E+00
         11   -1    0    0    0    0  0.00000000000E+00  0.00000000000E+00  0.39999999674E+01  0.40000000000E+01  0.51100000000E-03 0.  1.
    9000002   -1    0    0    0    0 -0.00000000000E+00 -0.00000000000E+00  0.00000000000E+00  0.93800000000E+00  0.93800000000E+00 0. -1.
         11    1    1    2    0    0  0.65956883627E-02  0.68476469709E-01  0.72536926995E+00  0.72862429888E+00  0.51100000000E-03 0. -1.
    9000002    1    1    2    0    0 -0.35702454779E-01 -0.36829368384E+00  0.92012433565E-01  0.10125340443E+01  0.93800000000E+00 0. -1.
         22    1    1    2    0    0  0.29106766416E-01  0.29981721413E+00  0.31826182638E+01  0.31968416569E+01  0.00000000000E+00 0.  1.
</event>
<event>
 5    1  0.6076093E+001  0.1571696E+01  0.7818608E-02  0.3384668E+00
         11   -1    0    0    0    0  0.00000000000E+00  0.00000000000E+00  0.39999999674E+01  0.40000000000E+01  0.51100000000E-03 0.  1.
    9000002   -1    0    0    0    0 -0.00000000000E+00 -0.00000000000E+00  0.00000000000E+00  0.93800000000E+00  0.93800000000E+00 0. -1.
         11    1    1    2    0    0 -0.40707720241E-01  0.49195027015E-02  0.22985954538E-01  0.47009948108E-01  0.51100000000E-03 0.  1.
    9000002    1    1    2    0    0  0.36184738131E+00  0.20202292958E+00  0.13997672399E+00  0.10349803258E+01  0.93800000000E+00 0. -1.
         22    1    1    2    0    0 -0.32113966107E+00 -0.20694243229E+00  0.38370372888E+01  0.38560097261E+01  0.00000000000E+00 0.  1.
</event>
<event>
 5    1  0.6076093E+001  0.1595726E+01  0.7818608E-02  0.3358016E+00
         11   -1    0    0    0    0  0.00000000000E+00  0.00000000000E+00  0.39999999674E+01  0.40000000000E+01  0.51100000000E-03 0. -1.
    9000002   -1    0    0    0    0 -0.00000000000E+00 -0.00000000000E+00  0.00000000000E+00  0.93800000000E+00  0.93800000000E+00 0.  1.
         11    1    1    2    0    0  0.16110703002E-01 -0.95113626570E-02  0.18001408317E+00  0.18098439721E+00  0.51100000000E-03 0. -1.
    9000002    1    1    2    0    0  0.32182395851E+00  0.35255086110E+00  0.15890734747E+00  0.10644051461E+01  0.93800000000E+00 0.  1.
         22    1    1    2    0    0 -0.33793466152E+00 -0.34303949844E+00  0.36610785367E+01  0.36926104567E+01  0.00000000000E+00 0. -1.
</event>
<event>
 5    1  0.6076093E+001  0.1596691E+01  0.7818608E-02  0.3356962E+00
         11   -1    0    0    0    0  0.00000000000E+00  0.00000000000E+00  0.39999999674E+01  0.40000000000E+01  0.51100000000E-03 0. -1.
    9000002   -1    0    0    0    0 -0.00000000000E+00 -0.00000000000E+00  0.00000000000E+00  0.93800000000E+00  0.93800000000E+00 0. -1.
         11    1    1    2    0    0 -0.11427277256E+00  0.70169133788E-01  0.84112650468E+00  0.85174880797E+00  0.51100000000E-03 0. -1.
    9000002    1    1    2    0    0  0.60625298631E+00 -0.88571078082E-01  0.26564463889E+00  0.11514332779E+01  0.93800000000E+00 0. -1.
         22    1    1    2    0    0 -0.49198021375E+00  0.18401944294E-01  0.28932288238E+01  0.29348179141E+01  0.00000000000E+00 0. -1.
</event>
<event>
 5    1  0.6076093E+001  0.1599356E+01  0.7818608E-02  0.3354063E+00
         11   -1    0    0    0    0  0.00000000000E+00  0.00000000000E+00  0.39999999674E+01  0.40000000000E+01  0.51100000000E-03 0. -1.
    9000002   -1    0    0    0    0 -0.00000000000E+00 -0.00000000000E+00  0.00000000000E+00  0.93800000000E+00  0.93800000000E+00 0.  1.
         11    1    1    2    0    0 -0.51535032136E-01  0.23328379626E-01  0.44189862032E+00  0.44550502197E+00  0.51100000000E-03 0. -1.
    9000002    1    1    2    0    0  0.36319547627E+00 -0.12657345308E+00  0.99854714199E-01  0.10186985604E+01  0.93800000000E+00 0.  1.
         22    1    1    2    0    0 -0.31166044414E+00  0.10324507346E+00  0.34582466328E+01  0.34737964176E+01  0.00000000000E+00 0. -1.
</event>
<event>
 5    1  0.6076093E+001  0.1598430E+01  0.7818608E-02  0.3355069E+00
         11   -1    0    0    0    0  0.00000000000E+00  0.00000000000E+00  0.39999999674E+01  0.40000000000E+01  0.51100000000E-03 0.  1.
    9000002   -1    0    0    0    0 -0.00000000000E+00 -0.00000000000E+00  0.00000000000E+00  0.93800000000E+00  0.93800000000E+00 0. -1.
         11    1    1    2    0    0  0.10774790765E-01 -0.46717038642E-02  0.40466222585E-01  0.42139022584E-01  0.51100000000E-03 0.  1.
    9000002    1    1    2    0    0 -0.39876881245E+00 -0.98171520782E-01  0.11496538220E+00  0.10303956776E+01  0.93800000000E+00 0. -1.
         22    1    1    2    0    0  0.38799402169E+00  0.10284322465E+00  0.38445683626E+01  0.38654652998E+01  0.00000000000E+00 0.  1.
</event>
<event>
 5    1  0.6076093E+001  0.1599519E+01  0.7818608E-02  0.3353885E+00
         11   -1    0    0    0    0  0.00000000000E+00  0.00000000000E+00  0.39999999674E+01  0.40000000000E+01  0.51100000000E-03 0. -1.
    9000002   -1    0    0    0    0 -0.00000000000E+00 -0.00000000000E+00  0.00000000000E+00  0.93800000000E+00  0.93800000000E+00 0. -1.
         11    1    1    2    0    0 -0.48955683593E-01 -0.85817453246E-01  0.11150742619E+01  0.11194427922E+01  0.51100000000E-03 0. -1.
    9000002    1    1    2    0    0  0.21369835862E+00  0.32218162541E+00  0.10077935745E+00  0.10195432640E+01  0.93800000000E+00 0. -1.
         22    1    1    2    0    0 -0.16474267502E+00 -0.23636417217E+00  0.27841463480E+01  0.27990139438E+01  0.00000000000E+00 0. -1.
</event>
<event>
 5    1  0.6076093E+001  0.1594308E+01  0.7818608E-02  0.3359565E+00
         11   -1    0    0    0    0  0.00000000000E+00  0.00000000000E+00  0.39999999674E+01  0.40000000000E+01  0.51100000000E-03 0. -1.
    9000002   -1    0    0    0    0 -0.00000000000E+00 -0.00000000000E+00  0.00000000000E+00  0.93800000000E+00  0.93800000000E+00 0.  1.
         11    1    1    2    0    0  0.56025809510E-01  0.12511304932E+00  0.11751784278E+01  0.11831469751E+01  0.51100000000E-03 0. -1.
    9000002    1    1    2    0    0  0.73045443095E-01 -0.47878922691E+00  0.16495153004E+00  0.10684698254E+01  0.93800000000E+00 0.  1.
         22    1    1    2    0    0 -0.12907125260E+00  0.35367617759E+00  0.26598700095E+01  0.26863831995E+01  0.00000000000E+00 0. -1.
</event>
<event>
 5    1  0.9502699E+001  0.1594797E+01  0.7818608E-02  0.3359030E+00
         11   -1    0    0    0    0  0.00000000000E+00  0.00000000000E+00  0.39999999674E+01  0.40000000000E+01  0.51100000000E-03 0.  1.
    9000002   -1    0    0    0    0 -0.00000000000E+00 -0.00000000000E+00  0.00000000000E+00  0.93800000000E+00  0.93800000000E+00 0.  1.
         11    1    1    2    0    0 -0.47598256902E-01 -0.45438800466E-01  0.11979862610E+01  0.11997923242E+01  0.51100000000E-03 0.  1.
    9000002    1    1    2    0    0  0.26030120669E+00 -0.83067048053E-01  0.53464929669E-01  0.97844741881E+00  0.93800000000E+00 0.  1.
         22    1    1    2    0    0 -0.21270294979E+00  0.12850584852E+00  0.27485487767E+01  0.27597602570E+01  0.00000000000E+00 0.  1.
</event>
<event>
 5    1  0.6076093E+001  0.1594473E+01  0.7818608E-02  0.3359384E+00
         11   -1    0    0    0    0  0.00000000000E+00  0.00000000000E+00  0.39999999674E+01  0.40000000000E+01  0.51100000000E-03 0.  1.
    9000002   -1    0    0    0    0 -0.00000000000E+00 -0.00000000000E+00  0.00000000000E+00  0.93800000000E+00  0.93800000000E+00 0.  1.
         11    1    1    2    0    0 -0.18880408249E-01 -0.55255331443E-02  0.56612991302E+00  0.56647183590E+00  0.51100000000E-03 0.  1.
    9000002    1    1    2    0    0  0.27154105737E-01 -0.37101906957E+00  0.97288154159E-01  0.10137561247E+01  0.93800000000E+00 0.  1.
         22    1    1    2    0    0 -0.82736974875E-02  0.37654460271E+00  0.33365819002E+01  0.33577720394E+01  0.00000000000E+00 0.  1.
</event>
<event>
 5    1  0.6076093E+001  0.1599671E+01  0.7818608E-02  0.3353720E+00
         11   -1    0    0    0    0  0.00000000000E+00  0.00000000000E+00  0.39999999674E+01  0.40000000000E+01  0.51100000000E-03 0. -1.
    9000002   -1    0    0    0    0 -0.00000000000E+00 -0.00000000000E+00  0.00000000000E+00  0.93800000000E+00  0.93800000000E+00 0.  1.
         11    1    1    2    0    0  0.75893544065E-03 -0.39278816112E-01  0.32429587089E+00  0.32666722268E+00  0.51100000000E-03 0. -1.
    9000002    1    1    2    0    0 -0.10742802345E-01  0.44931823368E+00  0.13719060701E+00  0.10491270398E+01  0.93800000000E+00 0.  1.
         22    1    1    2    0    0  0.99838669042E-02 -0.41003941757E+00  0.35385134895E+01  0.35622057375E+01  0.00000000000E+00 0. -1.
</event>
<event>
 5    1  0.6076093E+001  0.1593938E+01  0.7818608E-02  0.3359970E+00
         11   -1    0    0    0    0  0.00000000000E+00  0.00000000000E+00  0.39999999674E+01  0.40000000000E+01  0.51100000000E-03 0.  1.
    9000002   -1    0    0    0    0 -0.00000000000E+00 -0.00000000000E+00  0.00000000000E+00  0.93800000000E+00  0.93800000000E+00 0.  1.
         11    1    1    2    0    0 -0.75172590287E-02 -0.17273469387E-01  0.27120242271E-01  0.33024999467E-01  0.51100000000E-03 0.  1.
    9000002    1    1    2    0    0 -0.21853009635E+00  0.51146714378E+00  0.21939516726E+00  0.11123543867E+01  0.93800000000E+00 0.  1.
         22    1    1    2    0    0  0.22604735538E+00 -0.49419367439E+00  0.37534845578E+01  0.37926206138E+01  0.00000000000E+00 0.  1.
</event>
<event>
 5    1  0.6076093E+001  0.1599668E+01  0.7818608E-02  0.3353723E+00
         11   -1    0    0    0    0  0.00000000000E+00  0.00000000000E+00  0.39999999674E+01  0.40000000000E+01  0.51100000000E-03 0.  1.
    9000002   -1    0    0    0    0 -0.00000000000E+00 -0.00000000000E+00  0.00000000000E+00  0.93800000000E+00  0.93800000000E+00 0.  1.
         11    1    1    2    0    0 -0.11494444502E-01  0.11794099566E-01  0.12830625942E+00  0.12935988700E+00  0.51100000000E-03 0.  1.
    9000002    1    1    2    0    0  0.35067426186E+00 -0.31869580805E+00  0.15306614512E+00  0.10619852639E+01  0.93800000000E+00 0.  1.
         22    1    1    2    0    0 -0.33917981735E+00  0.30690170848E+00  0.37186275628E+01  0.37466548491E+01  0.00000000000E+00 0.  1.
</event>
<event>
 5    1  0.6076093E+001  0.1552428E+01  0.7818608E-02  0.3406672E+00
         11   -1    0    0    0    0  0.00000000000E+00  0.00000000000E+00  0.39999999674E+01  0.40000000000E+01  0.51100000000E-03 0. -1.
    9000002   -1    0    0    0    0 -0.00000000000E+00 -0.00000000000E+00  0.00000000000E+00  0.93800000000E+00  0.93800000000E+00 0. -1.
         11    1    1    2    0    0 -0.10158785655E+00 -0.56015898917E-01  0.22112330605E+00  0.24970713071E+00  0.51100000000E-03 0. -1.
    9000002    1    1    2    0    0 -0.37631840492E+00  0.51944039355E+00  0.34078204351E+00  0.11863432326E+01  0.93800000000E+00 0. -1.
         22    1    1    2    0    0  0.47790626147E+00 -0.46342449463E+00  0.34380946178E+01  0.35019496367E+01  0.00000000000E+00 0. -1.
</event>
<event>
 5    1  0.6076093E+001  0.1598075E+01  0.7818608E-02  0.3355455E+00
         11   -1    0    0    0    0  0.00000000000E+00  0.00000000000E+00  0.39999999674E+01  0.40000000000E+01  0.51100000000E-03 0. -1.
    9000002   -1    0    0    0    0 -0.00000000000E+00 -0.00000000000E+00  0.00000000000E+00  0.93800000000E+00  0.93800000000E+00 0.  1.
         11    1    1    2    0    0 -0.10405347877E+00 -0.88601113251E-01  0.94734375311E+00  0.95715084046E+00  0.51100000000E-03 0. -1.
    9000002    1    1    2    0    0  0.25716431275E+00  0.33989019326E+00  0.12432071483E+00  0.10377660947E+01  0.93800000000E+00 0.  1.
         22    1    1    2    0    0 -0.15311083398E+00 -0.25128908001E+00  0.29283354994E+01  0.29430830648E+01  0.00000000000E+00 0. -1.
</event>
<event>
 5    1  0.6076093E+001  0.1599676E+01  0.7818608E-02  0.3353715E+00
         11   -1    0    0    0    0  0.00000000000E+00  0.00000000000E+00  0.39999999674E+01  0.40000000000E+01  0.51100000000E-03 0. -1.
    9000002   -1    0    0    0    0 -0.00000000000E+00 -0.00000000000E+00  0.00000000000E+00  0.93800000000E+00  0.93800000000E+00 0. -1.
         11    1    1    2    0    0 -0.95621814738E-01  0.14836199337E-01  0.46096779419E+00  0.47101508751E+00  0.51100000000E-03 0. -1.
    9000002    1    1    2    0    0  0.74730285140E+00 -0.11190289388E+00  0.41463453044E+00  0.12738718943E+01  0.93800000000E+00 0. -1.
         22    1    1    2    0    0 -0.65168103666E+00  0.97066694547E-01  0.31243976427E+01  0.31931130181E+01  0.00000000000E+00 0. -1.
</event>
<event>
 5    1  0.6076093E+001  0.1466549E+01  0.7818608E-02  0.3512294E+00
         11   -1    0    0    0    0  0.00000000000E+00  0.00000000000E+00  0.39999999674E+01  0.40000000000E+01  0.51100000000E-03 0. -1.
    9000002   -1    0    0    0    0 -0.00000000000E+00 -0.00000000000E+00  0.00000000000E+00  0.93800000000E+00  0.93800000000E+00 0. -1.
         11    1    1    2    0    0  0.71715206255E-01 -0.23398687880E+00  0.34256375195E+00  0.42100251250E+00  0.51100000000E-03 0. -1.
    9000002    1    1    2    0    0  0.41329343788E-01 -0.15256763362E+00  0.12237075291E+00  0.95906391792E+00  0.93800000000E+00 0. -1.
         22    1    1    2    0    0 -0.11304455004E+00  0.38655451243E+00  0.35350654625E+01  0.35579335696E+01  0.00000000000E+00 0. -1.
</event>
<event>
 5    1  0.6076093E+001  0.1599033E+01  0.7818608E-02  0.3354413E+00
         11   -1    0    0    0    0  0.00000000000E+00  0.00000000000E+00  0.39999999674E+01  0.40000000000E+01  0.51100000000E-03 0. -1.
    9000002   -1    0    0    0    0 -0.00000000000E+00 -0.00000000000E+00  0.00000000000E+00  0.93800000000E+00  0.93800000000E+00 0. -1.
         11    1    1    2    0    0 -0.62397227764E-01 -0.15124760388E+00  0.12155149667E+01  0.12264771287E+01  0.51100000000E-03 0. -1.
    9000002    1    1    2    0    0  0.11452918370E+00  0.44528238387E+00  0.14434528549E+00  0.10545486697E+01  0.93800000000E+00 0. -1.
         22    1    1    2    0    0 -0.52131955939E-01 -0.29403477999E+00  0.26401397151E+01  0.26569742016E+01  0.00000000000E+00 0.  1.
</event>
<event>
 5    1  0.6076093E+001  0.1599642E+01  0.7818608E-02  0.3353752E+00
         11   -1    0    0    0    0  0.00000000000E+00  0.00000000000E+00  0.39999999674E+01  0.40000000000E+01  0.51100000000E-03 0.  1.
    9000002   -1    0    0    0    0 -0.00000000000E+00 -0.00000000000E+00  0.00000000000E+00  0.93800000000E+00  0.93800000000E+00 0.  1.
         11    1    1    2    0    0  0.13231189670E-01  0.30646598134E-01  0.31187767206E+00  0.31365940414E+00  0.51100000000E-03 0.  1.
    9000002    1    1    2    0    0 -0.20609839449E+00 -0.40229262463E+00  0.13883992993E+00  0.10504458245E+01  0.93800000000E+00 0.  1.
         22    1    1    2    0    0  0.19286720482E+00  0.37164602650E+00  0.35492823654E+01  0.35738947714E+01  0.00000000000E+00 0.  1.
</event>
<event>
 5    1  0.6076093E+001  0.1593531E+01  0.7818608E-02  0.3360414E+00
         11   -1    0    0    0    0  0.00000000000E+00  0.00000000000E+00  0.39999999674E+01  0.40000000000E+01  0.51100000000E-03 0.  1.
    9000002   -1    0    0    0    0 -0.00000000000E+00 -0.00000000000E+00  0.00000000000E+00  0.93800000000E+00  0.93800000000E+00 0.  1.
         11    1    1    2    0    0 -0.24871060971E-02 -0.18716122827E-01  0.60142088168E-01  0.63038169712E-01  0.51100000000E-03 0.  1.
    9000002    1    1    2    0    0  0.44946668964E+00 -0.28256707566E+00  0.19971231430E+00  0.10961721880E+01  0.93800000000E+00 0.  1.
         22    1    1    2    0    0 -0.44697958355E+00  0.30128319849E+00  0.37401455649E+01  0.37787896422E+01  0.00000000000E+00 0.  1.
</event>
<event>
 5    1  0.6076093E+001  0.1599600E+01  0.7818608E-02  0.3353798E+00
         11   -1    0    0    0    0  0.00000000000E+00  0.00000000000E+00  0.39999999674E+01  0.40000000000E+01  0.51100000000E-03 0. -1.
    9000002   -1    0    0    0    0 -0.00000000000E+00 -0.00000000000E+00  0.00000000000E+00  0.93800000000E+00  0.93800000000E+00 0. -1.
         11    1    1    2    0    0  0.13560725941E+00 -0.98081834716E-01  0.12829162049E+01  0.12937865453E+01  0.51100000000E-03 0. -1.
    9000002    1    1    2    0    0 -0.40790387603E+00  0.26370547619E+00  0.16119338567E+00  0.10685286416E+01  0.93800000000E+00 0. -1.
         22    1    1    2    0    0  0.27229661662E+00 -0.16562364147E+00  0.25558903768E+01  0.25756848131E+01  0.00000000000E+00 0. -1.
</event>
<event>
 5    1  0.6076093E+001  0.1583819E+01  0.7818608E-02  0.3371115E+00
         11   -1    0    0    0    0  0.00000000000E+00  0.00000000000E+00  0.39999999674E+01  0.40000000000E+01  0.51100000000E-03 0. -1.
    9000002   -1    0    0    0    0 -0.00000000000E+00 -0.00000000000E+00  0.00000000000E+00  0.93800000000E+00  0.93800000000E+00 0. -1.
         11    1    1    2    0    0 -0.89050645533E-01 -0.11787031189E-01  0.11877855352E+01  0.11911774386E+01  0.51100000000E-03 0. -1.
    9000002    1    1    2    0    0 -0.16545213728E+00  0.64888694794E-01  0.32774882752E-01  0.95525030509E+00  0.93800000000E+00 0. -1.
         22    1    1    2    0    0  0.25450278282E+00 -0.53101663605E-01  0.27794395494E+01  0.27915722563E+01  0.00000000000E+00 0. -1.
</event>
<event>
 5    1  0.6076093E+001  0.1591235E+01  0.7818608E-02  0.3362932E+00
         11   -1    0    0    0    0  0.00000000000E+00  0.00000000000E+00  0.39999999674E+01  0.40000000000E+01  0.51100000000E-03 0.  1.
    9000002   -1    0    0    0    0 -0.00000000000E+00 -0.00000000000E+00  0.00000000000E+00  0.93800000000E+00  0.93800000000E+00 0. -1.
         11    1    1    2    0    0  0.60436727644E-01  0.51059244056E-01  0.30057803846E+00  0.31081676720E+00  0.51100000000E-03 0.  1.
    9000002    1    1    2    0    0 -0.61983186397E-01 -0.38446404778E+00  0.10916335153E+00  0.10214769487E+01  0.93800000000E+00 0. -1.
         22    1    1    2    0    0  0.15464587530E-02  0.33340480373E+00  0.35902585774E+01  0.36057062841E+01  0.00000000000E+00 0.  1.
</event>
<event>
 5    1  0.6076093E+001  0.1599600E+01  0.7818608E-02  0.3353798E+00
         11   -1    0    0    0    0  0.00000000000E+00  0.00000000000E+00  0.39999999674E+01  0.40000000000E+01  0.51100000000E-03 0. -1.
    9000002   -1    0    0    0    0 -0.00000000000E+00 -0.00000000000E+00  0.00000000000E+00  0.93800000000E+00  0.93800000000E+00 0.  1.
         11    1    1    2    0    0  0.35212159953E-01  0.13653104441E-01  0.38279702498E+00  0.38465585518E+00  0.51100000000E-03 0. -1.
    9000002    1    1    2    0    0 -0.37309070149E+00 -0.20016845099E+00  0.12135872144E+00  0.10362605944E+01  0.93800000000E+00 0.  1.
         22    1    1    2    0    0  0.33787854153E+00  0.18651534655E+00  0.34958442209E+01  0.35170835504E+01  0.00000000000E+00 0. -1.
</event>
<event>
 5    1  0.6076093E+001  0.1599151E+01  0.7818608E-02  0.3354285E+00
         11   -1    0    0    0    0  0.00000000000E+00  0.00000000000E+00  0.39999999674E+01  0.40000000000E+01  0.51100000000E-03 0.  1.
    9000002   -1    0    0    0    0 -0.00000000000E+00 -0.00000000000E+00  0.00000000000E+00  0.93800000000E+00  0.93800000000E+00 0. -1.
         11    1    1    2    0    0 -0.92803372374E-01  0.16781611549E-02  0.67309423429E+00  0.67946404725E+00  0.51100000000E-03 0.  1.
    9000002    1    1    2    0    0  0.43476256714E+00  0.60005884894E-01  0.13106319457E+00  0.10438585905E+01  0.93800000000E+00 0. -1.
         22    1    1    2    0    0 -0.34195919476E+00 -0.61684046049E-01  0.31958425385E+01  0.32146773622E+01  0.00000000000E+00 0.  1.
</event>
<event>
 5    1  0.6076093E+001  0.1514772E+01  0.7818608E-02  0.3451400E+00
         11   -1    0    0    0    0  0.00000000000E+00  0.00000000000E+00  0.39999999674E+01  0.40000000000E+01  0.51100000000E-03 0. -1.
    9000002   -1    0    0    0    0 -0.00000000000E+00 -0.00000000000E+00  0.00000000000E+00  0.93800000000E+00  0.93800000000E+00 0.  1.
         11    1    1    2    0    0 -0.28487245330E+00  0.20117077552E-01  0.12979380589E+01  0.13289847543E+01  0.51100000000E-03 0. -1.
    9000002    1    1    2    0    0 -0.12396717397E+00  0.98299981250E-01  0.82191312646E-01  0.95479325428E+00  0.93800000000E+00 0.  1.
         22    1    1    2    0    0  0.40883962727E+00 -0.11841705880E+00  0.26198705958E+01  0.26542219914E+01  0.00000000000E+00 0. -1.
</event>
<event>
 5    1  0.6076093E+001  0.1599677E+01  0.7818608E-02  0.3353715E+00
         11   -1    0    0    0    0  0.00000000000E+00  0.00000000000E+00  0.39999999674E+01  0.40000000000E+01  0.51100000000E-03 0. -1.
    9000002   -1    0    0    0    0 -0.00000000000E+00 -0.00000000000E+00  0.00000000000E+00  0.93800000000E+00  0.93800000000E+00 0.  1.
         11    1    1    2    0    0 -0.17781748380E+00 -0.69132863650E-01  0.14406469833E+01  0.14532248284E+01  0.51100000000E-03 0. -1.
    9000002    1    1    2    0    0  0.47395995426E+00  0.18301444507E+00  0.17694841357E+00  0.10813357788E+01  0.93800000000E+00 0.  1.
         22    1    1    2    0    0 -0.29614247047E+00 -0.11388158142E+00  0.23824045705E+01  0.24034393929E+01  0.00000000000E+00 0. -1.
</event>
<event>
 5    1  0.6076093E+001  0.1563993E+01  0.7818608E-02  0.3393396E+00
         11   -1    0    0    0    0  0.00000000000E+00  0.00000000000E+00  0.39999999674E+01  0.40000000000E+01  0.51100000000E-03 0. -1.
    9000002   -1    0    0    0    0 -0.00000000000E+00 -0.00000000000E+00  0.00000000000E+00  0.93800000000E+00  0.93800000000E+00 0. -1.
         11    1    1    2    0    0  0.20084695044E+00 -0.52384732379E-01  0.14041746821E+01  0.14194331463E+01  0.51100000000E-03 0. -1.
    9000002    1    1    2    0    0 -0.49037626503E-01 -0.18221467257E+00  0.50685658619E-01  0.95813355630E+00  0.93800000000E+00 0. -1.
         22    1    1    2    0    0 -0.15180932394E+00  0.23459940495E+00  0.25451396266E+01  0.25604332974E+01  0.00000000000E+00 0. -1.
</event>
<event>
 5    1  0.6076093E+001  0.1599677E+01  0.7818608E-02  0.3353714E+00
         11   -1    0    0    0    0  0.00000000000E+00  0.00000000000E+00  0.39999999674E+01  0.40000000000E+01  0.51100000000E-03 0.  1.
    9000002   -1    0    0    0    0 -0.00000000000E+00 -0.00000000000E+00  0.00000000000E+00  0.93800000000E+00  0.93800000000E+00 0. -1.
         11    1    1    2    0    0  0.56126582941E-01 -0.81929058263E-01  0.10603030476E+01  0.10649438379E+01  0.51100000000E-03 0.  1.
    9000002    1    1    2    0    0 -0.20789545605E+00  0.30219409471E+00  0.90383561324E-01  0.10112146061E+01  0.93800000000E+00 0. -1.
         22    1    1    2    0    0  0.15176887311E+00 -0.22026503645E+00  0.28493133584E+01  0.28618415560E+01  0.00000000000E+00 0.  1.
</event>
<event>
 5    1  0.6076093E+001  0.1587798E+01  0.7818608E-02  0.3366715E+00
         11   -1    0    0    0    0  0.00000000000E+00  0.00000000000E+00  0.39999999674E+01  0.40000000000E+01  0.51100000000E-03 0.  1.
    9000002   -1    0    0    0    0 -0.00000000000E+00 -0.00000000000E+00  0.00000000000E+00  0.93800000000E+00  0.93800000000E+00 0.  1.
         11    1    1    2    0    0  0.45369627550E-01  0.13896760438E+00  0.61852841451E+00  0.63556908268E+00  0.51100000000E-03 0.  1.
    9000002    1    1    2    0    0  0.26464981123E+00 -0.59184465182E+00  0.30906539470E+00  0.11813911430E+01  0.93800000000E+00 0.  1.
         22    1    1    2    0    0 -0.31001943878E+00  0.45287704744E+00  0.30724061581E+01  0.31210397744E+01  0.00000000000E+00 0.  1.
</event>
<event>
 5    1  0.6076093E+001  0.1457235E+01  0.7818608E-02  0.3524559E+00
         11   -1    0    0    0    0  0.00000000000E+00  0.00000000000E+00  0.39999999674E+01  0.40000000000E+01  0.51100000000E-03 0. -1.
    9000002   -1    0    0    0    0 -0.00000000000E+00 -0.00000000000E+00  0.00000000000E+00  0.93800000000E+00  0.93800000000E+00 0. -1.
         11    1    1    2    0    0 -0.14879392839E-01 -0.38631310998E+00  0.11050338181E+01  0.11707088517E+01  0.51100000000E-03 0. -1.
    9000002    1    1    2    0    0  0.39812503794E-01 -0.18178970315E+00  0.15478551502E+00  0.96872859320E+00  0.93800000000E+00 0. -1.
         22    1    1    2    0    0 -0.24933110955E-01  0.56810281313E+00  0.27401806343E+01  0.27985625551E+01  0.00000000000E+00 0. -1.
</event>
<event>
 5    1  0.6076093E+001  0.1598421E+01  0.7818608E-02  0.3355079E+00
         11   -1    0    0    0    0  0.00000000000E+00  0.00000000000E+00  0.39999999674E+01  0.40000000000E+01  0.51100000000E-03 0. -1.
    9000002   -1    0    0    0    0 -0.00000000000E+00 -0.00000000000E+00  0.00000000000E+00  0.93800000000E+00  0.93800000000E+00 0. -1.
         11    1    1    2    0    0 -0.23941778899E-01  0.33192977034E-01  0.35476484736E+00  0.35711810447E+00  0.51100000000E-03 0. -1.
    9000002    1    1    2    0    0  0.35172053700E+00 -0.11041006450E+00  0.92337801387E-01  0.10120612571E+01  0.93800000000E+00 0. -1.
         22    1    1    2    0    0 -0.32777875811E+00  0.77217087467E-01  0.35528973186E+01  0.35688206385E+01  0.00000000000E+00 0. -1.
</event>
<event>
 5    1  0.6076093E+001  0.1599637E+01  0.7818608E-02  0.3353758E+00
         11   -1    0    0    0    0  0.00000000000E+00  0.00000000000E+00  0.39999999674E+01  0.40000000000E+01  0.51100000000E-03 0.  1.
    9000002   -1    0    0    0    0 -0.00000000000E+00 -0.00000000000E+00  0.00000000000E+00  0.93800000000E+00  0.93800000000E+00 0.  1.
         11    1    1    2    0    0  0.14856068316E+00  0.32428870331E-01  0.13765592186E+01  0.13849322914E+01  0.51100000000E-03 0.  1.
    9000002    1    1    2    0    0 -0.40825509480E+00 -0.73915736659E-01  0.11636986741E+00  0.10322411078E+01  0.93800000000E+00 0.  1.
         22    1    1    2    0    0  0.25969441164E+00  0.41486866327E-01  0.25070708813E+01  0.25208266008E+01  0.00000000000E+00 0.  1.
</event>
<event>
 5    1  0.6076093E+001  0.1595578E+01  0.7818608E-02  0.3358176E+00
         11   -1    0    0    0    0  0.00000000000E+00  0.00000000000E+00  0.39999999674E+01  0.40000000000E+01  0.51100000000E-03 0.  1.
    9000002   -1    0    0    0    0 -0.00000000000E+00 -0.00000000000E+00  0.00000000000E+00  0.93800000000E+00  0.93800000000E+00 0. -1.
         11    1    1    2    0    0  0.47424225390E-01 -0.22034111270E+00  0.12006835884E+01  0.12216548628E+01  0.51100000000E-03 0.  1.
    9000002    1    1    2    0    0  0.95422843205E-03  0.52701076128E+00  0.19481686164E+00  0.10934069977E+01  0.93800000000E+00 0. -1.
         22    1    1    2    0    0 -0.48378453822E-01 -0.30666964858E+00  0.26044995173E+01  0.26229381395E+01  0.00000000000E+00 0.  1.
</event>
<event>
 5    1  0.6076093E+001  0.1599136E+01  0.7818608E-02  0.3354302E+00
         11   -1    0    0    0    0  0.00000000000E+00  0.00000000000E+00  0.39999999674E+01  0.40000000000E+01  0.51100000000E-03 0.  1.
    9000002   -1    0    0    0    0 -0.00000000000E+00 -0.00000000000E+00  0.00000000000E+00  0.93800000000E+00  0.93800000000E+00 0.  1.
         11    1    1    2    0    0  0.92134502918E-02  0.43030006940E-01  0.41125877536E+00  0.41360671005E+00  0.51100000000E-03 0.  1.
    9000002    1    1    2    0    0 -0.22675857897E+00 -0.32341959516E+00  0.10562004131E+00  0.10232396009E+01  0.93800000000E+00 0.  1.
         22    1    1    2    0    0  0.21754512868E+00  0.28038958822E+00  0.34831211507E+01  0.35011536891E+01  0.00000000000E+00 0.  1.
</event>
<event>
 5    1  0.6076093E+001  0.1599677E+01  0.7818608E-02  0.3353714E+00
         11   -1    0    0    0    0  0.00000000000E+00  0.00000000000E+00  0.39999999674E+01  0.40000000000E+01  0.51100000000E-03 0.  1.
    9000002   -1    0    0    0    0 -0.00000000000E+00 -0.00000000000E+00  0.00000000000E+00  0.93800000000E+00  0.93800000000E+00 0.  1.
         11    1    1    2    0    0 -0.38544976761E-02 -0.16581116541E+00  0.12744485582E+01  0.12851955448E+01  0.51100000000E-03 0.  1.
    9000002    1    1    2    0    0  0.11423170995E-01  0.49894239974E+00  0.17047868653E+00  0.10760952512E+01  0.93800000000E+00 0.  1.
         22    1    1    2    0    0 -0.75686733190E-02 -0.33313123433E+00  0.25550727227E+01  0.25767092040E+01  0.00000000000E+00 0.  1.
</event>
<event>
 5    1  0.6076093E+001  0.1599546E+01  0.7818608E-02  0.3353857E+00
         11   -1    0    0    0    0  0.00000000000E+00  0.00000000000E+00  0.39999999674E+01  0.40000000000E+01  0.51100000000E-03 0.  1.
    9000002   -1    0    0    0    0 -0.00000000000E+00 -0.00000000000E+00  0.00000000000E+00  0.93800000000E+00  0.93800000000E+00 0. -1.
         11    1    1    2    0    0 -0.12592875297E+00 -0.66474738264E-01  0.14627119764E+01  0.14696270032E+01  0.51100000000E-03 0.  1.
    9000002    1    1    2    0    0  0.36136931770E+00  0.15265087344E+00  0.10380920479E+00  0.10220129275E+01  0.93800000000E+00 0. -1.
         22    1    1    2    0    0 -0.23544056473E+00 -0.86176135179E-01  0.24334787862E+01  0.24463600693E+01  0.00000000000E+00 0.  1.
</event>
<event>
 5    1  0.6076093E+001  0.1599439E+01  0.7818608E-02  0.3353972E+00
         11   -1    0    0    0    0  0.00000000000E+00  0.00000000000E+00  0.39999999674E+01  0.40000000000E+01  0.51100000000E-03 0. -1.
    9000002   -1    0    0    0    0 -0.00000000000E+00 -0.00000000000E+00  0.00000000000E+00  0.93800000000E+00  0.93800000000E+00 0. -1.
         11    1    1    2    0    0 -0.97237555433E-01  0.46743624641E-01  0.11423234995E+01  0.11474072282E+01  0.51100000000E-03 0. -1.
    9000002    1    1    2    0    0  0.35247097101E+00 -0.10571903295E+00  0.91174249073E-01  0.10117158905E+01  0.93800000000E+00 0. -1.
         22    1    1    2    0    0 -0.25523341557E+00  0.58975408308E-01  0.27665022188E+01  0.27788768814E+01  0.00000000000E+00 0. -1.
</event>
<event>
 5    1  0.6076093E+001  0.1599419E+01  0.7818608E-02  0.3353994E+00
         11   -1    0    0    0    0  0.00000000000E+00  0.00000000000E+00  0.39999999674E+01  0.40000000000E+01  0.51100000000E-03 0. -1.
    9000002   -1    0    0    0    0 -0.00000000000E+00 -0.00000000000E+00  0.00000000000E+00  0.93800000000E+00  0.93800000000E+00 0. -1.
         11    1    1    2    0    0 -0.16978552931E-03  0.73476964420E-03  0.16682696925E-01  0.16707549528E-01  0.51100000000E-03 0. -1.
    9000002    1    1    2    0    0  0.29518774179E+00  0.34516040023E+00  0.14040663512E+00  0.10515842943E+01  0.93800000000E+00 0. -1.
         22    1    1    2    0    0 -0.29501795626E+00 -0.34589516988E+00  0.38429106353E+01  0.38697081562E+01  0.00000000000E+00 0. -1.
</event>
<event>
 5    1  0.6076093E+001  0.1599674E+01  0.7818608E-02  0.3353717E+00
         11   -1    0    0    0    0  0.00000000000E+00  0.00000000000E+00  0.39999999674E+01  0.40000000000E+01  0.51100000000E-03 0. -1.
    9000002   -1    0    0    0    0 -0.00000000000E+00 -0.00000000000E+00  0.00000000000E+00  0.93800000000E+00  0.93800000000E+00 0.  1.
         11    1    1    2    0    0 -0.99639561471E-01 -0.14165010533E-03  0.79459706698E+00  0.80082009356E+00  0.51100000000E-03 0. -1.
    9000002    1    1    2    0    0  0.48214645618E+00  0.84814705923E-02  0.15872332502E+00  0.10665712515E+01  0.93800000000E+00 0.  1.
         22    1    1    2    0    0 -0.38250689471E+00 -0.83398204869E-02  0.30466795754E+01  0.30706086550E+01  0.00000000000E+00 0. -1.
</event>
<event>
 5    1  0.6076093E+001  0.1535589E+01  0.7818608E-02  0.3426384E+00
         11   -1    0    0    0    0  0.00000000000E+00  0.00000000000E+00  0.39999999674E+01  0.40000000000E+01  0.51100000000E-03 0. -1.
    9000002   -1    0    0    0    0 -0.00000000000E+00 -0.00000000000E+00  0.00000000000E+00  0.93800000000E+00  0.93800000000E+00 0.  1.
         11    1    1    2    0    0 -0.56160353544E-02 -0.25517498061E+00  0.11736038859E+01  0.12010379481E+01  0.51100000000E-03 0. -1.
    9000002    1    1    2    0    0  0.95153951044E-01 -0.76472716136E-01  0.58378887862E-01  0.94771010613E+00  0.93800000000E+00 0.  1.
         22    1    1    2    0    0 -0.89537915690E-01  0.33164769674E+00  0.27680171936E+01  0.27892519458E+01  0.00000000000E+00 0. -1.
</event>
<event>
 5    1  0.6076093E+001  0.1597398E+01  0.7818608E-02  0.3356193E+00
         11   -1    0    0    0    0  0.00000000000E+00  0.00000000000E+00  0.39999999674E+01  0.40000000000E+01  0.51100000000E-03 0. -1.
    9000002   -1    0    0    0    0 -0.00000000000E+00 -0.00000000000E+00  0.00000000000E+00  0.93800000000E+00  0.93800000000E+00 0. -1.
         11    1    1    2    0    0  0.18199786051E-01 -0.14268014646E-02  0.85795744127E-01  0.87717950307E-01  0.51100000000E-03 0. -1.
    9000002    1    1    2    0    0 -0.16523377035E+00  0.46260574133E+00  0.16698719832E+00  0.10719304992E+01  0.93800000000E+00 0. -1.
         22    1    1    2    0    0  0.14703398430E+00 -0.46117893986E+00  0.37472170249E+01  0.37783515505E+01  0.00000000000E+00 0. -1.
</event>
<event>
 5    1  0.6076093E+001  0.1599670E+01  0.7818608E-02  0.3353722E+00
         11   -1    0    0    0    0  0.00000000000E+00  0.00000000000E+00  0.39999999674E+01  0.40000000000E+01  0.51100000000E-03 0.  1.
    9000002   -1    0    0    0    0 -0.00000000000E+00 -0.00000000000E+00  0.00000000000E+00  0.93800000000E+00  0.93800000000E+00 0. -1.
         11    1    1    2    0    0 -0.33013623585E-01 -0.10841474182E-01  0.36846970541E+00  0.37010487950E+00  0.51100000000E-03 0.  1.
    9000002    1    1    2    0    0  0.35407665480E+00  0.13387335003E+00  0.96401749623E-01  0.10160854534E+01  0.93800000000E+00 0. -1.
         22    1    1    2    0    0 -0.32106303121E+00 -0.12303187584E+00  0.35351285123E+01  0.35518096671E+01  0.00000000000E+00 0.  1.
</event>
<event>
 5    1  0.6076093E+001  0.1599668E+01  0.7818608E-02  0.3353723E+00
         11   -1    0    0    0    0  0.00000000000E+00  0.00000000000E+00  0.39999999674E+01  0.40000000000E+01  0.51100000000E-03 0. -1.
    9000002   -1    0    0    0    0 -0.00000000000E+00 -0.00000000000E+00  0.00000000000E+00  0.93800000000E+00  0.93800000000E+00 0.  1.
         11    1    1    2    0    0 -0.69241901110E-01 -0.91114907515E-01  0.81929630018E+00  0.82725029819E+00  0.51100000000E-03 0. -1.
    9000002    1    1    2    0    0  0.30927872738E+00  0.42805420186E+00  0.19185447675E+00  0.10934056298E+01  0.93800000000E+00 0.  1.
         22    1    1    2    0    0 -0.24003682627E+00 -0.33693929435E+00  0.29888491904E+01  0.30173440721E+01  0.00000000000E+00 0. -1.
</event>
<event>
 5    1  0.6076093E+001  0.1599677E+01  0.7818608E-02  0.3353714E+00
         11   -1    0    0    0    0  0.00000000000E+00  0.00000000000E+00  0.39999999674E+01  0.40000000000E+01  0.51100000000E-03 0.  1.
    9000002   -1    0    0    0    0 -0.00000000000E+00 -0.00000000000E+00  0.00000000000E+00  0.93800000000E+00  0.93800000000E+00 0.  1.
         11    1    1    2    0    0 -0.69388146121E-02  0.93187588443E-01  0.72317893377E+00  0.72919140502E+00  0.51100000000E-03 0. -1.
    9000002    1    1    2    0    0  0.35392933988E-01 -0.49590179948E+00  0.16912266891E+00  0.10749966194E+01  0.93800000000E+00 0.  1.
         22    1    1    2    0    0 -0.28454119376E-01  0.40271421103E+00  0.31076983647E+01  0.31338119756E+01  0.00000000000E+00 0.  1.
</event>
<event>
 5    1  0.6076093E+001  0.1599676E+01  0.7818608E-02  0.3353715E+00
         11   -1    0    0    0    0  0.00000000000E+00  0.00000000000E+00  0.39999999674E+01  0.40000000000E+01  0.51100000000E-03 0.  1.
    9000002   -1    0    0    0    0 -0.00000000000E+00 -0.00000000000E+00  0.00000000000E+00  0.93800000000E+00  0.93800000000E+00 0.  1.
         11    1    1    2    0    0 -0.11765009446E+00  0.73680628885E-01  0.14126030399E+01  0.14194076191E+01  0.51100000000E-03 0.  1.
    9000002    1    1    2    0    0  0.32382662599E+00 -0.20115218793E+00  0.97796087970E-01  0.10172187381E+01  0.93800000000E+00 0.  1.
         22    1    1    2    0    0 -0.20617653153E+00  0.12747155905E+00  0.24896008395E+01  0.25013736427E+01  0.00000000000E+00 0.  1.
</event>
<event>
 5    1  0.6076093E+001  0.1587336E+01  0.7818608E-02  0.3367224E+00
         11   -1    0    0    0    0  0.00000000000E+00  0.00000000000E+00  0.39999999674E+01  0.40000000000E+01  0.51100000000E-03 0.  1.
    9000002   -1    0    0    0    0 -0.00000000000E+00 -0.00000000000E+00  0.00000000000E+00  0.93800000000E+00  0.93800000000E+00 0. -1.
         11    1    1    2    0    0  0.11515644321E-01  0.23211774699E-01  0.53821615187E-01  0.59736286553E-01  0.51100000000E-03 0.  1.
    9000002    1    1    2    0    0  0.21705347803E+00  0.36311687699E+00  0.13160120041E+00  0.10373663551E+01  0.93800000000E+00 0. -1.
         22    1    1    2    0    0 -0.22856912236E+00 -0.38632865169E+00  0.38145771518E+01  0.38408973584E+01  0.00000000000E+00 0.  1.
</event>
<event>
 5    1  0.6076093E+001  0.1599677E+01  0.7818608E-02  0.3353714E+00
         11   -1    0    0    0    0  0.00000000000E+00  0.00000000000E+00  0.39999999674E+01  0.40000000000E+01  0.51100000000E-03 0.  1.
    9000002   -1    0    0    0    0 -0.00000000000E+00 -0.00000000000E+00  0.00000000000E+00  0.93800000000E+00  0.93800000000E+00 0. -1.
         11    1    1    2    0    0 -0.80908780494E-01 -0.11423518043E+00  0.10849416382E+01  0.10939353394E+01  0.51100000000E-03 0.  1.
    9000002    1    1    2    0    0  0.28499020884E+00  0.40560127074E+00  0.16809719592E+00  0.10741659449E+01  0.93800000000E+00 0. -1.
         22    1    1    2    0    0 -0.20408142834E+00 -0.29136609031E+00  0.27469611332E+01  0.27698987157E+01  0.00000000000E+00 0.  1.
</event>
<event>
 5    1  0.6076093E+001  0.1505834E+01  0.7818608E-02  0.3462369E+00
         11   -1    0    0    0    0  0.00000000000E+00  0.00000000000E+00  0.39999999674E+01  0.40000000000E+01  0.51100000000E-03 0.  1.
    9000002   -1    0    0    0    0 -0.00000000000E+00 -0.00000000000E+00  0.00000000000E+00  0.93800000000E+00  0.93800000000E+00 0. -1.
         11    1    1    2    0    0 -0.24669776049E+00 -0.14288367678E+00  0.65869989250E+00  0.71774740656E+00  0.51100000000E-03 0.  1.
    9000002    1    1    2    0    0 -0.71334683581E-01  0.20867336933E+00  0.10678510526E+00  0.96947422392E+00  0.93800000000E+00 0. -1.
         22    1    1    2    0    0  0.31803244408E+00 -0.65789692548E-01  0.32345149696E+01  0.32507783695E+01  0.00000000000E+00 0.  1.
</event>
<event>
 5    1  0.6076093E+001  0.1599523E+01  0.7818608E-02  0.3353881E+00
         11   -1    0    0    0    0  0.00000000000E+00  0.00000000000E+00  0.39999999674E+01  0.40000000000E+01  0.51100000000E-03 0.  1.
    9000002   -1    0    0    0    0 -0.00000000000E+00 -0.00000000000E+00  0.00000000000E+00  0.93800000000E+00  0.93800000000E+00 0.  1.
         11    1    1    2    0    0  0.41323059677E+00  0.29431036273E+00  0.13742443872E+01  0.14648979530E+01  0.51100000000E-03 0.  1.
    9000002    1    1    2    0    0 -0.87671970490E+00 -0.66319162282E+00  0.10402953366E+01  0.17805951131E+01  0.93800000000E+00 0.  1.
         22    1    1    2    0    0  0.46348910813E+00  0.36888126009E+00  0.15854602436E+01  0.16925069339E+01  0.00000000000E+00 0.  1.
</event>
<event>
 5    1  0.6076093E+001  0.1598004E+01  0.7818608E-02  0.3355533E+00
         11   -1    0    0    0    0  0.00000000000E+00  0.00000000000E+00  0.39999999674E+01  0.40000000000E+01  0.51100000000E-03 0. -1.
    9000002   -1    0    0    0    0 -0.00000000000E+00 -0.00000000000E+00  0.00000000000E+00  0.93800000000E+00  0.93800000000E+00 0. -1.
         11    1    1    2    0    0  0.51130175848E-01  0.30322229915E-01  0.12058284133E+01  0.12072929039E+01  0.51100000000E-03 0. -1.
    9000002    1    1    2    0    0 -0.27001031926E+00 -0.20438968918E+00  0.78139142263E-01  0.10003151719E+01  0.93800000000E+00 0. -1.
         22    1    1    2    0    0  0.21888014342E+00  0.17406745926E+00  0.27160324118E+01  0.27303919242E+01  0.00000000000E+00 0. -1.
</event>
<event>
 5    1  0.6076093E+001  0.1595737E+01  0.7818608E-02  0.3358004E+00
         11   -1    0    0    0    0  0.00000000000E+00  0.00000000000E+00  0.39999999674E+01  0.40000000000E+01  0.51100000000E-03 0. -1.
    9000002   -1    0    0    0    0 -0.00000000000E+00 -0.00000000000E+00  0.00000000000E+00  0.93800000000E+00  0.93800000000E+00 0. -1.
         11    1    1    2    0    0 -0.74383244966E-01  0.81340555937E-01  0.27527417251E+00  0.29652197953E+00  0.51100000000E-03 0. -1.
    9000002    1    1    2    0    0  0.52846425390E+00 -0.66596387131E+00  0.54769371370E+00  0.13793457687E+01  0.93800000000E+00 0. -1.
         22    1    1    2    0    0 -0.45408100894E+00  0.58462331537E+00  0.31770320811E+01  0.32621322518E+01  0.00000000000E+00 0. -1.
</event>
<event>
 5    1  0.6076093E+001  0.1599633E+01  0.7818608E-02  0.3353762E+00
         11   -1    0    0    0    0  0.00000000000E+00  0.00000000000E+00  0.39999999674E+01  0.40000000000E+01  0.51100000000E-03 0.  1.
    9000002   -1    0    0    0    0 -0.00000000000E+00 -0.00000000000E+00  0.00000000000E+00  0.93800000000E+00  0.93800000000E+00 0. -1.
         11    1    1    2    0    0  0.23200685776E-01 -0.31018753337E-01  0.30105478896E+00  0.30353695320E+00  0.51100000000E-03 0.  1.
    9000002    1    1    2    0    0 -0.32345589305E+00  0.34890124676E+00  0.15438188891E+00  0.10630303676E+01  0.93800000000E+00 0. -1.
         22    1    1    2    0    0  0.30025520728E+00 -0.31788249342E+00  0.35445632895E+01  0.35714326792E+01  0.00000000000E+00 0.  1.
</event>
<event>
 5    1  0.6076093E+001  0.1599675E+01  0.7818608E-02  0.3353716E+00
         11   -1    0    0    0    0  0.00000000000E+00  0.00000000000E+00  0.39999999674E+01  0.40000000000E+01  0.51100000000E-03 0. -1.
    9000002   -1    0    0    0    0 -0.00000000000E+00 -0.00000000000E+00  0.00000000000E+00  0.93800000000E+00  0.93800000000E+00 0. -1.
         11    1    1    2    0    0 -0.32848431607E-02  0.28185201588E-01  0.24306344160E+00  0.24471471870E+00  0.51100000000E-03 0. -1.
    9000002    1    1    2    0    0  0.47126693440E-01 -0.44052882394E+00  0.13318066294E+00  0.10458812834E+01  0.93800000000E+00 0. -1.
         22    1    1    2    0    0 -0.43841850279E-01  0.41234362235E+00  0.36237558628E+01  0.36474039979E+01  0.00000000000E+00 0. -1.
</event>
<event>
 5    1  0.6076093E+001  0.1599667E+01  0.7818608E-02  0.3353725E+00
         11   -1    0    0    0    0  0.00000000000E+00  0.00000000000E+00  0.39999999674E+01  0.40000000000E+01  0.51100000000E-03 0.  1.
    9000002   -1    0    0    0    0 -0.00000000000E+00 -0.00000000000E+00  0.00000000000E+00  0.93800000000E+00  0.93800000000E+00 0. -1.
         11    1    1    2    0    0 -0.96686544340E-01  0.95131383105E-01  0.11012296114E+01  0.11095517951E+01  0.51100000000E-03 0. -1.
    9000002    1    1    2    0    0  0.34831851880E+00 -0.33580951553E+00  0.15983335537E+00  0.10674664036E+01  0.93800000000E+00 0. -1.
         22    1    1    2    0    0 -0.25163197446E+00  0.24067813242E+00  0.27389370006E+01  0.27609818013E+01  0.00000000000E+00 0.  1.
</event>
<event>
 5    1  0.6076093E+001  0.1586242E+01  0.7818608E-02  0.3368432E+00
         11   -1    0    0    0    0  0.00000000000E+00  0.00000000000E+00  0.39999999674E+01  0.40000000000E+01  0.51100000000E-03 0. -1.
    9000002   -1    0    0    0    0 -0.00000000000E+00 -0.00000000000E+00  0.00000000000E+00  0.93800000000E+00  0.93800000000E+00 0.  1.
         11    1    1    2    0    0  0.15478091010E+00 -0.49672387250E-01  0.49194840802E+00  0.51811000131E+00  0.51100000000E-03 0. -1.
    9000002    1    1    2    0    0 -0.50146948018E+00  0.12901914487E+00  0.19650568910E+00  0.10893007230E+01  0.93800000000E+00 0.  1.
         22    1    1    2    0    0  0.34668857008E+00 -0.79346757623E-01  0.33115458702E+01  0.33305892757E+01  0.00000000000E+00 0. -1.
</event>
<event>
 5    1  0.6076093E+001  0.1599677E+01  0.7818608E-02  0.3353714E+00
         11   -1    0    0    0    0  0.00000000000E+00  0.00000000000E+00  0.39999999674E+01  0.40000000000E+01  0.51100000000E-03 0. -1.
    9000002   -1    0    0    0    0 -0.00000000000E+00 -0.00000000000E+00  0.00000000000E+00  0.93800000000E+00  0.93800000000E+00 0. -1.
         11    1    1    2    0    0  0.20802564440E-01 -0.66233650897E-01  0.56625531522E+00  0.57049538678E+00  0.51100000000E-03 0.  1.
    9000002    1    1    2    0    0 -0.13921716291E+00  0.45078206519E+00  0.15167805838E+00  0.10608657418E+01  0.93800000000E+00 0. -1.
         22    1    1    2    0    0  0.11841459847E+00 -0.38454841429E+00  0.32820665938E+01  0.33066388714E+01  0.00000000000E+00 0. -1.
</event>
<event>
 5    1  0.6076093E+001  0.1562802E+01  0.7818608E-02  0.3394753E+00
         11   -1    0    0    0    0  0.00000000000E+00  0.00000000000E+00  0.39999999674E+01  0.40000000000E+01  0.51100000000E-03 0. -1.
    9000002   -1    0    0    0    0 -0.00000000000E+00 -0.00000000000E+00  0.00000000000E+00  0.93800000000E+00  0.93800000000E+00 0. -1.
         11    1    1    2    0    0  0.14737611312E+00 -0.60946348804E-01  0.10052220171E+01  0.10177945475E+01  0.51100000000E-03 0. -1.
    9000002    1    1    2    0    0  0.50836786930E-01 -0.23956252886E+00  0.68491275159E-01  0.97185885751E+00  0.93800000000E+00 0. -1.
         22    1    1    2    0    0 -0.19821290005E+00  0.30050887766E+00  0.29262866751E+01  0.29483465950E+01  0.00000000000E+00 0. -1.
</event>
<event>
 5    1  0.6076093E+001  0.1580202E+01  0.7818608E-02  0.3375136E+00
         11   -1    0    0    0    0  0.00000000000E+00  0.00000000000E+00  0.39999999674E+01  0.40000000000E+01  0.51100000000E-03 0.  1.
    9000002   -1    0    0    0    0 -0.00000000000E+00 -0.00000000000E+00  0.00000000000E+00  0.93800000000E+00  0.93800000000E+00 0. -1.
         11    1    1    2    0    0 -0.93113824856E-01 -0.87435138550E-01  0.11099722635E+01  0.11172975318E+01  0.51100000000E-03 0.  1.
    9000002    1    1    2    0    0  0.13693311675E+00 -0.18964313873E+00  0.51234497599E-01  0.96808273008E+00  0.93800000000E+00 0. -1.
         22    1    1    2    0    0 -0.43819291895E-01  0.27707827728E+00  0.28387932063E+01  0.28526197381E+01  0.00000000000E+00 0.  1.
</event>
<event>
 5    1  0.6076093E+001  0.1599676E+01  0.7818608E-02  0.3353715E+00
         11   -1    0    0    0    0  0.00000000000E+00  0.00000000000E+00  0.39999999674E+01  0.40000000000E+01  0.51100000000E-03 0.  1.
    9000002   -1    0    0    0    0 -0.00000000000E+00 -0.00000000000E+00  0.00000000000E+00  0.93800000000E+00  0.93800000000E+00 0. -1.
         11    1    1    2    0    0  0.32626767848E-01 -0.50763249862E-01  0.36937521974E+00  0.37427226399E+00  0.51100000000E-03 0. -1.
    9000002    1    1    2    0    0 -0.32608376261E+00  0.51556970768E+00  0.26020828005E+00  0.11487798278E+01  0.93800000000E+00 0. -1.
         22    1    1    2    0    0  0.29345699476E+00 -0.46480645782E+00  0.33704164676E+01  0.34149479082E+01  0.00000000000E+00 0.  1.
</event>
<event>
 5    1  0.6076093E+001  0.1599450E+01  0.7818608E-02  0.3353960E+00
         11   -1    0    0    0    0  0.00000000000E+00  0.00000000000E+00  0.39999999674E+01  0.40000000000E+01  0.51100000000E-03 0.  1.
    9000002   -1    0    0    0    0 -0.00000000000E+00 -0.00000000000E+00  0.00000000000E+00  0.93800000000E+00  0.93800000000E+00 0. -1.
         11    1    1    2    0    0 -0.66168241853E-01  0.92543020045E-01  0.99821556366E+00  0.10046775699E+01  0.51100000000E-03 0.  1.
    9000002    1    1    2    0    0  0.30000759376E+00 -0.31534592458E+00  0.12858949564E+00  0.10420301660E+01  0.93800000000E+00 0. -1.
         22    1    1    2    0    0 -0.23383935191E+00  0.22280290454E+00  0.28731949081E+01  0.28912922641E+01  0.00000000000E+00 0. -1.
</event>
<event>
 5    1  0.6076093E+001  0.1599675E+01  0.7818608E-02  0.3353716E+00
         11   -1    0    0    0    0  0.00000000000E+00  0.00000000000E+00  0.39999999674E+01  0.40000000000E+01  0.51100000000E-03 0. -1.
    9000002   -1    0    0    0    0 -0.00000000000E+00 -0.00000000000E+00  0.00000000000E+00  0.93800000000E+00  0.93800000000E+00 0.  1.
         11    1    1    2    0    0  0.11140328856E+00  0.31811273021E-01  0.10494886168E+01  0.10558642278E+01  0.51100000000E-03 0. -1.
    9000002    1    1    2    0    0 -0.40934199457E+00 -0.12261593453E+00  0.12361588074E+00  0.10381331427E+01  0.93800000000E+00 0.  1.
         22    1    1    2    0    0  0.29793870602E+00  0.90804661505E-01  0.28268954699E+01  0.28440026295E+01  0.00000000000E+00 0. -1.
</event>
<event>
 5    1  0.6076093E+001  0.1580947E+01  0.7818608E-02  0.3374306E+00
         11   -1    0    0    0    0  0.00000000000E+00  0.00000000000E+00  0.39999999674E+01  0.40000000000E+01  0.51100000000E-03 0. -1.
    9000002   -1    0    0    0    0 -0.00000000000E+00 -0.00000000000E+00  0.00000000000E+00  0.93800000000E+00  0.93800000000E+00 0.  1.
         11    1    1    2    0    0 -0.76528461867E-01  0.21479627690E+00  0.94626728422E+00  0.97335300911E+00  0.51100000000E-03 0. -1.
    9000002    1    1    2    0    0  0.60074075812E+00 -0.36152162997E+00  0.37277193430E+00  0.12289793580E+01  0.93800000000E+00 0.  1.
         22    1    1    2    0    0 -0.52421229625E+00  0.14672535307E+00  0.26809607488E+01  0.27356676329E+01  0.00000000000E+00 0. -1.
</event>
<event>
 5    1  0.6076093E+001  0.1504259E+01  0.7818608E-02  0.3464317E+00
         11   -1    0    0    0    0  0.00000000000E+00  0.00000000000E+00  0.39999999674E+01  0.40000000000E+01  0.51100000000E-03 0. -1.
    9000002   -1    0    0    0    0 -0.00000000000E+00 -0.00000000000E+00  0.00000000000E+00  0.93800000000E+00  0.93800000000E+00 0.  1.
         11    1    1    2    0    0  0.27376384365E+00 -0.29891131216E-01  0.68947941544E+00  0.74244343033E+00  0.51100000000E-03 0. -1.
    9000002    1    1    2    0    0  0.69234764798E-01  0.12700130595E+00  0.87755572494E-01  0.95313578512E+00  0.93800000000E+00 0.  1.
         22    1    1    2    0    0 -0.34299860844E+00 -0.97110174738E-01  0.32227649794E+01  0.32424207845E+01  0.00000000000E+00 0. -1.
</event>
<event>
 5    1  0.6076093E+001  0.1538835E+01  0.7818608E-02  0.3422548E+00
         11   -1    0    0    0    0  0.00000000000E+00  0.00000000000E+00  0.39999999674E+01  0.40000000000E+01  0.51100000000E-03 0.  1.
    9000002   -1    0    0    0    0 -0.00000000000E+00 -0.00000000000E+00  0.00000000000E+00  0.93800000000E+00  0.93800000000E+00 0. -1.
         11    1    1    2    0    0  0.26596633093E+00  0.34620850292E-01  0.10855734972E+01  0.11182158876E+01  0.51100000000E-03 0.  1.
    9000002    1    1    2    0    0 -0.29902737659E-03 -0.13536452824E+00  0.58244992730E-01  0.94950519962E+00  0.93800000000E+00 0. -1.
         22    1    1    2    0    0 -0.26566730356E+00  0.10074367794E+00  0.28561814774E+01  0.28702789127E+01  0.00000000000E+00 0.  1.
</event>
<event>
 5    1  0.6076093E+001  0.1599607E+01  0.7818608E-02  0.3353790E+00
         11   -1    0    0    0    0  0.00000000000E+00  0.00000000000E+00  0.39999999674E+01  0.40000000000E+01  0.51100000000E-03 0. -1.
    9000002   -1    0    0    0    0 -0.00000000000E+00 -0.00000000000E+00  0.00000000000E+00  0.93800000000E+00  0.93800000000E+00 0.  1.
         11    1    1    2    0    0 -0.14449315123E+00 -0.66245400655E-01  0.11811439836E+01  0.11917919680E+01  0.51100000000E-03 0. -1.
    9000002    1    1    2    0    0  0.45738612726E+00  0.24265903594E+00  0.18414466039E+00  0.10871240652E+01  0.93800000000E+00 0.  1.
         22    1    1    2    0    0 -0.31289297603E+00 -0.17641363529E+00  0.26347113233E+01  0.26590839668E+01  0.00000000000E+00 0. -1.
</event>
<event>
 5    1  0.6076093E+001  0.1581872E+01  0.7818608E-02  0.3373277E+00
         11   -1    0    0    0    0  0.00000000000E+00  0.00000000000E+00  0.39999999674E+01  0.40000000000E+01  0.51100000000E-03 0. -1.
    9000002   -1    0    0    0    0 -0.00000000000E+00 -0.00000000000E+00  0.00000000000E+00  0.93800000000E+00  0.93800000000E+00 0.  1.
         11    1    1    2    0    0  0.11144692396E+00  0.90804924945E-01  0.75410158456E+00  0.76768184309E+00  0.51100000000E-03 0. -1.
    9000002    1    1    2    0    0  0.63727165362E-01 -0.32407090304E+00  0.87294857613E-01  0.99827225443E+00  0.93800000000E+00 0.  1.
         22    1    1    2    0    0 -0.17517408932E+00  0.23326597809E+00  0.31586035252E+01  0.31720459025E+01  0.00000000000E+00 0. -1.
</event>
<event>
 5    1  0.6076093E+001  0.1599675E+01  0.7818608E-02  0.3353716E+00
         11   -1    0    0    0    0  0.00000000000E+00  0.00000000000E+00  0.39999999674E+01  0.40000000000E+01  0.51100000000E-03 0.  1.
    9000002   -1    0    0    0    0 -0.00000000000E+00 -0.00000000000E+00  0.00000000000E+00  0.93800000000E+00  0.93800000000E+00 0.  1.
         11    1    1    2    0    0 -0.44193312639E-02  0.13585510111E-01  0.14736531482E+00  0.14805706233E+00  0.51100000000E-03 0.  1.
    9000002    1    1    2    0    0  0.11007919238E+00 -0.35443216220E+00  0.92579992790E-01  0.10129929127E+01  0.93800000000E+00 0.  1.
         22    1    1    2    0    0 -0.10565986112E+00  0.34084665209E+00  0.37600546598E+01  0.37769500249E+01  0.00000000000E+00 0.  1.
</event>
<event>
 5    1  0.6076093E+001  0.1599641E+01  0.7818608E-02  0.3353753E+00
         11   -1    0    0    0    0  0.00000000000E+00  0.00000000000E+00  0.39999999674E+01  0.40000000000E+01  0.51100000000E-03 0.  1.
    9000002   -1    0    0    0    0 -0.00000000000E+00 -0.00000000000E+00  0.00000000000E+00  0.93800000000E+00  0.93800000000E+00 0. -1.
         11    1    1    2    0    0 -0.17024274129E-02 -0.14487626554E+00  0.11591962704E+01  0.11682158555E+01  0.51100000000E-03 0.  1.
    9000002    1    1    2    0    0  0.26409149775E-01  0.48692853004E+00  0.16248541526E+00  0.10695991524E+01  0.93800000000E+00 0. -1.
         22    1    1    2    0    0 -0.24706722362E-01 -0.34205226450E+00  0.26783182817E+01  0.27001849921E+01  0.00000000000E+00 0.  1.
</event>
<event>
 5    1  0.6076093E+001  0.1599676E+01  0.7818608E-02  0.3353715E+00
         11   -1    0    0    0    0  0.00000000000E+00  0.00000000000E+00  0.39999999674E+01  0.40000000000E+01  0.51100000000E-03 0. -1.
    9000002   -1    0    0    0    0 -0.00000000000E+00 -0.00000000000E+00  0.00000000000E+00  0.93800000000E+00  0.93800000000E+00 0. -1.
         11    1    1    2    0    0 -0.16874771057E-01 -0.22756813557E-01  0.14810598339E+00  0.15079215463E+00  0.51100000000E-03 0.  1.
    9000002    1    1    2    0    0  0.41770860467E+00  0.56251265408E+00  0.35089642948E+00  0.12222410845E+01  0.93800000000E+00 0. -1.
         22    1    1    2    0    0 -0.40083383361E+00 -0.53975584053E+00  0.35009975545E+01  0.35649667609E+01  0.00000000000E+00 0. -1.
</event>
<event>
 5    1  0.6076093E+001  0.1599417E+01  0.7818608E-02  0.3353997E+00
         11   -1    0    0    0    0  0.00000000000E+00  0.00000000000E+00  0.39999999674E+01  0.40000000000E+01  0.51100000000E-03 0.  1.
    9000002   -1    0    0    0    0 -0.00000000000E+00 -0.00000000000E+00  0.00000000000E+00  0.93800000000E+00  0.93800000000E+00 0. -1.
         11    1    1    2    0    0 -0.10141746809E+00 -0.28553425631E-01  0.12914927648E+01  0.12957834015E+01  0.51100000000E-03 0.  1.
    9000002    1    1    2    0    0  0.36192477632E+00  0.80107791828E-01  0.92562323425E-01  0.10128270266E+01  0.93800000000E+00 0. -1.
         22    1    1    2    0    0 -0.26050730823E+00 -0.51554366197E-01  0.26159448791E+01  0.26293895719E+01  0.00000000000E+00 0. -1.
</event>
<event>
 5    1  0.6076093E+001  0.1599677E+01  0.7818608E-02  0.3353715E+00
         11   -1    0    0    0    0  0.00000000000E+00  0.00000000000E+00  0.39999999674E+01  0.40000000000E+01  0.51100000000E-03 0.  1.
    9000002   -1    0    0    0    0 -0.00000000000E+00 -0.00000000000E+00  0.00000000000E+00  0.93800000000E+00  0.93800000000E+00 0. -1.
         11    1    1    2    0    0  0.41159635259E-01  0.10170116374E+00  0.11006822265E+01  0.11061369116E+01  0.51100000000E-03 0. -1.
    9000002    1    1    2    0    0 -0.14465304875E+00 -0.36235800213E+00  0.10255337092E+00  0.10210724852E+01  0.93800000000E+00 0. -1.
         22    1    1    2    0    0  0.10349341350E+00  0.26065683839E+00  0.27967643699E+01  0.28107906032E+01  0.00000000000E+00 0.  1.
</event>
<event>
 5    1  0.6076093E+001  0.1555951E+01  0.7818608E-02  0.3402605E+00
         11   -1    0    0    0    0  0.00000000000E+00  0.00000000000E+00  0.39999999674E+01  0.40000000000E+01  0.51100000000E-03 0. -1.
    9000002   -1    0    0    0    0 -0.00000000000E+00 -0.00000000000E+00  0.00000000000E+00  0.93800000000E+00  0.93800000000E+00 0.  1.
         11    1    1    2    0    0  0.18711000159E+00  0.22659893424E-01  0.11491386222E+01  0.11644927898E+01  0.51100000000E-03 0. -1.
    9000002    1    1    2    0    0  0.13242418627E+00  0.47909528340E-01  0.46005623967E-01  0.94962729818E+00  0.93800000000E+00 0.  1.
         22    1    1    2    0    0 -0.31953418786E+00 -0.70569421764E-01  0.28048557212E+01  0.28238799120E+01  0.00000000000E+00 0. -1.
</event>
<event>
 5    1  0.6076093E+001  0.1599559E+01  0.7818608E-02  0.3353842E+00
         11   -1    0    0    0    0  0.00000000000E+00  0.00000000000E+00  0.39999999674E+01  0.40000000000E+01  0.51100000000E-03 0.  1.
    9000002   -1    0    0    0    0 -0.00000000000E+00 -0.00000000000E+00  0.00000000000E+00  0.93800000000E+00  0.93800000000E+00 0. -1.
         11    1    1    2    0    0 -0.12133849671E-01 -0.55212325798E-01  0.45957776017E+00  0.46304169358E+00  0.51100000000E-03 0.  1.
    9000002    1    1    2    0    0  0.12713893037E+00  0.39905886403E+00  0.11871281422E+00  0.10340933308E+01  0.93800000000E+00 0. -1.
         22    1    1    2    0    0 -0.11500508070E+00 -0.34384653823E+00  0.34217093930E+01  0.34408649756E+01  0.00000000000E+00 0.  1.
</event>
<event>
 5    1  0.6076093E+001  0.1596452E+01  0.7818608E-02  0.3357224E+00
         11   -1    0    0    0    0  0.00000000000E+00  0.00000000000E+00  0.39999999674E+01  0.40000000000E+01  0.51100000000E-03 0.  1.
    9000002   -1    0    0    0    0 -0.00000000000E+00 -0.00000000000E+00  0.00000000000E+00  0.93800000000E+00  0.93800000000E+00 0. -1.
         11    1    1    2    0    0  0.10571915018E+00  0.99977073700E-01  0.12641787750E+01  0.12725251236E+01  0.51100000000E-03 0.  1.
    9000002    1    1    2    0    0 -0.49988867426E+00 -0.23645388635E+00  0.21439541048E+00  0.11097785901E+01  0.93800000000E+00 0. -1.
         22    1    1    2    0    0  0.39416952408E+00  0.13647681265E+00  0.25214257819E+01  0.25556962863E+01  0.00000000000E+00 0.  1.
</event>
<event>
 5    1  0.6076093E+001  0.1420399E+01  0.7818608E-02  0.3574787E+00
         11   -1    0    0    0    0  0.00000000000E+00  0.00000000000E+00  0.39999999674E+01  0.40000000000E+01  0.51100000000E-03 0. -1.
    9000002   -1    0    0    0    0 -0.00000000000E+00 -0.00000000000E+00  0.00000000000E+00  0.93800000000E+00  0.93800000000E+00 0.  1.
         11    1    1    2    0    0 -0.35287605036E+00  0.42793220200E+00  0.13624120385E+01  0.14709909246E+01  0.51100000000E-03 0. -1.
    9000002    1    1    2    0    0  0.11109105845E+00 -0.13896712711E+00  0.16867177293E+00  0.96950876874E+00  0.93800000000E+00 0.  1.
         22    1    1    2    0    0  0.24178499192E+00 -0.28896507489E+00  0.24689161560E+01  0.24975003067E+01  0.00000000000E+00 0. -1.
</event>
<event>
 5    1  0.6076093E+001  0.1599667E+01  0.7818608E-02  0.3353725E+00
         11   -1    0    0    0    0  0.00000000000E+00  0.00000000000E+00  0.39999999674E+01  0.40000000000E+01  0.51100000000E-03 0.  1.
    9000002   -1    0    0    0    0 -0.00000000000E+00 -0.00000000000E+00  0.00000000000E+00  0.93800000000E+00  0.93800000000E+00 0.  1.
         11    1    1    2    0    0 -0.11757363122E+00  0.67033446212E-01  0.14624522831E+01  0.14687014616E+01  0.51100000000E-03 0.  1.
    9000002    1    1    2    0    0  0.31883606648E+00 -0.17042102878E+00  0.87757237205E-01  0.10090813134E+01  0.93800000000E+00 0.  1.
         22    1    1    2    0    0 -0.20126243526E+00  0.10338758257E+00  0.24497904470E+01  0.24602172251E+01  0.00000000000E+00 0.  1.
</event>
<event>
 5    1  0.6076093E+001  0.1599634E+01  0.7818608E-02  0.3353761E+00
         11   -1    0    0    0    0  0.00000000000E+00  0.00000000000E+00  0.39999999674E+01  0.40000000000E+01  0.51100000000E-03 0. -1.
    9000002   -1    0    0    0    0 -0.00000000000E+00 -0.00000000000E+00  0.00000000000E+00  0.93800000000E+00  0.93800000000E+00 0.  1.
         11    1    1    2    0    0  0.37912024996E-01 -0.53688045411E-01  0.67288165099E+00  0.67608409626E+00  0.51100000000E-03 0. -1.
    9000002    1    1    2    0    0 -0.19374260968E+00  0.33403668050E+00  0.10044286289E+00  0.10193377612E+01  0.93800000000E+00 0.  1.
         22    1    1    2    0    0  0.15583058469E+00 -0.28034863509E+00  0.32266754535E+01  0.32425781425E+01  0.00000000000E+00 0. -1.
</event>
<event>
 5    1  0.6076093E+001  0.1599667E+01  0.7818608E-02  0.3353724E+00
         11   -1    0    0    0    0  0.00000000000E+00  0.00000000000E+00  0.39999999674E+01  0.40000000000E+01  0.51100000000E-03 0. -1.
    9000002   -1    0    0    0    0 -0.00000000000E+00 -0.00000000000E+00  0.00000000000E+00  0.93800000000E+00  0.93800000000E+00 0. -1.
         11    1    1    2    0    0 -0.99163463365E-02  0.76092315412E-01  0.73086195622E+00  0.73487946941E+00  0.51100000000E-03 0. -1.
    9000002    1    1    2    0    0  0.44905453029E-01 -0.41744091782E+00  0.11922019398E+00  0.10345679650E+01  0.93800000000E+00 0. -1.
         22    1    1    2    0    0 -0.34989106693E-01  0.34134860241E+00  0.31499178172E+01  0.31685525656E+01  0.00000000000E+00 0. -1.
</event>
<event>
 5    1  0.6076093E+001  0.1558098E+01  0.7818608E-02  0.3400137E+00
         11   -1    0    0    0    0  0.00000000000E+00  0.00000000000E+00  0.39999999674E+01  0.40000000000E+01  0.51100000000E-03 0.  1.
    9000002   -1    0    0    0    0 -0.00000000000E+00 -0.00000000000E+00  0.00000000000E+00  0.93800000000E+00  0.93800000000E+00 0. -1.
         11    1    1    2    0    0 -0.99734046938E-01 -0.28378783316E+00  0.12816540922E+01  0.13164801128E+01  0.51100000000E-03 0.  1.
    9000002    1    1    2    0    0  0.52517489400E+00  0.18966136535E+00  0.25641382403E+00  0.11213260685E+01  0.93800000000E+00 0. -1.
         22    1    1    2    0    0 -0.42544084707E+00  0.94126467803E-01  0.24619320511E+01  0.25001938186E+01  0.00000000000E+00 0. -1.
</event>
<event>
 5    1  0.6076093E+001  0.1598748E+01  0.7818608E-02  0.3354724E+00
         11   -1    0    0    0    0  0.00000000000E+00  0.00000000000E+00  0.39999999674E+01  0.40000000000E+01  0.51100000000E-03 0.  1.
    9000002   -1    0    0    0    0 -0.00000000000E+00 -0.00000000000E+00  0.00000000000E+00  0.93800000000E+00  0.93800000000E+00 0. -1.
         11    1    1    2    0    0 -0.23392857820E+00 -0.48939832157E-01  0.12413545915E+01  0.12641515613E+01  0.51100000000E-03 0.  1.
    9000002    1    1    2    0    0  0.63696388782E+00  0.62720241631E-01  0.28935901106E+00  0.11718487361E+01  0.93800000000E+00 0. -1.
         22    1    1    2    0    0 -0.40303530961E+00 -0.13780409474E-01  0.24692863648E+01  0.25019997026E+01  0.00000000000E+00 0.  1.
</event>
<event>
 5    1  0.6076093E+001  0.1599676E+01  0.7818608E-02  0.3353715E+00
         11   -1    0    0    0    0  0.00000000000E+00  0.00000000000E+00  0.39999999674E+01  0.40000000000E+01  0.51100000000E-03 0. -1.
    9000002   -1    0    0    0    0 -0.00000000000E+00 -0.00000000000E+00  0.00000000000E+00  0.93800000000E+00  0.93800000000E+00 0.  1.
         11    1    1    2    0    0 -0.33649480243E-01 -0.64527717629E-01  0.61635852302E+00  0.62064015652E+00  0.51100000000E-03 0. -1.
    9000002    1    1    2    0    0  0.21594119092E+00  0.40531644856E+00  0.14344716683E+00  0.10541978520E+01  0.93800000000E+00 0.  1.
         22    1    1    2    0    0 -0.18229171068E+00 -0.34078873093E+00  0.32401942775E+01  0.32631619915E+01  0.00000000000E+00 0. -1.
</event>
<event>
 5    1  0.6076093E+001  0.1551435E+01  0.7818608E-02  0.3407822E+00
         11   -1    0    0    0    0  0.00000000000E+00  0.00000000000E+00  0.39999999674E+01  0.40000000000E+01  0.51100000000E-03 0.  1.
    9000002   -1    0    0    0    0 -0.00000000000E+00 -0.00000000000E+00  0.00000000000E+00  0.93800000000E+00  0.93800000000E+00 0.  1.
         11    1    1    2    0    0  0.53508505743E-01 -0.64878436415E-01  0.56697565696E-01  0.10142606556E+00  0.51100000000E-03 0.  1.
    9000002    1    1    2    0    0 -0.35717065303E+00  0.28213270689E+00  0.18392249481E+00  0.10586978907E+01  0.93800000000E+00 0.  1.
         22    1    1    2    0    0  0.30366214729E+00 -0.21725427048E+00  0.37593799069E+01  0.37778760437E+01  0.00000000000E+00 0.  1.
</event>
<event>
 5    1  0.6076093E+001  0.1598915E+01  0.7818608E-02  0.3354541E+00
         11   -1    0    0    0    0  0.00000000000E+00  0.00000000000E+00  0.39999999674E+01  0.40000000000E+01  0.51100000000E-03 0. -1.
    9000002   -1    0    0    0    0 -0.00000000000E+00 -0.00000000000E+00  0.00000000000E+00  0.93800000000E+00  0.93800000000E+00 0.  1.
         11    1    1    2    0    0 -0.13547693450E+00 -0.49876781157E-01  0.97103010003E+00  0.98170332044E+00  0.51100000000E-03 0. -1.
    9000002    1    1    2    0    0  0.43568606575E+00  0.25509426387E+00  0.17532306608E+00  0.10795728826E+01  0.93800000000E+00 0.  1.
         22    1    1    2    0    0 -0.30020913125E+00 -0.20521748271E+00  0.28536468013E+01  0.28767237970E+01  0.00000000000E+00 0. -1.
</event>
<event>
 5    1  0.6076093E+001  0.1596119E+01  0.7818608E-02  0.3357587E+00
         11   -1    0    0    0    0  0.00000000000E+00  0.00000000000E+00  0.39999999674E+01  0.40000000000E+01  0.51100000000E-03 0.  1.
    9000002   -1    0    0    0    0 -0.00000000000E+00 -0.00000000000E+00  0.00000000000E+00  0.93800000000E+00  0.93800000000E+00 0. -1.
         11    1    1    2    0    0 -0.18176241640E-01  0.11836477592E+00  0.11881713368E+01  0.11941909323E+01  0.51100000000E-03 0.  1.
    9000002    1    1    2    0    0 -0.14680719379E+00 -0.44602461216E+00  0.15332627726E+00  0.10601147363E+01  0.93800000000E+00 0. -1.
         22    1    1    2    0    0  0.16498343543E+00  0.32765983624E+00  0.26585023533E+01  0.26836943314E+01  0.00000000000E+00 0.  1.
</event>
<event>
 5    1  0.6076093E+001  0.1599666E+01  0.7818608E-02  0.3353726E+00
         11   -1    0    0    0    0  0.00000000000E+00  0.00000000000E+00  0.39999999674E+01  0.40000000000E+01  0.51100000000E-03 0. -1.
    9000002   -1    0    0    0    0 -0.00000000000E+00 -0.00000000000E+00  0.00000000000E+00  0.93800000000E+00  0.93800000000E+00 0. -1.
         11    1    1    2    0    0  0.48149295049E-02 -0.11459517248E+00  0.97525494755E+00  0.98197643095E+00  0.51100000000E-03 0. -1.
    9000002    1    1    2    0    0 -0.26172863477E-01  0.44255322387E+00  0.13336504347E+00  0.10460251477E+01  0.93800000000E+00 0. -1.
         22    1    1    2    0    0  0.21357933972E-01 -0.32795805139E+00  0.28913799763E+01  0.29099984214E+01  0.00000000000E+00 0. -1.
</event>
<event>
 5    1  0.6076093E+001  0.1599677E+01  0.7818608E-02  0.3353715E+00
         11   -1    0    0    0    0  0.00000000000E+00  0.00000000000E+00  0.39999999674E+01  0.40000000000E+01  0.51100000000E-03 0.  1.
    9000002   -1    0    0    0    0 -0.00000000000E+00 -0.00000000000E+00  0.00000000000E+00  0.93800000000E+00  0.93800000000E+00 0.  1.
         11    1    1    2    0    0 -0.80367526788E-01 -0.85614908617E-01  0.10845261408E+01  0.10908648235E+01  0.51100000000E-03 0.  1.
    9000002    1    1    2    0    0  0.28990232625E+00  0.30561892554E+00  0.12002840224E+00  0.10352280443E+01  0.93800000000E+00 0.  1.
         22    1    1    2    0    0 -0.20953479946E+00 -0.22000401692E+00  0.27954454243E+01  0.28119071322E+01  0.00000000000E+00 0.  1.
</event>
<event>
 5    1  0.6076093E+001  0.1599676E+01  0.7818608E-02  0.3353716E+00
         11   -1    0    0    0    0  0.00000000000E+00  0.00000000000E+00  0.39999999674E+01  0.40000000000E+01  0.51100000000E-03 0.  1.
    9000002   -1    0    0    0    0 -0.00000000000E+00 -0.00000000000E+00  0.00000000000E+00  0.93800000000E+00  0.93800000000E+00 0.  1.
         11    1    1    2    0    0  0.73197662045E-01 -0.37514797623E-01  0.39505890976E+00  0.40353074365E+00  0.51100000000E-03 0. -1.
    9000002    1    1    2    0    0 -0.66791173055E+00  0.34762011463E+00  0.41136732068E+00  0.12712249590E+01  0.93800000000E+00 0.  1.
         22    1    1    2    0    0  0.59471406851E+00 -0.31010531701E+00  0.31935737369E+01  0.32632442973E+01  0.00000000000E+00 0.  1.
</event>
<event>
 5    1  0.6076093E+001  0.1591038E+01  0.7818608E-02  0.3363148E+00
         11   -1    0    0    0    0  0.00000000000E+00  0.00000000000E+00  0.39999999674E+01  0.40000000000E+01  0.51100000000E-03 0. -1.
    9000002   -1    0    0    0    0 -0.00000000000E+00 -0.00000000000E+00  0.00000000000E+00  0.93800000000E+00  0.93800000000E+00 0. -1.
         11    1    1    2    0    0  0.23788732647E-01  0.65382572705E-02  0.80696835473E-01  0.84385383719E-01  0.51100000000E-03 0. -1.
    9000002    1    1    2    0    0  0.35119113902E+00  0.53081740127E-01  0.91646638895E-01  0.10071722761E+01  0.93800000000E+00 0. -1.
         22    1    1    2    0    0 -0.37497987166E+00 -0.59619997398E-01  0.38276564930E+01  0.38464423402E+01  0.00000000000E+00 0. -1.
</event>
<event>
 5    1  0.6076093E+001  0.1582432E+01  0.7818608E-02  0.3372654E+00
         11   -1    0    0    0    0  0.00000000000E+00  0.00000000000E+00  0.39999999674E+01  0.40000000000E+01  0.51100000000E-03 0.  1.
    9000002   -1    0    0    0    0 -0.00000000000E+00 -0.00000000000E+00  0.00000000000E+00  0.93800000000E+00  0.93800000000E+00 0.  1.
         11    1    1    2    0    0 -0.71646588396E-01  0.49198034549E-04  0.14238142343E+00  0.15939249326E+00  0.51100000000E-03 0.  1.
    9000002    1    1    2    0    0  0.29764262119E+00 -0.26525837665E+00  0.12167604448E+00  0.10264512634E+01  0.93800000000E+00 0.  1.
         22    1    1    2    0    0 -0.22599603279E+00  0.26520917861E+00  0.37359424995E+01  0.37521562433E+01  0.00000000000E+00 0.  1.
</event>
<event>
 5    1  0.8815949E+001  0.1598428E+01  0.7818608E-02  0.3355072E+00
         11   -1    0    0    0    0  0.00000000000E+00  0.00000000000E+00  0.39999999674E+01  0.40000000000E+01  0.51100000000E-03 0.  1.
    9000002   -1    0    0    0    0 -0.00000000000E+00 -0.00000000000E+00  0.00000000000E+00  0.93800000000E+00  0.93800000000E+00 0. -1.
         11    1    1    2    0    0  0.69144840269E-01 -0.75327563441E-01  0.14309442823E+01  0.14345929914E+01  0.51100000000E-03 0.  1.
    9000002    1    1    2    0    0 -0.28551120100E+00  0.14763449522E+00  0.70053925610E-01  0.99401415612E+00  0.93800000000E+00 0. -1.
         22    1    1    2    0    0  0.21636636073E+00 -0.72306931775E-01  0.24990017594E+01  0.25093928525E+01  0.00000000000E+00 0.  1.
</event>
<event>
 5    1  0.6076093E+001  0.1525521E+01  0.7818608E-02  0.3438392E+00
         11   -1    0    0    0    0  0.00000000000E+00  0.00000000000E+00  0.39999999674E+01  0.40000000000E+01  0.51100000000E-03 0.  1.
    9000002   -1    0    0    0    0 -0.00000000000E+00 -0.00000000000E+00  0.00000000000E+00  0.93800000000E+00  0.93800000000E+00 0.  1.
         11    1    1    2    0    0  0.71107029793E-01  0.60943157772E-02  0.15036737946E-02  0.71385380343E-01  0.51100000000E-03 0.  1.
    9000002    1    1    2    0    0 -0.62391229804E+00 -0.22101975139E+00  0.39416166378E+00  0.12138054636E+01  0.93800000000E+00 0.  1.
         22    1    1    2    0    0  0.55280526825E+00  0.21492543562E+00  0.36043346298E+01  0.36528091561E+01  0.00000000000E+00 0.  1.
</event>
<event>
 5    1  0.6076093E+001  0.1599612E+01  0.7818608E-02  0.3353784E+00
         11   -1    0    0    0    0  0.00000000000E+00  0.00000000000E+00  0.39999999674E+01  0.40000000000E+01  0.51100000000E-03 0.  1.
    9000002   -1    0    0    0    0 -0.00000000000E+00 -0.00000000000E+00  0.00000000000E+00  0.93800000000E+00  0.93800000000E+00 0.  1.
         11    1    1    2    0    0 -0.57147718172E-01 -0.22965948767E-01  0.57733232927E+00  0.58060845330E+00  0.51100000000E-03 0.  1.
    9000002    1    1    2    0    0  0.35159166882E+00  0.12470437685E+00  0.93612717058E-01  0.10137924955E+01  0.93800000000E+00 0.  1.
         22    1    1    2    0    0 -0.29444395064E+00 -0.10173842808E+00  0.33290549210E+01  0.33435990512E+01  0.00000000000E+00 0. -1.
</event>
<event>
 5    1  0.6076093E+001  0.1523774E+01  0.7818608E-02  0.3440492E+00
         11   -1    0    0    0    0  0.00000000000E+00  0.00000000000E+00  0.39999999674E+01  0.40000000000E+01  0.51100000000E-03 0. -1.
    9000002   -1    0    0    0    0 -0.00000000000E+00 -0.00000000000E+00  0.00000000000E+00  0.93800000000E+00  0.93800000000E+00 0. -1.
         11    1    1    2    0    0 -0.65129754308E-01  0.16204526928E+00  0.50088803685E+00  0.53046172413E+00  0.51100000000E-03 0. -1.
    9000002    1    1    2    0    0 -0.43680402777E+00  0.20420255242E+00  0.22943051802E+00  0.10793418382E+01  0.93800000000E+00 0. -1.
         22    1    1    2    0    0  0.50193378208E+00 -0.36624782170E+00  0.32696814125E+01  0.33281964377E+01  0.00000000000E+00 0. -1.
</event>
<event>
 5    1  0.6076093E+001  0.1564438E+01  0.7818608E-02  0.3392889E+00
         11   -1    0    0    0    0  0.00000000000E+00  0.00000000000E+00  0.39999999674E+01  0.40000000000E+01  0.51100000000E-03 0.  1.
    9000002   -1    0    0    0    0 -0.00000000000E+00 -0.00000000000E+00  0.00000000000E+00  0.93800000000E+00  0.93800000000E+00 0. -1.
         11    1    1    2    0    0 -0.95390052396E-01 -0.82250639362E-01  0.19339389523E+00  0.23079404152E+00  0.51100000000E-03 0.  1.
    9000002    1    1    2    0    0  0.47250244251E+00  0.10331028767E+00  0.19170416108E+00  0.10726257777E+01  0.93800000000E+00 0. -1.
         22    1    1    2    0    0 -0.37711239011E+00 -0.21059648309E-01  0.36149019111E+01  0.36345801807E+01  0.00000000000E+00 0.  1.
</event>
<event>
 5    1  0.6076093E+001  0.1598677E+01  0.7818608E-02  0.3354800E+00
         11   -1    0    0    0    0  0.00000000000E+00  0.00000000000E+00  0.39999999674E+01  0.40000000000E+01  0.51100000000E-03 0.  1.
    9000002   -1    0    0    0    0 -0.00000000000E+00 -0.00000000000E+00  0.00000000000E+00  0.93800000000E+00  0.93800000000E+00 0. -1.
         11    1    1    2    0    0  0.16325167889E-01 -0.46262377827E-01  0.91528428963E+00  0.91659822751E+00  0.51100000000E-03 0.  1.
    9000002    1    1    2    0    0 -0.19917674992E+00  0.24852171560E+00  0.68579149860E-01  0.99296602189E+00  0.93800000000E+00 0. -1.
         22    1    1    2    0    0  0.18285158203E+00 -0.20225933777E+00  0.30161365279E+01  0.30284357506E+01  0.00000000000E+00 0.  1.
</event>
<event>
 5    1  0.6076093E+001  0.1599674E+01  0.7818608E-02  0.3353717E+00
         11   -1    0    0    0    0  0.00000000000E+00  0.00000000000E+00  0.39999999674E+01  0.40000000000E+01  0.51100000000E-03 0.  1.
    9000002   -1    0    0    0    0 -0.00000000000E+00 -0.00000000000E+00  0.00000000000E+00  0.93800000000E+00  0.93800000000E+00 0.  1.
         11    1    1    2    0    0 -0.45474162794E-02  0.26099876919E-01  0.29679768386E+00  0.29797820195E+00  0.51100000000E-03 0.  1.
    9000002    1    1    2    0    0  0.72846124080E-01 -0.34670072965E+00  0.84196633066E-01  0.10062012854E+01  0.93800000000E+00 0.  1.
         22    1    1    2    0    0 -0.68298707801E-01  0.32060085273E+00  0.36190056504E+01  0.36338205126E+01  0.00000000000E+00 0.  1.
</event>
<event>
 5    1  0.6076093E+001  0.1594880E+01  0.7818608E-02  0.3358939E+00
         11   -1    0    0    0    0  0.00000000000E+00  0.00000000000E+00  0.39999999674E+01  0.40000000000E+01  0.51100000000E-03 0.  1.
    9000002   -1    0    0    0    0 -0.00000000000E+00 -0.00000000000E+00  0.00000000000E+00  0.93800000000E+00  0.93800000000E+00 0.  1.
         11    1    1    2    0    0 -0.27617808702E-01 -0.19172190342E-01  0.11968770975E+00  0.12432105705E+00  0.51100000000E-03 0.  1.
    9000002    1    1    2    0    0  0.37430077365E+00 -0.16323031708E+00  0.11662030019E+00  0.10296550393E+01  0.93800000000E+00 0.  1.
         22    1    1    2    0    0 -0.34668296495E+00  0.18240250742E+00  0.37636919574E+01  0.37840239036E+01  0.00000000000E+00 0.  1.
</event>
<event>
 5    1  0.6076093E+001  0.1597914E+01  0.7818608E-02  0.3355630E+00
         11   -1    0    0    0    0  0.00000000000E+00  0.00000000000E+00  0.39999999674E+01  0.40000000000E+01  0.51100000000E-03 0.  1.
    9000002   -1    0    0    0    0 -0.00000000000E+00 -0.00000000000E+00  0.00000000000E+00  0.93800000000E+00  0.93800000000E+00 0.  1.
         11    1    1    2    0    0 -0.84813720178E-02  0.14127562272E-02  0.31757651286E-01  0.32905000952E-01  0.51100000000E-03 0.  1.
    9000002    1    1    2    0    0 -0.33790918782E-01 -0.50671410062E+00  0.17838299438E+00  0.10814645157E+01  0.93800000000E+00 0.  1.
         22    1    1    2    0    0  0.42272290800E-01  0.50530134439E+00  0.37898593217E+01  0.38236304834E+01  0.00000000000E+00 0.  1.
</event>
<event>
 5    1  0.6076093E+001  0.1599668E+01  0.7818608E-02  0.3353724E+00
         11   -1    0    0    0    0  0.00000000000E+00  0.00000000000E+00  0.39999999674E+01  0.40000000000E+01  0.51100000000E-03 0.  1.
    9000002   -1    0    0    0    0 -0.00000000000E+00 -0.00000000000E+00  0.00000000000E+00  0.93800000000E+00  0.93800000000E+00 0.  1.
         11    1    1    2    0    0 -0.13419208107E-01 -0.30994349287E-01  0.23838800354E+00  0.24076923846E+00  0.51100000000E-03 0.  1.
    9000002    1    1    2    0    0  0.18791840547E+00  0.50024427959E+00  0.19666989041E+00  0.10973061160E+01  0.93800000000E+00 0.  1.
         22    1    1    2    0    0 -0.17449919736E+00 -0.46924993030E+00  0.35649420734E+01  0.35999246456E+01  0.00000000000E+00 0.  1.
</event>
<event>
 5    1  0.6076093E+001  0.1599668E+01  0.7818608E-02  0.3353724E+00
         11   -1    0    0    0    0  0.00000000000E+00  0.00000000000E+00  0.39999999674E+01  0.40000000000E+01  0.51100000000E-03 0. -1.
    9000002   -1    0    0    0    0 -0.00000000000E+00 -0.00000000000E+00  0.00000000000E+00  0.93800000000E+00  0.93800000000E+00 0.  1.
         11    1    1    2    0    0 -0.46964665697E-01  0.96132987128E-01  0.11793184725E+01  0.11841619618E+01  0.51100000000E-03 0. -1.
    9000002    1    1    2    0    0  0.15508154060E+00 -0.32994989731E+00  0.89276684949E-01  0.10103125979E+01  0.93800000000E+00 0.  1.
         22    1    1    2    0    0 -0.10811687491E+00  0.23381691018E+00  0.27314048099E+01  0.27435254403E+01  0.00000000000E+00 0. -1.
</event>
<event>
 5    1  0.6076093E+001  0.1599674E+01  0.7818608E-02  0.3353717E+00
         11   -1    0    0    0    0  0.00000000000E+00  0.00000000000E+00  0.39999999674E+01  0.40000000000E+01  0.51100000000E-03 0. -1.
    9000002   -1    0    0    0    0 -0.00000000000E+00 -0.00000000000E+00  0.00000000000E+00  0.93800000000E+00  0.93800000000E+00 0.  1.
         11    1    1    2    0    0  0.12174158196E+00  0.35801538970E-01  0.13013716571E+01  0.13075439626E+01  0.51100000000E-03 0. -1.
    9000002    1    1    2    0    0 -0.37040954969E+00 -0.10526443648E+00  0.99835593297E-01  0.10188694626E+01  0.93800000000E+00 0.  1.
         22    1    1    2    0    0  0.24866796774E+00  0.69462897514E-01  0.25987927169E+01  0.26115865748E+01  0.00000000000E+00 0. -1.
</event>
<event>
 5    1  0.6076093E+001  0.1373033E+01  0.7818608E-02  0.3651096E+00
         11   -1    0    0    0    0  0.00000000000E+00  0.00000000000E+00  0.39999999674E+01  0.40000000000E+01  0.51100000000E-03 0.  1.
    9000002   -1    0    0    0    0 -0.00000000000E+00 -0.00000000000E+00  0.00000000000E+00  0.93800000000E+00  0.93800000000E+00 0.  1.
         11    1    1    2    0    0  0.53608267752E+00 -0.94571049079E-01  0.17602073740E+00  0.57211177367E+00  0.51100000000E-03 0.  1.
    9000002    1    1    2    0    0 -0.97897433964E+00  0.14394604171E+00  0.16204000092E+01  0.21176995562E+01  0.93800000000E+00 0.  1.
         22    1    1    2    0    0  0.44289166212E+00 -0.49374992626E-01  0.22035792207E+01  0.22481886701E+01  0.00000000000E+00 0.  1.
</event>
<event>
 5    1  0.6076093E+001  0.1599669E+01  0.7818608E-02  0.3353722E+00
         11   -1    0    0    0    0  0.00000000000E+00  0.00000000000E+00  0.39999999674E+01  0.40000000000E+01  0.51100000000E-03 0.  1.
    9000002   -1    0    0    0    0 -0.00000000000E+00 -0.00000000000E+00  0.00000000000E+00  0.93800000000E+00  0.93800000000E+00 0. -1.
         11    1    1    2    0    0  0.21887058795E-01  0.22419912911E-02  0.21066935674E+00  0.21181574270E+00  0.51100000000E-03 0.  1.
    9000002    1    1    2    0    0 -0.39417778249E+00 -0.65636327268E-01  0.10771102818E+00  0.10252462715E+01  0.93800000000E+00 0. -1.
         22    1    1    2    0    0  0.37229072370E+00  0.63394335977E-01  0.36816195824E+01  0.37009379858E+01  0.00000000000E+00 0.  1.
</event>
<event>
 5    1  0.6076093E+001  0.1599649E+01  0.7818608E-02  0.3353744E+00
         11   -1    0    0    0    0  0.00000000000E+00  0.00000000000E+00  0.39999999674E+01  0.40000000000E+01  0.51100000000E-03 0.  1.
    9000002   -1    0    0    0    0 -0.00000000000E+00 -0.00000000000E+00  0.00000000000E+00  0.93800000000E+00  0.93800000000E+00 0.  1.
         11    1    1    2    0    0 -0.77349719668E-02  0.14411220439E+00  0.14828852052E+01  0.14898915901E+01  0.51100000000E-03 0.  1.
    9000002    1    1    2    0    0  0.35224520984E-01 -0.37294054924E+00  0.94378241232E-01  0.10144341637E+01  0.93800000000E+00 0.  1.
         22    1    1    2    0    0 -0.27489549018E-01  0.22882834485E+00  0.24227365209E+01  0.24336742461E+01  0.00000000000E+00 0.  1.
</event>
<event>
 5    1  0.6076093E+001  0.1597868E+01  0.7818608E-02  0.3355681E+00
         11   -1    0    0    0    0  0.00000000000E+00  0.00000000000E+00  0.39999999674E+01  0.40000000000E+01  0.51100000000E-03 0. -1.
    9000002   -1    0    0    0    0 -0.00000000000E+00 -0.00000000000E+00  0.00000000000E+00  0.93800000000E+00  0.93800000000E+00 0. -1.
         11    1    1    2    0    0  0.11439479381E-01 -0.15875727004E+00  0.77983021419E+00  0.79590838453E+00  0.51100000000E-03 0. -1.
    9000002    1    1    2    0    0 -0.87570224013E-01  0.56695161890E+00  0.23011563430E+00  0.11233431744E+01  0.93800000000E+00 0. -1.
         22    1    1    2    0    0  0.76130744632E-01 -0.40819434885E+00  0.29900541189E+01  0.30187484411E+01  0.00000000000E+00 0. -1.
</event>
<event>
 5    1  0.6076093E+001  0.1599677E+01  0.7818608E-02  0.3353714E+00
         11   -1    0    0    0    0  0.00000000000E+00  0.00000000000E+00  0.39999999674E+01  0.40000000000E+01  0.51100000000E-03 0.  1.
    9000002   -1    0    0    0    0 -0.00000000000E+00 -0.00000000000E+00  0.00000000000E+00  0.93800000000E+00  0.93800000000E+00 0. -1.
         11    1    1    2    0    0  0.15983508840E+00  0.88214250613E-01  0.12422416120E+01  0.12555849207E+01  0.51100000000E-03 0.  1.
    9000002    1    1    2    0    0 -0.48828284254E+00 -0.26723222592E+00  0.21427395197E+00  0.11115711958E+01  0.93800000000E+00 0. -1.
         22    1    1    2    0    0  0.32844775415E+00  0.17901797531E+00  0.25434844034E+01  0.25708438834E+01  0.00000000000E+00 0.  1.
</event>
<event>
 5    1  0.6076093E+001  0.1595074E+01  0.7818608E-02  0.3358728E+00
         11   -1    0    0    0    0  0.00000000000E+00  0.00000000000E+00  0.39999999674E+01  0.40000000000E+01  0.51100000000E-03 0.  1.
    9000002   -1    0    0    0    0 -0.00000000000E+00 -0.00000000000E+00  0.00000000000E+00  0.93800000000E+00  0.93800000000E+00 0.  1.
         11    1    1    2    0    0 -0.51044119570E-01  0.14201599027E-02  0.14563529228E+01  0.14572479596E+01  0.51100000000E-03 0.  1.
    9000002    1    1    2    0    0  0.34699277082E+00 -0.39280653754E-01  0.85473592592E-01  0.10045380470E+01  0.93800000000E+00 0.  1.
         22    1    1    2    0    0 -0.29594865125E+00  0.37860493851E-01  0.24581734520E+01  0.24762139934E+01  0.00000000000E+00 0.  1.
</event>
<event>
 5    1  0.6076093E+001  0.1599595E+01  0.7818608E-02  0.3353803E+00
         11   -1    0    0    0    0  0.00000000000E+00  0.00000000000E+00  0.39999999674E+01  0.40000000000E+01  0.51100000000E-03 0. -1.
    9000002   -1    0    0    0    0 -0.00000000000E+00 -0.00000000000E+00  0.00000000000E+00  0.93800000000E+00  0.93800000000E+00 0.  1.
         11    1    1    2    0    0 -0.49332653541E-01 -0.30438028839E-01  0.44296754881E+00  0.44674455198E+00  0.51100000000E-03 0. -1.
    9000002    1    1    2    0    0  0.37477439299E+00  0.24080596764E+00  0.13476080913E+00  0.10471140508E+01  0.93800000000E+00 0.  1.
         22    1    1    2    0    0 -0.32544173945E+00 -0.21036793880E+00  0.34222716094E+01  0.34441413972E+01  0.00000000000E+00 0. -1.
</event>
<event>
 5    1  0.6076093E+001  0.1599314E+01  0.7818608E-02  0.3354108E+00
         11   -1    0    0    0    0  0.00000000000E+00  0.00000000000E+00  0.39999999674E+01  0.40000000000E+01  0.51100000000E-03 0.  1.
    9000002   -1    0    0    0    0 -0.00000000000E+00 -0.00000000000E+00  0.00000000000E+00  0.93800000000E+00  0.93800000000E+00 0.  1.
         11    1    1    2    0    0  0.28028725860E-01  0.24238834855E-01  0.29423327972E+00  0.29655794476E+00  0.51100000000E-03 0.  1.
    9000002    1    1    2    0    0 -0.35525009042E+00 -0.16118087183E+00  0.10282112253E+00  0.10210769234E+01  0.93800000000E+00 0.  1.
         22    1    1    2    0    0  0.32722136456E+00  0.13694203698E+00  0.36029455651E+01  0.36203651319E+01  0.00000000000E+00 0.  1.
</event>
<event>
 5    1  0.6076093E+001  0.1589375E+01  0.7818608E-02  0.3364977E+00
         11   -1    0    0    0    0  0.00000000000E+00  0.00000000000E+00  0.39999999674E+01  0.40000000000E+01  0.51100000000E-03 0.  1.
    9000002   -1    0    0    0    0 -0.00000000000E+00 -0.00000000000E+00  0.00000000000E+00  0.93800000000E+00  0.93800000000E+00 0. -1.
         11    1    1    2    0    0  0.35864709683E-01 -0.28137023072E-01  0.12352821599E+01  0.12361230704E+01  0.51100000000E-03 0.  1.
    9000002    1    1    2    0    0 -0.38757301310E+00  0.31023006109E+00  0.17792125652E+00  0.10760834098E+01  0.93800000000E+00 0. -1.
         22    1    1    2    0    0  0.35170830342E+00 -0.28209303801E+00  0.25867965510E+01  0.26257935199E+01  0.00000000000E+00 0.  1.
</event>
<event>
 5    1  0.6076093E+001  0.1578840E+01  0.7818608E-02  0.3376655E+00
         11   -1    0    0    0    0  0.00000000000E+00  0.00000000000E+00  0.39999999674E+01  0.40000000000E+01  0.51100000000E-03 0. -1.
    9000002   -1    0    0    0    0 -0.00000000000E+00 -0.00000000000E+00  0.00000000000E+00  0.93800000000E+00  0.93800000000E+00 0.  1.
         11    1    1    2    0    0 -0.14621279653E+00  0.92813212305E-01  0.10980687725E+01  0.11116419228E+01  0.51100000000E-03 0. -1.
    9000002    1    1    2    0    0 -0.28081532987E-01 -0.42510748253E+00  0.14073907744E+00  0.10397867243E+01  0.93800000000E+00 0.  1.
         22    1    1    2    0    0  0.17429432952E+00  0.33229427022E+00  0.27611921174E+01  0.27865713528E+01  0.00000000000E+00 0. -1.
</event>
<event>
 5    1  0.6076093E+001  0.1588824E+01  0.7818608E-02  0.3365584E+00
         11   -1    0    0    0    0  0.00000000000E+00  0.00000000000E+00  0.39999999674E+01  0.40000000000E+01  0.51100000000E-03 0.  1.
    9000002   -1    0    0    0    0 -0.00000000000E+00 -0.00000000000E+00  0.00000000000E+00  0.93800000000E+00  0.93800000000E+00 0.  1.
         11    1    1    2    0    0 -0.38905735448E-01 -0.65420131597E-01  0.35134240480E+00  0.35949297128E+00  0.51100000000E-03 0.  1.
    9000002    1    1    2    0    0 -0.22803311156E+00  0.27564109181E+00  0.94717292084E-01  0.10083612829E+01  0.93800000000E+00 0.  1.
         22    1    1    2    0    0  0.26693884701E+00 -0.21022096022E+00  0.35539402705E+01  0.35701457458E+01  0.00000000000E+00 0.  1.
</event>
<event>
 5    1  0.6076093E+001  0.1599675E+01  0.7818608E-02  0.3353716E+00
         11   -1    0    0    0    0  0.00000000000E+00  0.00000000000E+00  0.39999999674E+01  0.40000000000E+01  0.51100000000E-03 0. -1.
    9000002   -1    0    0    0    0 -0.00000000000E+00 -0.00000000000E+00  0.00000000000E+00  0.93800000000E+00  0.93800000000E+00 0. -1.
         11    1    1    2    0    0 -0.17671360134E+00 -0.54135057216E+00  0.13684886432E+01  0.14822447729E+01  0.51100000000E-03 0. -1.
    9000002    1    1    2    0    0  0.36185862301E+00  0.10993164192E+01  0.12159391269E+01  0.19229639136E+01  0.93800000000E+00 0. -1.
         22    1    1    2    0    0 -0.18514502168E+00 -0.55796584701E+00  0.14155721972E+01  0.15327913136E+01  0.00000000000E+00 0. -1.
</event>
<event>
 5    1  0.6076093E+001  0.1599676E+01  0.7818608E-02  0.3353715E+00
         11   -1    0    0    0    0  0.00000000000E+00  0.00000000000E+00  0.39999999674E+01  0.40000000000E+01  0.51100000000E-03 0.  1.
    9000002   -1    0    0    0    0 -0.00000000000E+00 -0.00000000000E+00  0.00000000000E+00  0.93800000000E+00  0.93800000000E+00 0.  1.
         11    1    1    2    0    0  0.19097773617E-01 -0.38717370987E-01  0.39374120592E+00  0.39610119684E+00  0.51100000000E-03 0.  1.
    9000002    1    1    2    0    0 -0.19081227619E+00  0.38496187873E+00  0.12501595769E+00  0.10392679936E+01  0.93800000000E+00 0.  1.
         22    1    1    2    0    0  0.17171450257E+00 -0.34624450774E+00  0.34812428037E+01  0.35026308096E+01  0.00000000000E+00 0.  1.
</event>
<event>
 5    1  0.6119106E+001  0.1583031E+01  0.7818608E-02  0.3371989E+00
         11   -1    0    0    0    0  0.00000000000E+00  0.00000000000E+00  0.39999999674E+01  0.40000000000E+01  0.51100000000E-03 0. -1.
    9000002   -1    0    0    0    0 -0.00000000000E+00 -0.00000000000E+00  0.00000000000E+00  0.93800000000E+00  0.93800000000E+00 0.  1.
         11    1    1    2    0    0 -0.10688622755E+00  0.88118439526E-01  0.14718023707E+01  0.14783071415E+01  0.51100000000E-03 0. -1.
    9000002    1    1    2    0    0 -0.10909441309E+00 -0.16220772705E+00  0.37850837061E-01  0.95890021564E+00  0.93800000000E+00 0.  1.
         22    1    1    2    0    0  0.21598064065E+00  0.74089287526E-01  0.24903467596E+01  0.25007926429E+01  0.00000000000E+00 0. -1.
</event>
<event>
 5    1  0.6076093E+001  0.1598909E+01  0.7818608E-02  0.3354548E+00
         11   -1    0    0    0    0  0.00000000000E+00  0.00000000000E+00  0.39999999674E+01  0.40000000000E+01  0.51100000000E-03 0.  1.
    9000002   -1    0    0    0    0 -0.00000000000E+00 -0.00000000000E+00  0.00000000000E+00  0.93800000000E+00  0.93800000000E+00 0.  1.
         11    1    1    2    0    0 -0.22656765924E-01 -0.89485393467E-01  0.91225360635E+00  0.91691213761E+00  0.51100000000E-03 0.  1.
    9000002    1    1    2    0    0 -0.17425383291E-01  0.41972220340E+00  0.11999756179E+00  0.10347530077E+01  0.93800000000E+00 0.  1.
         22    1    1    2    0    0  0.40082149215E-01 -0.33023680993E+00  0.29677487992E+01  0.29863348547E+01  0.00000000000E+00 0.  1.
</event>
<event>
 5    1  0.7909773E+001  0.1599675E+01  0.7818608E-02  0.3353716E+00
         11   -1    0    0    0    0  0.00000000000E+00  0.00000000000E+00  0.39999999674E+01  0.40000000000E+01  0.51100000000E-03 0.  1.
    9000002   -1    0    0    0    0 -0.00000000000E+00 -0.00000000000E+00  0.00000000000E+00  0.93800000000E+00  0.93800000000E+00 0.  1.
         11    1    1    2    0    0  0.12259102778E+00 -0.40125783550E-01  0.14536323703E+01  0.14593443622E+01  0.51100000000E-03 0.  1.
    9000002    1    1    2    0    0 -0.33410979596E+00  0.10983371176E+00  0.82954289303E-01  0.10051956099E+01  0.93800000000E+00 0.  1.
         22    1    1    2    0    0  0.21151876818E+00 -0.69707928206E-01  0.24634133078E+01  0.24734600279E+01  0.00000000000E+00 0.  1.
</event>
<event>
 5    1  0.6076093E+001  0.1599677E+01  0.7818608E-02  0.3353714E+00
         11   -1    0    0    0    0  0.00000000000E+00  0.00000000000E+00  0.39999999674E+01  0.40000000000E+01  0.51100000000E-03 0.  1.
    9000002   -1    0    0    0    0 -0.00000000000E+00 -0.00000000000E+00  0.00000000000E+00  0.93800000000E+00  0.93800000000E+00 0.  1.
         11    1    1    2    0    0 -0.12194767995E+00  0.23705963703E-01  0.12863335939E+01  0.12923186856E+01  0.51100000000E-03 0.  1.
    9000002    1    1    2    0    0  0.37004674153E+00 -0.70974275217E-01  0.95487607538E-01  0.10153491133E+01  0.93800000000E+00 0.  1.
         22    1    1    2    0    0 -0.24809906158E+00  0.47268311514E-01  0.26181787659E+01  0.26303322011E+01  0.00000000000E+00 0.  1.
</event>
<event>
 5    1  0.6076093E+001  0.1599592E+01  0.7818608E-02  0.3353806E+00
         11   -1    0    0    0    0  0.00000000000E+00  0.00000000000E+00  0.39999999674E+01  0.40000000000E+01  0.51100000000E-03 0.  1.
    9000002   -1    0    0    0    0 -0.00000000000E+00 -0.00000000000E+00  0.00000000000E+00  0.93800000000E+00  0.93800000000E+00 0.  1.
         11    1    1    2    0    0  0.19331057644E-01 -0.97962546408E-02  0.13318937512E+00  0.13494193996E+00  0.51100000000E-03 0.  1.
    9000002    1    1    2    0    0 -0.44103983297E+00  0.25434872719E+00  0.17779539492E+00  0.10819725559E+01  0.93800000000E+00 0.  1.
         22    1    1    2    0    0  0.42170877533E+00 -0.24455247254E+00  0.36890151973E+01  0.37210855041E+01  0.00000000000E+00 0.  1.
</event>
<event>
 5    1  0.6076093E+001  0.1580469E+01  0.7818608E-02  0.3374839E+00
         11   -1    0    0    0    0  0.00000000000E+00  0.00000000000E+00  0.39999999674E+01  0.40000000000E+01  0.51100000000E-03 0.  1.
    9000002   -1    0    0    0    0 -0.00000000000E+00 -0.00000000000E+00  0.00000000000E+00  0.93800000000E+00  0.93800000000E+00 0. -1.
         11    1    1    2    0    0  0.26808113883E-01  0.38128115900E-01  0.10738728520E+00  0.11706715310E+00  0.51100000000E-03 0.  1.
    9000002    1    1    2    0    0  0.15006922487E+00  0.27632063081E+00  0.81359516148E-01  0.99264154363E+00  0.93800000000E+00 0. -1.
         22    1    1    2    0    0 -0.17687733875E+00 -0.31444874671E+00  0.38112531660E+01  0.38282913033E+01  0.00000000000E+00 0.  1.
</event>
<event>
 5    1  0.6076093E+001  0.1595835E+01  0.7818608E-02  0.3357896E+00
         11   -1    0    0    0    0  0.00000000000E+00  0.00000000000E+00  0.39999999674E+01  0.40000000000E+01  0.51100000000E-03 0.  1.
    9000002   -1    0    0    0    0 -0.00000000000E+00 -0.00000000000E+00  0.00000000000E+00  0.93800000000E+00  0.93800000000E+00 0.  1.
         11    1    1    2    0    0  0.94694810594E-01  0.56036011436E-01  0.45328193532E+00  0.46644604805E+00  0.51100000000E-03 0.  1.
    9000002    1    1    2    0    0 -0.74456957927E+00 -0.50863811024E-01  0.40791993836E+00  0.12661807382E+01  0.93800000000E+00 0.  1.
         22    1    1    2    0    0  0.64987476868E+00 -0.51722004122E-02  0.31387980937E+01  0.32053732138E+01  0.00000000000E+00 0.  1.
</event>
<event>
 5    1  0.6076093E+001  0.1599620E+01  0.7818608E-02  0.3353776E+00
         11   -1    0    0    0    0  0.00000000000E+00  0.00000000000E+00  0.39999999674E+01  0.40000000000E+01  0.51100000000E-03 0. -1.
    9000002   -1    0    0    0    0 -0.00000000000E+00 -0.00000000000E+00  0.00000000000E+00  0.93800000000E+00  0.93800000000E+00 0.  1.
         11    1    1    2    0    0 -0.61565430183E-02  0.17919707029E-01  0.16350422424E+00  0.16459924479E+00  0.51100000000E-03 0. -1.
    9000002    1    1    2    0    0  0.10391342935E+00 -0.35334342309E+00  0.91190058927E-01  0.10118345726E+01  0.93800000000E+00 0.  1.
         22    1    1    2    0    0 -0.97756886337E-01  0.33542371607E+00  0.37453056842E+01  0.37615661826E+01  0.00000000000E+00 0. -1.
</event>
<event>
 5    1  0.6076093E+001  0.1599675E+01  0.7818608E-02  0.3353716E+00
         11   -1    0    0    0    0  0.00000000000E+00  0.00000000000E+00  0.39999999674E+01  0.40000000000E+01  0.51100000000E-03 0.  1.
    9000002   -1    0    0    0    0 -0.00000000000E+00 -0.00000000000E+00  0.00000000000E+00  0.93800000000E+00  0.93800000000E+00 0.  1.
         11    1    1    2    0    0  0.60805822647E-01 -0.31418055481E-01  0.60474488432E+00  0.60860584823E+00  0.51100000000E-03 0.  1.
    9000002    1    1    2    0    0 -0.38987259157E+00  0.20772591030E+00  0.13238546950E+00  0.10452371042E+01  0.93800000000E+00 0.  1.
         22    1    1    2    0    0  0.32906676892E+00 -0.17630785482E+00  0.32628696135E+01  0.32841570476E+01  0.00000000000E+00 0.  1.
</event>
<event>
 5    1  0.6076093E+001  0.1599627E+01  0.7818608E-02  0.3353768E+00
         11   -1    0    0    0    0  0.00000000000E+00  0.00000000000E+00  0.39999999674E+01  0.40000000000E+01  0.51100000000E-03 0. -1.
    9000002   -1    0    0    0    0 -0.00000000000E+00 -0.00000000000E+00  0.00000000000E+00  0.93800000000E+00  0.93800000000E+00 0. -1.
         11    1    1    2    0    0  0.12909376696E+00 -0.28524653528E-01  0.11183803156E+01  0.11261676820E+01  0.51100000000E-03 0. -1.
    9000002    1    1    2    0    0 -0.43029349084E+00  0.77561931124E-01  0.12964115107E+00  0.10429856995E+01  0.93800000000E+00 0. -1.
         22    1    1    2    0    0  0.30119972387E+00 -0.49037277596E-01  0.27519785007E+01  0.27688466185E+01  0.00000000000E+00 0. -1.
</event>
<event>
 5    1  0.6076093E+001  0.1507680E+01  0.7818608E-02  0.3460093E+00
         11   -1    0    0    0    0  0.00000000000E+00  0.00000000000E+00  0.39999999674E+01  0.40000000000E+01  0.51100000000E-03 0.  1.
    9000002   -1    0    0    0    0 -0.00000000000E+00 -0.00000000000E+00  0.00000000000E+00  0.93800000000E+00  0.93800000000E+00 0.  1.
         11    1    1    2    0    0  0.32881300766E+00  0.20018461210E+00  0.13902110900E+01  0.14425252195E+01  0.51100000000E-03 0.  1.
    9000002    1    1    2    0    0 -0.14952132978E+00  0.45301949413E-01  0.87506555639E-01  0.95493994155E+00  0.93800000000E+00 0.  1.
         22    1    1    2    0    0 -0.17929167788E+00 -0.24548656151E+00  0.25222823217E+01  0.25405348390E+01  0.00000000000E+00 0. -1.
</event>
<event>
 5    1  0.6076093E+001  0.1599676E+01  0.7818608E-02  0.3353715E+00
         11   -1    0    0    0    0  0.00000000000E+00  0.00000000000E+00  0.39999999674E+01  0.40000000000E+01  0.51100000000E-03 0. -1.
    9000002   -1    0    0    0    0 -0.00000000000E+00 -0.00000000000E+00  0.00000000000E+00  0.93800000000E+00  0.93800000000E+00 0. -1.
         11    1    1    2    0    0  0.80501667047E-01 -0.13367963226E+00  0.11922189858E+01  0.12023880961E+01  0.51100000000E-03 0.  1.
    9000002    1    1    2    0    0 -0.25981048981E+00  0.43113860900E+00  0.17355325623E+00  0.10785855198E+01  0.93800000000E+00 0. -1.
         22    1    1    2    0    0  0.17930882276E+00 -0.29745897673E+00  0.26342277253E+01  0.26570263841E+01  0.00000000000E+00 0. -1.
</event>
<event>
 5    1  0.6076093E+001  0.1590641E+01  0.7818608E-02  0.3363584E+00
         11   -1    0    0    0    0  0.00000000000E+00  0.00000000000E+00  0.39999999674E+01  0.40000000000E+01  0.51100000000E-03 0. -1.
    9000002   -1    0    0    0    0 -0.00000000000E+00 -0.00000000000E+00  0.00000000000E+00  0.93800000000E+00  0.93800000000E+00 0. -1.
         11    1    1    2    0    0  0.66491416298E-01 -0.31675567440E+00  0.13316274842E+01  0.13703967614E+01  0.51100000000E-03 0. -1.
    9000002    1    1    2    0    0 -0.12813280304E+00  0.58317066223E+00  0.25758799370E+00  0.11413595450E+01  0.93800000000E+00 0. -1.
         22    1    1    2    0    0  0.61641386746E-01 -0.26641498783E+00  0.24107844894E+01  0.24262436936E+01  0.00000000000E+00 0. -1.
</event>
<event>
 5    1  0.6076093E+001  0.1597846E+01  0.7818608E-02  0.3355704E+00
         11   -1    0    0    0    0  0.00000000000E+00  0.00000000000E+00  0.39999999674E+01  0.40000000000E+01  0.51100000000E-03 0. -1.
    9000002   -1    0    0    0    0 -0.00000000000E+00 -0.00000000000E+00  0.00000000000E+00  0.93800000000E+00  0.93800000000E+00 0. -1.
         11    1    1    2    0    0  0.19845895510E-01 -0.31518974510E-02  0.68751876264E-01  0.71630130789E-01  0.51100000000E-03 0. -1.
    9000002    1    1    2    0    0 -0.45594352769E+00 -0.24442478975E+00  0.18542848864E+00  0.10871318700E+01  0.93800000000E+00 0. -1.
         22    1    1    2    0    0  0.43609763218E+00  0.24757668720E+00  0.37458196025E+01  0.37792379992E+01  0.00000000000E+00 0. -1.
</event>
<event>
 5    1  0.6076093E+001  0.1509654E+01  0.7818608E-02  0.3457664E+00
         11   -1    0    0    0    0  0.00000000000E+00  0.00000000000E+00  0.39999999674E+01  0.40000000000E+01  0.51100000000E-03 0.  1.
    9000002   -1    0    0    0    0 -0.00000000000E+00 -0.00000000000E+00  0.00000000000E+00  0.93800000000E+00  0.93800000000E+00 0.  1.
         11    1    1    2    0    0 -0.13217352938E+00 -0.14555091115E+00  0.18249324151E+00  0.26825166155E+00  0.51100000000E-03 0.  1.
    9000002    1    1    2    0    0 -0.38196327126E-01  0.61178529901E+00  0.36021612220E+00  0.11770046160E+01  0.93800000000E+00 0.  1.
         22    1    1    2    0    0  0.17036985650E+00 -0.46623438786E+00  0.34572906036E+01  0.34927437224E+01  0.00000000000E+00 0.  1.
</event>
<event>
 5    1  0.6076093E+001  0.1599010E+01  0.7818608E-02  0.3354438E+00
         11   -1    0    0    0    0  0.00000000000E+00  0.00000000000E+00  0.39999999674E+01  0.40000000000E+01  0.51100000000E-03 0.  1.
    9000002   -1    0    0    0    0 -0.00000000000E+00 -0.00000000000E+00  0.00000000000E+00  0.93800000000E+00  0.93800000000E+00 0. -1.
         11    1    1    2    0    0  0.27336260937E-01  0.45104887543E-02  0.13002244205E+00  0.13294251475E+00  0.51100000000E-03 0.  1.
    9000002    1    1    2    0    0 -0.47631139389E+00 -0.20815667062E+00  0.18621171999E+00  0.10884486888E+01  0.93800000000E+00 0. -1.
         22    1    1    2    0    0  0.44897513296E+00  0.20364618187E+00  0.36837658053E+01  0.37166087965E+01  0.00000000000E+00 0.  1.
</event>
<event>
 5    1  0.6076093E+001  0.1599586E+01  0.7818608E-02  0.3353813E+00
         11   -1    0    0    0    0  0.00000000000E+00  0.00000000000E+00  0.39999999674E+01  0.40000000000E+01  0.51100000000E-03 0.  1.
    9000002   -1    0    0    0    0 -0.00000000000E+00 -0.00000000000E+00  0.00000000000E+00  0.93800000000E+00  0.93800000000E+00 0.  1.
         11    1    1    2    0    0  0.12852591202E+00 -0.32767428405E-01  0.13284950613E+01  0.13350999976E+01  0.51100000000E-03 0.  1.
    9000002    1    1    2    0    0 -0.38244852024E+00  0.64659768113E-01  0.10140010504E+00  0.10200851619E+01  0.93800000000E+00 0.  1.
         22    1    1    2    0    0  0.25392260821E+00 -0.31892339708E-01  0.25701048010E+01  0.25828148405E+01  0.00000000000E+00 0.  1.
</event>
<event>
 5    1  0.6076093E+001  0.1599520E+01  0.7818608E-02  0.3353885E+00
         11   -1    0    0    0    0  0.00000000000E+00  0.00000000000E+00  0.39999999674E+01  0.40000000000E+01  0.51100000000E-03 0. -1.
    9000002   -1    0    0    0    0 -0.00000000000E+00 -0.00000000000E+00  0.00000000000E+00  0.93800000000E+00  0.93800000000E+00 0. -1.
         11    1    1    2    0    0  0.57177950229E-01  0.78043795225E-01  0.11064022568E+01  0.11106243140E+01  0.51100000000E-03 0. -1.
    9000002    1    1    2    0    0 -0.24876923912E+00 -0.26418733128E+00  0.88549232085E-01  0.10096365915E+01  0.93800000000E+00 0. -1.
         22    1    1    2    0    0  0.19159128889E+00  0.18614353606E+00  0.28050484785E+01  0.28177390945E+01  0.00000000000E+00 0. -1.
</event>
<event>
 5    1  0.6076093E+001  0.1599673E+01  0.7818608E-02  0.3353718E+00
         11   -1    0    0    0    0  0.00000000000E+00  0.00000000000E+00  0.39999999674E+01  0.40000000000E+01  0.51100000000E-03 0. -1.
    9000002   -1    0    0    0    0 -0.00000000000E+00 -0.00000000000E+00  0.00000000000E+00  0.93800000000E+00  0.93800000000E+00 0. -1.
         11    1    1    2    0    0  0.87397557536E-01 -0.11116280560E+00  0.10973283911E+01  0.11064019891E+01  0.51100000000E-03 0. -1.
    9000002    1    1    2    0    0 -0.29976787048E+00  0.39292178724E+00  0.16704378231E+00  0.10733107343E+01  0.93800000000E+00 0. -1.
         22    1    1    2    0    0  0.21237031294E+00 -0.28175898164E+00  0.27356277940E+01  0.27582872767E+01  0.00000000000E+00 0. -1.
</event>
<event>
 5    1  0.6076093E+001  0.1599652E+01  0.7818608E-02  0.3353742E+00
         11   -1    0    0    0    0  0.00000000000E+00  0.00000000000E+00  0.39999999674E+01  0.40000000000E+01  0.51100000000E-03 0. -1.
    9000002   -1    0    0    0    0 -0.00000000000E+00 -0.00000000000E+00  0.00000000000E+00  0.93800000000E+00  0.93800000000E+00 0.  1.
         11    1    1    2    0    0 -0.65898553463E-01 -0.70332426547E-01  0.76191445047E+00  0.76798643252E+00  0.51100000000E-03 0. -1.
    9000002    1    1    2    0    0  0.31271963243E+00  0.36906775626E+00  0.15978390901E+00  0.10674171981E+01  0.93800000000E+00 0.  1.
         22    1    1    2    0    0 -0.24682107897E+00 -0.29873532971E+00  0.30783016079E+01  0.31025963694E+01  0.00000000000E+00 0. -1.
</event>
<event>
 5    1  0.6076093E+001  0.1597364E+01  0.7818608E-02  0.3356230E+00
         11   -1    0    0    0    0  0.00000000000E+00  0.00000000000E+00  0.39999999674E+01  0.40000000000E+01  0.51100000000E-03 0. -1.
    9000002   -1    0    0    0    0 -0.00000000000E+00 -0.00000000000E+00  0.00000000000E+00  0.93800000000E+00  0.93800000000E+00 0.  1.
         11    1    1    2    0    0 -0.21109802094E-01  0.21975310441E-01  0.67636731532E+00  0.67705357570E+00  0.51100000000E-03 0. -1.
    9000002    1    1    2    0    0  0.36644197766E+00 -0.60659644962E-01  0.94620013456E-01  0.10132898216E+01  0.93800000000E+00 0.  1.
         22    1    1    2    0    0 -0.34533217557E+00  0.38684334521E-01  0.32290126386E+01  0.32476566027E+01  0.00000000000E+00 0. -1.
</event>
<event>
 5    1  0.6076093E+001  0.1599575E+01  0.7818608E-02  0.3353825E+00
         11   -1    0    0    0    0  0.00000000000E+00  0.00000000000E+00  0.39999999674E+01  0.40000000000E+01  0.51100000000E-03 0.  1.
    9000002   -1    0    0    0    0 -0.00000000000E+00 -0.00000000000E+00  0.00000000000E+00  0.93800000000E+00  0.93800000000E+00 0. -1.
         11    1    1    2    0    0  0.24734508562E-01 -0.21542704395E+00  0.11847683507E+01  0.12044488005E+01  0.51100000000E-03 0.  1.
    9000002    1    1    2    0    0 -0.41905638101E-01  0.67394995660E+00  0.32387487479E+00  0.12002931146E+01  0.93800000000E+00 0. -1.
         22    1    1    2    0    0  0.17171129540E-01 -0.45852291265E+00  0.24913567419E+01  0.25332580849E+01  0.00000000000E+00 0.  1.
</event>
<event>
 5    1  0.6076093E+001  0.1599670E+01  0.7818608E-02  0.3353722E+00
         11   -1    0    0    0    0  0.00000000000E+00  0.00000000000E+00  0.39999999674E+01  0.40000000000E+01  0.51100000000E-03 0.  1.
    9000002   -1    0    0    0    0 -0.00000000000E+00 -0.00000000000E+00  0.00000000000E+00  0.93800000000E+00  0.93800000000E+00 0.  1.
         11    1    1    2    0    0  0.90654959761E-01 -0.71549316115E-01  0.74168865459E+00  0.75062637033E+00  0.51100000000E-03 0.  1.
    9000002    1    1    2    0    0 -0.45482466932E+00  0.37469854708E+00  0.24174609392E+00  0.11338208214E+01  0.93800000000E+00 0.  1.
         22    1    1    2    0    0  0.36416970956E+00 -0.30314923096E+00  0.30165652189E+01  0.30535528083E+01  0.00000000000E+00 0. -1.
</event>
<event>
 5    1  0.6076093E+001  0.1598720E+01  0.7818608E-02  0.3354753E+00
         11   -1    0    0    0    0  0.00000000000E+00  0.00000000000E+00  0.39999999674E+01  0.40000000000E+01  0.51100000000E-03 0. -1.
    9000002   -1    0    0    0    0 -0.00000000000E+00 -0.00000000000E+00  0.00000000000E+00  0.93800000000E+00  0.93800000000E+00 0.  1.
         11    1    1    2    0    0  0.21598885531E-01  0.59516200572E-03  0.19537217998E+00  0.19656402495E+00  0.51100000000E-03 0. -1.
    9000002    1    1    2    0    0 -0.26058073349E+00  0.26346116775E+00  0.93067072380E-01  0.10128275201E+01  0.93800000000E+00 0.  1.
         22    1    1    2    0    0  0.23898184796E+00 -0.26405632975E+00  0.37115607150E+01  0.37286084549E+01  0.00000000000E+00 0. -1.
</event>
<event>
 5    1  0.6076093E+001  0.1599660E+01  0.7818608E-02  0.3353732E+00
         11   -1    0    0    0    0  0.00000000000E+00  0.00000000000E+00  0.39999999674E+01  0.40000000000E+01  0.51100000000E-03 0. -1.
    9000002   -1    0    0    0    0 -0.00000000000E+00 -0.00000000000E+00  0.00000000000E+00  0.93800000000E+00  0.93800000000E+00 0. -1.
         11    1    1    2    0    0 -0.60760429156E-01 -0.89018642077E-01  0.77265701903E+00  0.78013798687E+00  0.51100000000E-03 0. -1.
    9000002    1    1    2    0    0  0.31809143359E+00  0.43596720697E+00  0.20079279664E+00  0.11006413189E+01  0.93800000000E+00 0. -1.
         22    1    1    2    0    0 -0.25733100443E+00 -0.34694856489E+00  0.30265501517E+01  0.30572206942E+01  0.00000000000E+00 0. -1.
</event>
<event>
 5    1  0.6076093E+001  0.1588955E+01  0.7818608E-02  0.3365439E+00
         11   -1    0    0    0    0  0.00000000000E+00  0.00000000000E+00  0.39999999674E+01  0.40000000000E+01  0.51100000000E-03 0.  1.
    9000002   -1    0    0    0    0 -0.00000000000E+00 -0.00000000000E+00  0.00000000000E+00  0.93800000000E+00  0.93800000000E+00 0. -1.
         11    1    1    2    0    0 -0.12325907251E-01 -0.23457273445E-01  0.62482035344E-01  0.67870741331E-01  0.51100000000E-03 0.  1.
    9000002    1    1    2    0    0 -0.21208620912E-01 -0.34659705426E+00  0.89494160442E-01  0.10042074130E+01  0.93800000000E+00 0. -1.
         22    1    1    2    0    0  0.33534528163E-01  0.37005432770E+00  0.38480237716E+01  0.38659218456E+01  0.00000000000E+00 0.  1.
</event>
<event>
 5    1  0.6076093E+001  0.1581507E+01  0.7818608E-02  0.3373683E+00
         11   -1    0    0    0    0  0.00000000000E+00  0.00000000000E+00  0.39999999674E+01  0.40000000000E+01  0.51100000000E-03 0.  1.
    9000002   -1    0    0    0    0 -0.00000000000E+00 -0.00000000000E+00  0.00000000000E+00  0.93800000000E+00  0.93800000000E+00 0. -1.
         11    1    1    2    0    0  0.14011847684E+00  0.32384536579E-01  0.10952624878E+01  0.11046638059E+01  0.51100000000E-03 0.  1.
    9000002    1    1    2    0    0 -0.29163247113E+00  0.35961361156E+00  0.16191578193E+00  0.10585046851E+01  0.93800000000E+00 0. -1.
         22    1    1    2    0    0  0.15151399429E+00 -0.39199814814E+00  0.27428216977E+01  0.27748315091E+01  0.00000000000E+00 0.  1.
</event>
<event>
 5    1  0.6076093E+001  0.1599677E+01  0.7818608E-02  0.3353714E+00
         11   -1    0    0    0    0  0.00000000000E+00  0.00000000000E+00  0.39999999674E+01  0.40000000000E+01  0.51100000000E-03 0. -1.
    9000002   -1    0    0    0    0 -0.00000000000E+00 -0.00000000000E+00  0.00000000000E+00  0.93800000000E+00  0.93800000000E+00 0.  1.
         11    1    1    2    0    0  0.77888748146E-01 -0.24743538045E-01  0.80516637491E+00  0.80930343640E+00  0.51100000000E-03 0. -1.
    9000002    1    1    2    0    0 -0.37453834587E+00  0.12018723269E+00  0.10427648648E+00  0.10224683511E+01  0.93800000000E+00 0.  1.
         22    1    1    2    0    0  0.29664959773E+00 -0.95443694642E-01  0.30905571060E+01  0.31062282125E+01  0.00000000000E+00 0. -1.
</event>
<event>
 5    1  0.6076093E+001  0.1599209E+01  0.7818608E-02  0.3354223E+00
         11   -1    0    0    0    0  0.00000000000E+00  0.00000000000E+00  0.39999999674E+01  0.40000000000E+01  0.51100000000E-03 0.  1.
    9000002   -1    0    0    0    0 -0.00000000000E+00 -0.00000000000E+00  0.00000000000E+00  0.93800000000E+00  0.93800000000E+00 0.  1.
         11    1    1    2    0    0  0.83246548751E-01 -0.25822472190E-01  0.10052309328E+01  0.10090026151E+01  0.51100000000E-03 0.  1.
    9000002    1    1    2    0    0 -0.35996195505E+00  0.17990331752E+00  0.10965455074E+00  0.10265505020E+01  0.93800000000E+00 0.  1.
         22    1    1    2    0    0  0.27671540629E+00 -0.15408084533E+00  0.28851144839E+01  0.29024468829E+01  0.00000000000E+00 0.  1.
</event>
<event>
 5    1  0.6076093E+001  0.1599636E+01  0.7818608E-02  0.3353759E+00
         11   -1    0    0    0    0  0.00000000000E+00  0.00000000000E+00  0.39999999674E+01  0.40000000000E+01  0.51100000000E-03 0.  1.
    9000002   -1    0    0    0    0 -0.00000000000E+00 -0.00000000000E+00  0.00000000000E+00  0.93800000000E+00  0.93800000000E+00 0. -1.
         11    1    1    2    0    0 -0.15580036216E-01  0.20756939373E-01  0.25616843058E+00  0.25748031771E+00  0.51100000000E-03 0.  1.
    9000002    1    1    2    0    0  0.18555488705E+00 -0.34190873854E+00  0.10196893168E+00  0.10205752616E+01  0.93800000000E+00 0. -1.
         22    1    1    2    0    0 -0.16997485084E+00  0.32115179917E+00  0.36418626051E+01  0.36599444207E+01  0.00000000000E+00 0.  1.
</event>
<event>
 5    1  0.6076093E+001  0.1599675E+01  0.7818608E-02  0.3353716E+00
         11   -1    0    0    0    0  0.00000000000E+00  0.00000000000E+00  0.39999999674E+01  0.40000000000E+01  0.51100000000E-03 0. -1.
    9000002   -1    0    0    0    0 -0.00000000000E+00 -0.00000000000E+00  0.00000000000E+00  0.93800000000E+00  0.93800000000E+00 0. -1.
         11    1    1    2    0    0  0.11118985225E+00 -0.14899578877E-02  0.10558248151E+01  0.10616645914E+01  0.51100000000E-03 0. -1.
    9000002    1    1    2    0    0 -0.40875563209E+00  0.10861261054E-03  0.11282955208E+00  0.10293957870E+01  0.93800000000E+00 0. -1.
         22    1    1    2    0    0  0.29756577983E+00  0.13813452772E-02  0.28313456002E+01  0.28469396216E+01  0.00000000000E+00 0. -1.
</event>
<event>
 5    1  0.6076093E+001  0.1599677E+01  0.7818608E-02  0.3353714E+00
         11   -1    0    0    0    0  0.00000000000E+00  0.00000000000E+00  0.39999999674E+01  0.40000000000E+01  0.51100000000E-03 0. -1.
    9000002   -1    0    0    0    0 -0.00000000000E+00 -0.00000000000E+00  0.00000000000E+00  0.93800000000E+00  0.93800000000E+00 0.  1.
         11    1    1    2    0    0 -0.58442995503E-01 -0.88177922420E-01  0.85619620171E+00  0.86270686021E+00  0.51100000000E-03 0.  1.
    9000002    1    1    2    0    0  0.26348960163E+00  0.39431154385E+00  0.15331960306E+00  0.10621954926E+01  0.93800000000E+00 0.  1.
         22    1    1    2    0    0 -0.20504660613E+00 -0.30613362143E+00  0.29904841626E+01  0.30130976472E+01  0.00000000000E+00 0. -1.
</event>
<event>
 5    1  0.6076093E+001  0.1598382E+01  0.7818608E-02  0.3355121E+00
         11   -1    0    0    0    0  0.00000000000E+00  0.00000000000E+00  0.39999999674E+01  0.40000000000E+01  0.51100000000E-03 0. -1.
    9000002   -1    0    0    0    0 -0.00000000000E+00 -0.00000000000E+00  0.00000000000E+00  0.93800000000E+00  0.93800000000E+00 0.  1.
         11    1    1    2    0    0 -0.37261480407E-02  0.22495392760E+00  0.10429595351E+01  0.10669503300E+01  0.51100000000E-03 0. -1.
    9000002    1    1    2    0    0  0.12702770988E+00 -0.82067160302E+00  0.51523239365E+00  0.13546019115E+01  0.93800000000E+00 0.  1.
         22    1    1    2    0    0 -0.12330156184E+00  0.59571767543E+00  0.24418080386E+01  0.25164477585E+01  0.00000000000E+00 0. -1.
</event>
<event>
 5    1  0.6076093E+001  0.1599677E+01  0.7818608E-02  0.3353714E+00
         11   -1    0    0    0    0  0.00000000000E+00  0.00000000000E+00  0.39999999674E+01  0.40000000000E+01  0.51100000000E-03 0. -1.
    9000002   -1    0    0    0    0 -0.00000000000E+00 -0.00000000000E+00  0.00000000000E+00  0.93800000000E+00  0.93800000000E+00 0.  1.
         11    1    1    2    0    0  0.10993998310E+00 -0.64294175294E-01  0.13990053178E+01  0.14047906183E+01  0.51100000000E-03 0. -1.
    9000002    1    1    2    0    0 -0.30729991562E+00  0.18053613315E+00  0.85233479254E-01  0.10070428390E+01  0.93800000000E+00 0.  1.
         22    1    1    2    0    0  0.19735993252E+00 -0.11624195785E+00  0.25157611703E+01  0.25261665428E+01  0.00000000000E+00 0. -1.
</event>
<event>
 5    1  0.6076093E+001  0.1598976E+01  0.7818608E-02  0.3354475E+00
         11   -1    0    0    0    0  0.00000000000E+00  0.00000000000E+00  0.39999999674E+01  0.40000000000E+01  0.51100000000E-03 0.  1.
    9000002   -1    0    0    0    0 -0.00000000000E+00 -0.00000000000E+00  0.00000000000E+00  0.93800000000E+00  0.93800000000E+00 0.  1.
         11    1    1    2    0    0  0.95122322976E-01 -0.85049036394E-01  0.90845074852E+00  0.91736831128E+00  0.51100000000E-03 0.  1.
    9000002    1    1    2    0    0 -0.37491579550E+00  0.46301541361E+00  0.24811571187E+00  0.11385739034E+01  0.93800000000E+00 0.  1.
         22    1    1    2    0    0  0.27979347252E+00 -0.37796637722E+00  0.28434335070E+01  0.28820577854E+01  0.00000000000E+00 0.  1.
</event>
<event>
 5    1  0.6076093E+001  0.1599676E+01  0.7818608E-02  0.3353716E+00
         11   -1    0    0    0    0  0.00000000000E+00  0.00000000000E+00  0.39999999674E+01  0.40000000000E+01  0.51100000000E-03 0. -1.
    9000002   -1    0    0    0    0 -0.00000000000E+00 -0.00000000000E+00  0.00000000000E+00  0.93800000000E+00  0.93800000000E+00 0.  1.
         11    1    1    2    0    0 -0.22177591750E-02 -0.45896543262E-01  0.49715088340E+00  0.49927014043E+00  0.51100000000E-03 0. -1.
    9000002    1    1    2    0    0  0.18787177487E-01  0.35482506311E+00  0.84705704169E-01  0.10066145438E+01  0.93800000000E+00 0.  1.
         22    1    1    2    0    0 -0.16569418312E-01 -0.30892851985E+00  0.34181433798E+01  0.34321153158E+01  0.00000000000E+00 0. -1.
</event>
<event>
 5    1  0.6076093E+001  0.1568510E+01  0.7818608E-02  0.3388267E+00
         11   -1    0    0    0    0  0.00000000000E+00  0.00000000000E+00  0.39999999674E+01  0.40000000000E+01  0.51100000000E-03 0.  1.
    9000002   -1    0    0    0    0 -0.00000000000E+00 -0.00000000000E+00  0.00000000000E+00  0.93800000000E+00  0.93800000000E+00 0.  1.
         11    1    1    2    0    0 -0.18906683647E+00  0.42717560387E-01  0.88409194854E+00  0.90509109664E+00  0.51100000000E-03 0.  1.
    9000002    1    1    2    0    0  0.67223846759E-01 -0.36858066950E+00  0.12033278398E+00  0.10171994565E+01  0.93800000000E+00 0.  1.
         22    1    1    2    0    0  0.12184298971E+00  0.32586310911E+00  0.29955752348E+01  0.30157094468E+01  0.00000000000E+00 0.  1.
</event>
<event>
 5    1  0.6076093E+001  0.1599675E+01  0.7818608E-02  0.3353716E+00
         11   -1    0    0    0    0  0.00000000000E+00  0.00000000000E+00  0.39999999674E+01  0.40000000000E+01  0.51100000000E-03 0. -1.
    9000002   -1    0    0    0    0 -0.00000000000E+00 -0.00000000000E+00  0.00000000000E+00  0.93800000000E+00  0.93800000000E+00 0. -1.
         11    1    1    2    0    0 -0.44208283704E-01  0.28815647839E-01  0.58368067918E+00  0.58606152432E+00  0.51100000000E-03 0. -1.
    9000002    1    1    2    0    0  0.29204744292E+00 -0.19954495757E+00  0.83923600367E-01  0.10059806508E+01  0.93800000000E+00 0. -1.
         22    1    1    2    0    0 -0.24783915922E+00  0.17072930973E+00  0.33323956878E+01  0.33459578249E+01  0.00000000000E+00 0. -1.
</event>
<event>
 5    1  0.6076093E+001  0.1599513E+01  0.7818608E-02  0.3353892E+00
         11   -1    0    0    0    0  0.00000000000E+00  0.00000000000E+00  0.39999999674E+01  0.40000000000E+01  0.51100000000E-03 0.  1.
    9000002   -1    0    0    0    0 -0.00000000000E+00 -0.00000000000E+00  0.00000000000E+00  0.93800000000E+00  0.93800000000E+00 0.  1.
         11    1    1    2    0    0 -0.90028882875E-01 -0.81994260444E-01  0.12393891479E+01  0.12453569688E+01  0.51100000000E-03 0.  1.
    9000002    1    1    2    0    0  0.24780179142E+00  0.28576963542E+00  0.96376953453E-01  0.10159736854E+01  0.93800000000E+00 0.  1.
         22    1    1    2    0    0 -0.15777290855E+00 -0.20377537498E+00  0.26642338660E+01  0.26766693458E+01  0.00000000000E+00 0.  1.
</event>
<event>
 5    1  0.6076093E+001  0.1488197E+01  0.7818608E-02  0.3484431E+00
         11   -1    0    0    0    0  0.00000000000E+00  0.00000000000E+00  0.39999999674E+01  0.40000000000E+01  0.51100000000E-03 0.  1.
    9000002   -1    0    0    0    0 -0.00000000000E+00 -0.00000000000E+00  0.00000000000E+00  0.93800000000E+00  0.93800000000E+00 0.  1.
         11    1    1    2    0    0  0.16867947453E+00  0.14400354876E+00  0.10931640483E+00  0.24726529209E+00  0.51100000000E-03 0.  1.
    9000002    1    1    2    0    0  0.21846919341E+00 -0.25556876389E+00  0.24932865974E+00  0.10271577104E+01  0.93800000000E+00 0.  1.
         22    1    1    2    0    0 -0.38714866794E+00  0.11156521514E+00  0.36413549028E+01  0.36635769975E+01  0.00000000000E+00 0.  1.
</event>
<event>
 5    1  0.6076093E+001  0.1599669E+01  0.7818608E-02  0.3353723E+00
         11   -1    0    0    0    0  0.00000000000E+00  0.00000000000E+00  0.39999999674E+01  0.40000000000E+01  0.51100000000E-03 0. -1.
    9000002   -1    0    0    0    0 -0.00000000000E+00 -0.00000000000E+00  0.00000000000E+00  0.93800000000E+00  0.93800000000E+00 0. -1.
         11    1    1    2    0    0  0.48576080507E-01  0.87805242797E-01  0.10366772111E+01  0.10415225861E+01  0.51100000000E-03 0. -1.
    9000002    1    1    2    0    0 -0.17317187163E+00 -0.32532092286E+00  0.91268891364E-01  0.10119269788E+01  0.93800000000E+00 0. -1.
         22    1    1    2    0    0  0.12459579112E+00  0.23751568006E+00  0.28720538649E+01  0.28845504350E+01  0.00000000000E+00 0. -1.
</event>
<event>
 5    1  0.6076093E+001  0.1599628E+01  0.7818608E-02  0.3353767E+00
         11   -1    0    0    0    0  0.00000000000E+00  0.00000000000E+00  0.39999999674E+01  0.40000000000E+01  0.51100000000E-03 0.  1.
    9000002   -1    0    0    0    0 -0.00000000000E+00 -0.00000000000E+00  0.00000000000E+00  0.93800000000E+00  0.93800000000E+00 0. -1.
         11    1    1    2    0    0 -0.16364016098E-01 -0.50590494556E-01  0.56154680675E+00  0.56405873493E+00  0.51100000000E-03 0.  1.
    9000002    1    1    2    0    0  0.73004948795E-01  0.35092669621E+00  0.86267626923E-01  0.10078518602E+01  0.93800000000E+00 0. -1.
         22    1    1    2    0    0 -0.56640932697E-01 -0.30033620165E+00  0.33521855337E+01  0.33660894049E+01  0.00000000000E+00 0.  1.
</event>
<event>
 5    1  0.6076093E+001  0.1541419E+01  0.7818608E-02  0.3419507E+00
         11   -1    0    0    0    0  0.00000000000E+00  0.00000000000E+00  0.39999999674E+01  0.40000000000E+01  0.51100000000E-03 0.  1.
    9000002   -1    0    0    0    0 -0.00000000000E+00 -0.00000000000E+00  0.00000000000E+00  0.93800000000E+00  0.93800000000E+00 0. -1.
         11    1    1    2    0    0  0.18732187220E+00 -0.19991164143E+00  0.84363567767E+00  0.88700370120E+00  0.51100000000E-03 0.  1.
    9000002    1    1    2    0    0 -0.33537085870E+00 -0.59899424718E-01  0.12595381867E+00  0.10058677440E+01  0.93800000000E+00 0. -1.
         22    1    1    2    0    0  0.14804898650E+00  0.25981106614E+00  0.30304104710E+01  0.30451285548E+01  0.00000000000E+00 0.  1.
</event>
<event>
 5    1  0.6076093E+001  0.1599677E+01  0.7818608E-02  0.3353714E+00
         11   -1    0    0    0    0  0.00000000000E+00  0.00000000000E+00  0.39999999674E+01  0.40000000000E+01  0.51100000000E-03 0.  1.
    9000002   -1    0    0    0    0 -0.00000000000E+00 -0.00000000000E+00  0.00000000000E+00  0.93800000000E+00  0.93800000000E+00 0.  1.
         11    1    1    2    0    0 -0.74542976299E-01  0.54267771790E-01  0.84362133074E+00  0.84864530705E+00  0.51100000000E-03 0.  1.
    9000002    1    1    2    0    0  0.34379454319E+00 -0.25145454194E+00  0.12279807413E+00  0.10374716582E+01  0.93800000000E+00 0.  1.
         22    1    1    2    0    0 -0.26925156690E+00  0.19718677015E+00  0.30335805625E+01  0.30518830347E+01  0.00000000000E+00 0.  1.
</event>
<event>
 5    1  0.6076093E+001  0.1595313E+01  0.7818608E-02  0.3358466E+00
         11   -1    0    0    0    0  0.00000000000E+00  0.00000000000E+00  0.39999999674E+01  0.40000000000E+01  0.51100000000E-03 0.  1.
    9000002   -1    0    0    0    0 -0.00000000000E+00 -0.00000000000E+00  0.00000000000E+00  0.93800000000E+00  0.93800000000E+00 0.  1.
         11    1    1    2    0    0  0.16091252102E-02  0.24868428990E-01  0.41421710770E+00  0.41496638596E+00  0.51100000000E-03 0.  1.
    9000002    1    1    2    0    0 -0.27738495990E+00  0.14596525996E+00  0.69074670360E-01  0.99139476657E+00  0.93800000000E+00 0.  1.
         22    1    1    2    0    0  0.27577583469E+00 -0.17083368895E+00  0.35167081893E+01  0.35316388475E+01  0.00000000000E+00 0.  1.
</event>
<event>
 5    1  0.6076093E+001  0.1599666E+01  0.7818608E-02  0.3353726E+00
         11   -1    0    0    0    0  0.00000000000E+00  0.00000000000E+00  0.39999999674E+01  0.40000000000E+01  0.51100000000E-03 0.  1.
    9000002   -1    0    0    0    0 -0.00000000000E+00 -0.00000000000E+00  0.00000000000E+00  0.93800000000E+00  0.93800000000E+00 0.  1.
         11    1    1    2    0    0 -0.84175981765E-02  0.16760192784E-01  0.19115452481E+00  0.19207309416E+00  0.51100000000E-03 0.  1.
    9000002    1    1    2    0    0  0.14196350045E+00 -0.32681514962E+00  0.85198281320E-01  0.10070077083E+01  0.93800000000E+00 0.  1.
         22    1    1    2    0    0 -0.13354590228E+00  0.31005495684E+00  0.37236471612E+01  0.37389191975E+01  0.00000000000E+00 0.  1.
</event>
<event>
 5    1  0.6076093E+001  0.1599431E+01  0.7818608E-02  0.3353982E+00
         11   -1    0    0    0    0  0.00000000000E+00  0.00000000000E+00  0.39999999674E+01  0.40000000000E+01  0.51100000000E-03 0.  1.
    9000002   -1    0    0    0    0 -0.00000000000E+00 -0.00000000000E+00  0.00000000000E+00  0.93800000000E+00  0.93800000000E+00 0.  1.
         11    1    1    2    0    0  0.46200476657E-02 -0.14677167225E-01  0.10601028547E+00  0.10712238713E+00  0.51100000000E-03 0.  1.
    9000002    1    1    2    0    0 -0.36145318081E-02  0.38645315362E+00  0.10077736585E+00  0.10194896676E+01  0.93800000000E+00 0.  1.
         22    1    1    2    0    0 -0.10055158576E-02 -0.37177598639E+00  0.37932123160E+01  0.38113879453E+01  0.00000000000E+00 0.  1.
</event>
<event>
 5    1  0.6076093E+001  0.1599289E+01  0.7818608E-02  0.3354136E+00
         11   -1    0    0    0    0  0.00000000000E+00  0.00000000000E+00  0.39999999674E+01  0.40000000000E+01  0.51100000000E-03 0. -1.
    9000002   -1    0    0    0    0 -0.00000000000E+00 -0.00000000000E+00  0.00000000000E+00  0.93800000000E+00  0.93800000000E+00 0.  1.
         11    1    1    2    0    0  0.61491543996E-01  0.51022101062E-01  0.69467048376E+00  0.69925088981E+00  0.51100000000E-03 0. -1.
    9000002    1    1    2    0    0 -0.38945675203E+00 -0.19441048090E+00  0.12874427288E+00  0.10420609793E+01  0.93800000000E+00 0.  1.
         22    1    1    2    0    0  0.32796520804E+00  0.14338837984E+00  0.31765852107E+01  0.31966881309E+01  0.00000000000E+00 0. -1.
</event>
<event>
 5    1  0.6076093E+001  0.1599676E+01  0.7818608E-02  0.3353715E+00
         11   -1    0    0    0    0  0.00000000000E+00  0.00000000000E+00  0.39999999674E+01  0.40000000000E+01  0.51100000000E-03 0. -1.
    9000002   -1    0    0    0    0 -0.00000000000E+00 -0.00000000000E+00  0.00000000000E+00  0.93800000000E+00  0.93800000000E+00 0.  1.
         11    1    1    2    0    0 -0.69861668594E-01 -0.13653421868E-01  0.74705413699E+00  0.75043801435E+00  0.51100000000E-03 0. -1.
    9000002    1    1    2    0    0  0.36763285049E+00  0.73436819128E-01  0.94508071505E-01  0.10145553976E+01  0.93800000000E+00 0.  1.
         22    1    1    2    0    0 -0.29777118190E+00 -0.59783397260E-01  0.31584377589E+01  0.31730065881E+01  0.00000000000E+00 0. -1.
</event>
<event>
 5    1  0.6076093E+001  0.1476366E+01  0.7818608E-02  0.3499549E+00
         11   -1    0    0    0    0  0.00000000000E+00  0.00000000000E+00  0.39999999674E+01  0.40000000000E+01  0.51100000000E-03 0.  1.
    9000002   -1    0    0    0    0 -0.00000000000E+00 -0.00000000000E+00  0.00000000000E+00  0.93800000000E+00  0.93800000000E+00 0. -1.
         11    1    1    2    0    0  0.29134164306E+00  0.47996034865E+00  0.13433043045E+01  0.14559219089E+01  0.51100000000E-03 0.  1.
    9000002    1    1    2    0    0 -0.44400566209E+00 -0.24651819679E+00  0.29876637136E+00  0.11077082621E+01  0.93800000000E+00 0. -1.
         22    1    1    2    0    0  0.15266401903E+00 -0.23344215186E+00  0.23579292915E+01  0.23743698290E+01  0.00000000000E+00 0. -1.
</event>
<event>
 5    1  0.9817429E+001  0.1588971E+01  0.7818608E-02  0.3365421E+00
         11   -1    0    0    0    0  0.00000000000E+00  0.00000000000E+00  0.39999999674E+01  0.40000000000E+01  0.51100000000E-03 0. -1.
    9000002   -1    0    0    0    0 -0.00000000000E+00 -0.00000000000E+00  0.00000000000E+00  0.93800000000E+00  0.93800000000E+00 0. -1.
         11    1    1    2    0    0  0.79211254516E-01  0.68195444683E-01  0.12108085244E+01  0.12153117236E+01  0.51100000000E-03 0. -1.
    9000002    1    1    2    0    0  0.11599113793E+00 -0.23088430531E+00  0.52635071868E-01  0.97435925474E+00  0.93800000000E+00 0. -1.
         22    1    1    2    0    0 -0.19520239245E+00  0.16268886062E+00  0.27365563711E+01  0.27483290217E+01  0.00000000000E+00 0. -1.
</event>
<event>
 5    1  0.6076093E+001  0.1577038E+01  0.7818608E-02  0.3378669E+00
         11   -1    0    0    0    0  0.00000000000E+00  0.00000000000E+00  0.39999999674E+01  0.40000000000E+01  0.51100000000E-03 0. -1.
    9000002   -1    0    0    0    0 -0.00000000000E+00 -0.00000000000E+00  0.00000000000E+00  0.93800000000E+00  0.93800000000E+00 0.  1.
         11    1    1    2    0    0  0.55572968739E-01  0.19926225668E-01  0.66575634709E-01  0.88983063454E-01  0.51100000000E-03 0. -1.
    9000002    1    1    2    0    0 -0.32092200934E+00 -0.32762982440E+00  0.16299863414E+00  0.10567614644E+01  0.93800000000E+00 0.  1.
         22    1    1    2    0    0  0.26534904060E+00  0.30770359873E+00  0.37704256985E+01  0.37922554721E+01  0.00000000000E+00 0. -1.
</event>
<event>
 5    1  0.6076093E+001  0.1592386E+01  0.7818608E-02  0.3361669E+00
         11   -1    0    0    0    0  0.00000000000E+00  0.00000000000E+00  0.39999999674E+01  0.40000000000E+01  0.51100000000E-03 0. -1.
    9000002   -1    0    0    0    0 -0.00000000000E+00 -0.00000000000E+00  0.00000000000E+00  0.93800000000E+00  0.93800000000E+00 0. -1.
         11    1    1    2    0    0  0.10197711219E-01 -0.54378969097E-01  0.11044813458E+01  0.11058663436E+01  0.51100000000E-03 0. -1.
    9000002    1    1    2    0    0  0.26481926110E+00  0.31808661903E+00  0.12191383133E+00  0.10324801792E+01  0.93800000000E+00 0. -1.
         22    1    1    2    0    0 -0.27501697232E+00 -0.26370764994E+00  0.27736047903E+01  0.27996534772E+01  0.00000000000E+00 0.  1.
</event>
<event>
 5    1  0.6076093E+001  0.1591856E+01  0.7818608E-02  0.3362250E+00
         11   -1    0    0    0    0  0.00000000000E+00  0.00000000000E+00  0.39999999674E+01  0.40000000000E+01  0.51100000000E-03 0. -1.
    9000002   -1    0    0    0    0 -0.00000000000E+00 -0.00000000000E+00  0.00000000000E+00  0.93800000000E+00  0.93800000000E+00 0.  1.
         11    1    1    2    0    0 -0.50858284925E-01 -0.45186515508E-01  0.14048296170E+00  0.15609007008E+00  0.51100000000E-03 0. -1.
    9000002    1    1    2    0    0  0.46105380514E+00  0.47672668811E+00  0.31978356901E+00  0.11924531343E+01  0.93800000000E+00 0.  1.
         22    1    1    2    0    0 -0.41019552022E+00 -0.43154017260E+00  0.35397334367E+01  0.35894567957E+01  0.00000000000E+00 0. -1.
</event>
<event>
 5    1  0.6076093E+001  0.1599668E+01  0.7818608E-02  0.3353724E+00
         11   -1    0    0    0    0  0.00000000000E+00  0.00000000000E+00  0.39999999674E+01  0.40000000000E+01  0.51100000000E-03 0. -1.
    9000002   -1    0    0    0    0 -0.00000000000E+00 -0.00000000000E+00  0.00000000000E+00  0.93800000000E+00  0.93800000000E+00 0.  1.
         11    1    1    2    0    0 -0.76364988151E-01  0.13888954457E-01  0.82706093586E+00  0.83069523124E+00  0.51100000000E-03 0. -1.
    9000002    1    1    2    0    0  0.36451401552E+00 -0.52216424489E-01  0.91114972026E-01  0.10118018386E+01  0.93800000000E+00 0.  1.
         22    1    1    2    0    0 -0.28814902737E+00  0.38327470032E-01  0.30818240595E+01  0.30955029301E+01  0.00000000000E+00 0. -1.
</event>
<event>
 5    1  0.6076093E+001  0.1596261E+01  0.7818608E-02  0.3357431E+00
         11   -1    0    0    0    0  0.00000000000E+00  0.00000000000E+00  0.39999999674E+01  0.40000000000E+01  0.51100000000E-03 0.  1.
    9000002   -1    0    0    0    0 -0.00000000000E+00 -0.00000000000E+00  0.00000000000E+00  0.93800000000E+00  0.93800000000E+00 0.  1.
         11    1    1    2    0    0 -0.24999042458E+00  0.23048821921E+00  0.11786276068E+01  0.12266961026E+01  0.51100000000E-03 0.  1.
    9000002    1    1    2    0    0  0.65100119507E+00 -0.50230722396E+00  0.50651634351E+00  0.13462978532E+01  0.93800000000E+00 0.  1.
         22    1    1    2    0    0 -0.40101077049E+00  0.27181900476E+00  0.23148560170E+01  0.23650060442E+01  0.00000000000E+00 0.  1.
</event>
<event>
 5    1  0.6076093E+001  0.1599664E+01  0.7818608E-02  0.3353728E+00
         11   -1    0    0    0    0  0.00000000000E+00  0.00000000000E+00  0.39999999674E+01  0.40000000000E+01  0.51100000000E-03 0.  1.
    9000002   -1    0    0    0    0 -0.00000000000E+00 -0.00000000000E+00  0.00000000000E+00  0.93800000000E+00  0.93800000000E+00 0.  1.
         11    1    1    2    0    0 -0.23920116993E-01 -0.10794360781E+00  0.68837339257E+00  0.69719594318E+00  0.51100000000E-03 0.  1.
    9000002    1    1    2    0    0  0.14804660793E+00  0.58490609633E+00  0.25418078082E+00  0.11438902084E+01  0.93800000000E+00 0.  1.
         22    1    1    2    0    0 -0.12412649094E+00 -0.47696248852E+00  0.30574457940E+01  0.30969138484E+01  0.00000000000E+00 0.  1.
</event>
<event>
 5    1  0.6076093E+001  0.1447929E+01  0.7818608E-02  0.3536985E+00
         11   -1    0    0    0    0  0.00000000000E+00  0.00000000000E+00  0.39999999674E+01  0.40000000000E+01  0.51100000000E-03 0.  1.
    9000002   -1    0    0    0    0 -0.00000000000E+00 -0.00000000000E+00  0.00000000000E+00  0.93800000000E+00  0.93800000000E+00 0. -1.
         11    1    1    2    0    0  0.76675427341E-01 -0.11046552371E+00  0.40201357493E-01  0.14035014554E+00  0.51100000000E-03 0.  1.
    9000002    1    1    2    0    0  0.26940997172E+00 -0.19917408428E+00  0.20838807731E+00  0.10176058370E+01  0.93800000000E+00 0. -1.
         22    1    1    2    0    0 -0.34608539906E+00  0.30963960799E+00  0.37514105326E+01  0.37800440175E+01  0.00000000000E+00 0.  1.
</event>
<event>
 5    1  0.6076093E+001  0.1599677E+01  0.7818608E-02  0.3353714E+00
         11   -1    0    0    0    0  0.00000000000E+00  0.00000000000E+00  0.39999999674E+01  0.40000000000E+01  0.51100000000E-03 0. -1.
    9000002   -1    0    0    0    0 -0.00000000000E+00 -0.00000000000E+00  0.00000000000E+00  0.93800000000E+00  0.93800000000E+00 0. -1.
         11    1    1    2    0    0  0.81735586630E-01  0.89556257859E-01  0.12484667012E+01  0.12543406215E+01  0.51100000000E-03 0.  1.
    9000002    1    1    2    0    0 -0.25531464348E+00 -0.27925211179E+00  0.96309882821E-01  0.10160152079E+01  0.93800000000E+00 0. -1.
         22    1    1    2    0    0  0.17357905685E+00  0.18969585393E+00  0.26552233833E+01  0.26676441707E+01  0.00000000000E+00 0. -1.
</event>
<event>
 5    1  0.6076093E+001  0.1598888E+01  0.7818608E-02  0.3354571E+00
         11   -1    0    0    0    0  0.00000000000E+00  0.00000000000E+00  0.39999999674E+01  0.40000000000E+01  0.51100000000E-03 0. -1.
    9000002   -1    0    0    0    0 -0.00000000000E+00 -0.00000000000E+00  0.00000000000E+00  0.93800000000E+00  0.93800000000E+00 0. -1.
         11    1    1    2    0    0 -0.49137907883E-01 -0.99918235729E-01  0.12023895906E+01  0.12075343376E+01  0.51100000000E-03 0. -1.
    9000002    1    1    2    0    0  0.17573857504E+00  0.42003848913E+00  0.14160174663E+00  0.10522411481E+01  0.93800000000E+00 0. -1.
         22    1    1    2    0    0 -0.12660066716E+00 -0.32012025340E+00  0.26560086301E+01  0.26782245143E+01  0.00000000000E+00 0. -1.
</event>
<event>
 5    1  0.6076093E+001  0.1596809E+01  0.7818608E-02  0.3356834E+00
         11   -1    0    0    0    0  0.00000000000E+00  0.00000000000E+00  0.39999999674E+01  0.40000000000E+01  0.51100000000E-03 0. -1.
    9000002   -1    0    0    0    0 -0.00000000000E+00 -0.00000000000E+00  0.00000000000E+00  0.93800000000E+00  0.93800000000E+00 0.  1.
         11    1    1    2    0    0  0.10164475849E-01  0.50944655422E-02  0.29659189062E+00  0.29681017646E+00  0.51100000000E-03 0. -1.
    9000002    1    1    2    0    0 -0.93890312366E-01  0.38057049432E+00  0.10591092528E+00  0.10221107650E+01  0.93800000000E+00 0.  1.
         22    1    1    2    0    0  0.83725836517E-01 -0.38566495986E+00  0.35974971515E+01  0.36190790585E+01  0.00000000000E+00 0. -1.
</event>
<event>
 5    1  0.6076093E+001  0.1598355E+01  0.7818608E-02  0.3355150E+00
         11   -1    0    0    0    0  0.00000000000E+00  0.00000000000E+00  0.39999999674E+01  0.40000000000E+01  0.51100000000E-03 0. -1.
    9000002   -1    0    0    0    0 -0.00000000000E+00 -0.00000000000E+00  0.00000000000E+00  0.93800000000E+00  0.93800000000E+00 0. -1.
         11    1    1    2    0    0 -0.42411935410E-02  0.49464168476E-02  0.20136239610E-01  0.21170357317E-01  0.51100000000E-03 0. -1.
    9000002    1    1    2    0    0 -0.30970030181E+00 -0.46074002136E+00  0.21433553015E+00  0.11108462377E+01  0.93800000000E+00 0. -1.
         22    1    1    2    0    0  0.31394149535E+00  0.45579360451E+00  0.37655281976E+01  0.38059834050E+01  0.00000000000E+00 0. -1.
</event>
<event>
 5    1  0.6076093E+001  0.1566958E+01  0.7818608E-02  0.3390026E+00
         11   -1    0    0    0    0  0.00000000000E+00  0.00000000000E+00  0.39999999674E+01  0.40000000000E+01  0.51100000000E-03 0.  1.
    9000002   -1    0    0    0    0 -0.00000000000E+00 -0.00000000000E+00  0.00000000000E+00  0.93800000000E+00  0.93800000000E+00 0.  1.
         11    1    1    2    0    0 -0.13000383013E+00 -0.13108039851E+00  0.13112426971E+01  0.13241754939E+01  0.51100000000E-03 0.  1.
    9000002    1    1    2    0    0  0.11128560276E+00 -0.15540734250E+00  0.49031622114E-01  0.95853222557E+00  0.93800000000E+00 0.  1.
         22    1    1    2    0    0  0.18718227368E-01  0.28648774101E+00  0.26397256482E+01  0.26552922806E+01  0.00000000000E+00 0.  1.
</event>
<event>
 5    1  0.6076093E+001  0.1599613E+01  0.7818608E-02  0.3353783E+00
         11   -1    0    0    0    0  0.00000000000E+00  0.00000000000E+00  0.39999999674E+01  0.40000000000E+01  0.51100000000E-03 0. -1.
    9000002   -1    0    0    0    0 -0.00000000000E+00 -0.00000000000E+00  0.00000000000E+00  0.93800000000E+00  0.93800000000E+00 0.  1.
         11    1    1    2    0    0  0.16434044331E+00  0.11614587512E+00  0.98495321226E+00  0.10053013166E+01  0.51100000000E-03 0. -1.
    9000002    1    1    2    0    0 -0.57406822765E+00 -0.43352120983E+00  0.37188991559E+00  0.12392098606E+01  0.93800000000E+00 0.  1.
         22    1    1    2    0    0  0.40972778434E+00  0.31737533472E+00  0.26431568395E+01  0.26934888228E+01  0.00000000000E+00 0. -1.
</event>
<event>
 5    1  0.6076093E+001  0.1599636E+01  0.7818608E-02  0.3353758E+00
         11   -1    0    0    0    0  0.00000000000E+00  0.00000000000E+00  0.39999999674E+01  0.40000000000E+01  0.51100000000E-03 0. -1.
    9000002   -1    0    0    0    0 -0.00000000000E+00 -0.00000000000E+00  0.00000000000E+00  0.93800000000E+00  0.93800000000E+00 0.  1.
         11    1    1    2    0    0  0.74911524524E-01  0.64617769716E-01  0.11905833987E+01  0.11946866882E+01  0.51100000000E-03 0. -1.
    9000002    1    1    2    0    0 -0.26559731498E+00 -0.22615552604E+00  0.81615621345E-01  0.10040883255E+01  0.93800000000E+00 0.  1.
         22    1    1    2    0    0  0.19068579046E+00  0.16153775632E+00  0.27278009473E+01  0.27392249863E+01  0.00000000000E+00 0. -1.
</event>
<event>
 5    1  0.6076093E+001  0.1534391E+01  0.7818608E-02  0.3427804E+00
         11   -1    0    0    0    0  0.00000000000E+00  0.00000000000E+00  0.39999999674E+01  0.40000000000E+01  0.51100000000E-03 0.  1.
    9000002   -1    0    0    0    0 -0.00000000000E+00 -0.00000000000E+00  0.00000000000E+00  0.93800000000E+00  0.93800000000E+00 0. -1.
         11    1    1    2    0    0 -0.28703420175E+00 -0.11387374234E+00  0.12591971516E+01  0.12965082298E+01  0.51100000000E-03 0.  1.
    9000002    1    1    2    0    0 -0.46193172205E-02  0.40213232563E+00  0.16569625669E+00  0.10339395509E+01  0.93800000000E+00 0. -1.
         22    1    1    2    0    0  0.29165351897E+00 -0.28825858329E+00  0.25751065591E+01  0.26075522193E+01  0.00000000000E+00 0.  1.
</event>
<event>
 5    1  0.6076093E+001  0.1523751E+01  0.7818608E-02  0.3440520E+00
         11   -1    0    0    0    0  0.00000000000E+00  0.00000000000E+00  0.39999999674E+01  0.40000000000E+01  0.51100000000E-03 0. -1.
    9000002   -1    0    0    0    0 -0.00000000000E+00 -0.00000000000E+00  0.00000000000E+00  0.93800000000E+00  0.93800000000E+00 0. -1.
         11    1    1    2    0    0 -0.13526743040E+00  0.33205718609E+00  0.12689926595E+01  0.13186742902E+01  0.51100000000E-03 0. -1.
    9000002    1    1    2    0    0 -0.89195755630E-01 -0.20588694993E+00  0.93172717896E-01  0.96895328801E+00  0.93800000000E+00 0. -1.
         22    1    1    2    0    0  0.22446318603E+00 -0.12617023616E+00  0.26378345899E+01  0.26503724218E+01  0.00000000000E+00 0. -1.
</event>
<event>
 5    1  0.6076093E+001  0.1597735E+01  0.7818608E-02  0.3355825E+00
         11   -1    0    0    0    0  0.00000000000E+00  0.00000000000E+00  0.39999999674E+01  0.40000000000E+01  0.51100000000E-03 0. -1.
    9000002   -1    0    0    0    0 -0.00000000000E+00 -0.00000000000E+00  0.00000000000E+00  0.93800000000E+00  0.93800000000E+00 0. -1.
         11    1    1    2    0    0 -0.35942022045E-01  0.49363843749E-01  0.70826132010E+00  0.71088886381E+00  0.51100000000E-03 0. -1.
    9000002    1    1    2    0    0  0.40862641231E+00 -0.19892929912E+00  0.14206262975E+00  0.10519383070E+01  0.93800000000E+00 0. -1.
         22    1    1    2    0    0 -0.37268439026E+00  0.14956545537E+00  0.31496760175E+01  0.31751728292E+01  0.00000000000E+00 0. -1.
</event>
<event>
 5    1  0.6076093E+001  0.1599313E+01  0.7818608E-02  0.3354110E+00
         11   -1    0    0    0    0  0.00000000000E+00  0.00000000000E+00  0.39999999674E+01  0.40000000000E+01  0.51100000000E-03 0. -1.
    9000002   -1    0    0    0    0 -0.00000000000E+00 -0.00000000000E+00  0.00000000000E+00  0.93800000000E+00  0.93800000000E+00 0. -1.
         11    1    1    2    0    0  0.49384846481E-01  0.73673535869E-01  0.71104232682E+00  0.71655293217E+00  0.51100000000E-03 0. -1.
    9000002    1    1    2    0    0 -0.23273980694E+00 -0.31365333074E+00  0.10307396395E+00  0.10212807996E+01  0.93800000000E+00 0. -1.
         22    1    1    2    0    0  0.18335496045E+00  0.23997979487E+00  0.31858836766E+01  0.32001662682E+01  0.00000000000E+00 0. -1.
</event>
<event>
 5    1  0.6076093E+001  0.1599677E+01  0.7818608E-02  0.3353714E+00
         11   -1    0    0    0    0  0.00000000000E+00  0.00000000000E+00  0.39999999674E+01  0.40000000000E+01  0.51100000000E-03 0.  1.
    9000002   -1    0    0    0    0 -0.00000000000E+00 -0.00000000000E+00  0.00000000000E+00  0.93800000000E+00  0.93800000000E+00 0. -1.
         11    1    1    2    0    0  0.44893500253E-01  0.48672704793E-01  0.61857744683E+00  0.62211154739E+00  0.51100000000E-03 0.  1.
    9000002    1    1    2    0    0 -0.28323873549E+00 -0.30679153163E+00  0.11787152816E+00  0.10334809734E+01  0.93800000000E+00 0. -1.
         22    1    1    2    0    0  0.23834523524E+00  0.25811882684E+00  0.32635509924E+01  0.32824074792E+01  0.00000000000E+00 0.  1.
</event>
<event>
 5    1  0.6076093E+001  0.1599676E+01  0.7818608E-02  0.3353715E+00
         11   -1    0    0    0    0  0.00000000000E+00  0.00000000000E+00  0.39999999674E+01  0.40000000000E+01  0.51100000000E-03 0.  1.
    9000002   -1    0    0    0    0 -0.00000000000E+00 -0.00000000000E+00  0.00000000000E+00  0.93800000000E+00  0.93800000000E+00 0. -1.
         11    1    1    2    0    0 -0.94044500446E-01  0.23688463177E-01  0.71679537831E+00  0.72332661145E+00  0.51100000000E-03 0.  1.
    9000002    1    1    2    0    0  0.49771279096E+00 -0.12535948798E+00  0.18074380160E+00  0.10844101370E+01  0.93800000000E+00 0. -1.
         22    1    1    2    0    0 -0.40366829051E+00  0.10167102481E+00  0.31024607874E+01  0.31302632515E+01  0.00000000000E+00 0.  1.
</event>
<event>
 5    1  0.6076093E+001  0.1599645E+01  0.7818608E-02  0.3353748E+00
         11   -1    0    0    0    0  0.00000000000E+00  0.00000000000E+00  0.39999999674E+01  0.40000000000E+01  0.51100000000E-03 0.  1.
    9000002   -1    0    0    0    0 -0.00000000000E+00 -0.00000000000E+00  0.00000000000E+00  0.93800000000E+00  0.93800000000E+00 0. -1.
         11    1    1    2    0    0  0.37215391378E-01 -0.18946380757E-01  0.45466489468E+00  0.45657899456E+00  0.51100000000E-03 0.  1.
    9000002    1    1    2    0    0 -0.33362582004E+00  0.12836455970E+00  0.85777297864E-01  0.10074648345E+01  0.93800000000E+00 0. -1.
         22    1    1    2    0    0  0.29641042866E+00 -0.10941817895E+00  0.34595577748E+01  0.34739561709E+01  0.00000000000E+00 0.  1.
</event>
<event>
 5    1  0.6076093E+001  0.1599677E+01  0.7818608E-02  0.3353714E+00
         11   -1    0    0    0    0  0.00000000000E+00  0.00000000000E+00  0.39999999674E+01  0.40000000000E+01  0.51100000000E-03 0. -1.
    9000002   -1    0    0    0    0 -0.00000000000E+00 -0.00000000000E+00  0.00000000000E+00  0.93800000000E+00  0.93800000000E+00 0.  1.
         11    1    1    2    0    0 -0.60682168436E-01 -0.99860298968E-01  0.12641676668E+01  0.12695568344E+01  0.51100000000E-03 0. -1.
    9000002    1    1    2    0    0  0.18696449425E+00  0.30844670137E+00  0.87334829755E-01  0.10087449936E+01  0.93800000000E+00 0.  1.
         22    1    1    2    0    0 -0.12628232582E+00 -0.20858640240E+00  0.26484974708E+01  0.26596981720E+01  0.00000000000E+00 0. -1.
</event>
<event>
 5    1  0.6076093E+001  0.1599152E+01  0.7818608E-02  0.3354284E+00
         11   -1    0    0    0    0  0.00000000000E+00  0.00000000000E+00  0.39999999674E+01  0.40000000000E+01  0.51100000000E-03 0. -1.
    9000002   -1    0    0    0    0 -0.00000000000E+00 -0.00000000000E+00  0.00000000000E+00  0.93800000000E+00  0.93800000000E+00 0.  1.
         11    1    1    2    0    0  0.44108313259E-01  0.79639663990E-01  0.10216483666E+01  0.10256966732E+01  0.51100000000E-03 0. -1.
    9000002    1    1    2    0    0 -0.25974098531E+00 -0.28934678084E+00  0.10226832290E+00  0.10205340508E+01  0.93800000000E+00 0.  1.
         22    1    1    2    0    0  0.21563267205E+00  0.20970711685E+00  0.28760832779E+01  0.28917692759E+01  0.00000000000E+00 0. -1.
</event>
<event>
 5    1  0.6076093E+001  0.1571330E+01  0.7818608E-02  0.3385081E+00
         11   -1    0    0    0    0  0.00000000000E+00  0.00000000000E+00  0.39999999674E+01  0.40000000000E+01  0.51100000000E-03 0.  1.
    9000002   -1    0    0    0    0 -0.00000000000E+00 -0.00000000000E+00  0.00000000000E+00  0.93800000000E+00  0.93800000000E+00 0. -1.
         11    1    1    2    0    0  0.12432058246E+00 -0.17150768696E+00  0.12041154081E+01  0.12226056891E+01  0.51100000000E-03 0.  1.
    9000002    1    1    2    0    0 -0.32174077449E+00 -0.45588306026E-01  0.93457273268E-01  0.99708258511E+00  0.93800000000E+00 0. -1.
         22    1    1    2    0    0  0.19742019203E+00  0.21709599299E+00  0.27024272860E+01  0.27183117258E+01  0.00000000000E+00 0.  1.
</event>
<event>
 5    1  0.6076093E+001  0.1599421E+01  0.7818608E-02  0.3353992E+00
         11   -1    0    0    0    0  0.00000000000E+00  0.00000000000E+00  0.39999999674E+01  0.40000000000E+01  0.51100000000E-03 0.  1.
    9000002   -1    0    0    0    0 -0.00000000000E+00 -0.00000000000E+00  0.00000000000E+00  0.93800000000E+00  0.93800000000E+00 0. -1.
         11    1    1    2    0    0 -0.74228349731E-01 -0.14229883002E+00  0.69153176289E+00  0.70991213903E+00  0.51100000000E-03 0.  1.
    9000002    1    1    2    0    0  0.30407542056E+00  0.71728581076E+00  0.44433684972E+00  0.12977827367E+01  0.93800000000E+00 0. -1.
         22    1    1    2    0    0 -0.22984707083E+00 -0.57498698074E+00  0.28641313548E+01  0.29303051243E+01  0.00000000000E+00 0.  1.
</event>
<event>
 5    1  0.6076093E+001  0.1599673E+01  0.7818608E-02  0.3353719E+00
         11   -1    0    0    0    0  0.00000000000E+00  0.00000000000E+00  0.39999999674E+01  0.40000000000E+01  0.51100000000E-03 0.  1.
    9000002   -1    0    0    0    0 -0.00000000000E+00 -0.00000000000E+00  0.00000000000E+00  0.93800000000E+00  0.93800000000E+00 0. -1.
         11    1    1    2    0    0  0.70960972296E-01  0.72298501753E-01  0.65695627236E+00  0.66472124824E+00  0.51100000000E-03 0.  1.
    9000002    1    1    2    0    0 -0.40366085619E+00 -0.40495723491E+00  0.22677738198E+00  0.11216971204E+01  0.93800000000E+00 0. -1.
         22    1    1    2    0    0  0.33269988390E+00  0.33265873315E+00  0.31162663130E+01  0.31515816314E+01  0.00000000000E+00 0.  1.
</event>
<event>
 5    1  0.6076093E+001  0.1599671E+01  0.7818608E-02  0.3353720E+00
         11   -1    0    0    0    0  0.00000000000E+00  0.00000000000E+00  0.39999999674E+01  0.40000000000E+01  0.51100000000E-03 0. -1.
    9000002   -1    0    0    0    0 -0.00000000000E+00 -0.00000000000E+00  0.00000000000E+00  0.93800000000E+00  0.93800000000E+00 0.  1.
         11    1    1    2    0    0 -0.67507808787E-01  0.32805318881E-01  0.57364455576E+00  0.57853420873E+00  0.51100000000E-03 0. -1.
    9000002    1    1    2    0    0  0.46091762208E+00 -0.21020730636E+00  0.17588057356E+00  0.10804675572E+01  0.93800000000E+00 0.  1.
         22    1    1    2    0    0 -0.39340981329E+00  0.17740198748E+00  0.32504748380E+01  0.32789982341E+01  0.00000000000E+00 0. -1.
</event>
<event>
 5    1  0.6076093E+001  0.1599546E+01  0.7818608E-02  0.3353856E+00
         11   -1    0    0    0    0  0.00000000000E+00  0.00000000000E+00  0.39999999674E+01  0.40000000000E+01  0.51100000000E-03 0. -1.
    9000002   -1    0    0    0    0 -0.00000000000E+00 -0.00000000000E+00  0.00000000000E+00  0.93800000000E+00  0.93800000000E+00 0.  1.
         11    1    1    2    0    0 -0.28114572629E-02 -0.19733496713E-02  0.44120296534E-01  0.44256751893E-01  0.51100000000E-03 0. -1.
    9000002    1    1    2    0    0  0.20783207265E+00  0.42172532658E+00  0.15070513882E+00  0.10600011606E+01  0.93800000000E+00 0.  1.
         22    1    1    2    0    0 -0.20502061538E+00 -0.41975197691E+00  0.38051745320E+01  0.38337420876E+01  0.00000000000E+00 0. -1.
</event>
<event>
 5    1  0.6076093E+001  0.1596228E+01  0.7818608E-02  0.3357468E+00
         11   -1    0    0    0    0  0.00000000000E+00  0.00000000000E+00  0.39999999674E+01  0.40000000000E+01  0.51100000000E-03 0.  1.
    9000002   -1    0    0    0    0 -0.00000000000E+00 -0.00000000000E+00  0.00000000000E+00  0.93800000000E+00  0.93800000000E+00 0.  1.
         11    1    1    2    0    0 -0.32657506755E-02 -0.64770666993E-02  0.15961303472E-01  0.17539722063E-01  0.51100000000E-03 0.  1.
    9000002    1    1    2    0    0 -0.32373924031E+00 -0.35511002874E+00  0.16062864389E+00  0.10660937058E+01  0.93800000000E+00 0.  1.
         22    1    1    2    0    0  0.32700499098E+00  0.36158709544E+00  0.38234100200E+01  0.38543665722E+01  0.00000000000E+00 0.  1.
</event>
<event>
 5    1  0.6076093E+001  0.1599668E+01  0.7818608E-02  0.3353723E+00
         11   -1    0    0    0    0  0.00000000000E+00  0.00000000000E+00  0.39999999674E+01  0.40000000000E+01  0.51100000000E-03 0.  1.
    9000002   -1    0    0    0    0 -0.00000000000E+00 -0.00000000000E+00  0.00000000000E+00  0.93800000000E+00  0.93800000000E+00 0. -1.
         11    1    1    2    0    0  0.76348196217E-01  0.10244724498E+00  0.11338610016E+01  0.11410370358E+01  0.51100000000E-03 0.  1.
    9000002    1    1    2    0    0 -0.26061853126E+00 -0.36025452756E+00  0.13418040029E+00  0.10466870226E+01  0.93800000000E+00 0. -1.
         22    1    1    2    0    0  0.18427033504E+00  0.25780728257E+00  0.27319585655E+01  0.27502759416E+01  0.00000000000E+00 0.  1.
</event>
<event>
 5    1  0.6076093E+001  0.1591837E+01  0.7818608E-02  0.3362272E+00
         11   -1    0    0    0    0  0.00000000000E+00  0.00000000000E+00  0.39999999674E+01  0.40000000000E+01  0.51100000000E-03 0.  1.
    9000002   -1    0    0    0    0 -0.00000000000E+00 -0.00000000000E+00  0.00000000000E+00  0.93800000000E+00  0.93800000000E+00 0.  1.
         11    1    1    2    0    0  0.38116411573E-01  0.50765334245E-01  0.12960920731E+01  0.12976459082E+01  0.51100000000E-03 0.  1.
    9000002    1    1    2    0    0  0.17997396407E+00 -0.22633740948E+00  0.61855976409E-01  0.98350872517E+00  0.93800000000E+00 0.  1.
         22    1    1    2    0    0 -0.21809037564E+00  0.17557207524E+00  0.26420519179E+01  0.26568453667E+01  0.00000000000E+00 0. -1.
</event>
<event>
 5    1  0.6076093E+001  0.1599677E+01  0.7818608E-02  0.3353714E+00
         11   -1    0    0    0    0  0.00000000000E+00  0.00000000000E+00  0.39999999674E+01  0.40000000000E+01  0.51100000000E-03 0.  1.
    9000002   -1    0    0    0    0 -0.00000000000E+00 -0.00000000000E+00  0.00000000000E+00  0.93800000000E+00  0.93800000000E+00 0.  1.
         11    1    1    2    0    0 -0.46965414853E-02 -0.91961929085E-01  0.91566565553E+00  0.92028414511E+00  0.51100000000E-03 0.  1.
    9000002    1    1    2    0    0  0.21979413377E-01  0.39092376215E+00  0.10329633494E+00  0.10216744174E+01  0.93800000000E+00 0.  1.
         22    1    1    2    0    0 -0.17282871892E-01 -0.29896183307E+00  0.29810379769E+01  0.29960414375E+01  0.00000000000E+00 0.  1.
</event>
<event>
 5    1  0.6076093E+001  0.1596175E+01  0.7818608E-02  0.3357526E+00
         11   -1    0    0    0    0  0.00000000000E+00  0.00000000000E+00  0.39999999674E+01  0.40000000000E+01  0.51100000000E-03 0. -1.
    9000002   -1    0    0    0    0 -0.00000000000E+00 -0.00000000000E+00  0.00000000000E+00  0.93800000000E+00  0.93800000000E+00 0.  1.
         11    1    1    2    0    0 -0.10263403617E+00  0.59667267161E-01  0.10199441493E+01  0.10268301987E+01  0.51100000000E-03 0. -1.
    9000002    1    1    2    0    0  0.39347106449E+00  0.11307308257E-01  0.10733721116E+00  0.10228942324E+01  0.93800000000E+00 0.  1.
         22    1    1    2    0    0 -0.29083702832E+00 -0.70974575418E-01  0.28727186069E+01  0.28882755689E+01  0.00000000000E+00 0. -1.
</event>
<event>
 5    1  0.6076093E+001  0.1492559E+01  0.7818608E-02  0.3478922E+00
         11   -1    0    0    0    0  0.00000000000E+00  0.00000000000E+00  0.39999999674E+01  0.40000000000E+01  0.51100000000E-03 0.  1.
    9000002   -1    0    0    0    0 -0.00000000000E+00 -0.00000000000E+00  0.00000000000E+00  0.93800000000E+00  0.93800000000E+00 0. -1.
         11    1    1    2    0    0  0.28253591415E+00 -0.13907776378E+00  0.68536166743E+00  0.75424799865E+00  0.51100000000E-03 0.  1.
    9000002    1    1    2    0    0  0.73276417556E-01  0.33046341288E+00  0.16797092404E+00  0.10112535448E+01  0.93800000000E+00 0. -1.
         22    1    1    2    0    0 -0.35581233171E+00 -0.19138564910E+00  0.31466673759E+01  0.31724984565E+01  0.00000000000E+00 0.  1.
</event>
<event>
 5    1  0.6076093E+001  0.1595996E+01  0.7818608E-02  0.3357721E+00
         11   -1    0    0    0    0  0.00000000000E+00  0.00000000000E+00  0.39999999674E+01  0.40000000000E+01  0.51100000000E-03 0.  1.
    9000002   -1    0    0    0    0 -0.00000000000E+00 -0.00000000000E+00  0.00000000000E+00  0.93800000000E+00  0.93800000000E+00 0. -1.
         11    1    1    2    0    0  0.71138391871E-01  0.11461756530E-02  0.71615296902E+00  0.71967862319E+00  0.51100000000E-03 0.  1.
    9000002    1    1    2    0    0 -0.32581559288E+00  0.29454915478E+00  0.13397887939E+00  0.10443703104E+01  0.93800000000E+00 0. -1.
         22    1    1    2    0    0  0.25467720101E+00 -0.29569533043E+00  0.31498681189E+01  0.31739510664E+01  0.00000000000E+00 0.  1.
</event>
<event>
 5    1  0.6076093E+001  0.1598874E+01  0.7818608E-02  0.3354586E+00
         11   -1    0    0    0    0  0.00000000000E+00  0.00000000000E+00  0.39999999674E+01  0.40000000000E+01  0.51100000000E-03 0.  1.
    9000002   -1    0    0    0    0 -0.00000000000E+00 -0.00000000000E+00  0.00000000000E+00  0.93800000000E+00  0.93800000000E+00 0. -1.
         11    1    1    2    0    0 -0.41123830347E-02  0.11582915194E+00  0.62186440024E+00  0.63257323492E+00  0.51100000000E-03 0.  1.
    9000002    1    1    2    0    0 -0.20178546755E-01 -0.55609508707E+00  0.21490245815E+00  0.11116096375E+01  0.93800000000E+00 0. -1.
         22    1    1    2    0    0  0.24290929790E-01  0.44026593512E+00  0.31632331090E+01  0.31938171276E+01  0.00000000000E+00 0.  1.
</event>
<event>
 5    1  0.6076093E+001  0.1591538E+01  0.7818608E-02  0.3362599E+00
         11   -1    0    0    0    0  0.00000000000E+00  0.00000000000E+00  0.39999999674E+01  0.40000000000E+01  0.51100000000E-03 0. -1.
    9000002   -1    0    0    0    0 -0.00000000000E+00 -0.00000000000E+00  0.00000000000E+00  0.93800000000E+00  0.93800000000E+00 0.  1.
         11    1    1    2    0    0 -0.36799207335E-01 -0.13787303158E-02  0.65813205202E-01  0.75416985207E-01  0.51100000000E-03 0. -1.
    9000002    1    1    2    0    0  0.44653169213E+00 -0.24874930025E+00  0.18663368321E+00  0.10844090087E+01  0.93800000000E+00 0.  1.
         22    1    1    2    0    0 -0.40973248480E+00  0.25012803056E+00  0.37475530789E+01  0.37781740061E+01  0.00000000000E+00 0. -1.
</event>
<event>
 5    1  0.6076093E+001  0.1599609E+01  0.7818608E-02  0.3353788E+00
         11   -1    0    0    0    0  0.00000000000E+00  0.00000000000E+00  0.39999999674E+01  0.40000000000E+01  0.51100000000E-03 0.  1.
    9000002   -1    0    0    0    0 -0.00000000000E+00 -0.00000000000E+00  0.00000000000E+00  0.93800000000E+00  0.93800000000E+00 0. -1.
         11    1    1    2    0    0  0.85798210592E-01  0.20884982983E-01  0.87732222060E+00  0.88175509941E+00  0.51100000000E-03 0.  1.
    9000002    1    1    2    0    0 -0.39476049042E+00 -0.58719123438E-01  0.10748422082E+00  0.10250271401E+01  0.93800000000E+00 0. -1.
         22    1    1    2    0    0  0.30896227983E+00  0.37834140455E-01  0.30151935259E+01  0.30312177605E+01  0.00000000000E+00 0.  1.
</event>
<event>
 5    1  0.6076093E+001  0.1599676E+01  0.7818608E-02  0.3353715E+00
         11   -1    0    0    0    0  0.00000000000E+00  0.00000000000E+00  0.39999999674E+01  0.40000000000E+01  0.51100000000E-03 0. -1.
    9000002   -1    0    0    0    0 -0.00000000000E+00 -0.00000000000E+00  0.00000000000E+00  0.93800000000E+00  0.93800000000E+00 0.  1.
         11    1    1    2    0    0  0.11269215453E+00 -0.11995397536E+00  0.12121933636E+01  0.12233157768E+01  0.51100000000E-03 0. -1.
    9000002    1    1    2    0    0 -0.35749578036E+00  0.37786385196E+00  0.18587547798E+00  0.10885669556E+01  0.93800000000E+00 0.  1.
         22    1    1    2    0    0  0.24480362583E+00 -0.25790987660E+00  0.26019311258E+01  0.26261172676E+01  0.00000000000E+00 0. -1.
</event>
<event>
 5    1  0.6076093E+001  0.1598955E+01  0.7818608E-02  0.3354499E+00
         11   -1    0    0    0    0  0.00000000000E+00  0.00000000000E+00  0.39999999674E+01  0.40000000000E+01  0.51100000000E-03 0.  1.
    9000002   -1    0    0    0    0 -0.00000000000E+00 -0.00000000000E+00  0.00000000000E+00  0.93800000000E+00  0.93800000000E+00 0. -1.
         11    1    1    2    0    0  0.24724728325E-01  0.10468278098E-01  0.27267619640E+00  0.27399537631E+00  0.51100000000E-03 0.  1.
    9000002    1    1    2    0    0 -0.48341274249E+00  0.43652297205E-01  0.16153119834E+00  0.10684239471E+01  0.93800000000E+00 0. -1.
         22    1    1    2    0    0  0.45868801417E+00 -0.54120575303E-01  0.35657925726E+01  0.35955806766E+01  0.00000000000E+00 0.  1.
</event>
<event>
 5    1  0.6076093E+001  0.1599676E+01  0.7818608E-02  0.3353715E+00
         11   -1    0    0    0    0  0.00000000000E+00  0.00000000000E+00  0.39999999674E+01  0.40000000000E+01  0.51100000000E-03 0. -1.
    9000002   -1    0    0    0    0 -0.00000000000E+00 -0.00000000000E+00  0.00000000000E+00  0.93800000000E+00  0.93800000000E+00 0.  1.
         11    1    1    2    0    0  0.57136826462E-02 -0.12026407974E+00  0.13178932230E+01  0.13233816167E+01  0.51100000000E-03 0. -1.
    9000002    1    1    2    0    0 -0.20003478289E-01  0.35623947724E+00  0.85425936776E-01  0.10071982401E+01  0.93800000000E+00 0.  1.
         22    1    1    2    0    0  0.14289795643E-01 -0.23597539750E+00  0.25966808076E+01  0.26074201432E+01  0.00000000000E+00 0. -1.
</event>
<event>
 5    1  0.6076093E+001  0.1599676E+01  0.7818608E-02  0.3353715E+00
         11   -1    0    0    0    0  0.00000000000E+00  0.00000000000E+00  0.39999999674E+01  0.40000000000E+01  0.51100000000E-03 0.  1.
    9000002   -1    0    0    0    0 -0.00000000000E+00 -0.00000000000E+00  0.00000000000E+00  0.93800000000E+00  0.93800000000E+00 0.  1.
         11    1    1    2    0    0  0.93272364549E-02  0.47859225378E-01  0.20094937300E+00  0.20678107850E+00  0.51100000000E-03 0. -1.
    9000002    1    1    2    0    0 -0.16477681234E+00 -0.82779078955E+00  0.53308513745E+00  0.13698221611E+01  0.93800000000E+00 0.  1.
         22    1    1    2    0    0  0.15544957589E+00  0.77993156417E+00  0.32659654569E+01  0.33613967604E+01  0.00000000000E+00 0.  1.
</event>
<event>
 5    1  0.6076093E+001  0.1586181E+01  0.7818608E-02  0.3368500E+00
         11   -1    0    0    0    0  0.00000000000E+00  0.00000000000E+00  0.39999999674E+01  0.40000000000E+01  0.51100000000E-03 0.  1.
    9000002   -1    0    0    0    0 -0.00000000000E+00 -0.00000000000E+00  0.00000000000E+00  0.93800000000E+00  0.93800000000E+00 0.  1.
         11    1    1    2    0    0 -0.23201277846E-01  0.48829148058E-01  0.12605459650E+01  0.12617047895E+01  0.51100000000E-03 0.  1.
    9000002    1    1    2    0    0  0.16151109325E+00  0.24515178655E+00  0.68064540725E-01  0.98522180924E+00  0.93800000000E+00 0.  1.
         22    1    1    2    0    0 -0.13830981540E+00 -0.29398093461E+00  0.26713894616E+01  0.26910734012E+01  0.00000000000E+00 0.  1.
</event>
<event>
 5    1  0.6076093E+001  0.1585802E+01  0.7818608E-02  0.3368919E+00
         11   -1    0    0    0    0  0.00000000000E+00  0.00000000000E+00  0.39999999674E+01  0.40000000000E+01  0.51100000000E-03 0. -1.
    9000002   -1    0    0    0    0 -0.00000000000E+00 -0.00000000000E+00  0.00000000000E+00  0.93800000000E+00  0.93800000000E+00 0. -1.
         11    1    1    2    0    0 -0.11742679112E-03  0.61160335717E-01  0.32394940975E+00  0.32967268867E+00  0.51100000000E-03 0. -1.
    9000002    1    1    2    0    0  0.23107956548E+00  0.17656602965E+00  0.67260222803E-01  0.98434814267E+00  0.93800000000E+00 0. -1.
         22    1    1    2    0    0 -0.23096213869E+00 -0.23772636537E+00  0.36087903348E+01  0.36239791687E+01  0.00000000000E+00 0. -1.
</event>
<event>
 5    1  0.6076093E+001  0.1599633E+01  0.7818608E-02  0.3353762E+00
         11   -1    0    0    0    0  0.00000000000E+00  0.00000000000E+00  0.39999999674E+01  0.40000000000E+01  0.51100000000E-03 0.  1.
    9000002   -1    0    0    0    0 -0.00000000000E+00 -0.00000000000E+00  0.00000000000E+00  0.93800000000E+00  0.93800000000E+00 0. -1.
         11    1    1    2    0    0 -0.90343935788E-03 -0.17456840532E+00  0.12947462370E+01  0.13064620253E+01  0.51100000000E-03 0.  1.
    9000002    1    1    2    0    0 -0.19618002674E-01  0.51333764838E+00  0.18111855007E+00  0.10846881287E+01  0.93800000000E+00 0. -1.
         22    1    1    2    0    0  0.20521442032E-01 -0.33876924306E+00  0.25241351803E+01  0.25468498460E+01  0.00000000000E+00 0.  1.
</event>
<event>
 5    1  0.6076093E+001  0.1599602E+01  0.7818608E-02  0.3353796E+00
         11   -1    0    0    0    0  0.00000000000E+00  0.00000000000E+00  0.39999999674E+01  0.40000000000E+01  0.51100000000E-03 0.  1.
    9000002   -1    0    0    0    0 -0.00000000000E+00 -0.00000000000E+00  0.00000000000E+00  0.93800000000E+00  0.93800000000E+00 0. -1.
         11    1    1    2    0    0 -0.72887598891E-02  0.51859082122E-02  0.13338486387E+00  0.13368546180E+00  0.51100000000E-03 0.  1.
    9000002    1    1    2    0    0  0.31343880768E+00 -0.19936472645E+00  0.92812326934E-01  0.10131378526E+01  0.93800000000E+00 0. -1.
         22    1    1    2    0    0 -0.30615004780E+00  0.19417881824E+00  0.37738027766E+01  0.37911766856E+01  0.00000000000E+00 0.  1.
</event>
<event>
 5    1  0.6076093E+001  0.1599657E+01  0.7818608E-02  0.3353736E+00
         11   -1    0    0    0    0  0.00000000000E+00  0.00000000000E+00  0.39999999674E+01  0.40000000000E+01  0.51100000000E-03 0.  1.
    9000002   -1    0    0    0    0 -0.00000000000E+00 -0.00000000000E+00  0.00000000000E+00  0.93800000000E+00  0.93800000000E+00 0. -1.
         11    1    1    2    0    0 -0.70137000718E-02 -0.12977357206E+00  0.13335076010E+01  0.13398257928E+01  0.51100000000E-03 0.  1.
    9000002    1    1    2    0    0  0.77455140142E-02  0.38736676480E+00  0.10111080291E+00  0.10198923462E+01  0.93800000000E+00 0. -1.
         22    1    1    2    0    0 -0.73181394248E-03 -0.25759319274E+00  0.25653815634E+01  0.25782818610E+01  0.00000000000E+00 0. -1.
</event>
<event>
 5    1  0.6076093E+001  0.1599219E+01  0.7818608E-02  0.3354212E+00
         11   -1    0    0    0    0  0.00000000000E+00  0.00000000000E+00  0.39999999674E+01  0.40000000000E+01  0.51100000000E-03 0. -1.
    9000002   -1    0    0    0    0 -0.00000000000E+00 -0.00000000000E+00  0.00000000000E+00  0.93800000000E+00  0.93800000000E+00 0. -1.
         11    1    1    2    0    0 -0.53201526780E-01  0.84012217703E-01  0.50419285007E+00  0.51390577576E+00  0.51100000000E-03 0. -1.
    9000002    1    1    2    0    0  0.26758576569E+00 -0.57762040222E+00  0.28553237865E+00  0.11690253249E+01  0.93800000000E+00 0. -1.
         22    1    1    2    0    0 -0.21438423891E+00  0.49360818452E+00  0.32102747386E+01  0.32550688993E+01  0.00000000000E+00 0. -1.
</event>
<event>
 5    1  0.6076093E+001  0.1599325E+01  0.7818608E-02  0.3354096E+00
         11   -1    0    0    0    0  0.00000000000E+00  0.00000000000E+00  0.39999999674E+01  0.40000000000E+01  0.51100000000E-03 0.  1.
    9000002   -1    0    0    0    0 -0.00000000000E+00 -0.00000000000E+00  0.00000000000E+00  0.93800000000E+00  0.93800000000E+00 0. -1.
         11    1    1    2    0    0  0.75285751115E-01 -0.22065812631E-01  0.60417201408E+00  0.60924455527E+00  0.51100000000E-03 0.  1.
    9000002    1    1    2    0    0 -0.41126117455E+00  0.64993580296E-01  0.11748294842E+00  0.10329599036E+01  0.93800000000E+00 0. -1.
         22    1    1    2    0    0  0.33597542344E+00 -0.42927767665E-01  0.32783450049E+01  0.32957955412E+01  0.00000000000E+00 0.  1.
</event>
<event>
 5    1  0.6076093E+001  0.1599677E+01  0.7818608E-02  0.3353714E+00
         11   -1    0    0    0    0  0.00000000000E+00  0.00000000000E+00  0.39999999674E+01  0.40000000000E+01  0.51100000000E-03 0.  1.
    9000002   -1    0    0    0    0 -0.00000000000E+00 -0.00000000000E+00  0.00000000000E+00  0.93800000000E+00  0.93800000000E+00 0.  1.
         11    1    1    2    0    0 -0.11908801744E+00 -0.13647850982E+00  0.12088651620E+01  0.12223598409E+01  0.51100000000E-03 0.  1.
    9000002    1    1    2    0    0  0.37070252613E+00  0.42731239776E+00  0.22170814790E+00  0.11175932851E+01  0.93800000000E+00 0.  1.
         22    1    1    2    0    0 -0.25161450869E+00 -0.29083388794E+00  0.25694266574E+01  0.25980468740E+01  0.00000000000E+00 0.  1.
</event>
<event>
 5    1  0.6076093E+001  0.1599676E+01  0.7818608E-02  0.3353715E+00
         11   -1    0    0    0    0  0.00000000000E+00  0.00000000000E+00  0.39999999674E+01  0.40000000000E+01  0.51100000000E-03 0. -1.
    9000002   -1    0    0    0    0 -0.00000000000E+00 -0.00000000000E+00  0.00000000000E+00  0.93800000000E+00  0.93800000000E+00 0. -1.
         11    1    1    2    0    0  0.12961293343E+00 -0.13400833644E+00  0.12257563231E+01  0.12398534476E+01  0.51100000000E-03 0. -1.
    9000002    1    1    2    0    0 -0.40137442768E+00  0.41370153473E+00  0.23067739899E+00  0.11248584148E+01  0.93800000000E+00 0. -1.
         22    1    1    2    0    0  0.27176149425E+00 -0.27969319829E+00  0.25435662452E+01  0.25732881375E+01  0.00000000000E+00 0. -1.
</event>
<event>
 5    1  0.6076093E+001  0.1598057E+01  0.7818608E-02  0.3355475E+00
         11   -1    0    0    0    0  0.00000000000E+00  0.00000000000E+00  0.39999999674E+01  0.40000000000E+01  0.51100000000E-03 0.  1.
    9000002   -1    0    0    0    0 -0.00000000000E+00 -0.00000000000E+00  0.00000000000E+00  0.93800000000E+00  0.93800000000E+00 0.  1.
         11    1    1    2    0    0  0.19678578251E-01  0.30494773470E-02  0.13617323890E+00  0.13762251947E+00  0.51100000000E-03 0.  1.
    9000002    1    1    2    0    0 -0.27753787684E+00  0.33521249166E+00  0.12974348442E+00  0.10421478107E+01  0.93800000000E+00 0.  1.
         22    1    1    2    0    0  0.25785929859E+00 -0.33826196901E+00  0.37340832440E+01  0.37582296698E+01  0.00000000000E+00 0.  1.
</event>
<event>
 5    1  0.6076093E+001  0.1598608E+01  0.7818608E-02  0.3354875E+00
         11   -1    0    0    0    0  0.00000000000E+00  0.00000000000E+00  0.39999999674E+01  0.40000000000E+01  0.51100000000E-03 0.  1.
    9000002   -1    0    0    0    0 -0.00000000000E+00 -0.00000000000E+00  0.00000000000E+00  0.93800000000E+00  0.93800000000E+00 0. -1.
         11    1    1    2    0    0 -0.17382081676E-01 -0.12598209810E+00  0.92290139439E+00  0.93162270834E+00  0.51100000000E-03 0.  1.
    9000002    1    1    2    0    0  0.10542171464E+00  0.39261077267E+00  0.11245717770E+00  0.10284685574E+01  0.93800000000E+00 0. -1.
         22    1    1    2    0    0 -0.88039632961E-01 -0.26662867457E+00  0.29646413953E+01  0.29779087343E+01  0.00000000000E+00 0. -1.
</event>
<event>
 5    1  0.6076093E+001  0.1599594E+01  0.7818608E-02  0.3353804E+00
         11   -1    0    0    0    0  0.00000000000E+00  0.00000000000E+00  0.39999999674E+01  0.40000000000E+01  0.51100000000E-03 0. -1.
    9000002   -1    0    0    0    0 -0.00000000000E+00 -0.00000000000E+00  0.00000000000E+00  0.93800000000E+00  0.93800000000E+00 0.  1.
         11    1    1    2    0    0 -0.51080966646E-01 -0.35833998247E-01  0.48921364986E+00  0.49317704419E+00  0.51100000000E-03 0. -1.
    9000002    1    1    2    0    0  0.36341668250E+00  0.32448041077E+00  0.16221609930E+00  0.10693536763E+01  0.93800000000E+00 0.  1.
         22    1    1    2    0    0 -0.31233571585E+00 -0.28864641252E+00  0.33485702182E+01  0.33754692795E+01  0.00000000000E+00 0. -1.
</event>
<event>
 5    1  0.6076093E+001  0.1599630E+01  0.7818608E-02  0.3353765E+00
         11   -1    0    0    0    0  0.00000000000E+00  0.00000000000E+00  0.39999999674E+01  0.40000000000E+01  0.51100000000E-03 0. -1.
    9000002   -1    0    0    0    0 -0.00000000000E+00 -0.00000000000E+00  0.00000000000E+00  0.93800000000E+00  0.93800000000E+00 0. -1.
         11    1    1    2    0    0 -0.25370696390E-01  0.52641910239E-02  0.20042250831E+00  0.20209113513E+00  0.51100000000E-03 0. -1.
    9000002    1    1    2    0    0  0.42399480683E+00 -0.12635432071E+00  0.13283452084E+00  0.10455744930E+01  0.93800000000E+00 0. -1.
         22    1    1    2    0    0 -0.39862411044E+00  0.12109012968E+00  0.36667429382E+01  0.36903343718E+01  0.00000000000E+00 0. -1.
</event>
<event>
 5    1  0.6076093E+001  0.1496566E+01  0.7818608E-02  0.3473893E+00
         11   -1    0    0    0    0  0.00000000000E+00  0.00000000000E+00  0.39999999674E+01  0.40000000000E+01  0.51100000000E-03 0.  1.
    9000002   -1    0    0    0    0 -0.00000000000E+00 -0.00000000000E+00  0.00000000000E+00  0.93800000000E+00  0.93800000000E+00 0.  1.
         11    1    1    2    0    0 -0.40611529583E+00  0.36044221232E+00  0.99987415254E+00  0.11378034997E+01  0.51100000000E-03 0.  1.
    9000002    1    1    2    0    0  0.27421653005E+00 -0.29679855418E-01  0.22623726961E+00  0.10035451666E+01  0.93800000000E+00 0.  1.
         22    1    1    2    0    0  0.13189876578E+00 -0.33076235690E+00  0.27738885452E+01  0.27966513337E+01  0.00000000000E+00 0. -1.
</event>
<event>
 5    1  0.6076093E+001  0.1599647E+01  0.7818608E-02  0.3353746E+00
         11   -1    0    0    0    0  0.00000000000E+00  0.00000000000E+00  0.39999999674E+01  0.40000000000E+01  0.51100000000E-03 0.  1.
    9000002   -1    0    0    0    0 -0.00000000000E+00 -0.00000000000E+00  0.00000000000E+00  0.93800000000E+00  0.93800000000E+00 0. -1.
         11    1    1    2    0    0  0.29473642827E-01 -0.18998335629E+00  0.11788049040E+01  0.11943800208E+01  0.51100000000E-03 0.  1.
    9000002    1    1    2    0    0 -0.11189740462E+00  0.60722304907E+00  0.26703565456E+00  0.11542932475E+01  0.93800000000E+00 0. -1.
         22    1    1    2    0    0  0.82423761790E-01 -0.41723969278E+00  0.25541594089E+01  0.25893267317E+01  0.00000000000E+00 0.  1.
</event>
<event>
 5    1  0.6076093E+001  0.1599676E+01  0.7818608E-02  0.3353715E+00
         11   -1    0    0    0    0  0.00000000000E+00  0.00000000000E+00  0.39999999674E+01  0.40000000000E+01  0.51100000000E-03 0.  1.
    9000002   -1    0    0    0    0 -0.00000000000E+00 -0.00000000000E+00  0.00000000000E+00  0.93800000000E+00  0.93800000000E+00 0.  1.
         11    1    1    2    0    0 -0.27948017662E-02  0.24872027603E-01  0.25185148178E+00  0.25309258912E+00  0.51100000000E-03 0. -1.
    9000002    1    1    2    0    0  0.40691930901E-01 -0.38991735141E+00  0.10356398620E+00  0.10218908324E+01  0.93800000000E+00 0.  1.
         22    1    1    2    0    0 -0.37897129135E-01  0.36504532380E+00  0.36445844994E+01  0.36630165784E+01  0.00000000000E+00 0.  1.
</event>
<event>
 5    1  0.6076093E+001  0.1599664E+01  0.7818608E-02  0.3353728E+00
         11   -1    0    0    0    0  0.00000000000E+00  0.00000000000E+00  0.39999999674E+01  0.40000000000E+01  0.51100000000E-03 0.  1.
    9000002   -1    0    0    0    0 -0.00000000000E+00 -0.00000000000E+00  0.00000000000E+00  0.93800000000E+00  0.93800000000E+00 0.  1.
         11    1    1    2    0    0 -0.10226505872E+00  0.93870939961E-01  0.13784149650E+01  0.13853873005E+01  0.51100000000E-03 0.  1.
    9000002    1    1    2    0    0  0.28457763154E+00 -0.25483709659E+00  0.98219953953E-01  0.10175546833E+01  0.93800000000E+00 0.  1.
         22    1    1    2    0    0 -0.18231257282E+00  0.16096615663E+00  0.25233650484E+01  0.25350580162E+01  0.00000000000E+00 0.  1.
</event>
<event>
 5    1  0.6076093E+001  0.1599677E+01  0.7818608E-02  0.3353714E+00
         11   -1    0    0    0    0  0.00000000000E+00  0.00000000000E+00  0.39999999674E+01  0.40000000000E+01  0.51100000000E-03 0.  1.
    9000002   -1    0    0    0    0 -0.00000000000E+00 -0.00000000000E+00  0.00000000000E+00  0.93800000000E+00  0.93800000000E+00 0.  1.
         11    1    1    2    0    0 -0.99556166502E-01 -0.83634462597E-02  0.90063049617E+00  0.90615502497E+00  0.51100000000E-03 0.  1.
    9000002    1    1    2    0    0  0.42718062611E+00  0.36380654102E-01  0.12445880042E+00  0.10388170351E+01  0.93800000000E+00 0.  1.
         22    1    1    2    0    0 -0.32762445960E+00 -0.28017207842E-01  0.29749106708E+01  0.29930279400E+01  0.00000000000E+00 0.  1.
</event>
<event>
 5    1  0.6076093E+001  0.1599237E+01  0.7818608E-02  0.3354192E+00
         11   -1    0    0    0    0  0.00000000000E+00  0.00000000000E+00  0.39999999674E+01  0.40000000000E+01  0.51100000000E-03 0. -1.
    9000002   -1    0    0    0    0 -0.00000000000E+00 -0.00000000000E+00  0.00000000000E+00  0.93800000000E+00  0.93800000000E+00 0.  1.
         11    1    1    2    0    0 -0.87612353788E-01 -0.42973108447E-01  0.11548438098E+01  0.11589594897E+01  0.51100000000E-03 0. -1.
    9000002    1    1    2    0    0  0.34148564427E+00  0.20767278554E+00  0.10810974458E+00  0.10253156333E+01  0.93800000000E+00 0.  1.
         22    1    1    2    0    0 -0.25387329048E+00 -0.16469967710E+00  0.27370464130E+01  0.27537248770E+01  0.00000000000E+00 0. -1.
</event>
<event>
 5    1  0.6076093E+001  0.1594460E+01  0.7818608E-02  0.3359399E+00
         11   -1    0    0    0    0  0.00000000000E+00  0.00000000000E+00  0.39999999674E+01  0.40000000000E+01  0.51100000000E-03 0. -1.
    9000002   -1    0    0    0    0 -0.00000000000E+00 -0.00000000000E+00  0.00000000000E+00  0.93800000000E+00  0.93800000000E+00 0. -1.
         11    1    1    2    0    0  0.47897331259E-01  0.17882586321E-01  0.91183561999E+00  0.91326797832E+00  0.51100000000E-03 0. -1.
    9000002    1    1    2    0    0 -0.23244097753E+00 -0.38752752313E+00  0.14325927183E+00  0.10509869686E+01  0.93800000000E+00 0. -1.
         22    1    1    2    0    0  0.18454364627E+00  0.36964493680E+00  0.29449050755E+01  0.29737450531E+01  0.00000000000E+00 0. -1.
</event>
<event>
 5    1  0.6076093E+001  0.1597081E+01  0.7818608E-02  0.3356538E+00
         11   -1    0    0    0    0  0.00000000000E+00  0.00000000000E+00  0.39999999674E+01  0.40000000000E+01  0.51100000000E-03 0.  1.
    9000002   -1    0    0    0    0 -0.00000000000E+00 -0.00000000000E+00  0.00000000000E+00  0.93800000000E+00  0.93800000000E+00 0. -1.
         11    1    1    2    0    0  0.14143358384E+00 -0.23354721493E-01  0.72351354509E+00  0.73757780112E+00  0.51100000000E-03 0.  1.
    9000002    1    1    2    0    0 -0.50408433562E+00  0.21559385132E+00  0.20999371893E+00  0.11065817133E+01  0.93800000000E+00 0. -1.
         22    1    1    2    0    0  0.36265075178E+00 -0.19223912983E+00  0.30664927033E+01  0.30938404856E+01  0.00000000000E+00 0.  1.
</event>
<event>
 5    1  0.6076093E+001  0.1598091E+01  0.7818608E-02  0.3355438E+00
         11   -1    0    0    0    0  0.00000000000E+00  0.00000000000E+00  0.39999999674E+01  0.40000000000E+01  0.51100000000E-03 0. -1.
    9000002   -1    0    0    0    0 -0.00000000000E+00 -0.00000000000E+00  0.00000000000E+00  0.93800000000E+00  0.93800000000E+00 0.  1.
         11    1    1    2    0    0  0.19974502653E+00  0.13993319581E+00  0.53887270013E+00  0.59149253840E+00  0.51100000000E-03 0. -1.
    9000002    1    1    2    0    0 -0.90543569765E+00 -0.83155889489E+00  0.15197055152E+01  0.21680989025E+01  0.93800000000E+00 0.  1.
         22    1    1    2    0    0  0.70569067112E+00  0.69162569908E+00  0.19414217520E+01  0.21784085591E+01  0.00000000000E+00 0. -1.
</event>
<event>
 5    1  0.6076093E+001  0.1599516E+01  0.7818608E-02  0.3353889E+00
         11   -1    0    0    0    0  0.00000000000E+00  0.00000000000E+00  0.39999999674E+01  0.40000000000E+01  0.51100000000E-03 0. -1.
    9000002   -1    0    0    0    0 -0.00000000000E+00 -0.00000000000E+00  0.00000000000E+00  0.93800000000E+00  0.93800000000E+00 0. -1.
         11    1    1    2    0    0  0.77580853682E-01  0.82608802332E-01  0.98417297119E+00  0.99067638582E+00  0.51100000000E-03 0. -1.
    9000002    1    1    2    0    0 -0.25378589827E+00 -0.33094572096E+00  0.11771995443E+00  0.10332639257E+01  0.93800000000E+00 0. -1.
         22    1    1    2    0    0  0.17620504459E+00  0.24833691863E+00  0.28981070417E+01  0.29140596885E+01  0.00000000000E+00 0. -1.
</event>
<event>
 5    1  0.6076093E+001  0.1506536E+01  0.7818608E-02  0.3461503E+00
         11   -1    0    0    0    0  0.00000000000E+00  0.00000000000E+00  0.39999999674E+01  0.40000000000E+01  0.51100000000E-03 0.  1.
    9000002   -1    0    0    0    0 -0.00000000000E+00 -0.00000000000E+00  0.00000000000E+00  0.93800000000E+00  0.93800000000E+00 0.  1.
         11    1    1    2    0    0 -0.19354701277E+00  0.19637551355E+00  0.69735497264E+00  0.74988532954E+00  0.51100000000E-03 0.  1.
    9000002    1    1    2    0    0  0.20971953194E+00  0.23555510973E+00  0.14398949088E+00  0.10000227324E+01  0.93800000000E+00 0.  1.
         22    1    1    2    0    0 -0.16172519167E-01 -0.43193062328E+00  0.31586555038E+01  0.31880919381E+01  0.00000000000E+00 0.  1.
</event>
<event>
 5    1  0.6076093E+001  0.1598527E+01  0.7818608E-02  0.3354964E+00
         11   -1    0    0    0    0  0.00000000000E+00  0.00000000000E+00  0.39999999674E+01  0.40000000000E+01  0.51100000000E-03 0. -1.
    9000002   -1    0    0    0    0 -0.00000000000E+00 -0.00000000000E+00  0.00000000000E+00  0.93800000000E+00  0.93800000000E+00 0.  1.
         11    1    1    2    0    0  0.79452146132E-02 -0.17412862032E-01  0.52102963474E+00  0.52138131497E+00  0.51100000000E-03 0. -1.
    9000002    1    1    2    0    0 -0.72626971909E-01  0.33935719245E+00  0.81653530372E-01  0.10034686244E+01  0.93800000000E+00 0.  1.
         22    1    1    2    0    0  0.64681757296E-01 -0.32194433042E+00  0.33973168022E+01  0.34131500606E+01  0.00000000000E+00 0. -1.
</event>
<event>
 5    1  0.6076093E+001  0.1599645E+01  0.7818608E-02  0.3353749E+00
         11   -1    0    0    0    0  0.00000000000E+00  0.00000000000E+00  0.39999999674E+01  0.40000000000E+01  0.51100000000E-03 0. -1.
    9000002   -1    0    0    0    0 -0.00000000000E+00 -0.00000000000E+00  0.00000000000E+00  0.93800000000E+00  0.93800000000E+00 0. -1.
         11    1    1    2    0    0 -0.25045368681E-01 -0.29973261271E-02  0.26554480401E+00  0.26674062029E+00  0.51100000000E-03 0. -1.
    9000002    1    1    2    0    0  0.41462186862E+00  0.56380800677E-01  0.11841616347E+00  0.10339035141E+01  0.93800000000E+00 0. -1.
         22    1    1    2    0    0 -0.38957649994E+00 -0.53383474550E-01  0.36160389999E+01  0.36373558656E+01  0.00000000000E+00 0. -1.
</event>
<event>
 5    1  0.1035528E+002  0.1590226E+01  0.7818608E-02  0.3364040E+00
         11   -1    0    0    0    0  0.00000000000E+00  0.00000000000E+00  0.39999999674E+01  0.40000000000E+01  0.51100000000E-03 0. -1.
    9000002   -1    0    0    0    0 -0.00000000000E+00 -0.00000000000E+00  0.00000000000E+00  0.93800000000E+00  0.93800000000E+00 0.  1.
         11    1    1    2    0    0  0.46167651034E-01 -0.38405240197E-01  0.76435987416E+00  0.76671552275E+00  0.51100000000E-03 0. -1.
    9000002    1    1    2    0    0 -0.70401406925E-01 -0.24853243144E+00  0.51637524594E-01  0.97428700162E+00  0.93800000000E+00 0.  1.
         22    1    1    2    0    0  0.24233755891E-01  0.28693767163E+00  0.31840025686E+01  0.31969974756E+01  0.00000000000E+00 0. -1.
</event>
<event>
 5    1  0.6076093E+001  0.1599677E+01  0.7818608E-02  0.3353714E+00
         11   -1    0    0    0    0  0.00000000000E+00  0.00000000000E+00  0.39999999674E+01  0.40000000000E+01  0.51100000000E-03 0. -1.
    9000002   -1    0    0    0    0 -0.00000000000E+00 -0.00000000000E+00  0.00000000000E+00  0.93800000000E+00  0.93800000000E+00 0.  1.
         11    1    1    2    0    0  0.12308463457E+00 -0.10057057157E+00  0.13549605846E+01  0.13642517048E+01  0.51100000000E-03 0.  1.
    9000002    1    1    2    0    0 -0.35024638846E+00  0.28608345121E+00  0.13895019490E+00  0.10505557721E+01  0.93800000000E+00 0.  1.
         22    1    1    2    0    0  0.22716175389E+00 -0.18551287964E+00  0.25060891878E+01  0.25231925230E+01  0.00000000000E+00 0. -1.
</event>
<event>
 5    1  0.6076093E+001  0.1599676E+01  0.7818608E-02  0.3353715E+00
         11   -1    0    0    0    0  0.00000000000E+00  0.00000000000E+00  0.39999999674E+01  0.40000000000E+01  0.51100000000E-03 0.  1.
    9000002   -1    0    0    0    0 -0.00000000000E+00 -0.00000000000E+00  0.00000000000E+00  0.93800000000E+00  0.93800000000E+00 0. -1.
         11    1    1    2    0    0  0.36527023440E-01  0.81116675837E-01  0.62394372733E+00  0.63025405555E+00  0.51100000000E-03 0.  1.
    9000002    1    1    2    0    0 -0.22268512236E+00 -0.49044553988E+00  0.19996436102E+00  0.10999796530E+01  0.93800000000E+00 0. -1.
         22    1    1    2    0    0  0.18615809892E+00  0.40932886404E+00  0.31760918790E+01  0.32077662915E+01  0.00000000000E+00 0.  1.
</event>
<event>
 5    1  0.6076093E+001  0.1544157E+01  0.7818608E-02  0.3416297E+00
         11   -1    0    0    0    0  0.00000000000E+00  0.00000000000E+00  0.39999999674E+01  0.40000000000E+01  0.51100000000E-03 0. -1.
    9000002   -1    0    0    0    0 -0.00000000000E+00 -0.00000000000E+00  0.00000000000E+00  0.93800000000E+00  0.93800000000E+00 0.  1.
         11    1    1    2    0    0  0.22483540565E+00 -0.52091660238E-01  0.76002154558E+00  0.79429057124E+00  0.51100000000E-03 0. -1.
    9000002    1    1    2    0    0  0.27148919886E-02  0.22654986755E+00  0.77306446625E-01  0.96806637160E+00  0.93800000000E+00 0.  1.
         22    1    1    2    0    0 -0.22755029764E+00 -0.17445820731E+00  0.31626719752E+01  0.31756430572E+01  0.00000000000E+00 0. -1.
</event>
<event>
 5    1  0.6076093E+001  0.1599157E+01  0.7818608E-02  0.3354279E+00
         11   -1    0    0    0    0  0.00000000000E+00  0.00000000000E+00  0.39999999674E+01  0.40000000000E+01  0.51100000000E-03 0.  1.
    9000002   -1    0    0    0    0 -0.00000000000E+00 -0.00000000000E+00  0.00000000000E+00  0.93800000000E+00  0.93800000000E+00 0. -1.
         11    1    1    2    0    0 -0.33710117402E-01  0.23778264214E+00  0.79484368930E+00  0.83033349232E+00  0.51100000000E-03 0.  1.
    9000002    1    1    2    0    0  0.23121870538E+00 -0.94771308860E+00  0.75622801303E+00  0.15502732003E+01  0.93800000000E+00 0. -1.
         22    1    1    2    0    0 -0.19750858798E+00  0.70993044646E+00  0.24489282650E+01  0.25573933073E+01  0.00000000000E+00 0.  1.
</event>
<event>
 5    1  0.6076093E+001  0.1599597E+01  0.7818608E-02  0.3353801E+00
         11   -1    0    0    0    0  0.00000000000E+00  0.00000000000E+00  0.39999999674E+01  0.40000000000E+01  0.51100000000E-03 0.  1.
    9000002   -1    0    0    0    0 -0.00000000000E+00 -0.00000000000E+00  0.00000000000E+00  0.93800000000E+00  0.93800000000E+00 0.  1.
         11    1    1    2    0    0 -0.34484493103E-01  0.47456259752E-01  0.58182904051E+00  0.58477907825E+00  0.51100000000E-03 0.  1.
    9000002    1    1    2    0    0  0.18114121317E+00 -0.32882413641E+00  0.94841483849E-01  0.10147789704E+01  0.93800000000E+00 0.  1.
         22    1    1    2    0    0 -0.14665672006E+00  0.28136787666E+00  0.33233294430E+01  0.33384419513E+01  0.00000000000E+00 0.  1.
</event>
<event>
 5    1  0.7061939E+001  0.1571749E+01  0.7818608E-02  0.3384609E+00
         11   -1    0    0    0    0  0.00000000000E+00  0.00000000000E+00  0.39999999674E+01  0.40000000000E+01  0.51100000000E-03 0.  1.
    9000002   -1    0    0    0    0 -0.00000000000E+00 -0.00000000000E+00  0.00000000000E+00  0.93800000000E+00  0.93800000000E+00 0.  1.
         11    1    1    2    0    0  0.15145329587E+00 -0.86017618347E-02  0.10107350048E+01  0.10220555768E+01  0.51100000000E-03 0.  1.
    9000002    1    1    2    0    0  0.87156279046E-01  0.12905159767E+00  0.36951896854E-01  0.95155660605E+00  0.93800000000E+00 0.  1.
         22    1    1    2    0    0 -0.23860957491E+00 -0.12044983583E+00  0.29523130657E+01  0.29643878171E+01  0.00000000000E+00 0.  1.
</event>
<event>
 5    1  0.6076093E+001  0.1599429E+01  0.7818608E-02  0.3353983E+00
         11   -1    0    0    0    0  0.00000000000E+00  0.00000000000E+00  0.39999999674E+01  0.40000000000E+01  0.51100000000E-03 0.  1.
    9000002   -1    0    0    0    0 -0.00000000000E+00 -0.00000000000E+00  0.00000000000E+00  0.93800000000E+00  0.93800000000E+00 0.  1.
         11    1    1    2    0    0  0.52013136688E-01  0.72800707515E-01  0.92204998823E+00  0.92638099685E+00  0.51100000000E-03 0.  1.
    9000002    1    1    2    0    0 -0.15525982630E+00 -0.32825417325E+00  0.88742953796E-01  0.10097404259E+01  0.93800000000E+00 0.  1.
         22    1    1    2    0    0  0.10324668961E+00  0.25545346573E+00  0.29892070253E+01  0.30018785772E+01  0.00000000000E+00 0.  1.
</event>
<event>
 5    1  0.6076093E+001  0.1597993E+01  0.7818608E-02  0.3355545E+00
         11   -1    0    0    0    0  0.00000000000E+00  0.00000000000E+00  0.39999999674E+01  0.40000000000E+01  0.51100000000E-03 0. -1.
    9000002   -1    0    0    0    0 -0.00000000000E+00 -0.00000000000E+00  0.00000000000E+00  0.93800000000E+00  0.93800000000E+00 0. -1.
         11    1    1    2    0    0  0.50647462451E-01 -0.45238867391E-01  0.28710882191E+00  0.29503128193E+00  0.51100000000E-03 0. -1.
    9000002    1    1    2    0    0 -0.33769812675E+00  0.47102499572E+00  0.23500309380E+00  0.11273752816E+01  0.93800000000E+00 0. -1.
         22    1    1    2    0    0  0.28705066430E+00 -0.42578612833E+00  0.34778880516E+01  0.35155934365E+01  0.00000000000E+00 0. -1.
</event>
<event>
 5    1  0.6076093E+001  0.1565375E+01  0.7818608E-02  0.3391824E+00
         11   -1    0    0    0    0  0.00000000000E+00  0.00000000000E+00  0.39999999674E+01  0.40000000000E+01  0.51100000000E-03 0. -1.
    9000002   -1    0    0    0    0 -0.00000000000E+00 -0.00000000000E+00  0.00000000000E+00  0.93800000000E+00  0.93800000000E+00 0.  1.
         11    1    1    2    0    0  0.73409521440E-01  0.56073649345E+00  0.56942974971E+00  0.80253652496E+00  0.51100000000E-03 0. -1.
    9000002    1    1    2    0    0 -0.48958216721E+00 -0.34716437282E+00  0.59694488635E+00  0.12634876325E+01  0.93800000000E+00 0. -1.
         22    1    1    2    0    0  0.41617264577E+00 -0.21357212062E+00  0.28336253313E+01  0.28719758425E+01  0.00000000000E+00 0. -1.
</event>
<event>
 5    1  0.6076093E+001  0.1599673E+01  0.7818608E-02  0.3353719E+00
         11   -1    0    0    0    0  0.00000000000E+00  0.00000000000E+00  0.39999999674E+01  0.40000000000E+01  0.51100000000E-03 0. -1.
    9000002   -1    0    0    0    0 -0.00000000000E+00 -0.00000000000E+00  0.00000000000E+00  0.93800000000E+00  0.93800000000E+00 0.  1.
         11    1    1    2    0    0  0.21894398495E+00 -0.10301455373E+00  0.14725700528E+01  0.14923174221E+01  0.51100000000E-03 0. -1.
    9000002    1    1    2    0    0 -0.55655426817E+00  0.25520461329E+00  0.26225630319E+00  0.11504366200E+01  0.93800000000E+00 0.  1.
         22    1    1    2    0    0  0.33761028322E+00 -0.15219005956E+00  0.22651736113E+01  0.22952459579E+01  0.00000000000E+00 0. -1.
</event>
<event>
 5    1  0.6076093E+001  0.1578542E+01  0.7818608E-02  0.3376987E+00
         11   -1    0    0    0    0  0.00000000000E+00  0.00000000000E+00  0.39999999674E+01  0.40000000000E+01  0.51100000000E-03 0. -1.
    9000002   -1    0    0    0    0 -0.00000000000E+00 -0.00000000000E+00  0.00000000000E+00  0.93800000000E+00  0.93800000000E+00 0. -1.
         11    1    1    2    0    0  0.40854881831E-01  0.99677871589E-01  0.10346811982E+01  0.10402741190E+01  0.51100000000E-03 0. -1.
    9000002    1    1    2    0    0  0.29186695347E-01  0.17671269218E+00  0.37109414859E-01  0.95566748790E+00  0.93800000000E+00 0. -1.
         22    1    1    2    0    0 -0.70041577178E-01 -0.27639056377E+00  0.29282093543E+01  0.29420583931E+01  0.00000000000E+00 0. -1.
</event>
<event>
 5    1  0.6076093E+001  0.1596055E+01  0.7818608E-02  0.3357657E+00
         11   -1    0    0    0    0  0.00000000000E+00  0.00000000000E+00  0.39999999674E+01  0.40000000000E+01  0.51100000000E-03 0. -1.
    9000002   -1    0    0    0    0 -0.00000000000E+00 -0.00000000000E+00  0.00000000000E+00  0.93800000000E+00  0.93800000000E+00 0.  1.
         11    1    1    2    0    0  0.45999742417E-01  0.18818998976E+00  0.14324867408E+01  0.14455275757E+01  0.51100000000E-03 0. -1.
    9000002    1    1    2    0    0  0.39823244550E-01 -0.41524422830E+00  0.12069809714E+00  0.10336467920E+01  0.93800000000E+00 0.  1.
         22    1    1    2    0    0 -0.85822986967E-01  0.22705423853E+00  0.24468151294E+01  0.24588256323E+01  0.00000000000E+00 0. -1.
</event>
<event>
 5    1  0.6076093E+001  0.1467803E+01  0.7818608E-02  0.3510656E+00
         11   -1    0    0    0    0  0.00000000000E+00  0.00000000000E+00  0.39999999674E+01  0.40000000000E+01  0.51100000000E-03 0. -1.
    9000002   -1    0    0    0    0 -0.00000000000E+00 -0.00000000000E+00  0.00000000000E+00  0.93800000000E+00  0.93800000000E+00 0.  1.
         11    1    1    2    0    0  0.50306584691E-01  0.27263034893E-02 -0.38837404056E-01  0.63614387278E-01  0.51100000000E-03 0. -1.
    9000002    1    1    2    0    0 -0.27969493057E+00  0.26061748711E+00  0.21607597943E+00  0.10357043775E+01  0.93800000000E+00 0.  1.
         22    1    1    2    0    0  0.22938834588E+00 -0.26334379060E+00  0.38227613920E+01  0.38386812352E+01  0.00000000000E+00 0. -1.
</event>
<event>
 5    1  0.6076093E+001  0.1599672E+01  0.7818608E-02  0.3353719E+00
         11   -1    0    0    0    0  0.00000000000E+00  0.00000000000E+00  0.39999999674E+01  0.40000000000E+01  0.51100000000E-03 0.  1.
    9000002   -1    0    0    0    0 -0.00000000000E+00 -0.00000000000E+00  0.00000000000E+00  0.93800000000E+00  0.93800000000E+00 0. -1.
         11    1    1    2    0    0  0.12812010990E-02  0.32137562507E-01  0.36712452233E+00  0.36853105760E+00  0.51100000000E-03 0.  1.
    9000002    1    1    2    0    0 -0.25048825920E-01 -0.35401270490E+00  0.84502373989E-01  0.10064477583E+01  0.93800000000E+00 0. -1.
         22    1    1    2    0    0  0.23767624821E-01  0.32187514239E+00  0.35483730710E+01  0.35630211841E+01  0.00000000000E+00 0.  1.
</event>
<event>
 5    1  0.6076093E+001  0.1599675E+01  0.7818608E-02  0.3353716E+00
         11   -1    0    0    0    0  0.00000000000E+00  0.00000000000E+00  0.39999999674E+01  0.40000000000E+01  0.51100000000E-03 0. -1.
    9000002   -1    0    0    0    0 -0.00000000000E+00 -0.00000000000E+00  0.00000000000E+00  0.93800000000E+00  0.93800000000E+00 0.  1.
         11    1    1    2    0    0 -0.13159954786E-01  0.28571985819E-01  0.29951478937E+00  0.30116260219E+00  0.51100000000E-03 0.  1.
    9000002    1    1    2    0    0  0.16220107677E+00 -0.37108422384E+00  0.11070245314E+00  0.10276729653E+01  0.93800000000E+00 0.  1.
         22    1    1    2    0    0 -0.14904112199E+00  0.34251223802E+00  0.35897827249E+01  0.36091644325E+01  0.00000000000E+00 0. -1.
</event>
<event>
 5    1  0.6076093E+001  0.1599677E+01  0.7818608E-02  0.3353714E+00
         11   -1    0    0    0    0  0.00000000000E+00  0.00000000000E+00  0.39999999674E+01  0.40000000000E+01  0.51100000000E-03 0.  1.
    9000002   -1    0    0    0    0 -0.00000000000E+00 -0.00000000000E+00  0.00000000000E+00  0.93800000000E+00  0.93800000000E+00 0. -1.
         11    1    1    2    0    0 -0.12952298470E+00  0.85226080202E-01  0.11986277663E+01  0.12086142774E+01  0.51100000000E-03 0. -1.
    9000002    1    1    2    0    0  0.41452092318E+00 -0.27226575277E+00  0.16825673444E+00  0.10742953805E+01  0.93800000000E+00 0. -1.
         22    1    1    2    0    0 -0.28499793848E+00  0.18703967257E+00  0.26331154666E+01  0.26550903421E+01  0.00000000000E+00 0.  1.
</event>
<event>
 5    1  0.6076093E+001  0.1597897E+01  0.7818608E-02  0.3355649E+00
         11   -1    0    0    0    0  0.00000000000E+00  0.00000000000E+00  0.39999999674E+01  0.40000000000E+01  0.51100000000E-03 0. -1.
    9000002   -1    0    0    0    0 -0.00000000000E+00 -0.00000000000E+00  0.00000000000E+00  0.93800000000E+00  0.93800000000E+00 0. -1.
         11    1    1    2    0    0 -0.26295569352E-01 -0.82864856619E-01  0.56533592867E+00  0.57198165600E+00  0.51100000000E-03 0. -1.
    9000002    1    1    2    0    0  0.26280464150E+00  0.33576218053E+00  0.12457221576E+00  0.10378654818E+01  0.93800000000E+00 0. -1.
         22    1    1    2    0    0 -0.23650907215E+00 -0.25289732391E+00  0.33100918229E+01  0.33281528622E+01  0.00000000000E+00 0. -1.
</event>
<event>
 5    1  0.6076093E+001  0.1599645E+01  0.7818608E-02  0.3353749E+00
         11   -1    0    0    0    0  0.00000000000E+00  0.00000000000E+00  0.39999999674E+01  0.40000000000E+01  0.51100000000E-03 0.  1.
    9000002   -1    0    0    0    0 -0.00000000000E+00 -0.00000000000E+00  0.00000000000E+00  0.93800000000E+00  0.93800000000E+00 0.  1.
         11    1    1    2    0    0 -0.51931346832E-01 -0.46869348630E-01  0.47163039500E+00  0.47679040598E+00  0.51100000000E-03 0.  1.
    9000002    1    1    2    0    0  0.44210474400E+00  0.35042424007E+00  0.22045019894E+00  0.11165554366E+01  0.93800000000E+00 0.  1.
         22    1    1    2    0    0 -0.39017339716E+00 -0.30355489144E+00  0.33079193734E+01  0.33446541575E+01  0.00000000000E+00 0.  1.
</event>
<event>
 5    1  0.6076093E+001  0.1599675E+01  0.7818608E-02  0.3353716E+00
         11   -1    0    0    0    0  0.00000000000E+00  0.00000000000E+00  0.39999999674E+01  0.40000000000E+01  0.51100000000E-03 0. -1.
    9000002   -1    0    0    0    0 -0.00000000000E+00 -0.00000000000E+00  0.00000000000E+00  0.93800000000E+00  0.93800000000E+00 0.  1.
         11    1    1    2    0    0 -0.13175642420E+00  0.79548139586E-01  0.12590456622E+01  0.12684178738E+01  0.51100000000E-03 0. -1.
    9000002    1    1    2    0    0  0.40244728644E+00 -0.23815455032E+00  0.14892290881E+00  0.10586328169E+01  0.93800000000E+00 0.  1.
         22    1    1    2    0    0 -0.27069086224E+00  0.15860641074E+00  0.25920313963E+01  0.26109493093E+01  0.00000000000E+00 0. -1.
</event>
<event>
 5    1  0.6076093E+001  0.1594944E+01  0.7818608E-02  0.3358870E+00
         11   -1    0    0    0    0  0.00000000000E+00  0.00000000000E+00  0.39999999674E+01  0.40000000000E+01  0.51100000000E-03 0.  1.
    9000002   -1    0    0    0    0 -0.00000000000E+00 -0.00000000000E+00  0.00000000000E+00  0.93800000000E+00  0.93800000000E+00 0.  1.
         11    1    1    2    0    0 -0.13979294537E-01  0.38241924341E-01  0.32839690854E+00  0.33091185551E+00  0.51100000000E-03 0.  1.
    9000002    1    1    2    0    0 -0.30967963881E+00 -0.18632926448E+00  0.91542629418E-01  0.10093780890E+01  0.93800000000E+00 0.  1.
         22    1    1    2    0    0  0.32365893335E+00  0.14808734014E+00  0.35800604294E+01  0.35977100555E+01  0.00000000000E+00 0.  1.
</event>
<event>
 5    1  0.6076093E+001  0.1599677E+01  0.7818608E-02  0.3353714E+00
         11   -1    0    0    0    0  0.00000000000E+00  0.00000000000E+00  0.39999999674E+01  0.40000000000E+01  0.51100000000E-03 0.  1.
    9000002   -1    0    0    0    0 -0.00000000000E+00 -0.00000000000E+00  0.00000000000E+00  0.93800000000E+00  0.93800000000E+00 0.  1.
         11    1    1    2    0    0  0.16319949824E-01  0.21198861125E+00  0.14129759750E+01  0.14288830880E+01  0.51100000000E-03 0.  1.
    9000002    1    1    2    0    0 -0.43242916025E-01 -0.56789512221E+00  0.22489869502E+00  0.11201777728E+01  0.93800000000E+00 0.  1.
         22    1    1    2    0    0  0.26922966201E-01  0.35590651096E+00  0.23621252973E+01  0.23889391392E+01  0.00000000000E+00 0.  1.
</event>
<event>
 5    1  0.6076093E+001  0.1597830E+01  0.7818608E-02  0.3355722E+00
         11   -1    0    0    0    0  0.00000000000E+00  0.00000000000E+00  0.39999999674E+01  0.40000000000E+01  0.51100000000E-03 0.  1.
    9000002   -1    0    0    0    0 -0.00000000000E+00 -0.00000000000E+00  0.00000000000E+00  0.93800000000E+00  0.93800000000E+00 0. -1.
         11    1    1    2    0    0 -0.10846204801E+00 -0.46694236527E-02  0.10944098131E+01  0.10997813053E+01  0.51100000000E-03 0.  1.
    9000002    1    1    2    0    0  0.51033813328E+00 -0.80696472737E-01  0.18496080990E+00  0.10867434988E+01  0.93800000000E+00 0. -1.
         22    1    1    2    0    0 -0.40187608527E+00  0.85365896389E-01  0.27206293443E+01  0.27514751959E+01  0.00000000000E+00 0.  1.
</event>
<event>
 5    1  0.6076093E+001  0.1599666E+01  0.7818608E-02  0.3353726E+00
         11   -1    0    0    0    0  0.00000000000E+00  0.00000000000E+00  0.39999999674E+01  0.40000000000E+01  0.51100000000E-03 0.  1.
    9000002   -1    0    0    0    0 -0.00000000000E+00 -0.00000000000E+00  0.00000000000E+00  0.93800000000E+00  0.93800000000E+00 0.  1.
         11    1    1    2    0    0 -0.18109868155E+00  0.39913887195E-01  0.14229560317E+01  0.14349891917E+01  0.51100000000E-03 0.  1.
    9000002    1    1    2    0    0  0.48102318173E+00 -0.99782642651E-01  0.16498114830E+00  0.10716355054E+01  0.93800000000E+00 0.  1.
         22    1    1    2    0    0 -0.29992450017E+00  0.59868755456E-01  0.24120627873E+01  0.24313753029E+01  0.00000000000E+00 0.  1.
</event>
<event>
 5    1  0.6076093E+001  0.1560490E+01  0.7818608E-02  0.3397395E+00
         11   -1    0    0    0    0  0.00000000000E+00  0.00000000000E+00  0.39999999674E+01  0.40000000000E+01  0.51100000000E-03 0. -1.
    9000002   -1    0    0    0    0 -0.00000000000E+00 -0.00000000000E+00  0.00000000000E+00  0.93800000000E+00  0.93800000000E+00 0.  1.
         11    1    1    2    0    0 -0.13477350283E+00  0.32054145528E-01  0.19848146468E+00  0.24204652084E+00  0.51100000000E-03 0. -1.
    9000002    1    1    2    0    0  0.49424809717E+00 -0.73544877163E-02  0.20311300936E+00  0.10795527614E+01  0.93800000000E+00 0.  1.
         22    1    1    2    0    0 -0.35947459434E+00 -0.24699657811E-01  0.35984054933E+01  0.36164007178E+01  0.00000000000E+00 0. -1.
</event>
<event>
 5    1  0.6076093E+001  0.1536003E+01  0.7818608E-02  0.3425894E+00
         11   -1    0    0    0    0  0.00000000000E+00  0.00000000000E+00  0.39999999674E+01  0.40000000000E+01  0.51100000000E-03 0. -1.
    9000002   -1    0    0    0    0 -0.00000000000E+00 -0.00000000000E+00  0.00000000000E+00  0.93800000000E+00  0.93800000000E+00 0. -1.
         11    1    1    2    0    0  0.15762003544E+00 -0.18838354644E+00  0.96004852535E+00  0.99097218341E+00  0.51100000000E-03 0. -1.
    9000002    1    1    2    0    0 -0.14552599977E+00 -0.17673607943E+00  0.84656571891E-01  0.96923897649E+00  0.93800000000E+00 0. -1.
         22    1    1    2    0    0 -0.12094035678E-01  0.36511962587E+00  0.29552948701E+01  0.29777888401E+01  0.00000000000E+00 0. -1.
</event>
<event>
 5    1  0.6076093E+001  0.1585382E+01  0.7818608E-02  0.3369384E+00
         11   -1    0    0    0    0  0.00000000000E+00  0.00000000000E+00  0.39999999674E+01  0.40000000000E+01  0.51100000000E-03 0. -1.
    9000002   -1    0    0    0    0 -0.00000000000E+00 -0.00000000000E+00  0.00000000000E+00  0.93800000000E+00  0.93800000000E+00 0.  1.
         11    1    1    2    0    0  0.23178320776E+00  0.22814472788E+00  0.10642923364E+01  0.11128755145E+01  0.51100000000E-03 0. -1.
    9000002    1    1    2    0    0 -0.86553304563E+00 -0.31753246190E+00  0.68047405610E+00  0.14808319481E+01  0.93800000000E+00 0.  1.
         22    1    1    2    0    0  0.63374983787E+00  0.89387734020E-01  0.22552335748E+01  0.23442925374E+01  0.00000000000E+00 0. -1.
</event>
<event>
 5    1  0.6076093E+001  0.1595613E+01  0.7818608E-02  0.3358139E+00
         11   -1    0    0    0    0  0.00000000000E+00  0.00000000000E+00  0.39999999674E+01  0.40000000000E+01  0.51100000000E-03 0.  1.
    9000002   -1    0    0    0    0 -0.00000000000E+00 -0.00000000000E+00  0.00000000000E+00  0.93800000000E+00  0.93800000000E+00 0. -1.
         11    1    1    2    0    0 -0.22354711119E+00  0.21407196730E+00  0.13631184459E+01  0.13978169683E+01  0.51100000000E-03 0.  1.
    9000002    1    1    2    0    0  0.42337713699E+00 -0.49166615760E+00  0.30126716610E+00  0.11796566094E+01  0.93800000000E+00 0. -1.
         22    1    1    2    0    0 -0.19983002581E+00  0.27759419030E+00  0.23356143554E+01  0.23605264224E+01  0.00000000000E+00 0.  1.
</event>
<event>
 5    1  0.6076093E+001  0.1633451E+01  0.7818608E-02  0.3317838E+00
         11   -1    0    0    0    0  0.00000000000E+00  0.00000000000E+00  0.39999999674E+01  0.40000000000E+01  0.51100000000E-03 0. -1.
    9000002   -1    0    0    0    0 -0.00000000000E+00 -0.00000000000E+00  0.00000000000E+00  0.93800000000E+00  0.93800000000E+00 0. -1.
         11    1    1    2    0    0 -0.26772198396E+00  0.24045126179E+00  0.16717096587E+00  0.39678490766E+00  0.51100000000E-03 0. -1.
    9000002    1    1    2    0    0  0.54927589613E-01  0.20491144489E+00  0.34971751955E+00  0.10233044922E+01  0.93800000000E+00 0. -1.
         22    1    1    2    0    0  0.21279439435E+00 -0.44536270668E+00  0.34831114819E+01  0.35179106001E+01  0.00000000000E+00 0. -1.
</event>
<event>
 5    1  0.6076093E+001  0.1599028E+01  0.7818608E-02  0.3354419E+00
         11   -1    0    0    0    0  0.00000000000E+00  0.00000000000E+00  0.39999999674E+01  0.40000000000E+01  0.51100000000E-03 0. -1.
    9000002   -1    0    0    0    0 -0.00000000000E+00 -0.00000000000E+00  0.00000000000E+00  0.93800000000E+00  0.93800000000E+00 0. -1.
         11    1    1    2    0    0 -0.71544295497E-01  0.48972109696E-01  0.81155203151E+00  0.81617021186E+00  0.51100000000E-03 0. -1.
    9000002    1    1    2    0    0  0.45427587259E+00 -0.24515536235E+00  0.18351289467E+00  0.10862728491E+01  0.93800000000E+00 0. -1.
         22    1    1    2    0    0 -0.38273157709E+00  0.19618325265E+00  0.30049350412E+01  0.30355569391E+01  0.00000000000E+00 0. -1.
</event>
<event>
 5    1  0.6076093E+001  0.1599574E+01  0.7818608E-02  0.3353826E+00
         11   -1    0    0    0    0  0.00000000000E+00  0.00000000000E+00  0.39999999674E+01  0.40000000000E+01  0.51100000000E-03 0. -1.
    9000002   -1    0    0    0    0 -0.00000000000E+00 -0.00000000000E+00  0.00000000000E+00  0.93800000000E+00  0.93800000000E+00 0.  1.
         11    1    1    2    0    0 -0.12894556396E-01 -0.16948255951E+00  0.83431378398E+00  0.85145191222E+00  0.51100000000E-03 0. -1.
    9000002    1    1    2    0    0  0.63075136350E-01  0.76875726489E+00  0.43429376614E+00  0.12897369036E+01  0.93800000000E+00 0.  1.
         22    1    1    2    0    0 -0.50180579954E-01 -0.59927470537E+00  0.27313924172E+01  0.27968111842E+01  0.00000000000E+00 0. -1.
</event>
<event>
 5    1  0.6076093E+001  0.1593882E+01  0.7818608E-02  0.3360031E+00
         11   -1    0    0    0    0  0.00000000000E+00  0.00000000000E+00  0.39999999674E+01  0.40000000000E+01  0.51100000000E-03 0. -1.
    9000002   -1    0    0    0    0 -0.00000000000E+00 -0.00000000000E+00  0.00000000000E+00  0.93800000000E+00  0.93800000000E+00 0.  1.
         11    1    1    2    0    0 -0.63374373364E-01 -0.60653510257E-01  0.14351015127E+01  0.14377801544E+01  0.51100000000E-03 0. -1.
    9000002    1    1    2    0    0  0.59770042351E-01  0.37731155928E+00  0.10299402608E+00  0.10180315516E+01  0.93800000000E+00 0.  1.
         22    1    1    2    0    0  0.36043310126E-02 -0.31665804902E+00  0.24619044286E+01  0.24821882940E+01  0.00000000000E+00 0. -1.
</event>
<event>
 5    1  0.6076093E+001  0.1597808E+01  0.7818608E-02  0.3355746E+00
         11   -1    0    0    0    0  0.00000000000E+00  0.00000000000E+00  0.39999999674E+01  0.40000000000E+01  0.51100000000E-03 0.  1.
    9000002   -1    0    0    0    0 -0.00000000000E+00 -0.00000000000E+00  0.00000000000E+00  0.93800000000E+00  0.93800000000E+00 0.  1.
         11    1    1    2    0    0 -0.38707442283E+00 -0.10273805782E+00  0.94262738948E+00  0.10241720431E+01  0.51100000000E-03 0.  1.
    9000002    1    1    2    0    0  0.10727784756E+01  0.24136399616E+00  0.10455768524E+01  0.17838680418E+01  0.93800000000E+00 0.  1.
         22    1    1    2    0    0 -0.68570405279E+00 -0.13862593833E+00  0.20117957255E+01  0.21299599151E+01  0.00000000000E+00 0.  1.
</event>
<event>
 5    1  0.6076093E+001  0.1598054E+01  0.7818608E-02  0.3355478E+00
         11   -1    0    0    0    0  0.00000000000E+00  0.00000000000E+00  0.39999999674E+01  0.40000000000E+01  0.51100000000E-03 0. -1.
    9000002   -1    0    0    0    0 -0.00000000000E+00 -0.00000000000E+00  0.00000000000E+00  0.93800000000E+00  0.93800000000E+00 0.  1.
         11    1    1    2    0    0 -0.16887940479E+00 -0.10475717005E+00  0.12205308974E+01  0.12366043226E+01  0.51100000000E-03 0. -1.
    9000002    1    1    2    0    0  0.42089192823E+00  0.23807358507E+00  0.16107893991E+00  0.10675296118E+01  0.93800000000E+00 0.  1.
         22    1    1    2    0    0 -0.25201252344E+00 -0.13331641502E+00  0.26183901300E+01  0.26338660656E+01  0.00000000000E+00 0. -1.
</event>
<event>
 5    1  0.8873192E+001  0.1590186E+01  0.7818608E-02  0.3364085E+00
         11   -1    0    0    0    0  0.00000000000E+00  0.00000000000E+00  0.39999999674E+01  0.40000000000E+01  0.51100000000E-03 0.  1.
    9000002   -1    0    0    0    0 -0.00000000000E+00 -0.00000000000E+00  0.00000000000E+00  0.93800000000E+00  0.93800000000E+00 0. -1.
         11    1    1    2    0    0  0.26288123743E-01 -0.36832942016E-01  0.61556255652E+00  0.61722382746E+00  0.51100000000E-03 0.  1.
    9000002    1    1    2    0    0  0.10497686959E+00 -0.23569954879E+00  0.51566771216E-01  0.97420611389E+00  0.93800000000E+00 0. -1.
         22    1    1    2    0    0 -0.13126499334E+00  0.27253249080E+00  0.33328706396E+01  0.33465700587E+01  0.00000000000E+00 0.  1.
</event>
<event>
 5    1  0.6076093E+001  0.1599225E+01  0.7818608E-02  0.3354205E+00
         11   -1    0    0    0    0  0.00000000000E+00  0.00000000000E+00  0.39999999674E+01  0.40000000000E+01  0.51100000000E-03 0.  1.
    9000002   -1    0    0    0    0 -0.00000000000E+00 -0.00000000000E+00  0.00000000000E+00  0.93800000000E+00  0.93800000000E+00 0.  1.
         11    1    1    2    0    0 -0.79773257611E-01 -0.19043662249E+00  0.10070407788E+01  0.10279889450E+01  0.51100000000E-03 0.  1.
    9000002    1    1    2    0    0  0.21446140824E+00  0.65568768288E+00  0.33971335520E+00  0.12129176381E+01  0.93800000000E+00 0.  1.
         22    1    1    2    0    0 -0.13468815063E+00 -0.46525106039E+00  0.26532458334E+01  0.26970934169E+01  0.00000000000E+00 0.  1.
</event>
<event>
 5    1  0.6076093E+001  0.1599664E+01  0.7818608E-02  0.3353728E+00
         11   -1    0    0    0    0  0.00000000000E+00  0.00000000000E+00  0.39999999674E+01  0.40000000000E+01  0.51100000000E-03 0. -1.
    9000002   -1    0    0    0    0 -0.00000000000E+00 -0.00000000000E+00  0.00000000000E+00  0.93800000000E+00  0.93800000000E+00 0. -1.
         11    1    1    2    0    0 -0.14677657051E-01 -0.11781198973E+00  0.85206800881E+00  0.86029951255E+00  0.51100000000E-03 0. -1.
    9000002    1    1    2    0    0  0.80547202871E-01  0.53134768954E+00  0.19903035635E+00  0.10992157667E+01  0.93800000000E+00 0. -1.
         22    1    1    2    0    0 -0.65869545820E-01 -0.41353569981E+00  0.29489016022E+01  0.29784847207E+01  0.00000000000E+00 0. -1.
</event>
<event>
 5    1  0.6076093E+001  0.1599673E+01  0.7818608E-02  0.3353719E+00
         11   -1    0    0    0    0  0.00000000000E+00  0.00000000000E+00  0.39999999674E+01  0.40000000000E+01  0.51100000000E-03 0.  1.
    9000002   -1    0    0    0    0 -0.00000000000E+00 -0.00000000000E+00  0.00000000000E+00  0.93800000000E+00  0.93800000000E+00 0.  1.
         11    1    1    2    0    0 -0.19049356690E+00  0.21945187101E+00  0.96183448139E+00  0.10047749765E+01  0.51100000000E-03 0.  1.
    9000002    1    1    2    0    0  0.64444642798E+00 -0.73273917102E+00  0.75588512423E+00  0.15502981043E+01  0.93800000000E+00 0.  1.
         22    1    1    2    0    0 -0.45395286108E+00  0.51328730001E+00  0.22822803617E+01  0.23829269191E+01  0.00000000000E+00 0.  1.
</event>
<event>
 5    1  0.6076093E+001  0.1598598E+01  0.7818608E-02  0.3354886E+00
         11   -1    0    0    0    0  0.00000000000E+00  0.00000000000E+00  0.39999999674E+01  0.40000000000E+01  0.51100000000E-03 0.  1.
    9000002   -1    0    0    0    0 -0.00000000000E+00 -0.00000000000E+00  0.00000000000E+00  0.93800000000E+00  0.93800000000E+00 0.  1.
         11    1    1    2    0    0  0.11653577956E-01 -0.13207249245E-01  0.41845650943E-01  0.45404371328E-01  0.51100000000E-03 0.  1.
    9000002    1    1    2    0    0 -0.63183218462E+00  0.45717740226E+00  0.44641124664E+00  0.12989804032E+01  0.93800000000E+00 0.  1.
         22    1    1    2    0    0  0.62017860666E+00 -0.44397015301E+00  0.35117430698E+01  0.35936152255E+01  0.00000000000E+00 0.  1.
</event>
<event>
 5    1  0.6076093E+001  0.1599655E+01  0.7818608E-02  0.3353738E+00
         11   -1    0    0    0    0  0.00000000000E+00  0.00000000000E+00  0.39999999674E+01  0.40000000000E+01  0.51100000000E-03 0. -1.
    9000002   -1    0    0    0    0 -0.00000000000E+00 -0.00000000000E+00  0.00000000000E+00  0.93800000000E+00  0.93800000000E+00 0. -1.
         11    1    1    2    0    0 -0.43624058930E-01  0.31975695548E-01  0.46683622070E+00  0.46995938304E+00  0.51100000000E-03 0. -1.
    9000002    1    1    2    0    0  0.36164949344E+00 -0.29434162849E+00  0.14805580715E+00  0.10579186511E+01  0.93800000000E+00 0. -1.
         22    1    1    2    0    0 -0.31802543451E+00  0.26236593294E+00  0.33851079395E+01  0.34101219658E+01  0.00000000000E+00 0. -1.
</event>
<event>
 5    1  0.6076093E+001  0.1599663E+01  0.7818608E-02  0.3353729E+00
         11   -1    0    0    0    0  0.00000000000E+00  0.00000000000E+00  0.39999999674E+01  0.40000000000E+01  0.51100000000E-03 0. -1.
    9000002   -1    0    0    0    0 -0.00000000000E+00 -0.00000000000E+00  0.00000000000E+00  0.93800000000E+00  0.93800000000E+00 0.  1.
         11    1    1    2    0    0  0.39162162100E-01 -0.16593143486E-02  0.32255121317E+00  0.32492456740E+00  0.51100000000E-03 0.  1.
    9000002    1    1    2    0    0 -0.49353746935E+00  0.28866249624E-01  0.16717008747E+00  0.10734068810E+01  0.93800000000E+00 0.  1.
         22    1    1    2    0    0  0.45437530725E+00 -0.27206935275E-01  0.35102786667E+01  0.35396685516E+01  0.00000000000E+00 0. -1.
</event>
<event>
 5    1  0.6076093E+001  0.1587400E+01  0.7818608E-02  0.3367154E+00
         11   -1    0    0    0    0  0.00000000000E+00  0.00000000000E+00  0.39999999674E+01  0.40000000000E+01  0.51100000000E-03 0.  1.
    9000002   -1    0    0    0    0 -0.00000000000E+00 -0.00000000000E+00  0.00000000000E+00  0.93800000000E+00  0.93800000000E+00 0.  1.
         11    1    1    2    0    0 -0.34955714416E-01 -0.55999002479E-01  0.13623748175E+01  0.13639733116E+01  0.51100000000E-03 0.  1.
    9000002    1    1    2    0    0  0.26379981069E+00 -0.16642148354E+00  0.74708332463E-01  0.99131820585E+00  0.93800000000E+00 0.  1.
         22    1    1    2    0    0 -0.22884409628E+00  0.22242048602E+00  0.25629168174E+01  0.25827084826E+01  0.00000000000E+00 0.  1.
</event>
<event>
 5    1  0.6076093E+001  0.1599640E+01  0.7818608E-02  0.3353754E+00
         11   -1    0    0    0    0  0.00000000000E+00  0.00000000000E+00  0.39999999674E+01  0.40000000000E+01  0.51100000000E-03 0.  1.
    9000002   -1    0    0    0    0 -0.00000000000E+00 -0.00000000000E+00  0.00000000000E+00  0.93800000000E+00  0.93800000000E+00 0.  1.
         11    1    1    2    0    0  0.16988548635E-01 -0.19634441989E+00  0.13618464968E+01  0.13760326609E+01  0.51100000000E-03 0.  1.
    9000002    1    1    2    0    0 -0.28019130163E-01  0.54478848230E+00  0.20539857385E+00  0.11043605101E+01  0.93800000000E+00 0.  1.
         22    1    1    2    0    0  0.11030581528E-01 -0.34844406241E+00  0.24327548967E+01  0.24576068290E+01  0.00000000000E+00 0.  1.
</event>
<event>
 5    1  0.1181755E+002  0.1571463E+01  0.7818608E-02  0.3384932E+00
         11   -1    0    0    0    0  0.00000000000E+00  0.00000000000E+00  0.39999999674E+01  0.40000000000E+01  0.51100000000E-03 0.  1.
    9000002   -1    0    0    0    0 -0.00000000000E+00 -0.00000000000E+00  0.00000000000E+00  0.93800000000E+00  0.93800000000E+00 0. -1.
         11    1    1    2    0    0 -0.10929747594E+00  0.12425465353E+00  0.13138952941E+01  0.13242757500E+01  0.51100000000E-03 0.  1.
    9000002    1    1    2    0    0  0.37391085572E-01  0.11916517997E+00  0.31281255854E-01  0.94679509418E+00  0.93800000000E+00 0. -1.
         22    1    1    2    0    0  0.71906390369E-01 -0.24341983351E+00  0.26548234175E+01  0.26669291558E+01  0.00000000000E+00 0.  1.
</event>
<event>
 5    1  0.6076093E+001  0.1598549E+01  0.7818608E-02  0.3354940E+00
         11   -1    0    0    0    0  0.00000000000E+00  0.00000000000E+00  0.39999999674E+01  0.40000000000E+01  0.51100000000E-03 0.  1.
    9000002   -1    0    0    0    0 -0.00000000000E+00 -0.00000000000E+00  0.00000000000E+00  0.93800000000E+00  0.93800000000E+00 0.  1.
         11    1    1    2    0    0  0.70604873862E-01  0.47184306265E-01  0.46106237599E+00  0.46881785657E+00  0.51100000000E-03 0.  1.
    9000002    1    1    2    0    0 -0.40464987897E+00 -0.26861857047E+00  0.16210848013E+00  0.10686536484E+01  0.93800000000E+00 0.  1.
         22    1    1    2    0    0  0.33404500511E+00  0.22143426421E+00  0.33768291112E+01  0.34005284950E+01  0.00000000000E+00 0.  1.
</event>
<event>
 5    1  0.6076093E+001  0.1598020E+01  0.7818608E-02  0.3355515E+00
         11   -1    0    0    0    0  0.00000000000E+00  0.00000000000E+00  0.39999999674E+01  0.40000000000E+01  0.51100000000E-03 0.  1.
    9000002   -1    0    0    0    0 -0.00000000000E+00 -0.00000000000E+00  0.00000000000E+00  0.93800000000E+00  0.93800000000E+00 0. -1.
         11    1    1    2    0    0 -0.66692715138E-01  0.40409490608E-02  0.67464678437E+00  0.67794748492E+00  0.51100000000E-03 0.  1.
    9000002    1    1    2    0    0  0.41326296569E+00  0.18746354280E+00  0.14137876916E+00  0.10515516226E+01  0.93800000000E+00 0. -1.
         22    1    1    2    0    0 -0.34657025055E+00 -0.19150449186E+00  0.31839744138E+01  0.32085008925E+01  0.00000000000E+00 0.  1.
</event>
<event>
 5    1  0.6076093E+001  0.1597247E+01  0.7818608E-02  0.3356357E+00
         11   -1    0    0    0    0  0.00000000000E+00  0.00000000000E+00  0.39999999674E+01  0.40000000000E+01  0.51100000000E-03 0. -1.
    9000002   -1    0    0    0    0 -0.00000000000E+00 -0.00000000000E+00  0.00000000000E+00  0.93800000000E+00  0.93800000000E+00 0.  1.
         11    1    1    2    0    0 -0.11038637098E-01  0.15477652768E-01  0.96252455683E-01  0.98113228416E-01  0.51100000000E-03 0. -1.
    9000002    1    1    2    0    0  0.42446411899E+00  0.12175431345E+00  0.13436184791E+00  0.10454142755E+01  0.93800000000E+00 0.  1.
         22    1    1    2    0    0 -0.41342548189E+00 -0.13723196622E+00  0.37693856638E+01  0.37944724961E+01  0.00000000000E+00 0. -1.
</event>
<event>
 5    1  0.6076093E+001  0.1599672E+01  0.7818608E-02  0.3353719E+00
         11   -1    0    0    0    0  0.00000000000E+00  0.00000000000E+00  0.39999999674E+01  0.40000000000E+01  0.51100000000E-03 0. -1.
    9000002   -1    0    0    0    0 -0.00000000000E+00 -0.00000000000E+00  0.00000000000E+00  0.93800000000E+00  0.93800000000E+00 0.  1.
         11    1    1    2    0    0  0.13030671462E+00  0.22293117019E+00  0.88394580743E+00  0.92089011186E+00  0.51100000000E-03 0. -1.
    9000002    1    1    2    0    0 -0.49112722664E+00 -0.82279693795E+00  0.72225328358E+00  0.15230543521E+01  0.93800000000E+00 0.  1.
         22    1    1    2    0    0  0.36082051202E+00  0.59986576775E+00  0.23938008763E+01  0.24940555360E+01  0.00000000000E+00 0. -1.
</event>
<event>
 5    1  0.6076093E+001  0.1599676E+01  0.7818608E-02  0.3353715E+00
         11   -1    0    0    0    0  0.00000000000E+00  0.00000000000E+00  0.39999999674E+01  0.40000000000E+01  0.51100000000E-03 0. -1.
    9000002   -1    0    0    0    0 -0.00000000000E+00 -0.00000000000E+00  0.00000000000E+00  0.93800000000E+00  0.93800000000E+00 0. -1.
         11    1    1    2    0    0  0.31266828513E-01 -0.10362887956E+00  0.11188982883E+01  0.11241219685E+01  0.51100000000E-03 0. -1.
    9000002    1    1    2    0    0 -0.11219418127E+00  0.36303259269E+00  0.97145221114E-01  0.10166913945E+01  0.93800000000E+00 0. -1.
         22    1    1    2    0    0  0.80927352756E-01 -0.25940371313E+00  0.27839564579E+01  0.27971866370E+01  0.00000000000E+00 0. -1.
</event>
<event>
 5    1  0.6076093E+001  0.1533306E+01  0.7818608E-02  0.3429092E+00
         11   -1    0    0    0    0  0.00000000000E+00  0.00000000000E+00  0.39999999674E+01  0.40000000000E+01  0.51100000000E-03 0.  1.
    9000002   -1    0    0    0    0 -0.00000000000E+00 -0.00000000000E+00  0.00000000000E+00  0.93800000000E+00  0.93800000000E+00 0. -1.
         11    1    1    2    0    0  0.19993209212E+00  0.12958837772E+00  0.88773464012E+00  0.91915126148E+00  0.51100000000E-03 0.  1.
    9000002    1    1    2    0    0  0.16584060641E-01  0.14103076243E+00  0.63891566593E-01  0.95083691520E+00  0.93800000000E+00 0. -1.
         22    1    1    2    0    0 -0.21651615276E+00 -0.27061914015E+00  0.30483737606E+01  0.30680118233E+01  0.00000000000E+00 0.  1.
</event>
<event>
 5    1  0.6076093E+001  0.1566827E+01  0.7818608E-02  0.3390175E+00
         11   -1    0    0    0    0  0.00000000000E+00  0.00000000000E+00  0.39999999674E+01  0.40000000000E+01  0.51100000000E-03 0. -1.
    9000002   -1    0    0    0    0 -0.00000000000E+00 -0.00000000000E+00  0.00000000000E+00  0.93800000000E+00  0.93800000000E+00 0. -1.
         11    1    1    2    0    0  0.11072285251E+00  0.24070807483E+00  0.88513332739E+00  0.92393787439E+00  0.51100000000E-03 0. -1.
    9000002    1    1    2    0    0 -0.56209789767E+00 -0.23073846210E+00  0.29172983624E+00  0.11550517659E+01  0.93800000000E+00 0. -1.
         22    1    1    2    0    0  0.45137504516E+00 -0.99696127270E-02  0.28231368037E+01  0.28590103598E+01  0.00000000000E+00 0. -1.
</event>
<event>
 5    1  0.6076093E+001  0.1599257E+01  0.7818608E-02  0.3354170E+00
         11   -1    0    0    0    0  0.00000000000E+00  0.00000000000E+00  0.39999999674E+01  0.40000000000E+01  0.51100000000E-03 0.  1.
    9000002   -1    0    0    0    0 -0.00000000000E+00 -0.00000000000E+00  0.00000000000E+00  0.93800000000E+00  0.93800000000E+00 0.  1.
         11    1    1    2    0    0 -0.22781166629E-01 -0.38079367687E-01  0.22949070077E+00  0.23374187185E+00  0.51100000000E-03 0.  1.
    9000002    1    1    2    0    0  0.19193426009E+00  0.55319892464E+00  0.23890404911E+00  0.11312766925E+01  0.93800000000E+00 0.  1.
         22    1    1    2    0    0 -0.16915309346E+00 -0.51511955695E+00  0.35316052175E+01  0.35729814356E+01  0.00000000000E+00 0.  1.
</event>
<event>
 5    1  0.6076093E+001  0.1599676E+01  0.7818608E-02  0.3353715E+00
         11   -1    0    0    0    0  0.00000000000E+00  0.00000000000E+00  0.39999999674E+01  0.40000000000E+01  0.51100000000E-03 0.  1.
    9000002   -1    0    0    0    0 -0.00000000000E+00 -0.00000000000E+00  0.00000000000E+00  0.93800000000E+00  0.93800000000E+00 0. -1.
         11    1    1    2    0    0 -0.12063934948E+00  0.13293013174E+00  0.13600472011E+01  0.13718428930E+01  0.51100000000E-03 0.  1.
    9000002    1    1    2    0    0  0.34063154179E+00 -0.37175520226E+00  0.17416029156E+00  0.10790771913E+01  0.93800000000E+00 0. -1.
         22    1    1    2    0    0 -0.21999219232E+00  0.23882507052E+00  0.24657924747E+01  0.24870799157E+01  0.00000000000E+00 0.  1.
</event>
<event>
 5    1  0.6076093E+001  0.1599674E+01  0.7818608E-02  0.3353718E+00
         11   -1    0    0    0    0  0.00000000000E+00  0.00000000000E+00  0.39999999674E+01  0.40000000000E+01  0.51100000000E-03 0.  1.
    9000002   -1    0    0    0    0 -0.00000000000E+00 -0.00000000000E+00  0.00000000000E+00  0.93800000000E+00  0.93800000000E+00 0. -1.
         11    1    1    2    0    0 -0.49528562681E-01 -0.82181645928E-01  0.87703463721E+00  0.88226805305E+00  0.51100000000E-03 0.  1.
    9000002    1    1    2    0    0  0.21251931160E+00  0.36838421885E+00  0.12241565369E+00  0.10371600565E+01  0.93800000000E+00 0. -1.
         22    1    1    2    0    0 -0.16299074892E+00 -0.28620257292E+00  0.30005496765E+01  0.30185718905E+01  0.00000000000E+00 0.  1.
</event>
<event>
 5    1  0.6076093E+001  0.1586113E+01  0.7818608E-02  0.3368575E+00
         11   -1    0    0    0    0  0.00000000000E+00  0.00000000000E+00  0.39999999674E+01  0.40000000000E+01  0.51100000000E-03 0. -1.
    9000002   -1    0    0    0    0 -0.00000000000E+00 -0.00000000000E+00  0.00000000000E+00  0.93800000000E+00  0.93800000000E+00 0. -1.
         11    1    1    2    0    0  0.17539526069E+00  0.80363657458E-01  0.82188161019E+00  0.84422239796E+00  0.51100000000E-03 0. -1.
    9000002    1    1    2    0    0 -0.28151105435E+00 -0.33749946253E+00  0.14269946272E+00  0.10456392770E+01  0.93800000000E+00 0. -1.
         22    1    1    2    0    0  0.10611579365E+00  0.25713580507E+00  0.30354188944E+01  0.30481383251E+01  0.00000000000E+00 0. -1.
</event>
<event>
 5    1  0.6076093E+001  0.1599553E+01  0.7818608E-02  0.3353849E+00
         11   -1    0    0    0    0  0.00000000000E+00  0.00000000000E+00  0.39999999674E+01  0.40000000000E+01  0.51100000000E-03 0.  1.
    9000002   -1    0    0    0    0 -0.00000000000E+00 -0.00000000000E+00  0.00000000000E+00  0.93800000000E+00  0.93800000000E+00 0.  1.
         11    1    1    2    0    0 -0.37127731501E-01  0.28145884108E-01  0.44499156853E+00  0.44742420187E+00  0.51100000000E-03 0.  1.
    9000002    1    1    2    0    0  0.30532524650E+00 -0.31705819017E+00  0.13150994550E+00  0.10444559674E+01  0.93800000000E+00 0.  1.
         22    1    1    2    0    0 -0.26819751500E+00  0.28891230606E+00  0.34234984533E+01  0.34461198307E+01  0.00000000000E+00 0.  1.
</event>
<event>
 5    1  0.6076093E+001  0.1524303E+01  0.7818608E-02  0.3439855E+00
         11   -1    0    0    0    0  0.00000000000E+00  0.00000000000E+00  0.39999999674E+01  0.40000000000E+01  0.51100000000E-03 0. -1.
    9000002   -1    0    0    0    0 -0.00000000000E+00 -0.00000000000E+00  0.00000000000E+00  0.93800000000E+00  0.93800000000E+00 0.  1.
         11    1    1    2    0    0 -0.32373716038E+00 -0.25744203778E+00  0.42639446351E+00  0.59404936786E+00  0.51100000000E-03 0. -1.
    9000002    1    1    2    0    0 -0.10688126868E+00  0.40506258702E+00  0.34540432603E+00  0.10838115396E+01  0.93800000000E+00 0.  1.
         22    1    1    2    0    0  0.43061842906E+00 -0.14762054925E+00  0.32282011778E+01  0.32601390925E+01  0.00000000000E+00 0. -1.
</event>
<event>
 5    1  0.6076093E+001  0.1580249E+01  0.7818608E-02  0.3375084E+00
         11   -1    0    0    0    0  0.00000000000E+00  0.00000000000E+00  0.39999999674E+01  0.40000000000E+01  0.51100000000E-03 0.  1.
    9000002   -1    0    0    0    0 -0.00000000000E+00 -0.00000000000E+00  0.00000000000E+00  0.93800000000E+00  0.93800000000E+00 0. -1.
         11    1    1    2    0    0 -0.18984594680E-02 -0.87824138591E-01  0.69536483691E+00  0.70089171845E+00  0.51100000000E-03 0.  1.
    9000002    1    1    2    0    0  0.11591941655E+00 -0.21926266153E+00  0.55840732472E-01  0.97184135191E+00  0.93800000000E+00 0. -1.
         22    1    1    2    0    0 -0.11402095708E+00  0.30708680012E+00  0.32487943980E+01  0.32652669296E+01  0.00000000000E+00 0.  1.
</event>
<event>
 5    1  0.6076093E+001  0.1598064E+01  0.7818608E-02  0.3355467E+00
         11   -1    0    0    0    0  0.00000000000E+00  0.00000000000E+00  0.39999999674E+01  0.40000000000E+01  0.51100000000E-03 0.  1.
    9000002   -1    0    0    0    0 -0.00000000000E+00 -0.00000000000E+00  0.00000000000E+00  0.93800000000E+00  0.93800000000E+00 0.  1.
         11    1    1    2    0    0  0.18182916912E-01  0.25812966227E-01  0.17301210178E+00  0.17587033910E+00  0.51100000000E-03 0.  1.
    9000002    1    1    2    0    0 -0.72209170862E+00 -0.65372798239E+00  0.75536715224E+00  0.15489351973E+01  0.93800000000E+00 0.  1.
         22    1    1    2    0    0  0.70390879171E+00  0.62791501616E+00  0.30716207133E+01  0.32131944636E+01  0.00000000000E+00 0.  1.
</event>
<event>
 5    1  0.6076093E+001  0.1599673E+01  0.7818608E-02  0.3353718E+00
         11   -1    0    0    0    0  0.00000000000E+00  0.00000000000E+00  0.39999999674E+01  0.40000000000E+01  0.51100000000E-03 0. -1.
    9000002   -1    0    0    0    0 -0.00000000000E+00 -0.00000000000E+00  0.00000000000E+00  0.93800000000E+00  0.93800000000E+00 0. -1.
         11    1    1    2    0    0 -0.21292425525E+00  0.34218896687E-01  0.11861892400E+01  0.12056337942E+01  0.51100000000E-03 0. -1.
    9000002    1    1    2    0    0  0.66032662900E+00 -0.99661333275E-01  0.31607278200E+00  0.11940308379E+01  0.93800000000E+00 0. -1.
         22    1    1    2    0    0 -0.44740237375E+00  0.65442436587E-01  0.24977379454E+01  0.25383353680E+01  0.00000000000E+00 0. -1.
</event>
<event>
 5    1  0.6547415E+001  0.1594636E+01  0.7818608E-02  0.3359205E+00
         11   -1    0    0    0    0  0.00000000000E+00  0.00000000000E+00  0.39999999674E+01  0.40000000000E+01  0.51100000000E-03 0. -1.
    9000002   -1    0    0    0    0 -0.00000000000E+00 -0.00000000000E+00  0.00000000000E+00  0.93800000000E+00  0.93800000000E+00 0.  1.
         11    1    1    2    0    0 -0.52130712269E-02 -0.14173559639E-03  0.11082914762E+01  0.11083038633E+01  0.51100000000E-03 0. -1.
    9000002    1    1    2    0    0  0.10859880496E+00  0.25886591820E+00  0.56398087901E-01  0.98072932472E+00  0.93800000000E+00 0.  1.
         22    1    1    2    0    0 -0.10338573373E+00 -0.25872418260E+00  0.28353104033E+01  0.28489668120E+01  0.00000000000E+00 0. -1.
</event>
<event>
 5    1  0.6076093E+001  0.1599674E+01  0.7818608E-02  0.3353718E+00
         11   -1    0    0    0    0  0.00000000000E+00  0.00000000000E+00  0.39999999674E+01  0.40000000000E+01  0.51100000000E-03 0.  1.
    9000002   -1    0    0    0    0 -0.00000000000E+00 -0.00000000000E+00  0.00000000000E+00  0.93800000000E+00  0.93800000000E+00 0.  1.
         11    1    1    2    0    0  0.58268927772E-01 -0.82546280935E-01  0.10868734684E+01  0.10915600551E+01  0.51100000000E-03 0.  1.
    9000002    1    1    2    0    0 -0.20272020867E+00  0.29817141781E+00  0.87273499061E-01  0.10086933831E+01  0.93800000000E+00 0.  1.
         22    1    1    2    0    0  0.14445128090E+00 -0.21562513688E+00  0.28258529999E+01  0.28377465619E+01  0.00000000000E+00 0.  1.
</event>
<event>
 5    1  0.6076093E+001  0.1599628E+01  0.7818608E-02  0.3353767E+00
         11   -1    0    0    0    0  0.00000000000E+00  0.00000000000E+00  0.39999999674E+01  0.40000000000E+01  0.51100000000E-03 0. -1.
    9000002   -1    0    0    0    0 -0.00000000000E+00 -0.00000000000E+00  0.00000000000E+00  0.93800000000E+00  0.93800000000E+00 0. -1.
         11    1    1    2    0    0  0.21363115847E-01  0.10119345726E+00  0.11544730836E+01  0.11590965707E+01  0.51100000000E-03 0. -1.
    9000002    1    1    2    0    0 -0.69549132151E-01 -0.36823231920E+00  0.94468654798E-01  0.10144951697E+01  0.93800000000E+00 0. -1.
         22    1    1    2    0    0  0.48186016305E-01  0.26703886194E+00  0.27510582290E+01  0.27644082595E+01  0.00000000000E+00 0. -1.
</event>
<event>
 5    1  0.6076093E+001  0.1599609E+01  0.7818608E-02  0.3353788E+00
         11   -1    0    0    0    0  0.00000000000E+00  0.00000000000E+00  0.39999999674E+01  0.40000000000E+01  0.51100000000E-03 0. -1.
    9000002   -1    0    0    0    0 -0.00000000000E+00 -0.00000000000E+00  0.00000000000E+00  0.93800000000E+00  0.93800000000E+00 0.  1.
         11    1    1    2    0    0  0.79974366968E-02 -0.69845442674E-02  0.10400850591E+00  0.10455033848E+00  0.51100000000E-03 0. -1.
    9000002    1    1    2    0    0 -0.38066224963E+00  0.33719201721E+00  0.17734605909E+00  0.10816181532E+01  0.93800000000E+00 0.  1.
         22    1    1    2    0    0  0.37266481293E+00 -0.33020747294E+00  0.37186454024E+01  0.37518315083E+01  0.00000000000E+00 0. -1.
</event>
<event>
 5    1  0.6076093E+001  0.1599502E+01  0.7818608E-02  0.3353904E+00
         11   -1    0    0    0    0  0.00000000000E+00  0.00000000000E+00  0.39999999674E+01  0.40000000000E+01  0.51100000000E-03 0. -1.
    9000002   -1    0    0    0    0 -0.00000000000E+00 -0.00000000000E+00  0.00000000000E+00  0.93800000000E+00  0.93800000000E+00 0. -1.
         11    1    1    2    0    0 -0.37548060006E+00  0.20773474995E+00  0.99804890299E+00  0.10863891021E+01  0.51100000000E-03 0. -1.
    9000002    1    1    2    0    0  0.10436557834E+01 -0.53005301542E+00  0.12625837876E+01  0.19606466826E+01  0.93800000000E+00 0. -1.
         22    1    1    2    0    0 -0.66817518332E+00  0.32231826547E+00  0.17393672768E+01  0.18909642152E+01  0.00000000000E+00 0. -1.
</event>
<event>
 5    1  0.6076093E+001  0.1578891E+01  0.7818608E-02  0.3376598E+00
         11   -1    0    0    0    0  0.00000000000E+00  0.00000000000E+00  0.39999999674E+01  0.40000000000E+01  0.51100000000E-03 0. -1.
    9000002   -1    0    0    0    0 -0.00000000000E+00 -0.00000000000E+00  0.00000000000E+00  0.93800000000E+00  0.93800000000E+00 0.  1.
         11    1    1    2    0    0 -0.87078789437E-01 -0.14920756045E+00  0.14710993580E+01  0.14812086935E+01  0.51100000000E-03 0. -1.
    9000002    1    1    2    0    0 -0.14953624596E+00  0.16420887254E+00  0.48572508485E-01  0.96515746449E+00  0.93800000000E+00 0.  1.
         22    1    1    2    0    0  0.23661503540E+00 -0.15001312093E-01  0.24803281009E+01  0.24916338420E+01  0.00000000000E+00 0. -1.
</event>
<event>
 5    1  0.6076093E+001  0.1599668E+01  0.7818608E-02  0.3353724E+00
         11   -1    0    0    0    0  0.00000000000E+00  0.00000000000E+00  0.39999999674E+01  0.40000000000E+01  0.51100000000E-03 0. -1.
    9000002   -1    0    0    0    0 -0.00000000000E+00 -0.00000000000E+00  0.00000000000E+00  0.93800000000E+00  0.93800000000E+00 0.  1.
         11    1    1    2    0    0 -0.14084634609E-01  0.32514572729E-01  0.33051661551E+00  0.33241099354E+00  0.51100000000E-03 0. -1.
    9000002    1    1    2    0    0  0.14272981981E+00 -0.37843847755E+00  0.11041426463E+00  0.10274350552E+01  0.93800000000E+00 0.  1.
         22    1    1    2    0    0 -0.12864518520E+00  0.34592390482E+00  0.35590690872E+01  0.35781539513E+01  0.00000000000E+00 0. -1.
</event>
<event>
 5    1  0.6076093E+001  0.1563091E+01  0.7818608E-02  0.3394424E+00
         11   -1    0    0    0    0  0.00000000000E+00  0.00000000000E+00  0.39999999674E+01  0.40000000000E+01  0.51100000000E-03 0. -1.
    9000002   -1    0    0    0    0 -0.00000000000E+00 -0.00000000000E+00  0.00000000000E+00  0.93800000000E+00  0.93800000000E+00 0. -1.
         11    1    1    2    0    0  0.12874811804E+00  0.80587492475E-01  0.10398827199E+01  0.10509171015E+01  0.51100000000E-03 0. -1.
    9000002    1    1    2    0    0  0.11775752656E+00  0.16813696128E+00  0.55894134060E-01  0.96182380249E+00  0.93800000000E+00 0. -1.
         22    1    1    2    0    0 -0.24650564460E+00 -0.24872445376E+00  0.29042231134E+01  0.29252590960E+01  0.00000000000E+00 0. -1.
</event>
<event>
 5    1  0.6076093E+001  0.1599677E+01  0.7818608E-02  0.3353714E+00
         11   -1    0    0    0    0  0.00000000000E+00  0.00000000000E+00  0.39999999674E+01  0.40000000000E+01  0.51100000000E-03 0.  1.
    9000002   -1    0    0    0    0 -0.00000000000E+00 -0.00000000000E+00  0.00000000000E+00  0.93800000000E+00  0.93800000000E+00 0. -1.
         11    1    1    2    0    0 -0.21318949245E+00  0.20894118960E+00  0.13116606729E+01  0.13451989304E+01  0.51100000000E-03 0.  1.
    9000002    1    1    2    0    0  0.57175491586E+00 -0.56067946332E+00  0.47249664959E+00  0.13207430591E+01  0.93800000000E+00 0. -1.
         22    1    1    2    0    0 -0.35856542340E+00  0.35173827372E+00  0.22158426449E+01  0.22720580105E+01  0.00000000000E+00 0.  1.
</event>
<event>
 5    1  0.6076093E+001  0.1585291E+01  0.7818608E-02  0.3369484E+00
         11   -1    0    0    0    0  0.00000000000E+00  0.00000000000E+00  0.39999999674E+01  0.40000000000E+01  0.51100000000E-03 0. -1.
    9000002   -1    0    0    0    0 -0.00000000000E+00 -0.00000000000E+00  0.00000000000E+00  0.93800000000E+00  0.93800000000E+00 0.  1.
         11    1    1    2    0    0 -0.11878694222E-01  0.23840210778E+00  0.14319723985E+01  0.14517306498E+01  0.51100000000E-03 0. -1.
    9000002    1    1    2    0    0  0.32044483508E+00 -0.39973514869E+00  0.19327727532E+00  0.10861276106E+01  0.93800000000E+00 0.  1.
         22    1    1    2    0    0 -0.30856614086E+00  0.16133304091E+00  0.23747502935E+01  0.24001417396E+01  0.00000000000E+00 0. -1.
</event>
<event>
 5    1  0.6076093E+001  0.1599677E+01  0.7818608E-02  0.3353714E+00
         11   -1    0    0    0    0  0.00000000000E+00  0.00000000000E+00  0.39999999674E+01  0.40000000000E+01  0.51100000000E-03 0.  1.
    9000002   -1    0    0    0    0 -0.00000000000E+00 -0.00000000000E+00  0.00000000000E+00  0.93800000000E+00  0.93800000000E+00 0.  1.
         11    1    1    2    0    0  0.71395231280E-01  0.11247032170E+00  0.10147850415E+01  0.10234919609E+01  0.51100000000E-03 0. -1.
    9000002    1    1    2    0    0 -0.26953711037E+00 -0.42287541271E+00  0.17219074082E+00  0.10774820276E+01  0.93800000000E+00 0.  1.
         22    1    1    2    0    0  0.19814187909E+00  0.31040509101E+00  0.28130241850E+01  0.28370260116E+01  0.00000000000E+00 0.  1.
</event>
<event>
 5    1  0.6076093E+001  0.1599527E+01  0.7818608E-02  0.3353877E+00
         11   -1    0    0    0    0  0.00000000000E+00  0.00000000000E+00  0.39999999674E+01  0.40000000000E+01  0.51100000000E-03 0.  1.
    9000002   -1    0    0    0    0 -0.00000000000E+00 -0.00000000000E+00  0.00000000000E+00  0.93800000000E+00  0.93800000000E+00 0.  1.
         11    1    1    2    0    0  0.53015725029E-01  0.69425599691E-01  0.94944884908E+00  0.95345894465E+00  0.51100000000E-03 0.  1.
    9000002    1    1    2    0    0 -0.26940083792E+00 -0.28867255819E+00  0.10521912491E+00  0.10231440375E+01  0.93800000000E+00 0.  1.
         22    1    1    2    0    0  0.21638511289E+00  0.21924695850E+00  0.29453319934E+01  0.29613970178E+01  0.00000000000E+00 0.  1.
</event>
<event>
 5    1  0.6076093E+001  0.1583754E+01  0.7818608E-02  0.3371187E+00
         11   -1    0    0    0    0  0.00000000000E+00  0.00000000000E+00  0.39999999674E+01  0.40000000000E+01  0.51100000000E-03 0.  1.
    9000002   -1    0    0    0    0 -0.00000000000E+00 -0.00000000000E+00  0.00000000000E+00  0.93800000000E+00  0.93800000000E+00 0.  1.
         11    1    1    2    0    0 -0.42035080648E-02  0.64762233054E-01  0.10277034419E+00  0.12154760827E+00  0.51100000000E-03 0.  1.
    9000002    1    1    2    0    0  0.16554077754E+00 -0.46677150115E+00  0.18219898538E+00  0.10762526904E+01  0.93800000000E+00 0.  1.
         22    1    1    2    0    0 -0.16133726948E+00  0.40200926809E+00  0.37150306378E+01  0.37401997013E+01  0.00000000000E+00 0.  1.
</event>
<event>
 5    1  0.6076093E+001  0.1543845E+01  0.7818608E-02  0.3416662E+00
         11   -1    0    0    0    0  0.00000000000E+00  0.00000000000E+00  0.39999999674E+01  0.40000000000E+01  0.51100000000E-03 0.  1.
    9000002   -1    0    0    0    0 -0.00000000000E+00 -0.00000000000E+00  0.00000000000E+00  0.93800000000E+00  0.93800000000E+00 0.  1.
         11    1    1    2    0    0 -0.48117677243E-01  0.18595263480E-01  0.10320276430E-01  0.52610492430E-01  0.51100000000E-03 0.  1.
    9000002    1    1    2    0    0 -0.80615783051E-01 -0.41244149361E+00  0.16819703351E+00  0.10415090649E+01  0.93800000000E+00 0.  1.
         22    1    1    2    0    0  0.12873346029E+00  0.39384623013E+00  0.38214826574E+01  0.38438804427E+01  0.00000000000E+00 0.  1.
</event>
<event>
 5    1  0.6076093E+001  0.1597031E+01  0.7818608E-02  0.3356592E+00
         11   -1    0    0    0    0  0.00000000000E+00  0.00000000000E+00  0.39999999674E+01  0.40000000000E+01  0.51100000000E-03 0.  1.
    9000002   -1    0    0    0    0 -0.00000000000E+00 -0.00000000000E+00  0.00000000000E+00  0.93800000000E+00  0.93800000000E+00 0. -1.
         11    1    1    2    0    0 -0.10746343608E+00  0.11400289217E+00  0.12465321052E+01  0.12563389669E+01  0.51100000000E-03 0.  1.
    9000002    1    1    2    0    0  0.15622923208E+00 -0.37892446389E+00  0.11567927313E+00  0.10301538800E+01  0.93800000000E+00 0. -1.
         22    1    1    2    0    0 -0.48765796001E-01  0.26492157172E+00  0.26377885891E+01  0.26515071531E+01  0.00000000000E+00 0.  1.
</event>
<event>
 5    1  0.6076093E+001  0.1599666E+01  0.7818608E-02  0.3353725E+00
         11   -1    0    0    0    0  0.00000000000E+00  0.00000000000E+00  0.39999999674E+01  0.40000000000E+01  0.51100000000E-03 0.  1.
    9000002   -1    0    0    0    0 -0.00000000000E+00 -0.00000000000E+00  0.00000000000E+00  0.93800000000E+00  0.93800000000E+00 0. -1.
         11    1    1    2    0    0 -0.16596970857E-02 -0.11212803877E-02  0.20827539874E-01  0.20929868665E-01  0.51100000000E-03 0.  1.
    9000002    1    1    2    0    0  0.27638701201E+00  0.24466157711E+00  0.91563787261E-01  0.10121645098E+01  0.93800000000E+00 0. -1.
         22    1    1    2    0    0 -0.27472731493E+00 -0.24354029672E+00  0.38876086402E+01  0.39049056216E+01  0.00000000000E+00 0.  1.
</event>
<event>
 5    1  0.6076093E+001  0.1598536E+01  0.7818608E-02  0.3354954E+00
         11   -1    0    0    0    0  0.00000000000E+00  0.00000000000E+00  0.39999999674E+01  0.40000000000E+01  0.51100000000E-03 0.  1.
    9000002   -1    0    0    0    0 -0.00000000000E+00 -0.00000000000E+00  0.00000000000E+00  0.93800000000E+00  0.93800000000E+00 0.  1.
         11    1    1    2    0    0  0.63285464797E-02 -0.11894333279E+00  0.13604978928E+01  0.13657021434E+01  0.51100000000E-03 0.  1.
    9000002    1    1    2    0    0  0.61001724440E-01  0.41698306162E+00  0.12109708650E+00  0.10354248348E+01  0.93800000000E+00 0.  1.
         22    1    1    2    0    0 -0.67330270920E-01 -0.29803972882E+00  0.25184049881E+01  0.25368730219E+01  0.00000000000E+00 0.  1.
</event>
<event>
 5    1  0.6076093E+001  0.1599591E+01  0.7818608E-02  0.3353808E+00
         11   -1    0    0    0    0  0.00000000000E+00  0.00000000000E+00  0.39999999674E+01  0.40000000000E+01  0.51100000000E-03 0. -1.
    9000002   -1    0    0    0    0 -0.00000000000E+00 -0.00000000000E+00  0.00000000000E+00  0.93800000000E+00  0.93800000000E+00 0. -1.
         11    1    1    2    0    0 -0.12704141481E-01 -0.18142954308E+00  0.12868561973E+01  0.12996450316E+01  0.51100000000E-03 0. -1.
    9000002    1    1    2    0    0  0.19078616407E-01  0.51300291077E+00  0.18089557001E+00  0.10844829124E+01  0.93800000000E+00 0. -1.
         22    1    1    2    0    0 -0.63744749265E-02 -0.33157336770E+00  0.25322482000E+01  0.25538720560E+01  0.00000000000E+00 0. -1.
</event>
<event>
 5    1  0.6076093E+001  0.1586186E+01  0.7818608E-02  0.3368495E+00
         11   -1    0    0    0    0  0.00000000000E+00  0.00000000000E+00  0.39999999674E+01  0.40000000000E+01  0.51100000000E-03 0.  1.
    9000002   -1    0    0    0    0 -0.00000000000E+00 -0.00000000000E+00  0.00000000000E+00  0.93800000000E+00  0.93800000000E+00 0. -1.
         11    1    1    2    0    0  0.12969597969E-01  0.46754591115E-02  0.72547308843E-02  0.15587258597E-01  0.51100000000E-03 0.  1.
    9000002    1    1    2    0    0  0.44948396359E+00  0.14068858328E+00  0.16309314200E+00  0.10622017153E+01  0.93800000000E+00 0. -1.
         22    1    1    2    0    0 -0.46245356156E+00 -0.14536404240E+00  0.38296520945E+01  0.38602110261E+01  0.00000000000E+00 0.  1.
</event>
<event>
 5    1  0.6076093E+001  0.1599677E+01  0.7818608E-02  0.3353714E+00
         11   -1    0    0    0    0  0.00000000000E+00  0.00000000000E+00  0.39999999674E+01  0.40000000000E+01  0.51100000000E-03 0.  1.
    9000002   -1    0    0    0    0 -0.00000000000E+00 -0.00000000000E+00  0.00000000000E+00  0.93800000000E+00  0.93800000000E+00 0. -1.
         11    1    1    2    0    0 -0.74054454135E-01 -0.99472515333E-01  0.13708167811E+01  0.13764148183E+01  0.51100000000E-03 0.  1.
    9000002    1    1    2    0    0  0.21125469552E+00  0.28452433101E+00  0.84245420127E-01  0.10062424818E+01  0.93800000000E+00 0. -1.
         22    1    1    2    0    0 -0.13720024139E+00 -0.18505181568E+00  0.25449377661E+01  0.25553426999E+01  0.00000000000E+00 0. -1.
</event>
<event>
 5    1  0.6076093E+001  0.1578195E+01  0.7818608E-02  0.3377375E+00
         11   -1    0    0    0    0  0.00000000000E+00  0.00000000000E+00  0.39999999674E+01  0.40000000000E+01  0.51100000000E-03 0. -1.
    9000002   -1    0    0    0    0 -0.00000000000E+00 -0.00000000000E+00  0.00000000000E+00  0.93800000000E+00  0.93800000000E+00 0.  1.
         11    1    1    2    0    0 -0.55695892636E-01 -0.62960636824E-02  0.10973651660E+01  0.10987958143E+01  0.51100000000E-03 0. -1.
    9000002    1    1    2    0    0  0.25255658206E+00 -0.52546086738E+00  0.25758331788E+00  0.11340578098E+01  0.93800000000E+00 0.  1.
         22    1    1    2    0    0 -0.19686068943E+00  0.53175693106E+00  0.26450514835E+01  0.27051463759E+01  0.00000000000E+00 0. -1.
</event>
<event>
 5    1  0.6076093E+001  0.1591199E+01  0.7818608E-02  0.3362972E+00
         11   -1    0    0    0    0  0.00000000000E+00  0.00000000000E+00  0.39999999674E+01  0.40000000000E+01  0.51100000000E-03 0. -1.
    9000002   -1    0    0    0    0 -0.00000000000E+00 -0.00000000000E+00  0.00000000000E+00  0.93800000000E+00  0.93800000000E+00 0.  1.
         11    1    1    2    0    0 -0.12531043154E+00  0.30306464994E-02  0.10886729554E+01  0.10958653905E+01  0.51100000000E-03 0. -1.
    9000002    1    1    2    0    0  0.23067468523E+00  0.27042538868E+00  0.91645550569E-01  0.10072654110E+01  0.93800000000E+00 0.  1.
         22    1    1    2    0    0 -0.10536425369E+00 -0.27345603518E+00  0.28196814614E+01  0.28348691985E+01  0.00000000000E+00 0.  1.
</event>
<event>
 5    1  0.6076093E+001  0.1595387E+01  0.7818608E-02  0.3358385E+00
         11   -1    0    0    0    0  0.00000000000E+00  0.00000000000E+00  0.39999999674E+01  0.40000000000E+01  0.51100000000E-03 0. -1.
    9000002   -1    0    0    0    0 -0.00000000000E+00 -0.00000000000E+00  0.00000000000E+00  0.93800000000E+00  0.93800000000E+00 0. -1.
         11    1    1    2    0    0  0.13384756958E+00 -0.11818551945E-01  0.50368309517E+00  0.52129815992E+00  0.51100000000E-03 0. -1.
    9000002    1    1    2    0    0 -0.58858483390E+00  0.74032494421E-01  0.24942138522E+00  0.11375271181E+01  0.93800000000E+00 0. -1.
         22    1    1    2    0    0  0.45473726432E+00 -0.62213942476E-01  0.32468954870E+01  0.32791747220E+01  0.00000000000E+00 0. -1.
</event>
<event>
 5    1  0.6164719E+001  0.1599668E+01  0.7818608E-02  0.3353724E+00
         11   -1    0    0    0    0  0.00000000000E+00  0.00000000000E+00  0.39999999674E+01  0.40000000000E+01  0.51100000000E-03 0.  1.
    9000002   -1    0    0    0    0 -0.00000000000E+00 -0.00000000000E+00  0.00000000000E+00  0.93800000000E+00  0.93800000000E+00 0.  1.
         11    1    1    2    0    0  0.98825616799E-01  0.70019577457E-01  0.13522076089E+01  0.13576210526E+01  0.51100000000E-03 0.  1.
    9000002    1    1    2    0    0 -0.28277093475E+00 -0.21233771356E+00  0.83886359531E-01  0.10059461355E+01  0.93800000000E+00 0.  1.
         22    1    1    2    0    0  0.18394531795E+00  0.14231813610E+00  0.25639059990E+01  0.25744328120E+01  0.00000000000E+00 0.  1.
</event>
<event>
 5    1  0.6076093E+001  0.1587071E+01  0.7818608E-02  0.3367517E+00
         11   -1    0    0    0    0  0.00000000000E+00  0.00000000000E+00  0.39999999674E+01  0.40000000000E+01  0.51100000000E-03 0. -1.
    9000002   -1    0    0    0    0 -0.00000000000E+00 -0.00000000000E+00  0.00000000000E+00  0.93800000000E+00  0.93800000000E+00 0. -1.
         11    1    1    2    0    0 -0.56205252934E-01  0.12168320660E+00  0.40976961542E+00  0.43113481890E+00  0.51100000000E-03 0. -1.
    9000002    1    1    2    0    0  0.12996911874E-02 -0.52992699435E+00  0.20501028717E+00  0.10966756706E+01  0.93800000000E+00 0. -1.
         22    1    1    2    0    0  0.54905561746E-01  0.40824378775E+00  0.33852200648E+01  0.34101895105E+01  0.00000000000E+00 0. -1.
</event>
<event>
 5    1  0.6076093E+001  0.1599674E+01  0.7818608E-02  0.3353717E+00
         11   -1    0    0    0    0  0.00000000000E+00  0.00000000000E+00  0.39999999674E+01  0.40000000000E+01  0.51100000000E-03 0. -1.
    9000002   -1    0    0    0    0 -0.00000000000E+00 -0.00000000000E+00  0.00000000000E+00  0.93800000000E+00  0.93800000000E+00 0.  1.
         11    1    1    2    0    0  0.11450741784E+00 -0.14314713015E+00  0.13769814235E+01  0.13891296381E+01  0.51100000000E-03 0. -1.
    9000002    1    1    2    0    0 -0.31320084550E+00  0.39505124953E+00  0.17411139705E+00  0.10790361616E+01  0.93800000000E+00 0.  1.
         22    1    1    2    0    0  0.19869342766E+00 -0.25190411938E+00  0.24489071468E+01  0.24698342004E+01  0.00000000000E+00 0. -1.
</event>
<event>
 5    1  0.6076093E+001  0.1599254E+01  0.7818608E-02  0.3354173E+00
         11   -1    0    0    0    0  0.00000000000E+00  0.00000000000E+00  0.39999999674E+01  0.40000000000E+01  0.51100000000E-03 0.  1.
    9000002   -1    0    0    0    0 -0.00000000000E+00 -0.00000000000E+00  0.00000000000E+00  0.93800000000E+00  0.93800000000E+00 0.  1.
         11    1    1    2    0    0  0.33490005713E-01 -0.92787321911E-01  0.12808347551E+01  0.12846279611E+01  0.51100000000E-03 0.  1.
    9000002    1    1    2    0    0 -0.10209748911E+00  0.35424554003E+00  0.91669391365E-01  0.10120084373E+01  0.93800000000E+00 0.  1.
         22    1    1    2    0    0  0.68607483392E-01 -0.26145821811E+00  0.26274958209E+01  0.26413636016E+01  0.00000000000E+00 0.  1.
</event>
<event>
 5    1  0.6076093E+001  0.1599194E+01  0.7818608E-02  0.3354239E+00
         11   -1    0    0    0    0  0.00000000000E+00  0.00000000000E+00  0.39999999674E+01  0.40000000000E+01  0.51100000000E-03 0.  1.
    9000002   -1    0    0    0    0 -0.00000000000E+00 -0.00000000000E+00  0.00000000000E+00  0.93800000000E+00  0.93800000000E+00 0. -1.
         11    1    1    2    0    0  0.22883280605E-02 -0.14241121060E+00  0.10692770442E+01  0.10787213949E+01  0.51100000000E-03 0.  1.
    9000002    1    1    2    0    0  0.19395576876E-01  0.43407451126E+00  0.12835341238E+00  0.10416887578E+01  0.93800000000E+00 0. -1.
         22    1    1    2    0    0 -0.21683904936E-01 -0.29166330066E+00  0.28023695108E+01  0.28175898473E+01  0.00000000000E+00 0.  1.
</event>
<event>
 5    1  0.6076093E+001  0.1597127E+01  0.7818608E-02  0.3356487E+00
         11   -1    0    0    0    0  0.00000000000E+00  0.00000000000E+00  0.39999999674E+01  0.40000000000E+01  0.51100000000E-03 0. -1.
    9000002   -1    0    0    0    0 -0.00000000000E+00 -0.00000000000E+00  0.00000000000E+00  0.93800000000E+00  0.93800000000E+00 0. -1.
         11    1    1    2    0    0 -0.17975760022E-01  0.63270676796E-01  0.38467881149E+00  0.39026190645E+00  0.51100000000E-03 0. -1.
    9000002    1    1    2    0    0 -0.84356462705E-01 -0.38543344706E+00  0.10704963140E+00  0.10232197117E+01  0.93800000000E+00 0. -1.
         22    1    1    2    0    0  0.10233222273E+00  0.32216277026E+00  0.35082715245E+01  0.35245183818E+01  0.00000000000E+00 0. -1.
</event>
<event>
 5    1  0.6076093E+001  0.1595750E+01  0.7818608E-02  0.3357990E+00
         11   -1    0    0    0    0  0.00000000000E+00  0.00000000000E+00  0.39999999674E+01  0.40000000000E+01  0.51100000000E-03 0.  1.
    9000002   -1    0    0    0    0 -0.00000000000E+00 -0.00000000000E+00  0.00000000000E+00  0.93800000000E+00  0.93800000000E+00 0. -1.
         11    1    1    2    0    0  0.12795048160E+00  0.63223443936E-01  0.59214480445E+00  0.60910119041E+00  0.51100000000E-03 0.  1.
    9000002    1    1    2    0    0 -0.51980309760E+00 -0.20759683253E+00  0.22054770987E+00  0.11143504823E+01  0.93800000000E+00 0. -1.
         22    1    1    2    0    0  0.39185261600E+00  0.14437338860E+00  0.31873074530E+01  0.32145483273E+01  0.00000000000E+00 0.  1.
</event>
<event>
 5    1  0.6076093E+001  0.1597222E+01  0.7818608E-02  0.3356385E+00
         11   -1    0    0    0    0  0.00000000000E+00  0.00000000000E+00  0.39999999674E+01  0.40000000000E+01  0.51100000000E-03 0. -1.
    9000002   -1    0    0    0    0 -0.00000000000E+00 -0.00000000000E+00  0.00000000000E+00  0.93800000000E+00  0.93800000000E+00 0. -1.
         11    1    1    2    0    0 -0.64402079997E-03  0.82705436193E-01  0.35998090287E+00  0.36936041409E+00  0.51100000000E-03 0. -1.
    9000002    1    1    2    0    0 -0.59793688651E-01 -0.50820404799E+00  0.18184488709E+00  0.10838626309E+01  0.93800000000E+00 0. -1.
         22    1    1    2    0    0  0.60437709451E-01  0.42549861179E+00  0.34581741774E+01  0.34847769551E+01  0.00000000000E+00 0. -1.
</event>
<event>
 5    1  0.6076093E+001  0.1599677E+01  0.7818608E-02  0.3353714E+00
         11   -1    0    0    0    0  0.00000000000E+00  0.00000000000E+00  0.39999999674E+01  0.40000000000E+01  0.51100000000E-03 0. -1.
    9000002   -1    0    0    0    0 -0.00000000000E+00 -0.00000000000E+00  0.00000000000E+00  0.93800000000E+00  0.93800000000E+00 0. -1.
         11    1    1    2    0    0  0.12534660780E-01 -0.21673852418E+00  0.12703839195E+01  0.12888010978E+01  0.51100000000E-03 0. -1.
    9000002    1    1    2    0    0 -0.35337743496E-01  0.63353994035E+00  0.28307523746E+00  0.11673033891E+01  0.93800000000E+00 0. -1.
         22    1    1    2    0    0  0.22803082716E-01 -0.41680141618E+00  0.24465408104E+01  0.24818955131E+01  0.00000000000E+00 0. -1.
</event>
<event>
 5    1  0.6076093E+001  0.1599579E+01  0.7818608E-02  0.3353820E+00
         11   -1    0    0    0    0  0.00000000000E+00  0.00000000000E+00  0.39999999674E+01  0.40000000000E+01  0.51100000000E-03 0.  1.
    9000002   -1    0    0    0    0 -0.00000000000E+00 -0.00000000000E+00  0.00000000000E+00  0.93800000000E+00  0.93800000000E+00 0.  1.
         11    1    1    2    0    0 -0.20839256627E+00 -0.16187934075E+00  0.11827418134E+01  0.12118212908E+01  0.51100000000E-03 0.  1.
    9000002    1    1    2    0    0  0.59548516836E+00  0.49977044945E+00  0.44200916886E+00  0.12959896578E+01  0.93800000000E+00 0.  1.
         22    1    1    2    0    0 -0.38709260209E+00 -0.33789110870E+00  0.23752489851E+01  0.24301890513E+01  0.00000000000E+00 0.  1.
</event>
<event>
 5    1  0.6076093E+001  0.1577641E+01  0.7818608E-02  0.3377994E+00
         11   -1    0    0    0    0  0.00000000000E+00  0.00000000000E+00  0.39999999674E+01  0.40000000000E+01  0.51100000000E-03 0. -1.
    9000002   -1    0    0    0    0 -0.00000000000E+00 -0.00000000000E+00  0.00000000000E+00  0.93800000000E+00  0.93800000000E+00 0. -1.
         11    1    1    2    0    0  0.71256068554E-01  0.10749435015E+00  0.84881807894E+00  0.85855975615E+00  0.51100000000E-03 0. -1.
    9000002    1    1    2    0    0 -0.30553658722E+00  0.18320012995E+00  0.10318828939E+00  0.10086658103E+01  0.93800000000E+00 0. -1.
         22    1    1    2    0    0  0.23428051867E+00 -0.29069448010E+00  0.30479935990E+01  0.30707744336E+01  0.00000000000E+00 0. -1.
</event>
<event>
 5    1  0.6076093E+001  0.1472948E+01  0.7818608E-02  0.3503965E+00
         11   -1    0    0    0    0  0.00000000000E+00  0.00000000000E+00  0.39999999674E+01  0.40000000000E+01  0.51100000000E-03 0.  1.
    9000002   -1    0    0    0    0 -0.00000000000E+00 -0.00000000000E+00  0.00000000000E+00  0.93800000000E+00  0.93800000000E+00 0. -1.
         11    1    1    2    0    0 -0.31074665456E+00  0.26582479893E+00  0.67552237413E+00  0.78965628354E+00  0.51100000000E-03 0.  1.
    9000002    1    1    2    0    0  0.42788153483E+00  0.34926222295E+00  0.40334880586E+00  0.11608621656E+01  0.93800000000E+00 0. -1.
         22    1    1    2    0    0 -0.11713488026E+00 -0.61508702188E+00  0.29211287874E+01  0.29874815509E+01  0.00000000000E+00 0.  1.
</event>
<event>
 5    1  0.6076093E+001  0.1599672E+01  0.7818608E-02  0.3353720E+00
         11   -1    0    0    0    0  0.00000000000E+00  0.00000000000E+00  0.39999999674E+01  0.40000000000E+01  0.51100000000E-03 0.  1.
    9000002   -1    0    0    0    0 -0.00000000000E+00 -0.00000000000E+00  0.00000000000E+00  0.93800000000E+00  0.93800000000E+00 0. -1.
         11    1    1    2    0    0  0.55304846471E-01 -0.94719111856E-01  0.10248324632E+01  0.10306852938E+01  0.51100000000E-03 0.  1.
    9000002    1    1    2    0    0 -0.20056429726E+00  0.35943752120E+00  0.11445573063E+00  0.10307111541E+01  0.93800000000E+00 0. -1.
         22    1    1    2    0    0  0.14525945079E+00 -0.26471840934E+00  0.28607117735E+01  0.28766035520E+01  0.00000000000E+00 0.  1.
</event>
<event>
 5    1  0.6076093E+001  0.1598935E+01  0.7818608E-02  0.3354520E+00
         11   -1    0    0    0    0  0.00000000000E+00  0.00000000000E+00  0.39999999674E+01  0.40000000000E+01  0.51100000000E-03 0.  1.
    9000002   -1    0    0    0    0 -0.00000000000E+00 -0.00000000000E+00  0.00000000000E+00  0.93800000000E+00  0.93800000000E+00 0. -1.
         11    1    1    2    0    0  0.32706875133E-01  0.76642701442E-01  0.75549113095E+00  0.76007299217E+00  0.51100000000E-03 0.  1.
    9000002    1    1    2    0    0 -0.14145638995E+00 -0.51611123796E+00  0.19794642615E+00  0.10979105190E+01  0.93800000000E+00 0. -1.
         22    1    1    2    0    0  0.10874951482E+00  0.43946853652E+00  0.30465624103E+01  0.30800164888E+01  0.00000000000E+00 0.  1.
</event>
<event>
 5    1  0.6076093E+001  0.1594408E+01  0.7818608E-02  0.3359455E+00
         11   -1    0    0    0    0  0.00000000000E+00  0.00000000000E+00  0.39999999674E+01  0.40000000000E+01  0.51100000000E-03 0. -1.
    9000002   -1    0    0    0    0 -0.00000000000E+00 -0.00000000000E+00  0.00000000000E+00  0.93800000000E+00  0.93800000000E+00 0. -1.
         11    1    1    2    0    0 -0.13558756370E+00 -0.41782237772E-01  0.89320264029E+00  0.90440088488E+00  0.51100000000E-03 0. -1.
    9000002    1    1    2    0    0  0.50067440304E+00 -0.12778651419E+00  0.18813752671E+00  0.10873104341E+01  0.93800000000E+00 0. -1.
         22    1    1    2    0    0 -0.36508683934E+00  0.16956875196E+00  0.29186598004E+01  0.29462886811E+01  0.00000000000E+00 0. -1.
</event>
<event>
 5    1  0.6076093E+001  0.1599674E+01  0.7818608E-02  0.3353718E+00
         11   -1    0    0    0    0  0.00000000000E+00  0.00000000000E+00  0.39999999674E+01  0.40000000000E+01  0.51100000000E-03 0. -1.
    9000002   -1    0    0    0    0 -0.00000000000E+00 -0.00000000000E+00  0.00000000000E+00  0.93800000000E+00  0.93800000000E+00 0. -1.
         11    1    1    2    0    0 -0.11146607893E+00  0.90581564946E-01  0.89796272456E+00  0.90937727181E+00  0.51100000000E-03 0. -1.
    9000002    1    1    2    0    0  0.45858793623E+00 -0.38157599533E+00  0.24813556645E+00  0.11389988564E+01  0.93800000000E+00 0. -1.
         22    1    1    2    0    0 -0.34712185730E+00  0.29099443039E+00  0.28539016764E+01  0.28896238718E+01  0.00000000000E+00 0. -1.
</event>
<event>
 5    1  0.6076093E+001  0.1598812E+01  0.7818608E-02  0.3354654E+00
         11   -1    0    0    0    0  0.00000000000E+00  0.00000000000E+00  0.39999999674E+01  0.40000000000E+01  0.51100000000E-03 0.  1.
    9000002   -1    0    0    0    0 -0.00000000000E+00 -0.00000000000E+00  0.00000000000E+00  0.93800000000E+00  0.93800000000E+00 0.  1.
         11    1    1    2    0    0 -0.21767316661E-01  0.42099703746E-01  0.51615565470E+00  0.51832723460E+00  0.51100000000E-03 0.  1.
    9000002    1    1    2    0    0  0.34229528920E+00 -0.29597767493E+00  0.13987678937E+00  0.10507989176E+01  0.93800000000E+00 0.  1.
         22    1    1    2    0    0 -0.32052797254E+00  0.25387797119E+00  0.33439675233E+01  0.33688738478E+01  0.00000000000E+00 0.  1.
</event>
<event>
 5    1  0.6076093E+001  0.1597452E+01  0.7818608E-02  0.3356134E+00
         11   -1    0    0    0    0  0.00000000000E+00  0.00000000000E+00  0.39999999674E+01  0.40000000000E+01  0.51100000000E-03 0. -1.
    9000002   -1    0    0    0    0 -0.00000000000E+00 -0.00000000000E+00  0.00000000000E+00  0.93800000000E+00  0.93800000000E+00 0.  1.
         11    1    1    2    0    0 -0.29439948068E-02 -0.81821913509E-01  0.35625537124E+00  0.36554294316E+00  0.51100000000E-03 0. -1.
    9000002    1    1    2    0    0 -0.13796349901E+00  0.55357520487E+00  0.22785501722E+00  0.11212677394E+01  0.93800000000E+00 0.  1.
         22    1    1    2    0    0  0.14090749382E+00 -0.47175329136E+00  0.34158895789E+01  0.34511893175E+01  0.00000000000E+00 0. -1.
</event>
<event>
 5    1  0.6076093E+001  0.1599668E+01  0.7818608E-02  0.3353723E+00
         11   -1    0    0    0    0  0.00000000000E+00  0.00000000000E+00  0.39999999674E+01  0.40000000000E+01  0.51100000000E-03 0.  1.
    9000002   -1    0    0    0    0 -0.00000000000E+00 -0.00000000000E+00  0.00000000000E+00  0.93800000000E+00  0.93800000000E+00 0.  1.
         11    1    1    2    0    0  0.69786892703E-02 -0.11079724838E+00  0.79787510896E+00  0.80556171891E+00  0.51100000000E-03 0.  1.
    9000002    1    1    2    0    0 -0.44076195945E-01  0.52076100467E+00  0.18771608793E+00  0.10900532394E+01  0.93800000000E+00 0.  1.
         22    1    1    2    0    0  0.37097506674E-01 -0.40996375629E+00  0.30144087705E+01  0.30423850417E+01  0.00000000000E+00 0.  1.
</event>
<event>
 5    1  0.6076093E+001  0.1599668E+01  0.7818608E-02  0.3353724E+00
         11   -1    0    0    0    0  0.00000000000E+00  0.00000000000E+00  0.39999999674E+01  0.40000000000E+01  0.51100000000E-03 0. -1.
    9000002   -1    0    0    0    0 -0.00000000000E+00 -0.00000000000E+00  0.00000000000E+00  0.93800000000E+00  0.93800000000E+00 0.  1.
         11    1    1    2    0    0 -0.51165700456E-01  0.65929480108E-01  0.53626299400E+00  0.54271805305E+00  0.51100000000E-03 0. -1.
    9000002    1    1    2    0    0  0.34254970688E+00 -0.45981674398E+00  0.22813108443E+00  0.11227909562E+01  0.93800000000E+00 0.  1.
         22    1    1    2    0    0 -0.29138400642E+00  0.39388726387E+00  0.32356058889E+01  0.32724909907E+01  0.00000000000E+00 0. -1.
</event>
<event>
 5    1  0.6076093E+001  0.1594570E+01  0.7818608E-02  0.3359279E+00
         11   -1    0    0    0    0  0.00000000000E+00  0.00000000000E+00  0.39999999674E+01  0.40000000000E+01  0.51100000000E-03 0.  1.
    9000002   -1    0    0    0    0 -0.00000000000E+00 -0.00000000000E+00  0.00000000000E+00  0.93800000000E+00  0.93800000000E+00 0. -1.
         11    1    1    2    0    0  0.99154480911E-01 -0.12752690810E-01  0.11933013114E+01  0.11974817423E+01  0.51100000000E-03 0.  1.
    9000002    1    1    2    0    0 -0.56513785215E+00  0.79055673888E-01  0.23075682235E+00  0.11219283857E+01  0.93800000000E+00 0. -1.
         22    1    1    2    0    0  0.46598337123E+00 -0.66302983078E-01  0.25759418336E+01  0.26185898720E+01  0.00000000000E+00 0.  1.
</event>
<event>
 5    1  0.6076093E+001  0.1599658E+01  0.7818608E-02  0.3353735E+00
         11   -1    0    0    0    0  0.00000000000E+00  0.00000000000E+00  0.39999999674E+01  0.40000000000E+01  0.51100000000E-03 0. -1.
    9000002   -1    0    0    0    0 -0.00000000000E+00 -0.00000000000E+00  0.00000000000E+00  0.93800000000E+00  0.93800000000E+00 0. -1.
         11    1    1    2    0    0  0.64257545378E-01  0.31396577681E-01  0.32351554505E+00  0.33132664583E+00  0.51100000000E-03 0. -1.
    9000002    1    1    2    0    0 -0.71121565486E+00 -0.31284853952E+00  0.44135838585E+00  0.12955088348E+01  0.93800000000E+00 0. -1.
         22    1    1    2    0    0  0.64695810948E+00  0.28145196184E+00  0.32351260365E+01  0.33111645193E+01  0.00000000000E+00 0. -1.
</event>
<event>
 5    1  0.6076093E+001  0.1599677E+01  0.7818608E-02  0.3353714E+00
         11   -1    0    0    0    0  0.00000000000E+00  0.00000000000E+00  0.39999999674E+01  0.40000000000E+01  0.51100000000E-03 0. -1.
    9000002   -1    0    0    0    0 -0.00000000000E+00 -0.00000000000E+00  0.00000000000E+00  0.93800000000E+00  0.93800000000E+00 0.  1.
         11    1    1    2    0    0  0.14036654928E+00 -0.36446342946E-01  0.13511831578E+01  0.13589434466E+01  0.51100000000E-03 0. -1.
    9000002    1    1    2    0    0 -0.40288936639E+00  0.10401006853E+00  0.11703229993E+00  0.10328012854E+01  0.93800000000E+00 0.  1.
         22    1    1    2    0    0  0.26252281711E+00 -0.67563725587E-01  0.25317845096E+01  0.25462552680E+01  0.00000000000E+00 0. -1.
</event>
<event>
 5    1  0.6076093E+001  0.1599676E+01  0.7818608E-02  0.3353715E+00
         11   -1    0    0    0    0  0.00000000000E+00  0.00000000000E+00  0.39999999674E+01  0.40000000000E+01  0.51100000000E-03 0.  1.
    9000002   -1    0    0    0    0 -0.00000000000E+00 -0.00000000000E+00  0.00000000000E+00  0.93800000000E+00  0.93800000000E+00 0. -1.
         11    1    1    2    0    0 -0.12557761487E+00  0.15060722213E-01  0.13025113017E+01  0.13086376561E+01  0.51100000000E-03 0.  1.
    9000002    1    1    2    0    0  0.37747598147E+00 -0.48819002147E-01  0.97483715734E-01  0.10169653320E+01  0.93800000000E+00 0. -1.
         22    1    1    2    0    0 -0.25189836660E+00  0.33758279934E-01  0.26000049499E+01  0.26123970119E+01  0.00000000000E+00 0.  1.
</event>
<event>
 5    1  0.6076093E+001  0.1539125E+01  0.7818608E-02  0.3422206E+00
         11   -1    0    0    0    0  0.00000000000E+00  0.00000000000E+00  0.39999999674E+01  0.40000000000E+01  0.51100000000E-03 0.  1.
    9000002   -1    0    0    0    0 -0.00000000000E+00 -0.00000000000E+00  0.00000000000E+00  0.93800000000E+00  0.93800000000E+00 0.  1.
         11    1    1    2    0    0 -0.15548416248E+00 -0.14401700130E+00  0.91257944574E+00  0.93686590682E+00  0.51100000000E-03 0.  1.
    9000002    1    1    2    0    0 -0.27003807812E-01 -0.20302971587E+00  0.74697545986E-01  0.96300259321E+00  0.93800000000E+00 0.  1.
         22    1    1    2    0    0  0.18248797029E+00  0.34704671717E+00  0.30127229756E+01  0.30381315000E+01  0.00000000000E+00 0.  1.
</event>
<event>
 5    1  0.6076093E+001  0.1598360E+01  0.7818608E-02  0.3355145E+00
         11   -1    0    0    0    0  0.00000000000E+00  0.00000000000E+00  0.39999999674E+01  0.40000000000E+01  0.51100000000E-03 0. -1.
    9000002   -1    0    0    0    0 -0.00000000000E+00 -0.00000000000E+00  0.00000000000E+00  0.93800000000E+00  0.93800000000E+00 0.  1.
         11    1    1    2    0    0 -0.27487835061E-01 -0.71665192864E-01  0.52857316010E+00  0.53411733509E+00  0.51100000000E-03 0. -1.
    9000002    1    1    2    0    0  0.35191552571E+00  0.36308754686E+00  0.17638521885E+00  0.10801077952E+01  0.93800000000E+00 0.  1.
         22    1    1    2    0    0 -0.32442769065E+00 -0.29142235399E+00  0.32950415884E+01  0.33237748697E+01  0.00000000000E+00 0. -1.
</event>
<event>
 5    1  0.6076093E+001  0.1599674E+01  0.7818608E-02  0.3353717E+00
         11   -1    0    0    0    0  0.00000000000E+00  0.00000000000E+00  0.39999999674E+01  0.40000000000E+01  0.51100000000E-03 0.  1.
    9000002   -1    0    0    0    0 -0.00000000000E+00 -0.00000000000E+00  0.00000000000E+00  0.93800000000E+00  0.93800000000E+00 0. -1.
         11    1    1    2    0    0  0.88850111036E-02  0.13651496681E+00  0.10608709658E+01  0.10696554337E+01  0.51100000000E-03 0.  1.
    9000002    1    1    2    0    0 -0.31430905342E-01 -0.48734041982E+00  0.16294699564E+00  0.10699926682E+01  0.93800000000E+00 0. -1.
         22    1    1    2    0    0  0.22545894239E-01  0.35082545300E+00  0.27761820059E+01  0.27983518981E+01  0.00000000000E+00 0.  1.
</event>
<event>
 5    1  0.6459586E+001  0.1594783E+01  0.7818608E-02  0.3359045E+00
         11   -1    0    0    0    0  0.00000000000E+00  0.00000000000E+00  0.39999999674E+01  0.40000000000E+01  0.51100000000E-03 0. -1.
    9000002   -1    0    0    0    0 -0.00000000000E+00 -0.00000000000E+00  0.00000000000E+00  0.93800000000E+00  0.93800000000E+00 0. -1.
         11    1    1    2    0    0  0.19542655786E-01 -0.83090522986E-03  0.98214905714E+00  0.98234395064E+00  0.51100000000E-03 0. -1.
    9000002    1    1    2    0    0 -0.40860717344E-01  0.29327821440E+00  0.62304886167E-01  0.98560012586E+00  0.93800000000E+00 0. -1.
         22    1    1    2    0    0  0.21318061558E-01 -0.29244730917E+00  0.29555460241E+01  0.29700559235E+01  0.00000000000E+00 0. -1.
</event>
<event>
 5    1  0.6076093E+001  0.1599660E+01  0.7818608E-02  0.3353732E+00
         11   -1    0    0    0    0  0.00000000000E+00  0.00000000000E+00  0.39999999674E+01  0.40000000000E+01  0.51100000000E-03 0.  1.
    9000002   -1    0    0    0    0 -0.00000000000E+00 -0.00000000000E+00  0.00000000000E+00  0.93800000000E+00  0.93800000000E+00 0. -1.
         11    1    1    2    0    0 -0.29416825833E-01  0.50845099404E-01  0.52143710507E+00  0.52473563767E+00  0.51100000000E-03 0.  1.
    9000002    1    1    2    0    0  0.23813509236E+00 -0.36263983436E+00  0.12754969585E+00  0.10413111430E+01  0.93800000000E+00 0. -1.
         22    1    1    2    0    0 -0.20871826653E+00  0.31179473496E+00  0.33510131664E+01  0.33719532193E+01  0.00000000000E+00 0.  1.
</event>
<event>
 5    1  0.6076093E+001  0.1599658E+01  0.7818608E-02  0.3353734E+00
         11   -1    0    0    0    0  0.00000000000E+00  0.00000000000E+00  0.39999999674E+01  0.40000000000E+01  0.51100000000E-03 0. -1.
    9000002   -1    0    0    0    0 -0.00000000000E+00 -0.00000000000E+00  0.00000000000E+00  0.93800000000E+00  0.93800000000E+00 0.  1.
         11    1    1    2    0    0 -0.89818219748E-01 -0.39366637240E-01  0.63452955782E+00  0.64206313209E+00  0.51100000000E-03 0. -1.
    9000002    1    1    2    0    0  0.51768535607E+00  0.21928785989E+00  0.21885256047E+00  0.11152693561E+01  0.93800000000E+00 0.  1.
         22    1    1    2    0    0 -0.42786713632E+00 -0.17992122265E+00  0.31466178491E+01  0.31806675118E+01  0.00000000000E+00 0. -1.
</event>
<event>
 5    1  0.6076093E+001  0.1596969E+01  0.7818608E-02  0.3356660E+00
         11   -1    0    0    0    0  0.00000000000E+00  0.00000000000E+00  0.39999999674E+01  0.40000000000E+01  0.51100000000E-03 0. -1.
    9000002   -1    0    0    0    0 -0.00000000000E+00 -0.00000000000E+00  0.00000000000E+00  0.93800000000E+00  0.93800000000E+00 0. -1.
         11    1    1    2    0    0  0.10429407462E+00 -0.91881360417E-02  0.89971433213E+00  0.90578574531E+00  0.51100000000E-03 0. -1.
    9000002    1    1    2    0    0 -0.46392099770E+00  0.26292771301E+00  0.19831090136E+00  0.10970528191E+01  0.93800000000E+00 0. -1.
         22    1    1    2    0    0  0.35962692308E+00 -0.25373957697E+00  0.29019747339E+01  0.29351614355E+01  0.00000000000E+00 0. -1.
</event>
<event>
 5    1  0.6076093E+001  0.1470371E+01  0.7818608E-02  0.3507310E+00
         11   -1    0    0    0    0  0.00000000000E+00  0.00000000000E+00  0.39999999674E+01  0.40000000000E+01  0.51100000000E-03 0. -1.
    9000002   -1    0    0    0    0 -0.00000000000E+00 -0.00000000000E+00  0.00000000000E+00  0.93800000000E+00  0.93800000000E+00 0. -1.
         11    1    1    2    0    0  0.91551013183E-01  0.25737482077E+00  0.40750541721E+00  0.49059587499E+00  0.51100000000E-03 0. -1.
    9000002    1    1    2    0    0 -0.33920822306E+00  0.13153323595E+00  0.20257963967E+00  0.10262776043E+01  0.93800000000E+00 0. -1.
         22    1    1    2    0    0  0.24765720987E+00 -0.38890805671E+00  0.33899149105E+01  0.34211265207E+01  0.00000000000E+00 0. -1.
</event>
<event>
 5    1  0.6076093E+001  0.1519681E+01  0.7818608E-02  0.3445435E+00
         11   -1    0    0    0    0  0.00000000000E+00  0.00000000000E+00  0.39999999674E+01  0.40000000000E+01  0.51100000000E-03 0. -1.
    9000002   -1    0    0    0    0 -0.00000000000E+00 -0.00000000000E+00  0.00000000000E+00  0.93800000000E+00  0.93800000000E+00 0.  1.
         11    1    1    2    0    0  0.23012596069E+00 -0.13322841034E-01  0.48983162284E+00  0.54136007955E+00  0.51100000000E-03 0. -1.
    9000002    1    1    2    0    0 -0.58685381520E-01 -0.37795246002E+00  0.16744368526E+00  0.10267294794E+01  0.93800000000E+00 0.  1.
         22    1    1    2    0    0 -0.17144057917E+00  0.39127530106E+00  0.33427246593E+01  0.33699104411E+01  0.00000000000E+00 0. -1.
</event>
<event>
 5    1  0.6076093E+001  0.1599271E+01  0.7818608E-02  0.3354155E+00
         11   -1    0    0    0    0  0.00000000000E+00  0.00000000000E+00  0.39999999674E+01  0.40000000000E+01  0.51100000000E-03 0.  1.
    9000002   -1    0    0    0    0 -0.00000000000E+00 -0.00000000000E+00  0.00000000000E+00  0.93800000000E+00  0.93800000000E+00 0. -1.
         11    1    1    2    0    0 -0.34415035087E-01  0.64439473358E-01  0.72637519834E+00  0.73003974566E+00  0.51100000000E-03 0.  1.
    9000002    1    1    2    0    0  0.97567547670E-01 -0.39714598959E+00  0.11328127370E+00  0.10295246526E+01  0.93800000000E+00 0. -1.
         22    1    1    2    0    0 -0.63152512582E-01  0.33270651623E+00  0.31603434953E+01  0.31784356017E+01  0.00000000000E+00 0.  1.
</event>
<event>
 5    1  0.6076093E+001  0.1599646E+01  0.7818608E-02  0.3353748E+00
         11   -1    0    0    0    0  0.00000000000E+00  0.00000000000E+00  0.39999999674E+01  0.40000000000E+01  0.51100000000E-03 0.  1.
    9000002   -1    0    0    0    0 -0.00000000000E+00 -0.00000000000E+00  0.00000000000E+00  0.93800000000E+00  0.93800000000E+00 0.  1.
         11    1    1    2    0    0 -0.28078302146E-01 -0.15067929475E-01  0.17476996840E+00  0.17765200963E+00  0.51100000000E-03 0.  1.
    9000002    1    1    2    0    0  0.56096172812E+00  0.27431963786E+00  0.27355109802E+00  0.11595704064E+01  0.93800000000E+00 0.  1.
         22    1    1    2    0    0 -0.53288342597E+00 -0.25925170839E+00  0.35516789009E+01  0.36007775840E+01  0.00000000000E+00 0.  1.
</event>
<event>
 5    1  0.6076093E+001  0.1598823E+01  0.7818608E-02  0.3354642E+00
         11   -1    0    0    0    0  0.00000000000E+00  0.00000000000E+00  0.39999999674E+01  0.40000000000E+01  0.51100000000E-03 0. -1.
    9000002   -1    0    0    0    0 -0.00000000000E+00 -0.00000000000E+00  0.00000000000E+00  0.93800000000E+00  0.93800000000E+00 0.  1.
         11    1    1    2    0    0  0.15059005479E-01 -0.97973232346E-01  0.64528852943E+00  0.65285762248E+00  0.51100000000E-03 0. -1.
    9000002    1    1    2    0    0 -0.44579577474E-01  0.43574246819E+00  0.13081211156E+00  0.10434628148E+01  0.93800000000E+00 0.  1.
         22    1    1    2    0    0  0.29520571995E-01 -0.33776923584E+00  0.32238993264E+01  0.32416795627E+01  0.00000000000E+00 0. -1.
</event>
<event>
 5    1  0.6076093E+001  0.1599141E+01  0.7818608E-02  0.3354297E+00
         11   -1    0    0    0    0  0.00000000000E+00  0.00000000000E+00  0.39999999674E+01  0.40000000000E+01  0.51100000000E-03 0. -1.
    9000002   -1    0    0    0    0 -0.00000000000E+00 -0.00000000000E+00  0.00000000000E+00  0.93800000000E+00  0.93800000000E+00 0. -1.
         11    1    1    2    0    0 -0.10773212012E-01  0.34375289852E-01  0.21031606444E+00  0.21337954619E+00  0.51100000000E-03 0. -1.
    9000002    1    1    2    0    0  0.15256140230E+00 -0.40299337366E+00  0.12622096898E+00  0.10399299850E+01  0.93800000000E+00 0. -1.
         22    1    1    2    0    0 -0.14178819029E+00  0.36861808381E+00  0.36634629339E+01  0.36846904688E+01  0.00000000000E+00 0. -1.
</event>
<event>
 5    1  0.6076093E+001  0.1564970E+01  0.7818608E-02  0.3392284E+00
         11   -1    0    0    0    0  0.00000000000E+00  0.00000000000E+00  0.39999999674E+01  0.40000000000E+01  0.51100000000E-03 0.  1.
    9000002   -1    0    0    0    0 -0.00000000000E+00 -0.00000000000E+00  0.00000000000E+00  0.93800000000E+00  0.93800000000E+00 0. -1.
         11    1    1    2    0    0  0.25786274894E+00 -0.75795701536E-01  0.35684821845E+00  0.44674276468E+00  0.51100000000E-03 0.  1.
    9000002    1    1    2    0    0 -0.81628778352E+00  0.69133363268E+00  0.10501255160E+01  0.17682973552E+01  0.93800000000E+00 0. -1.
         22    1    1    2    0    0  0.55842503458E+00 -0.61553793114E+00  0.25930262329E+01  0.27229598801E+01  0.00000000000E+00 0.  1.
</event>
<event>
 5    1  0.6076093E+001  0.1599677E+01  0.7818608E-02  0.3353714E+00
         11   -1    0    0    0    0  0.00000000000E+00  0.00000000000E+00  0.39999999674E+01  0.40000000000E+01  0.51100000000E-03 0. -1.
    9000002   -1    0    0    0    0 -0.00000000000E+00 -0.00000000000E+00  0.00000000000E+00  0.93800000000E+00  0.93800000000E+00 0.  1.
         11    1    1    2    0    0  0.10471275470E+00  0.22000438796E+00  0.12981111545E+01  0.13207798917E+01  0.51100000000E-03 0. -1.
    9000002    1    1    2    0    0 -0.29644238607E+00 -0.62049983152E+00  0.33686543242E+00  0.12108759015E+01  0.93800000000E+00 0.  1.
         22    1    1    2    0    0  0.19172963136E+00  0.40049544356E+00  0.23650233804E+01  0.24063442068E+01  0.00000000000E+00 0. -1.
</event>
<event>
 5    1  0.6076093E+001  0.1586856E+01  0.7818608E-02  0.3367754E+00
         11   -1    0    0    0    0  0.00000000000E+00  0.00000000000E+00  0.39999999674E+01  0.40000000000E+01  0.51100000000E-03 0.  1.
    9000002   -1    0    0    0    0 -0.00000000000E+00 -0.00000000000E+00  0.00000000000E+00  0.93800000000E+00  0.93800000000E+00 0.  1.
         11    1    1    2    0    0 -0.16272668843E-01 -0.32258355714E-01  0.41831261977E+00  0.41987034933E+00  0.51100000000E-03 0.  1.
    9000002    1    1    2    0    0  0.20397405784E+00 -0.48032059095E+00  0.19899341952E+00  0.10916756237E+01  0.93800000000E+00 0.  1.
         22    1    1    2    0    0 -0.18770138900E+00  0.51257894666E+00  0.33826939281E+01  0.34264540270E+01  0.00000000000E+00 0.  1.
</event>
<event>
 5    1  0.6076093E+001  0.1599639E+01  0.7818608E-02  0.3353755E+00
         11   -1    0    0    0    0  0.00000000000E+00  0.00000000000E+00  0.39999999674E+01  0.40000000000E+01  0.51100000000E-03 0.  1.
    9000002   -1    0    0    0    0 -0.00000000000E+00 -0.00000000000E+00  0.00000000000E+00  0.93800000000E+00  0.93800000000E+00 0. -1.
         11    1    1    2    0    0 -0.60929035927E-01  0.23449887122E+00  0.99105006126E+00  0.10202365182E+01  0.51100000000E-03 0.  1.
    9000002    1    1    2    0    0  0.23163150839E+00 -0.80695922850E+00  0.52659857041E+00  0.13645462273E+01  0.93800000000E+00 0. -1.
         22    1    1    2    0    0 -0.17070247246E+00  0.57246035728E+00  0.24823513357E+01  0.25532172545E+01  0.00000000000E+00 0.  1.
</event>
<event>
 5    1  0.6076093E+001  0.1599676E+01  0.7818608E-02  0.3353715E+00
         11   -1    0    0    0    0  0.00000000000E+00  0.00000000000E+00  0.39999999674E+01  0.40000000000E+01  0.51100000000E-03 0. -1.
    9000002   -1    0    0    0    0 -0.00000000000E+00 -0.00000000000E+00  0.00000000000E+00  0.93800000000E+00  0.93800000000E+00 0. -1.
         11    1    1    2    0    0  0.21576051578E-01  0.24125993061E-01  0.25706944911E+00  0.25909950276E+00  0.51100000000E-03 0.  1.
    9000002    1    1    2    0    0 -0.32882856847E+00 -0.36258416399E+00  0.16373216098E+00  0.10706295923E+01  0.93800000000E+00 0. -1.
         22    1    1    2    0    0  0.30725251689E+00  0.33845817093E+00  0.35791983573E+01  0.36082709049E+01  0.00000000000E+00 0. -1.
</event>
<event>
 5    1  0.6076093E+001  0.1599675E+01  0.7818608E-02  0.3353716E+00
         11   -1    0    0    0    0  0.00000000000E+00  0.00000000000E+00  0.39999999674E+01  0.40000000000E+01  0.51100000000E-03 0. -1.
    9000002   -1    0    0    0    0 -0.00000000000E+00 -0.00000000000E+00  0.00000000000E+00  0.93800000000E+00  0.93800000000E+00 0.  1.
         11    1    1    2    0    0 -0.11885156659E+00 -0.32331221275E-01  0.13273386222E+01  0.13330412904E+01  0.51100000000E-03 0. -1.
    9000002    1    1    2    0    0  0.34779289347E+00  0.98910103603E-01  0.87780161819E-01  0.10091047825E+01  0.93800000000E+00 0.  1.
         22    1    1    2    0    0 -0.22894132688E+00 -0.66578882328E-01  0.25848811834E+01  0.25958539271E+01  0.00000000000E+00 0. -1.
</event>
<event>
 5    1  0.6076093E+001  0.1599673E+01  0.7818608E-02  0.3353719E+00
         11   -1    0    0    0    0  0.00000000000E+00  0.00000000000E+00  0.39999999674E+01  0.40000000000E+01  0.51100000000E-03 0.  1.
    9000002   -1    0    0    0    0 -0.00000000000E+00 -0.00000000000E+00  0.00000000000E+00  0.93800000000E+00  0.93800000000E+00 0.  1.
         11    1    1    2    0    0 -0.30015098764E-02 -0.41565382344E-01  0.32344933585E+00  0.32612332644E+00  0.51100000000E-03 0.  1.
    9000002    1    1    2    0    0  0.24809449993E-01  0.50292739041E+00  0.17367762880E+00  0.10786841000E+01  0.93800000000E+00 0.  1.
         22    1    1    2    0    0 -0.21807940117E-01 -0.46136200807E+00  0.35028730027E+01  0.35331925736E+01  0.00000000000E+00 0.  1.
</event>
<event>
 5    1  0.6076093E+001  0.1599673E+01  0.7818608E-02  0.3353719E+00
         11   -1    0    0    0    0  0.00000000000E+00  0.00000000000E+00  0.39999999674E+01  0.40000000000E+01  0.51100000000E-03 0. -1.
    9000002   -1    0    0    0    0 -0.00000000000E+00 -0.00000000000E+00  0.00000000000E+00  0.93800000000E+00  0.93800000000E+00 0.  1.
         11    1    1    2    0    0  0.89933964662E-01 -0.84485294415E-01  0.12972052457E+01  0.13030608556E+01  0.51100000000E-03 0. -1.
    9000002    1    1    2    0    0 -0.27678681280E+00  0.25059976928E+00  0.93730585455E-01  0.10139233732E+01  0.93800000000E+00 0.  1.
         22    1    1    2    0    0  0.18685284814E+00 -0.16611447487E+00  0.26090641362E+01  0.26210157711E+01  0.00000000000E+00 0. -1.
</event>
<event>
 5    1  0.6076093E+001  0.1599676E+01  0.7818608E-02  0.3353715E+00
         11   -1    0    0    0    0  0.00000000000E+00  0.00000000000E+00  0.39999999674E+01  0.40000000000E+01  0.51100000000E-03 0. -1.
    9000002   -1    0    0    0    0 -0.00000000000E+00 -0.00000000000E+00  0.00000000000E+00  0.93800000000E+00  0.93800000000E+00 0.  1.
         11    1    1    2    0    0 -0.56055468677E-01 -0.19164631895E+00  0.12407736932E+01  0.12567378987E+01  0.51100000000E-03 0. -1.
    9000002    1    1    2    0    0  0.16879179139E+00  0.58077522786E+00  0.25547586193E+00  0.11449464835E+01  0.93800000000E+00 0.  1.
         22    1    1    2    0    0 -0.11273632271E+00 -0.38912890891E+00  0.25037504123E+01  0.25363156178E+01  0.00000000000E+00 0. -1.
</event>
<event>
 5    1  0.6076093E+001  0.1599674E+01  0.7818608E-02  0.3353717E+00
         11   -1    0    0    0    0  0.00000000000E+00  0.00000000000E+00  0.39999999674E+01  0.40000000000E+01  0.51100000000E-03 0. -1.
    9000002   -1    0    0    0    0 -0.00000000000E+00 -0.00000000000E+00  0.00000000000E+00  0.93800000000E+00  0.93800000000E+00 0.  1.
         11    1    1    2    0    0  0.93758881547E-01  0.80223822202E-01  0.11649227115E+01  0.11714400430E+01  0.51100000000E-03 0. -1.
    9000002    1    1    2    0    0 -0.31174740818E+00 -0.26205570728E+00  0.11198312844E+00  0.10287098042E+01  0.93800000000E+00 0.  1.
         22    1    1    2    0    0  0.21798852663E+00  0.18183188508E+00  0.27230941275E+01  0.27378501528E+01  0.00000000000E+00 0. -1.
</event>
<event>
 5    1  0.6076093E+001  0.1599655E+01  0.7818608E-02  0.3353738E+00
         11   -1    0    0    0    0  0.00000000000E+00  0.00000000000E+00  0.39999999674E+01  0.40000000000E+01  0.51100000000E-03 0.  1.
    9000002   -1    0    0    0    0 -0.00000000000E+00 -0.00000000000E+00  0.00000000000E+00  0.93800000000E+00  0.93800000000E+00 0. -1.
         11    1    1    2    0    0  0.73648885402E-01  0.14252601296E-01  0.82003130799E+00  0.82345546459E+00  0.51100000000E-03 0.  1.
    9000002    1    1    2    0    0 -0.37130459357E+00 -0.60593173842E-01  0.95207436561E-01  0.10151093980E+01  0.93800000000E+00 0. -1.
         22    1    1    2    0    0  0.29765570817E+00  0.46340572547E-01  0.30847612228E+01  0.30994351374E+01  0.00000000000E+00 0.  1.
</event>
<event>
 5    1  0.1000883E+002  0.1559446E+01  0.7818608E-02  0.3398591E+00
         11   -1    0    0    0    0  0.00000000000E+00  0.00000000000E+00  0.39999999674E+01  0.40000000000E+01  0.51100000000E-03 0. -1.
    9000002   -1    0    0    0    0 -0.00000000000E+00 -0.00000000000E+00  0.00000000000E+00  0.93800000000E+00  0.93800000000E+00 0. -1.
         11    1    1    2    0    0  0.11813717677E+00 -0.12999112679E+00  0.91200001613E+00  0.92876174346E+00  0.51100000000E-03 0. -1.
    9000002    1    1    2    0    0  0.80591977560E-01 -0.89811474607E-01  0.39692893582E-01  0.94656256720E+00  0.93800000000E+00 0. -1.
         22    1    1    2    0    0 -0.19872915433E+00  0.21980260140E+00  0.30483070577E+01  0.30626756893E+01  0.00000000000E+00 0. -1.
</event>
<event>
 5    1  0.6076093E+001  0.1599610E+01  0.7818608E-02  0.3353787E+00
         11   -1    0    0    0    0  0.00000000000E+00  0.00000000000E+00  0.39999999674E+01  0.40000000000E+01  0.51100000000E-03 0.  1.
    9000002   -1    0    0    0    0 -0.00000000000E+00 -0.00000000000E+00  0.00000000000E+00  0.93800000000E+00  0.93800000000E+00 0.  1.
         11    1    1    2    0    0  0.31915646825E-02 -0.12048303822E-01  0.75302922367E-01  0.76329148745E-01  0.51100000000E-03 0.  1.
    9000002    1    1    2    0    0 -0.73160218531E-01  0.50606106530E+00  0.17938357635E+00  0.10832694433E+01  0.93800000000E+00 0.  1.
         22    1    1    2    0    0  0.69968653849E-01 -0.49401276147E+00  0.37453134686E+01  0.37784014079E+01  0.00000000000E+00 0.  1.
</event>
<event>
 5    1  0.6076093E+001  0.1598877E+01  0.7818608E-02  0.3354583E+00
         11   -1    0    0    0    0  0.00000000000E+00  0.00000000000E+00  0.39999999674E+01  0.40000000000E+01  0.51100000000E-03 0. -1.
    9000002   -1    0    0    0    0 -0.00000000000E+00 -0.00000000000E+00  0.00000000000E+00  0.93800000000E+00  0.93800000000E+00 0. -1.
         11    1    1    2    0    0 -0.56847907756E-01  0.11141112156E+00  0.14060165511E+01  0.14115689588E+01  0.51100000000E-03 0. -1.
    9000002    1    1    2    0    0  0.21766747502E+00 -0.37381216495E+00  0.12744848781E+00  0.10407698023E+01  0.93800000000E+00 0. -1.
         22    1    1    2    0    0 -0.16081956727E+00  0.26240104339E+00  0.24665349285E+01  0.24856612388E+01  0.00000000000E+00 0. -1.
</event>
<event>
 5    1  0.6076093E+001  0.1599677E+01  0.7818608E-02  0.3353715E+00
         11   -1    0    0    0    0  0.00000000000E+00  0.00000000000E+00  0.39999999674E+01  0.40000000000E+01  0.51100000000E-03 0. -1.
    9000002   -1    0    0    0    0 -0.00000000000E+00 -0.00000000000E+00  0.00000000000E+00  0.93800000000E+00  0.93800000000E+00 0. -1.
         11    1    1    2    0    0 -0.31352921133E+00  0.12277360481E+00  0.93967992164E+00  0.99818462253E+00  0.51100000000E-03 0. -1.
    9000002    1    1    2    0    0  0.10055094632E+01 -0.39547494345E+00  0.98998734174E+00  0.17399335183E+01  0.93800000000E+00 0. -1.
         22    1    1    2    0    0 -0.69198025183E+00  0.27270133864E+00  0.20703327040E+01  0.21998818591E+01  0.00000000000E+00 0. -1.
</event>
<event>
 5    1  0.6076093E+001  0.1465371E+01  0.7818608E-02  0.3513836E+00
         11   -1    0    0    0    0  0.00000000000E+00  0.00000000000E+00  0.39999999674E+01  0.40000000000E+01  0.51100000000E-03 0. -1.
    9000002   -1    0    0    0    0 -0.00000000000E+00 -0.00000000000E+00  0.00000000000E+00  0.93800000000E+00  0.93800000000E+00 0. -1.
         11    1    1    2    0    0 -0.40431059323E+00  0.30356545929E-01  0.82102499866E+00  0.91568055850E+00  0.51100000000E-03 0. -1.
    9000002    1    1    2    0    0  0.17935029414E+00 -0.48784805169E+00  0.32123742255E+00  0.11194640375E+01  0.93800000000E+00 0. -1.
         22    1    1    2    0    0  0.22496029909E+00  0.45749150576E+00  0.28577375461E+01  0.29028554040E+01  0.00000000000E+00 0. -1.
</event>
<event>
 5    1  0.6076093E+001  0.1599677E+01  0.7818608E-02  0.3353714E+00
         11   -1    0    0    0    0  0.00000000000E+00  0.00000000000E+00  0.39999999674E+01  0.40000000000E+01  0.51100000000E-03 0.  1.
    9000002   -1    0    0    0    0 -0.00000000000E+00 -0.00000000000E+00  0.00000000000E+00  0.93800000000E+00  0.93800000000E+00 0. -1.
         11    1    1    2    0    0  0.42512231402E-01  0.63355530859E-01  0.77758582618E+00  0.78132015928E+00  0.51100000000E-03 0.  1.
    9000002    1    1    2    0    0 -0.21203441637E+00 -0.31617396037E+00  0.97519482296E-01  0.10169948950E+01  0.93800000000E+00 0. -1.
         22    1    1    2    0    0  0.16952218497E+00  0.25281842951E+00  0.31248946589E+01  0.31396849458E+01  0.00000000000E+00 0.  1.
</event>
<event>
 5    1  0.6076093E+001  0.1599531E+01  0.7818608E-02  0.3353872E+00
         11   -1    0    0    0    0  0.00000000000E+00  0.00000000000E+00  0.39999999674E+01  0.40000000000E+01  0.51100000000E-03 0. -1.
    9000002   -1    0    0    0    0 -0.00000000000E+00 -0.00000000000E+00  0.00000000000E+00  0.93800000000E+00  0.93800000000E+00 0. -1.
         11    1    1    2    0    0 -0.12794942374E+00 -0.10937352067E-01  0.68926976558E+00  0.70113033850E+00  0.51100000000E-03 0. -1.
    9000002    1    1    2    0    0  0.69070227330E+00  0.11669846371E+00  0.35089208093E+00  0.12221527786E+01  0.93800000000E+00 0. -1.
         22    1    1    2    0    0 -0.56275284956E+00 -0.10576111164E+00  0.29598381208E+01  0.30147168829E+01  0.00000000000E+00 0. -1.
</event>
<event>
 5    1  0.6076093E+001  0.1599673E+01  0.7818608E-02  0.3353719E+00
         11   -1    0    0    0    0  0.00000000000E+00  0.00000000000E+00  0.39999999674E+01  0.40000000000E+01  0.51100000000E-03 0. -1.
    9000002   -1    0    0    0    0 -0.00000000000E+00 -0.00000000000E+00  0.00000000000E+00  0.93800000000E+00  0.93800000000E+00 0. -1.
         11    1    1    2    0    0  0.84741523666E-01 -0.10483924231E+00  0.12628590434E+01  0.12700337071E+01  0.51100000000E-03 0. -1.
    9000002    1    1    2    0    0 -0.26053423382E+00  0.31559394215E+00  0.11310636089E+00  0.10296187023E+01  0.93800000000E+00 0. -1.
         22    1    1    2    0    0  0.17579271015E+00 -0.21075469984E+00  0.26240345631E+01  0.26383475906E+01  0.00000000000E+00 0. -1.
</event>
<event>
 5    1  0.6076093E+001  0.1597131E+01  0.7818608E-02  0.3356483E+00
         11   -1    0    0    0    0  0.00000000000E+00  0.00000000000E+00  0.39999999674E+01  0.40000000000E+01  0.51100000000E-03 0.  1.
    9000002   -1    0    0    0    0 -0.00000000000E+00 -0.00000000000E+00  0.00000000000E+00  0.93800000000E+00  0.93800000000E+00 0. -1.
         11    1    1    2    0    0 -0.83509472817E-01 -0.18533140062E+00  0.12323173184E+01  0.12489706940E+01  0.51100000000E-03 0.  1.
    9000002    1    1    2    0    0  0.38178057892E+00  0.44656026218E+00  0.24269451608E+00  0.11331006603E+01  0.93800000000E+00 0. -1.
         22    1    1    2    0    0 -0.29827110610E+00 -0.26122886156E+00  0.25249881329E+01  0.25559286457E+01  0.00000000000E+00 0.  1.
</event>
<event>
 5    1  0.6076093E+001  0.1599675E+01  0.7818608E-02  0.3353716E+00
         11   -1    0    0    0    0  0.00000000000E+00  0.00000000000E+00  0.39999999674E+01  0.40000000000E+01  0.51100000000E-03 0.  1.
    9000002   -1    0    0    0    0 -0.00000000000E+00 -0.00000000000E+00  0.00000000000E+00  0.93800000000E+00  0.93800000000E+00 0. -1.
         11    1    1    2    0    0 -0.60106063537E-02 -0.10846419316E-01  0.13281852776E+00  0.13339713129E+00  0.51100000000E-03 0. -1.
    9000002    1    1    2    0    0  0.18032495900E+00  0.30918920426E+00  0.85980162440E-01  0.10076465865E+01  0.93800000000E+00 0. -1.
         22    1    1    2    0    0 -0.17431435265E+00 -0.29834278495E+00  0.37812012772E+01  0.37969562822E+01  0.00000000000E+00 0.  1.
</event>
<event>
 5    1  0.6076093E+001  0.1558701E+01  0.7818608E-02  0.3399444E+00
         11   -1    0    0    0    0  0.00000000000E+00  0.00000000000E+00  0.39999999674E+01  0.40000000000E+01  0.51100000000E-03 0.  1.
    9000002   -1    0    0    0    0 -0.00000000000E+00 -0.00000000000E+00  0.00000000000E+00  0.93800000000E+00  0.93800000000E+00 0. -1.
         11    1    1    2    0    0 -0.18980276132E+00  0.11744528177E+00  0.10841301405E+01  0.11068680613E+01  0.51100000000E-03 0.  1.
    9000002    1    1    2    0    0  0.13421408451E+00  0.13735718059E+00  0.55677893063E-01  0.95907478505E+00  0.93800000000E+00 0. -1.
         22    1    1    2    0    0  0.55588676802E-01 -0.25480246236E+00  0.28601919338E+01  0.28720571537E+01  0.00000000000E+00 0.  1.
</event>
<event>
 5    1  0.6076093E+001  0.1596570E+01  0.7818608E-02  0.3357095E+00
         11   -1    0    0    0    0  0.00000000000E+00  0.00000000000E+00  0.39999999674E+01  0.40000000000E+01  0.51100000000E-03 0.  1.
    9000002   -1    0    0    0    0 -0.00000000000E+00 -0.00000000000E+00  0.00000000000E+00  0.93800000000E+00  0.93800000000E+00 0. -1.
         11    1    1    2    0    0 -0.25946738320E-01 -0.30635253510E+00  0.81765026650E+00  0.87354297457E+00  0.51100000000E-03 0.  1.
    9000002    1    1    2    0    0  0.17764486335E+00  0.97523775359E+00  0.79252703623E+00  0.15781601556E+01  0.93800000000E+00 0. -1.
         22    1    1    2    0    0 -0.15169812503E+00 -0.66888521849E+00  0.23898226646E+01  0.24862968699E+01  0.00000000000E+00 0.  1.
</event>
<event>
 5    1  0.6076093E+001  0.1599677E+01  0.7818608E-02  0.3353714E+00
         11   -1    0    0    0    0  0.00000000000E+00  0.00000000000E+00  0.39999999674E+01  0.40000000000E+01  0.51100000000E-03 0. -1.
    9000002   -1    0    0    0    0 -0.00000000000E+00 -0.00000000000E+00  0.00000000000E+00  0.93800000000E+00  0.93800000000E+00 0. -1.
         11    1    1    2    0    0  0.27613093326E-01 -0.20020181633E+00  0.13240698138E+01  0.13394044883E+01  0.51100000000E-03 0. -1.
    9000002    1    1    2    0    0 -0.77729720712E-01  0.57161180523E+00  0.23106751227E+00  0.11251747245E+01  0.93800000000E+00 0. -1.
         22    1    1    2    0    0  0.50116627385E-01 -0.37140998891E+00  0.24448626413E+01  0.24734207873E+01  0.00000000000E+00 0. -1.
</event>
<event>
 5    1  0.8405163E+001  0.1583629E+01  0.7818608E-02  0.3371326E+00
         11   -1    0    0    0    0  0.00000000000E+00  0.00000000000E+00  0.39999999674E+01  0.40000000000E+01  0.51100000000E-03 0.  1.
    9000002   -1    0    0    0    0 -0.00000000000E+00 -0.00000000000E+00  0.00000000000E+00  0.93800000000E+00  0.93800000000E+00 0. -1.
         11    1    1    2    0    0 -0.70691968435E-01  0.34703796935E-01  0.87727146065E+00  0.88079917388E+00  0.51100000000E-03 0.  1.
    9000002    1    1    2    0    0 -0.91056415018E-01  0.24110340797E+00  0.56558533111E-01  0.97440494237E+00  0.93800000000E+00 0. -1.
         22    1    1    2    0    0  0.16174838345E+00 -0.27580720491E+00  0.30661699736E+01  0.30827958837E+01  0.00000000000E+00 0.  1.
</event>
<event>
 5    1  0.6076093E+001  0.1486227E+01  0.7818608E-02  0.3486930E+00
         11   -1    0    0    0    0  0.00000000000E+00  0.00000000000E+00  0.39999999674E+01  0.40000000000E+01  0.51100000000E-03 0. -1.
    9000002   -1    0    0    0    0 -0.00000000000E+00 -0.00000000000E+00  0.00000000000E+00  0.93800000000E+00  0.93800000000E+00 0.  1.
         11    1    1    2    0    0  0.11728415900E+00  0.36504580791E+00  0.33577680502E+00  0.50966689095E+00  0.51100000000E-03 0. -1.
    9000002    1    1    2    0    0 -0.53652394951E+00 -0.27752258969E+00  0.47850464110E+00  0.12139552824E+01  0.93800000000E+00 0.  1.
         22    1    1    2    0    0  0.41923979051E+00 -0.87523218218E-01  0.31857185212E+01  0.32143778266E+01  0.00000000000E+00 0. -1.
</event>
<event>
 5    1  0.6076093E+001  0.1599671E+01  0.7818608E-02  0.3353720E+00
         11   -1    0    0    0    0  0.00000000000E+00  0.00000000000E+00  0.39999999674E+01  0.40000000000E+01  0.51100000000E-03 0. -1.
    9000002   -1    0    0    0    0 -0.00000000000E+00 -0.00000000000E+00  0.00000000000E+00  0.93800000000E+00  0.93800000000E+00 0. -1.
         11    1    1    2    0    0  0.47730515390E-03  0.20036305313E-01  0.17058706678E+00  0.17176114178E+00  0.51100000000E-03 0. -1.
    9000002    1    1    2    0    0 -0.16166122531E-01 -0.43102247173E+00  0.12602248414E+00  0.10400804686E+01  0.93800000000E+00 0. -1.
         22    1    1    2    0    0  0.15688817377E-01  0.41098616642E+00  0.37033904164E+01  0.37261583896E+01  0.00000000000E+00 0. -1.
</event>
<event>
 5    1  0.6076093E+001  0.1599675E+01  0.7818608E-02  0.3353717E+00
         11   -1    0    0    0    0  0.00000000000E+00  0.00000000000E+00  0.39999999674E+01  0.40000000000E+01  0.51100000000E-03 0.  1.
    9000002   -1    0    0    0    0 -0.00000000000E+00 -0.00000000000E+00  0.00000000000E+00  0.93800000000E+00  0.93800000000E+00 0. -1.
         11    1    1    2    0    0 -0.43495237404E-01  0.58065614875E-01  0.81616743435E+00  0.81938574147E+00  0.51100000000E-03 0.  1.
    9000002    1    1    2    0    0  0.21568916098E+00 -0.27951826429E+00  0.83610884551E-01  0.10057271271E+01  0.93800000000E+00 0. -1.
         22    1    1    2    0    0 -0.17219392358E+00  0.22145264941E+00  0.31002216485E+01  0.31128871314E+01  0.00000000000E+00 0.  1.
</event>
<event>
 5    1  0.6076093E+001  0.1599626E+01  0.7818608E-02  0.3353769E+00
         11   -1    0    0    0    0  0.00000000000E+00  0.00000000000E+00  0.39999999674E+01  0.40000000000E+01  0.51100000000E-03 0.  1.
    9000002   -1    0    0    0    0 -0.00000000000E+00 -0.00000000000E+00  0.00000000000E+00  0.93800000000E+00  0.93800000000E+00 0. -1.
         11    1    1    2    0    0 -0.21114974549E+00  0.77005175337E-01  0.13847627914E+01  0.14028835524E+01  0.51100000000E-03 0.  1.
    9000002    1    1    2    0    0  0.58757449721E+00 -0.21806434460E+00  0.27572525107E+00  0.11613200516E+01  0.93800000000E+00 0. -1.
         22    1    1    2    0    0 -0.37642475172E+00  0.14105916926E+00  0.23395119249E+01  0.23737963960E+01  0.00000000000E+00 0.  1.
</event>
<event>
 5    1  0.6076093E+001  0.1470350E+01  0.7818608E-02  0.3507337E+00
         11   -1    0    0    0    0  0.00000000000E+00  0.00000000000E+00  0.39999999674E+01  0.40000000000E+01  0.51100000000E-03 0. -1.
    9000002   -1    0    0    0    0 -0.00000000000E+00 -0.00000000000E+00  0.00000000000E+00  0.93800000000E+00  0.93800000000E+00 0. -1.
         11    1    1    2    0    0  0.23289762063E+00 -0.16911725631E+00  0.56428829181E+00  0.63345361746E+00  0.51100000000E-03 0. -1.
    9000002    1    1    2    0    0  0.29017258410E+00  0.16132959371E+00  0.18507994535E+00  0.10120898935E+01  0.93800000000E+00 0. -1.
         22    1    1    2    0    0 -0.52307020474E+00  0.77876625934E-02  0.32506317302E+01  0.32924564890E+01  0.00000000000E+00 0. -1.
</event>
<event>
 5    1  0.6076093E+001  0.1526509E+01  0.7818608E-02  0.3437206E+00
         11   -1    0    0    0    0  0.00000000000E+00  0.00000000000E+00  0.39999999674E+01  0.40000000000E+01  0.51100000000E-03 0.  1.
    9000002   -1    0    0    0    0 -0.00000000000E+00 -0.00000000000E+00  0.00000000000E+00  0.93800000000E+00  0.93800000000E+00 0. -1.
         11    1    1    2    0    0 -0.24332605591E+00 -0.12215541586E+00  0.90744388124E+00  0.94740919028E+00  0.51100000000E-03 0.  1.
    9000002    1    1    2    0    0 -0.87678150053E-01  0.17642483656E+00  0.82617355411E-01  0.96202017046E+00  0.93800000000E+00 0. -1.
         22    1    1    2    0    0  0.33100420596E+00 -0.54269420696E-01  0.30099387307E+01  0.30285706393E+01  0.00000000000E+00 0.  1.
</event>
<event>
 5    1  0.6076093E+001  0.1599650E+01  0.7818608E-02  0.3353744E+00
         11   -1    0    0    0    0  0.00000000000E+00  0.00000000000E+00  0.39999999674E+01  0.40000000000E+01  0.51100000000E-03 0.  1.
    9000002   -1    0    0    0    0 -0.00000000000E+00 -0.00000000000E+00  0.00000000000E+00  0.93800000000E+00  0.93800000000E+00 0.  1.
         11    1    1    2    0    0 -0.58333179618E-02  0.10881542318E-01  0.10184061839E+00  0.10258756375E+00  0.51100000000E-03 0.  1.
    9000002    1    1    2    0    0  0.16600978343E+00 -0.36676937618E+00  0.10938490397E+00  0.10265905127E+01  0.93800000000E+00 0.  1.
         22    1    1    2    0    0 -0.16017646547E+00  0.35588783386E+00  0.37887744450E+01  0.38088219236E+01  0.00000000000E+00 0.  1.
</event>
<event>
 5    1  0.6076093E+001  0.1520029E+01  0.7818608E-02  0.3445013E+00
         11   -1    0    0    0    0  0.00000000000E+00  0.00000000000E+00  0.39999999674E+01  0.40000000000E+01  0.51100000000E-03 0. -1.
    9000002   -1    0    0    0    0 -0.00000000000E+00 -0.00000000000E+00  0.00000000000E+00  0.93800000000E+00  0.93800000000E+00 0. -1.
         11    1    1    2    0    0  0.44751502705E+00  0.96731321368E-01  0.11148050979E+01  0.12051627754E+01  0.51100000000E-03 0. -1.
    9000002    1    1    2    0    0  0.25418757904E+00 -0.29358791769E+00  0.31747087648E+00  0.10636902501E+01  0.93800000000E+00 0. -1.
         22    1    1    2    0    0 -0.70170260609E+00  0.19685659632E+00  0.25677239930E+01  0.26691469745E+01  0.00000000000E+00 0. -1.
</event>
<event>
 5    1  0.6076093E+001  0.1599676E+01  0.7818608E-02  0.3353715E+00
         11   -1    0    0    0    0  0.00000000000E+00  0.00000000000E+00  0.39999999674E+01  0.40000000000E+01  0.51100000000E-03 0.  1.
    9000002   -1    0    0    0    0 -0.00000000000E+00 -0.00000000000E+00  0.00000000000E+00  0.93800000000E+00  0.93800000000E+00 0.  1.
         11    1    1    2    0    0  0.11639741834E+00 -0.55894374052E-02  0.75563570992E+00  0.76456862873E+00  0.51100000000E-03 0.  1.
    9000002    1    1    2    0    0 -0.57718443718E+00  0.27329458507E-01  0.23188126338E+00  0.11258337773E+01  0.93800000000E+00 0.  1.
         22    1    1    2    0    0  0.46078701883E+00 -0.21740021102E-01  0.30124829941E+01  0.30475975940E+01  0.00000000000E+00 0.  1.
</event>
<event>
 5    1  0.6076093E+001  0.1596183E+01  0.7818608E-02  0.3357517E+00
         11   -1    0    0    0    0  0.00000000000E+00  0.00000000000E+00  0.39999999674E+01  0.40000000000E+01  0.51100000000E-03 0.  1.
    9000002   -1    0    0    0    0 -0.00000000000E+00 -0.00000000000E+00  0.00000000000E+00  0.93800000000E+00  0.93800000000E+00 0. -1.
         11    1    1    2    0    0 -0.58009420323E-01 -0.97147454939E-02  0.89896322695E+00  0.90088546090E+00  0.51100000000E-03 0.  1.
    9000002    1    1    2    0    0  0.18056007309E+00  0.29295671048E+00  0.82163101411E-01  0.10025070321E+01  0.93800000000E+00 0. -1.
         22    1    1    2    0    0 -0.12255065276E+00 -0.28324196499E+00  0.30188736390E+01  0.30346075070E+01  0.00000000000E+00 0.  1.
</event>
<event>
 5    1  0.6076093E+001  0.1599652E+01  0.7818608E-02  0.3353741E+00
         11   -1    0    0    0    0  0.00000000000E+00  0.00000000000E+00  0.39999999674E+01  0.40000000000E+01  0.51100000000E-03 0. -1.
    9000002   -1    0    0    0    0 -0.00000000000E+00 -0.00000000000E+00  0.00000000000E+00  0.93800000000E+00  0.93800000000E+00 0.  1.
         11    1    1    2    0    0  0.11762700079E-01 -0.63455831553E-01  0.70297608962E+00  0.70593246658E+00  0.51100000000E-03 0. -1.
    9000002    1    1    2    0    0 -0.42084406168E-01  0.36354891661E+00  0.89990198069E-01  0.10108813718E+01  0.93800000000E+00 0.  1.
         22    1    1    2    0    0  0.30321706089E-01 -0.30009308506E+00  0.32070336797E+01  0.32211861617E+01  0.00000000000E+00 0. -1.
</event>
<event>
 5    1  0.6076093E+001  0.1562568E+01  0.7818608E-02  0.3395021E+00
         11   -1    0    0    0    0  0.00000000000E+00  0.00000000000E+00  0.39999999674E+01  0.40000000000E+01  0.51100000000E-03 0. -1.
    9000002   -1    0    0    0    0 -0.00000000000E+00 -0.00000000000E+00  0.00000000000E+00  0.93800000000E+00  0.93800000000E+00 0. -1.
         11    1    1    2    0    0 -0.77464250251E-01 -0.12180335637E+00  0.12283977559E+01  0.12368500618E+01  0.51100000000E-03 0. -1.
    9000002    1    1    2    0    0 -0.24368315921E+00 -0.90984980804E-01  0.74031555980E-01  0.97620920918E+00  0.93800000000E+00 0. -1.
         22    1    1    2    0    0  0.32114740946E+00  0.21278833717E+00  0.26975706555E+01  0.27249407290E+01  0.00000000000E+00 0. -1.
</event>
<event>
 5    1  0.6076093E+001  0.1599675E+01  0.7818608E-02  0.3353717E+00
         11   -1    0    0    0    0  0.00000000000E+00  0.00000000000E+00  0.39999999674E+01  0.40000000000E+01  0.51100000000E-03 0. -1.
    9000002   -1    0    0    0    0 -0.00000000000E+00 -0.00000000000E+00  0.00000000000E+00  0.93800000000E+00  0.93800000000E+00 0. -1.
         11    1    1    2    0    0  0.13730209833E+00  0.13105221483E+00  0.14201113815E+01  0.14327397342E+01  0.51100000000E-03 0. -1.
    9000002    1    1    2    0    0 -0.36588542061E+00 -0.35590638034E+00  0.17867423596E+00  0.10827326425E+01  0.93800000000E+00 0. -1.
         22    1    1    2    0    0  0.22858332228E+00  0.22485416551E+00  0.24012143499E+01  0.24225276232E+01  0.00000000000E+00 0. -1.
</event>
<event>
 5    1  0.6076093E+001  0.1599676E+01  0.7818608E-02  0.3353715E+00
         11   -1    0    0    0    0  0.00000000000E+00  0.00000000000E+00  0.39999999674E+01  0.40000000000E+01  0.51100000000E-03 0.  1.
    9000002   -1    0    0    0    0 -0.00000000000E+00 -0.00000000000E+00  0.00000000000E+00  0.93800000000E+00  0.93800000000E+00 0. -1.
         11    1    1    2    0    0 -0.61032848151E-01  0.15477406837E+00  0.12680502353E+01  0.12789181683E+01  0.51100000000E-03 0.  1.
    9000002    1    1    2    0    0  0.18548610714E+00 -0.46440412702E+00  0.17119422084E+00  0.10766743939E+01  0.93800000000E+00 0. -1.
         22    1    1    2    0    0 -0.12445325899E+00  0.30963005865E+00  0.25607555112E+01  0.25824074379E+01  0.00000000000E+00 0.  1.
</event>
<event>
 5    1  0.6076093E+001  0.1599170E+01  0.7818608E-02  0.3354265E+00
         11   -1    0    0    0    0  0.00000000000E+00  0.00000000000E+00  0.39999999674E+01  0.40000000000E+01  0.51100000000E-03 0. -1.
    9000002   -1    0    0    0    0 -0.00000000000E+00 -0.00000000000E+00  0.00000000000E+00  0.93800000000E+00  0.93800000000E+00 0. -1.
         11    1    1    2    0    0  0.69802555626E-01 -0.12185238827E-01  0.87846837477E+00  0.88132163449E+00  0.51100000000E-03 0. -1.
    9000002    1    1    2    0    0 -0.37884767054E+00  0.12673470457E+00  0.10805940000E+00  0.10252356201E+01  0.93800000000E+00 0. -1.
         22    1    1    2    0    0  0.30904511491E+00 -0.11454946575E+00  0.30134721926E+01  0.30314427454E+01  0.00000000000E+00 0.  1.
</event>
<event>
 5    1  0.6076093E+001  0.1599610E+01  0.7818608E-02  0.3353786E+00
         11   -1    0    0    0    0  0.00000000000E+00  0.00000000000E+00  0.39999999674E+01  0.40000000000E+01  0.51100000000E-03 0. -1.
    9000002   -1    0    0    0    0 -0.00000000000E+00 -0.00000000000E+00  0.00000000000E+00  0.93800000000E+00  0.93800000000E+00 0.  1.
         11    1    1    2    0    0  0.48032678342E-01 -0.69762028181E-01  0.79166633136E+00  0.79618447617E+00  0.51100000000E-03 0. -1.
    9000002    1    1    2    0    0 -0.20233912831E+00  0.32525426351E+00  0.98818235618E-01  0.10180081053E+01  0.93800000000E+00 0.  1.
         22    1    1    2    0    0  0.15430644997E+00 -0.25549223533E+00  0.31095154004E+01  0.31238074185E+01  0.00000000000E+00 0. -1.
</event>
<event>
 5    1  0.6076093E+001  0.1594523E+01  0.7818608E-02  0.3359330E+00
         11   -1    0    0    0    0  0.00000000000E+00  0.00000000000E+00  0.39999999674E+01  0.40000000000E+01  0.51100000000E-03 0. -1.
    9000002   -1    0    0    0    0 -0.00000000000E+00 -0.00000000000E+00  0.00000000000E+00  0.93800000000E+00  0.93800000000E+00 0.  1.
         11    1    1    2    0    0 -0.20253703285E+00 -0.28303211171E-01  0.13876403079E+01  0.14026290339E+01  0.51100000000E-03 0. -1.
    9000002    1    1    2    0    0  0.55512932959E+00 -0.14940012504E+00  0.23438843925E+00  0.11248426158E+01  0.93800000000E+00 0.  1.
         22    1    1    2    0    0 -0.35259229674E+00  0.17770333621E+00  0.23779712202E+01  0.24105283503E+01  0.00000000000E+00 0. -1.
</event>
<event>
 5    1  0.6076093E+001  0.1598792E+01  0.7818608E-02  0.3354675E+00
         11   -1    0    0    0    0  0.00000000000E+00  0.00000000000E+00  0.39999999674E+01  0.40000000000E+01  0.51100000000E-03 0.  1.
    9000002   -1    0    0    0    0 -0.00000000000E+00 -0.00000000000E+00  0.00000000000E+00  0.93800000000E+00  0.93800000000E+00 0. -1.
         11    1    1    2    0    0  0.55294391966E-01 -0.19697496152E-01  0.68118026971E+00  0.68370482088E+00  0.51100000000E-03 0.  1.
    9000002    1    1    2    0    0 -0.27487816333E+00  0.26278886891E+00  0.98033280761E-01  0.10168925796E+01  0.93800000000E+00 0. -1.
         22    1    1    2    0    0  0.21958377137E+00 -0.24309137276E+00  0.32207864169E+01  0.32374025995E+01  0.00000000000E+00 0.  1.
</event>
<event>
 5    1  0.6076093E+001  0.1599677E+01  0.7818608E-02  0.3353714E+00
         11   -1    0    0    0    0  0.00000000000E+00  0.00000000000E+00  0.39999999674E+01  0.40000000000E+01  0.51100000000E-03 0. -1.
    9000002   -1    0    0    0    0 -0.00000000000E+00 -0.00000000000E+00  0.00000000000E+00  0.93800000000E+00  0.93800000000E+00 0.  1.
         11    1    1    2    0    0  0.12149329871E-01 -0.10268532940E+00  0.11251675102E+01  0.11299088770E+01  0.51100000000E-03 0. -1.
    9000002    1    1    2    0    0 -0.41129823053E-01  0.35903297893E+00  0.87678509873E-01  0.10090232224E+01  0.93800000000E+00 0.  1.
         22    1    1    2    0    0  0.28980493182E-01 -0.25634764953E+00  0.27871539473E+01  0.27990679006E+01  0.00000000000E+00 0. -1.
</event>
<event>
 5    1  0.6076093E+001  0.1599677E+01  0.7818608E-02  0.3353714E+00
         11   -1    0    0    0    0  0.00000000000E+00  0.00000000000E+00  0.39999999674E+01  0.40000000000E+01  0.51100000000E-03 0. -1.
    9000002   -1    0    0    0    0 -0.00000000000E+00 -0.00000000000E+00  0.00000000000E+00  0.93800000000E+00  0.93800000000E+00 0.  1.
         11    1    1    2    0    0 -0.18357973757E+00 -0.34660228242E-01  0.14731423442E+01  0.14849415742E+01  0.51100000000E-03 0. -1.
    9000002    1    1    2    0    0  0.47852533284E+00  0.89658826859E-01  0.16190521242E+00  0.10691503623E+01  0.93800000000E+00 0.  1.
         22    1    1    2    0    0 -0.29494559527E+00 -0.54998598617E-01  0.23649524108E+01  0.23839080635E+01  0.00000000000E+00 0. -1.
</event>
<event>
 5    1  0.6076093E+001  0.1599519E+01  0.7818608E-02  0.3353886E+00
         11   -1    0    0    0    0  0.00000000000E+00  0.00000000000E+00  0.39999999674E+01  0.40000000000E+01  0.51100000000E-03 0. -1.
    9000002   -1    0    0    0    0 -0.00000000000E+00 -0.00000000000E+00  0.00000000000E+00  0.93800000000E+00  0.93800000000E+00 0.  1.
         11    1    1    2    0    0 -0.27432388526E-02  0.11617410270E-01  0.19339977558E+00  0.19376848014E+00  0.51100000000E-03 0. -1.
    9000002    1    1    2    0    0  0.16088999361E+00 -0.31613551481E+00  0.84540730994E-01  0.10063887862E+01  0.93800000000E+00 0.  1.
         22    1    1    2    0    0 -0.15814675476E+00  0.30451810454E+00  0.37220594608E+01  0.37378427337E+01  0.00000000000E+00 0. -1.
</event>
<event>
 5    1  0.6076093E+001  0.1565721E+01  0.7818608E-02  0.3391430E+00
         11   -1    0    0    0    0  0.00000000000E+00  0.00000000000E+00  0.39999999674E+01  0.40000000000E+01  0.51100000000E-03 0.  1.
    9000002   -1    0    0    0    0 -0.00000000000E+00 -0.00000000000E+00  0.00000000000E+00  0.93800000000E+00  0.93800000000E+00 0. -1.
         11    1    1    2    0    0 -0.22419305671E+00  0.70104706255E-01  0.63150648332E+00  0.67377881839E+00  0.51100000000E-03 0.  1.
    9000002    1    1    2    0    0  0.32812718677E+00 -0.48224473762E+00  0.27050274877E+00  0.11372085010E+01  0.93800000000E+00 0. -1.
         22    1    1    2    0    0 -0.10393413006E+00  0.41214003137E+00  0.30979907353E+01  0.31270126806E+01  0.00000000000E+00 0.  1.
</event>
<event>
 5    1  0.6076093E+001  0.1597473E+01  0.7818608E-02  0.3356111E+00
         11   -1    0    0    0    0  0.00000000000E+00  0.00000000000E+00  0.39999999674E+01  0.40000000000E+01  0.51100000000E-03 0.  1.
    9000002   -1    0    0    0    0 -0.00000000000E+00 -0.00000000000E+00  0.00000000000E+00  0.93800000000E+00  0.93800000000E+00 0. -1.
         11    1    1    2    0    0  0.26678464790E-01  0.27457944219E-01  0.40754213559E+00  0.40933669831E+00  0.51100000000E-03 0.  1.
    9000002    1    1    2    0    0 -0.36321745186E+00  0.49895951169E-01  0.92093001066E-01  0.10113068991E+01  0.93800000000E+00 0. -1.
         22    1    1    2    0    0  0.33653898707E+00 -0.77353895388E-01  0.35003648307E+01  0.35173564026E+01  0.00000000000E+00 0.  1.
</event>
<event>
 5    1  0.6076093E+001  0.1589165E+01  0.7818608E-02  0.3365208E+00
         11   -1    0    0    0    0  0.00000000000E+00  0.00000000000E+00  0.39999999674E+01  0.40000000000E+01  0.51100000000E-03 0.  1.
    9000002   -1    0    0    0    0 -0.00000000000E+00 -0.00000000000E+00  0.00000000000E+00  0.93800000000E+00  0.93800000000E+00 0. -1.
         11    1    1    2    0    0 -0.42268447897E-01  0.11992851067E+00  0.98485697094E+00  0.99303221685E+00  0.51100000000E-03 0.  1.
    9000002    1    1    2    0    0 -0.23674661758E+00 -0.34460676150E+00  0.12710352641E+00  0.10347956742E+01  0.93800000000E+00 0. -1.
         22    1    1    2    0    0  0.27901506548E+00  0.22467825083E+00  0.28880394700E+01  0.29101721089E+01  0.00000000000E+00 0.  1.
</event>
<event>
 5    1  0.6076093E+001  0.1515106E+01  0.7818608E-02  0.3450994E+00
         11   -1    0    0    0    0  0.00000000000E+00  0.00000000000E+00  0.39999999674E+01  0.40000000000E+01  0.51100000000E-03 0.  1.
    9000002   -1    0    0    0    0 -0.00000000000E+00 -0.00000000000E+00  0.00000000000E+00  0.93800000000E+00  0.93800000000E+00 0.  1.
         11    1    1    2    0    0 -0.14431713097E+00 -0.25199941539E+00  0.89449083466E+00  0.94044949575E+00  0.51100000000E-03 0.  1.
    9000002    1    1    2    0    0  0.74945478970E-01 -0.62818933227E-01  0.70768068175E-01  0.94573524977E+00  0.93800000000E+00 0.  1.
         22    1    1    2    0    0  0.69371652002E-01  0.31481834862E+00  0.30347410645E+01  0.30518152545E+01  0.00000000000E+00 0.  1.
</event>
<event>
 5    1  0.6076093E+001  0.1599674E+01  0.7818608E-02  0.3353717E+00
         11   -1    0    0    0    0  0.00000000000E+00  0.00000000000E+00  0.39999999674E+01  0.40000000000E+01  0.51100000000E-03 0. -1.
    9000002   -1    0    0    0    0 -0.00000000000E+00 -0.00000000000E+00  0.00000000000E+00  0.93800000000E+00  0.93800000000E+00 0.  1.
         11    1    1    2    0    0  0.72796785000E-01 -0.14428097997E+00  0.13942476909E+01  0.14035822947E+01  0.51100000000E-03 0. -1.
    9000002    1    1    2    0    0 -0.20344307184E+00  0.39518284826E+00  0.13407238286E+00  0.10466030627E+01  0.93800000000E+00 0.  1.
         22    1    1    2    0    0  0.13064628684E+00 -0.25090186829E+00  0.24716798936E+01  0.24878146426E+01  0.00000000000E+00 0. -1.
</event>
<event>
 5    1  0.6076093E+001  0.1599659E+01  0.7818608E-02  0.3353734E+00
         11   -1    0    0    0    0  0.00000000000E+00  0.00000000000E+00  0.39999999674E+01  0.40000000000E+01  0.51100000000E-03 0.  1.
    9000002   -1    0    0    0    0 -0.00000000000E+00 -0.00000000000E+00  0.00000000000E+00  0.93800000000E+00  0.93800000000E+00 0.  1.
         11    1    1    2    0    0 -0.65694469414E-03  0.93648160150E-02  0.71838776646E-01  0.72451378912E-01  0.51100000000E-03 0.  1.
    9000002    1    1    2    0    0  0.10733171523E-01 -0.43885950711E+00  0.13069380879E+00  0.10438571452E+01  0.93800000000E+00 0.  1.
         22    1    1    2    0    0 -0.10076226828E-01  0.42949469110E+00  0.37974673819E+01  0.38216914759E+01  0.00000000000E+00 0.  1.
</event>
<event>
 5    1  0.6076093E+001  0.1599665E+01  0.7818608E-02  0.3353727E+00
         11   -1    0    0    0    0  0.00000000000E+00  0.00000000000E+00  0.39999999674E+01  0.40000000000E+01  0.51100000000E-03 0. -1.
    9000002   -1    0    0    0    0 -0.00000000000E+00 -0.00000000000E+00  0.00000000000E+00  0.93800000000E+00  0.93800000000E+00 0. -1.
         11    1    1    2    0    0  0.11384393840E-01 -0.45113591403E-01  0.42322248027E+00  0.42577267347E+00  0.51100000000E-03 0. -1.
    9000002    1    1    2    0    0 -0.10620251794E+00  0.39110335601E+00  0.11086907763E+00  0.10278019081E+01  0.93800000000E+00 0. -1.
         22    1    1    2    0    0  0.94818124100E-01 -0.34598976461E+00  0.34659084095E+01  0.34844254184E+01  0.00000000000E+00 0. -1.
</event>
<event>
 5    1  0.6076093E+001  0.1595944E+01  0.7818608E-02  0.3357777E+00
         11   -1    0    0    0    0  0.00000000000E+00  0.00000000000E+00  0.39999999674E+01  0.40000000000E+01  0.51100000000E-03 0.  1.
    9000002   -1    0    0    0    0 -0.00000000000E+00 -0.00000000000E+00  0.00000000000E+00  0.93800000000E+00  0.93800000000E+00 0. -1.
         11    1    1    2    0    0 -0.14119805633E+00  0.13006394655E+00  0.12959956896E+01  0.13101368668E+01  0.51100000000E-03 0.  1.
    9000002    1    1    2    0    0  0.27077713839E+00 -0.52488987941E+00  0.24657764090E+00  0.11355501650E+01  0.93800000000E+00 0. -1.
         22    1    1    2    0    0 -0.12957908206E+00  0.39482593286E+00  0.24574266369E+01  0.24923129682E+01  0.00000000000E+00 0.  1.
</event>
<event>
 5    1  0.6589079E+001  0.1599675E+01  0.7818608E-02  0.3353717E+00
         11   -1    0    0    0    0  0.00000000000E+00  0.00000000000E+00  0.39999999674E+01  0.40000000000E+01  0.51100000000E-03 0.  1.
    9000002   -1    0    0    0    0 -0.00000000000E+00 -0.00000000000E+00  0.00000000000E+00  0.93800000000E+00  0.93800000000E+00 0. -1.
         11    1    1    2    0    0  0.14350855967E+00 -0.54447593909E-01  0.13720614417E+01  0.13806201896E+01  0.51100000000E-03 0.  1.
    9000002    1    1    2    0    0 -0.40533193674E+00  0.14877420007E+00  0.12628905717E+00  0.10402983550E+01  0.93800000000E+00 0. -1.
         22    1    1    2    0    0  0.26182337707E+00 -0.94326606158E-01  0.25016494685E+01  0.25170814553E+01  0.00000000000E+00 0.  1.
</event>
<event>
 5    1  0.6076093E+001  0.1571164E+01  0.7818608E-02  0.3385268E+00
         11   -1    0    0    0    0  0.00000000000E+00  0.00000000000E+00  0.39999999674E+01  0.40000000000E+01  0.51100000000E-03 0. -1.
    9000002   -1    0    0    0    0 -0.00000000000E+00 -0.00000000000E+00  0.00000000000E+00  0.93800000000E+00  0.93800000000E+00 0. -1.
         11    1    1    2    0    0 -0.97446709890E-01  0.14216574515E+00  0.85448737651E+00  0.87169713668E+00  0.51100000000E-03 0. -1.
    9000002    1    1    2    0    0 -0.22974814477E+00 -0.27990622802E+00  0.11155067415E+00  0.10116418632E+01  0.93800000000E+00 0. -1.
         22    1    1    2    0    0  0.32719485466E+00  0.13774048288E+00  0.30339619167E+01  0.30546610001E+01  0.00000000000E+00 0. -1.
</event>
<event>
 5    1  0.6076093E+001  0.1530458E+01  0.7818608E-02  0.3432482E+00
         11   -1    0    0    0    0  0.00000000000E+00  0.00000000000E+00  0.39999999674E+01  0.40000000000E+01  0.51100000000E-03 0. -1.
    9000002   -1    0    0    0    0 -0.00000000000E+00 -0.00000000000E+00  0.00000000000E+00  0.93800000000E+00  0.93800000000E+00 0.  1.
         11    1    1    2    0    0  0.10679483893E-01 -0.24282585163E+00  0.78934981025E+00  0.82592483294E+00  0.51100000000E-03 0. -1.
    9000002    1    1    2    0    0  0.12002889216E+00 -0.47999059070E-01  0.63691997785E-01  0.94900554014E+00  0.93800000000E+00 0.  1.
         22    1    1    2    0    0 -0.13070837606E+00  0.29082491070E+00  0.31469581593E+01  0.31630696269E+01  0.00000000000E+00 0. -1.
</event>
<event>
 5    1  0.6076093E+001  0.1596068E+01  0.7818608E-02  0.3357643E+00
         11   -1    0    0    0    0  0.00000000000E+00  0.00000000000E+00  0.39999999674E+01  0.40000000000E+01  0.51100000000E-03 0. -1.
    9000002   -1    0    0    0    0 -0.00000000000E+00 -0.00000000000E+00  0.00000000000E+00  0.93800000000E+00  0.93800000000E+00 0.  1.
         11    1    1    2    0    0  0.85321406398E-01 -0.28119338195E-01  0.78754942018E+00  0.79265679201E+00  0.51100000000E-03 0. -1.
    9000002    1    1    2    0    0 -0.33047511760E+00 -0.13281573707E+00  0.88038183344E-01  0.10071983643E+01  0.93800000000E+00 0.  1.
         22    1    1    2    0    0  0.24515371120E+00  0.16093507527E+00  0.31244123638E+01  0.31381448437E+01  0.00000000000E+00 0. -1.
</event>
<event>
 5    1  0.6076093E+001  0.1599630E+01  0.7818608E-02  0.3353766E+00
         11   -1    0    0    0    0  0.00000000000E+00  0.00000000000E+00  0.39999999674E+01  0.40000000000E+01  0.51100000000E-03 0.  1.
    9000002   -1    0    0    0    0 -0.00000000000E+00 -0.00000000000E+00  0.00000000000E+00  0.93800000000E+00  0.93800000000E+00 0. -1.
         11    1    1    2    0    0 -0.65764483178E-01 -0.14139050741E+00  0.11324914856E+01  0.11431769193E+01  0.51100000000E-03 0.  1.
    9000002    1    1    2    0    0  0.20378049987E+00  0.45978468829E+00  0.17327176981E+00  0.10783299856E+01  0.93800000000E+00 0. -1.
         22    1    1    2    0    0 -0.13801601669E+00 -0.31839418088E+00  0.26942367120E+01  0.27164930951E+01  0.00000000000E+00 0.  1.
</event>
<event>
 5    1  0.6076093E+001  0.1599677E+01  0.7818608E-02  0.3353714E+00
         11   -1    0    0    0    0  0.00000000000E+00  0.00000000000E+00  0.39999999674E+01  0.40000000000E+01  0.51100000000E-03 0.  1.
    9000002   -1    0    0    0    0 -0.00000000000E+00 -0.00000000000E+00  0.00000000000E+00  0.93800000000E+00  0.93800000000E+00 0. -1.
         11    1    1    2    0    0 -0.14111153829E+00  0.47798068642E-01  0.14477079394E+01  0.14553541358E+01  0.51100000000E-03 0.  1.
    9000002    1    1    2    0    0  0.38042344635E+00 -0.12784606987E+00  0.10866139482E+00  0.10260204261E+01  0.93800000000E+00 0. -1.
         22    1    1    2    0    0 -0.23931190806E+00  0.80048001233E-01  0.24436306331E+01  0.24566254381E+01  0.00000000000E+00 0.  1.
</event>
<event>
 5    1  0.6076093E+001  0.1598249E+01  0.7818608E-02  0.3355266E+00
         11   -1    0    0    0    0  0.00000000000E+00  0.00000000000E+00  0.39999999674E+01  0.40000000000E+01  0.51100000000E-03 0.  1.
    9000002   -1    0    0    0    0 -0.00000000000E+00 -0.00000000000E+00  0.00000000000E+00  0.93800000000E+00  0.93800000000E+00 0. -1.
         11    1    1    2    0    0 -0.52840954854E-01 -0.51407037148E-01  0.96178871592E+00  0.96461010008E+00  0.51100000000E-03 0.  1.
    9000002    1    1    2    0    0  0.23961009490E+00  0.36330377319E+00  0.12958411689E+00  0.10421317923E+01  0.93800000000E+00 0. -1.
         22    1    1    2    0    0 -0.18676914004E+00 -0.31189673604E+00  0.29086271345E+01  0.29312581076E+01  0.00000000000E+00 0.  1.
</event>
<event>
 5    1  0.6076093E+001  0.1599448E+01  0.7818608E-02  0.3353963E+00
         11   -1    0    0    0    0  0.00000000000E+00  0.00000000000E+00  0.39999999674E+01  0.40000000000E+01  0.51100000000E-03 0.  1.
    9000002   -1    0    0    0    0 -0.00000000000E+00 -0.00000000000E+00  0.00000000000E+00  0.93800000000E+00  0.93800000000E+00 0.  1.
         11    1    1    2    0    0 -0.47921929759E-01 -0.36204763299E-01  0.78471402328E+00  0.78700931105E+00  0.51100000000E-03 0.  1.
    9000002    1    1    2    0    0  0.31166426173E+00  0.18448216150E+00  0.88255959188E-01  0.10093569212E+01  0.93800000000E+00 0.  1.
         22    1    1    2    0    0 -0.26374233197E+00 -0.14827739820E+00  0.31270299849E+01  0.31416337678E+01  0.00000000000E+00 0.  1.
</event>
<event>
 5    1  0.6076093E+001  0.1598379E+01  0.7818608E-02  0.3355124E+00
         11   -1    0    0    0    0  0.00000000000E+00  0.00000000000E+00  0.39999999674E+01  0.40000000000E+01  0.51100000000E-03 0. -1.
    9000002   -1    0    0    0    0 -0.00000000000E+00 -0.00000000000E+00  0.00000000000E+00  0.93800000000E+00  0.93800000000E+00 0. -1.
         11    1    1    2    0    0 -0.33430167140E-01  0.84101033081E-02  0.20264601293E+00  0.20555771352E+00  0.51100000000E-03 0. -1.
    9000002    1    1    2    0    0  0.49269867408E+00  0.18186728206E+00  0.19084240527E+00  0.10918298931E+01  0.93800000000E+00 0. -1.
         22    1    1    2    0    0 -0.45926850694E+00 -0.19027738536E+00  0.36065115492E+01  0.36406123934E+01  0.00000000000E+00 0. -1.
</event>
<event>
 5    1  0.6076093E+001  0.1599099E+01  0.7818608E-02  0.3354342E+00
         11   -1    0    0    0    0  0.00000000000E+00  0.00000000000E+00  0.39999999674E+01  0.40000000000E+01  0.51100000000E-03 0.  1.
    9000002   -1    0    0    0    0 -0.00000000000E+00 -0.00000000000E+00  0.00000000000E+00  0.93800000000E+00  0.93800000000E+00 0. -1.
         11    1    1    2    0    0 -0.50444650533E-01 -0.40728995493E-01  0.56728388139E+00  0.57097703723E+00  0.51100000000E-03 0.  1.
    9000002    1    1    2    0    0  0.21087081844E+00  0.31453938992E+00  0.96945272052E-01  0.10161908854E+01  0.93800000000E+00 0. -1.
         22    1    1    2    0    0 -0.16042616791E+00 -0.27381039443E+00  0.33357708139E+01  0.33508320773E+01  0.00000000000E+00 0.  1.
</event>
<event>
 5    1  0.6076093E+001  0.1599532E+01  0.7818608E-02  0.3353871E+00
         11   -1    0    0    0    0  0.00000000000E+00  0.00000000000E+00  0.39999999674E+01  0.40000000000E+01  0.51100000000E-03 0.  1.
    9000002   -1    0    0    0    0 -0.00000000000E+00 -0.00000000000E+00  0.00000000000E+00  0.93800000000E+00  0.93800000000E+00 0.  1.
         11    1    1    2    0    0 -0.67884758774E-01  0.86774739035E-01  0.10604904186E+01  0.10661980983E+01  0.51100000000E-03 0.  1.
    9000002    1    1    2    0    0  0.25198037336E+00 -0.27224177837E+00  0.92607392984E-01  0.10129313025E+01  0.93800000000E+00 0.  1.
         22    1    1    2    0    0 -0.18409561459E+00  0.18546703933E+00  0.28469021558E+01  0.28588705992E+01  0.00000000000E+00 0.  1.
</event>
<event>
 5    1  0.6076093E+001  0.1599669E+01  0.7818608E-02  0.3353723E+00
         11   -1    0    0    0    0  0.00000000000E+00  0.00000000000E+00  0.39999999674E+01  0.40000000000E+01  0.51100000000E-03 0. -1.
    9000002   -1    0    0    0    0 -0.00000000000E+00 -0.00000000000E+00  0.00000000000E+00  0.93800000000E+00  0.93800000000E+00 0. -1.
         11    1    1    2    0    0 -0.50142009929E-01  0.14707781334E+00  0.91409424624E+00  0.92720798986E+00  0.51100000000E-03 0. -1.
    9000002    1    1    2    0    0  0.21397108117E+00 -0.60319272942E+00  0.28837634775E+00  0.11715929371E+01  0.93800000000E+00 0. -1.
         22    1    1    2    0    0 -0.16382907124E+00  0.45611491608E+00  0.27975293734E+01  0.28391990730E+01  0.00000000000E+00 0. -1.
</event>
<event>
 5    1  0.6076093E+001  0.1599038E+01  0.7818608E-02  0.3354408E+00
         11   -1    0    0    0    0  0.00000000000E+00  0.00000000000E+00  0.39999999674E+01  0.40000000000E+01  0.51100000000E-03 0.  1.
    9000002   -1    0    0    0    0 -0.00000000000E+00 -0.00000000000E+00  0.00000000000E+00  0.93800000000E+00  0.93800000000E+00 0.  1.
         11    1    1    2    0    0  0.25042013964E+00  0.51814168167E-01  0.11819921537E+01  0.12093389379E+01  0.51100000000E-03 0.  1.
    9000002    1    1    2    0    0 -0.80382677952E+00 -0.20963619315E+00  0.51472104540E+00  0.13545724711E+01  0.93800000000E+00 0.  1.
         22    1    1    2    0    0  0.55340663988E+00  0.15782202499E+00  0.23032867683E+01  0.23740885909E+01  0.00000000000E+00 0.  1.
</event>
<event>
 5    1  0.6076093E+001  0.1597193E+01  0.7818608E-02  0.3356416E+00
         11   -1    0    0    0    0  0.00000000000E+00  0.00000000000E+00  0.39999999674E+01  0.40000000000E+01  0.51100000000E-03 0.  1.
    9000002   -1    0    0    0    0 -0.00000000000E+00 -0.00000000000E+00  0.00000000000E+00  0.93800000000E+00  0.93800000000E+00 0. -1.
         11    1    1    2    0    0  0.21633660465E-01 -0.65803137048E-01  0.79004708325E+00  0.79307800561E+00  0.51100000000E-03 0.  1.
    9000002    1    1    2    0    0 -0.33987763097E+00  0.28507919628E+00  0.13566769040E+00  0.10464400004E+01  0.93800000000E+00 0. -1.
         22    1    1    2    0    0  0.31824397050E+00 -0.21927605924E+00  0.30742851937E+01  0.30984819940E+01  0.00000000000E+00 0.  1.
</event>
<event>
 5    1  0.6076093E+001  0.1599676E+01  0.7818608E-02  0.3353715E+00
         11   -1    0    0    0    0  0.00000000000E+00  0.00000000000E+00  0.39999999674E+01  0.40000000000E+01  0.51100000000E-03 0. -1.
    9000002   -1    0    0    0    0 -0.00000000000E+00 -0.00000000000E+00  0.00000000000E+00  0.93800000000E+00  0.93800000000E+00 0. -1.
         11    1    1    2    0    0  0.25463656101E+00  0.16852080368E+00  0.12333310322E+01  0.12705686663E+01  0.51100000000E-03 0. -1.
    9000002    1    1    2    0    0 -0.71521777735E+00 -0.47051520456E+00  0.55098737365E+00  0.13843237023E+01  0.93800000000E+00 0.  1.
         22    1    1    2    0    0  0.46058121634E+00  0.30199440089E+00  0.22156815615E+01  0.22831076315E+01  0.00000000000E+00 0. -1.
</event>
<event>
 5    1  0.6076093E+001  0.1596768E+01  0.7818608E-02  0.3356878E+00
         11   -1    0    0    0    0  0.00000000000E+00  0.00000000000E+00  0.39999999674E+01  0.40000000000E+01  0.51100000000E-03 0.  1.
    9000002   -1    0    0    0    0 -0.00000000000E+00 -0.00000000000E+00  0.00000000000E+00  0.93800000000E+00  0.93800000000E+00 0.  1.
         11    1    1    2    0    0 -0.47895042338E-01  0.79410489771E-02  0.51772293213E+00  0.51999451046E+00  0.51100000000E-03 0.  1.
    9000002    1    1    2    0    0  0.61651915779E+00  0.12034319263E+00  0.28000346312E+00  0.11631097520E+01  0.93800000000E+00 0.  1.
         22    1    1    2    0    0 -0.56862411546E+00 -0.12828424161E+00  0.32022735721E+01  0.32548957375E+01  0.00000000000E+00 0.  1.
</event>
<event>
 5    1  0.6076093E+001  0.1599676E+01  0.7818608E-02  0.3353715E+00
         11   -1    0    0    0    0  0.00000000000E+00  0.00000000000E+00  0.39999999674E+01  0.40000000000E+01  0.51100000000E-03 0. -1.
    9000002   -1    0    0    0    0 -0.00000000000E+00 -0.00000000000E+00  0.00000000000E+00  0.93800000000E+00  0.93800000000E+00 0. -1.
         11    1    1    2    0    0  0.21376279322E-01 -0.71966543622E-02  0.22639198671E+00  0.22751336207E+00  0.51100000000E-03 0.  1.
    9000002    1    1    2    0    0 -0.36854195900E+00  0.12065166064E+00  0.10127887872E+00  0.10200399061E+01  0.93800000000E+00 0. -1.
         22    1    1    2    0    0  0.34716567968E+00 -0.11345500628E+00  0.36723291019E+01  0.36904467318E+01  0.00000000000E+00 0. -1.
</event>
<event>
 5    1  0.6076093E+001  0.1599672E+01  0.7818608E-02  0.3353719E+00
         11   -1    0    0    0    0  0.00000000000E+00  0.00000000000E+00  0.39999999674E+01  0.40000000000E+01  0.51100000000E-03 0.  1.
    9000002   -1    0    0    0    0 -0.00000000000E+00 -0.00000000000E+00  0.00000000000E+00  0.93800000000E+00  0.93800000000E+00 0.  1.
         11    1    1    2    0    0 -0.58366626188E-01  0.34905834147E-01  0.69208460198E+00  0.69541817472E+00  0.51100000000E-03 0.  1.
    9000002    1    1    2    0    0  0.33598211489E+00 -0.20505702602E+00  0.10442421279E+00  0.10225853420E+01  0.93800000000E+00 0.  1.
         22    1    1    2    0    0 -0.27761548870E+00  0.17015119188E+00  0.32034911526E+01  0.32199964833E+01  0.00000000000E+00 0.  1.
</event>
<event>
 5    1  0.6076093E+001  0.1514514E+01  0.7818608E-02  0.3451715E+00
         11   -1    0    0    0    0  0.00000000000E+00  0.00000000000E+00  0.39999999674E+01  0.40000000000E+01  0.51100000000E-03 0.  1.
    9000002   -1    0    0    0    0 -0.00000000000E+00 -0.00000000000E+00  0.00000000000E+00  0.93800000000E+00  0.93800000000E+00 0. -1.
         11    1    1    2    0    0  0.21797576665E+00 -0.38379535251E-01  0.62449071384E+00  0.66255213860E+00  0.51100000000E-03 0.  1.
    9000002    1    1    2    0    0  0.16996876924E+00 -0.29215960410E+00  0.14802413449E+00  0.10079691271E+01  0.93800000000E+00 0. -1.
         22    1    1    2    0    0 -0.38794453589E+00  0.33053913935E+00  0.32274851190E+01  0.32674787343E+01  0.00000000000E+00 0.  1.
</event>
<event>
 5    1  0.6076093E+001  0.1557346E+01  0.7818608E-02  0.3401001E+00
         11   -1    0    0    0    0  0.00000000000E+00  0.00000000000E+00  0.39999999674E+01  0.40000000000E+01  0.51100000000E-03 0.  1.
    9000002   -1    0    0    0    0 -0.00000000000E+00 -0.00000000000E+00  0.00000000000E+00  0.93800000000E+00  0.93800000000E+00 0. -1.
         11    1    1    2    0    0 -0.23456836995E+00 -0.48557605514E-01  0.89653029159E+00  0.92798005695E+00  0.51100000000E-03 0.  1.
    9000002    1    1    2    0    0  0.14451600326E+00  0.48609298134E+00  0.21570359134E+00  0.10879077631E+01  0.93800000000E+00 0. -1.
         22    1    1    2    0    0  0.90052366697E-01 -0.43753537582E+00  0.28877660844E+01  0.29221121799E+01  0.00000000000E+00 0.  1.
</event>
<event>
 5    1  0.6076093E+001  0.1599676E+01  0.7818608E-02  0.3353715E+00
         11   -1    0    0    0    0  0.00000000000E+00  0.00000000000E+00  0.39999999674E+01  0.40000000000E+01  0.51100000000E-03 0.  1.
    9000002   -1    0    0    0    0 -0.00000000000E+00 -0.00000000000E+00  0.00000000000E+00  0.93800000000E+00  0.93800000000E+00 0.  1.
         11    1    1    2    0    0  0.50584459311E-01  0.75986838002E-01  0.84116834900E+00  0.84610710880E+00  0.51100000000E-03 0.  1.
    9000002    1    1    2    0    0 -0.23050808413E+00 -0.35233682984E+00  0.11990951999E+00  0.10351316397E+01  0.93800000000E+00 0.  1.
         22    1    1    2    0    0  0.17992362482E+00  0.27634999184E+00  0.30389220984E+01  0.30567612515E+01  0.00000000000E+00 0.  1.
</event>
<event>
 5    1  0.6076093E+001  0.1599676E+01  0.7818608E-02  0.3353715E+00
         11   -1    0    0    0    0  0.00000000000E+00  0.00000000000E+00  0.39999999674E+01  0.40000000000E+01  0.51100000000E-03 0. -1.
    9000002   -1    0    0    0    0 -0.00000000000E+00 -0.00000000000E+00  0.00000000000E+00  0.93800000000E+00  0.93800000000E+00 0. -1.
         11    1    1    2    0    0 -0.20228445876E+00  0.19536322600E+00  0.11924377797E+01  0.12251505671E+01  0.51100000000E-03 0. -1.
    9000002    1    1    2    0    0  0.59479990413E+00 -0.56986135226E+00  0.50397276698E+00  0.13462397397E+01  0.93800000000E+00 0. -1.
         22    1    1    2    0    0 -0.39251544538E+00  0.37449812626E+00  0.23035894207E+01  0.23666096933E+01  0.00000000000E+00 0. -1.
</event>
<event>
 5    1  0.6076093E+001  0.1599676E+01  0.7818608E-02  0.3353715E+00
         11   -1    0    0    0    0  0.00000000000E+00  0.00000000000E+00  0.39999999674E+01  0.40000000000E+01  0.51100000000E-03 0. -1.
    9000002   -1    0    0    0    0 -0.00000000000E+00 -0.00000000000E+00  0.00000000000E+00  0.93800000000E+00  0.93800000000E+00 0.  1.
         11    1    1    2    0    0 -0.63534661672E-01 -0.47830181954E-01  0.59586310721E+00  0.60114680669E+00  0.51100000000E-03 0. -1.
    9000002    1    1    2    0    0  0.41159095152E+00  0.30491824677E+00  0.17999111362E+00  0.10838002812E+01  0.93800000000E+00 0.  1.
         22    1    1    2    0    0 -0.34805628985E+00 -0.25708806482E+00  0.32241457465E+01  0.32530529121E+01  0.00000000000E+00 0. -1.
</event>
<event>
 5    1  0.6076093E+001  0.1447763E+01  0.7818608E-02  0.3537208E+00
         11   -1    0    0    0    0  0.00000000000E+00  0.00000000000E+00  0.39999999674E+01  0.40000000000E+01  0.51100000000E-03 0.  1.
    9000002   -1    0    0    0    0 -0.00000000000E+00 -0.00000000000E+00  0.00000000000E+00  0.93800000000E+00  0.93800000000E+00 0.  1.
         11    1    1    2    0    0 -0.26598368156E+00 -0.30796968755E+00  0.12703258451E+01  0.13339117891E+01  0.51100000000E-03 0.  1.
    9000002    1    1    2    0    0 -0.11283626264E+00 -0.39041774730E-01  0.13038317052E+00  0.95451561197E+00  0.93800000000E+00 0.  1.
         22    1    1    2    0    0  0.37881994421E+00  0.34701146228E+00  0.25992909517E+01  0.26495725989E+01  0.00000000000E+00 0.  1.
</event>
<event>
 5    1  0.6076093E+001  0.1599400E+01  0.7818608E-02  0.3354015E+00
         11   -1    0    0    0    0  0.00000000000E+00  0.00000000000E+00  0.39999999674E+01  0.40000000000E+01  0.51100000000E-03 0.  1.
    9000002   -1    0    0    0    0 -0.00000000000E+00 -0.00000000000E+00  0.00000000000E+00  0.93800000000E+00  0.93800000000E+00 0. -1.
         11    1    1    2    0    0  0.76448040074E-01  0.56530787643E-01  0.55368696844E+00  0.56179137847E+00  0.51100000000E-03 0.  1.
    9000002    1    1    2    0    0 -0.49061229772E+00 -0.29287318403E+00  0.22670461294E+00  0.11214785375E+01  0.93800000000E+00 0. -1.
         22    1    1    2    0    0  0.41416425765E+00  0.23634239639E+00  0.32196083860E+01  0.32547300840E+01  0.00000000000E+00 0.  1.
</event>
<event>
 5    1  0.6076093E+001  0.1599650E+01  0.7818608E-02  0.3353744E+00
         11   -1    0    0    0    0  0.00000000000E+00  0.00000000000E+00  0.39999999674E+01  0.40000000000E+01  0.51100000000E-03 0. -1.
    9000002   -1    0    0    0    0 -0.00000000000E+00 -0.00000000000E+00  0.00000000000E+00  0.93800000000E+00  0.93800000000E+00 0.  1.
         11    1    1    2    0    0  0.11284879528E+00 -0.11792025315E+00  0.13056057431E+01  0.13157684653E+01  0.51100000000E-03 0. -1.
    9000002    1    1    2    0    0 -0.33617014336E+00  0.33038564463E+00  0.15140438596E+00  0.10606282702E+01  0.93800000000E+00 0.  1.
         22    1    1    2    0    0  0.22332134808E+00 -0.21246539148E+00  0.25429898383E+01  0.25616032645E+01  0.00000000000E+00 0. -1.
</event>
<event>
 5    1  0.6076093E+001  0.1599402E+01  0.7818608E-02  0.3354013E+00
         11   -1    0    0    0    0  0.00000000000E+00  0.00000000000E+00  0.39999999674E+01  0.40000000000E+01  0.51100000000E-03 0. -1.
    9000002   -1    0    0    0    0 -0.00000000000E+00 -0.00000000000E+00  0.00000000000E+00  0.93800000000E+00  0.93800000000E+00 0. -1.
         11    1    1    2    0    0  0.86644544622E-01 -0.66042531169E-01  0.11575931834E+01  0.11627085328E+01  0.51100000000E-03 0. -1.
    9000002    1    1    2    0    0 -0.30868907928E+00  0.28024179753E+00  0.11774108154E+00  0.10332140993E+01  0.93800000000E+00 0. -1.
         22    1    1    2    0    0  0.22204453466E+00 -0.21419926636E+00  0.27246657025E+01  0.27420773678E+01  0.00000000000E+00 0. -1.
</event>
<event>
 5    1  0.6076093E+001  0.1569030E+01  0.7818608E-02  0.3387678E+00
         11   -1    0    0    0    0  0.00000000000E+00  0.00000000000E+00  0.39999999674E+01  0.40000000000E+01  0.51100000000E-03 0.  1.
    9000002   -1    0    0    0    0 -0.00000000000E+00 -0.00000000000E+00  0.00000000000E+00  0.93800000000E+00  0.93800000000E+00 0.  1.
         11    1    1    2    0    0  0.11551818537E+00 -0.79412055750E-01  0.10473514914E+01  0.10566911249E+01  0.51100000000E-03 0.  1.
    9000002    1    1    2    0    0  0.19168585635E+00 -0.14051225795E-01  0.47709788578E-01  0.95867675908E+00  0.93800000000E+00 0.  1.
         22    1    1    2    0    0 -0.30720404172E+00  0.93463281545E-01  0.29049386874E+01  0.29226321160E+01  0.00000000000E+00 0.  1.
</event>
<event>
 5    1  0.6076093E+001  0.1599568E+01  0.7818608E-02  0.3353833E+00
         11   -1    0    0    0    0  0.00000000000E+00  0.00000000000E+00  0.39999999674E+01  0.40000000000E+01  0.51100000000E-03 0. -1.
    9000002   -1    0    0    0    0 -0.00000000000E+00 -0.00000000000E+00  0.00000000000E+00  0.93800000000E+00  0.93800000000E+00 0. -1.
         11    1    1    2    0    0 -0.40667550536E-01 -0.14996213143E-01  0.47851566746E+00  0.48047501621E+00  0.51100000000E-03 0. -1.
    9000002    1    1    2    0    0  0.39728816418E+00  0.12485823683E+00  0.11732557257E+00  0.10329747115E+01  0.93800000000E+00 0. -1.
         22    1    1    2    0    0 -0.35662061364E+00 -0.10986202369E+00  0.34041587273E+01  0.34245502723E+01  0.00000000000E+00 0. -1.
</event>
<event>
 5    1  0.6076093E+001  0.1599673E+01  0.7818608E-02  0.3353718E+00
         11   -1    0    0    0    0  0.00000000000E+00  0.00000000000E+00  0.39999999674E+01  0.40000000000E+01  0.51100000000E-03 0.  1.
    9000002   -1    0    0    0    0 -0.00000000000E+00 -0.00000000000E+00  0.00000000000E+00  0.93800000000E+00  0.93800000000E+00 0. -1.
         11    1    1    2    0    0 -0.99715182408E-01  0.55178617399E-01  0.11362611873E+01  0.11419621466E+01  0.51100000000E-03 0.  1.
    9000002    1    1    2    0    0  0.34690329309E+00 -0.19378439379E+00  0.10646981505E+00  0.10242431877E+01  0.93800000000E+00 0. -1.
         22    1    1    2    0    0 -0.24718811068E+00  0.13860577639E+00  0.27572689650E+01  0.27717946657E+01  0.00000000000E+00 0.  1.
</event>
<event>
 5    1  0.6076093E+001  0.1597984E+01  0.7818608E-02  0.3355554E+00
         11   -1    0    0    0    0  0.00000000000E+00  0.00000000000E+00  0.39999999674E+01  0.40000000000E+01  0.51100000000E-03 0.  1.
    9000002   -1    0    0    0    0 -0.00000000000E+00 -0.00000000000E+00  0.00000000000E+00  0.93800000000E+00  0.93800000000E+00 0. -1.
         11    1    1    2    0    0 -0.40284053810E-01 -0.63660736618E-01  0.39976328618E+00  0.40680024641E+00  0.51100000000E-03 0.  1.
    9000002    1    1    2    0    0  0.30693618581E+00  0.33227441775E+00  0.14048621523E+00  0.10508075407E+01  0.93800000000E+00 0. -1.
         22    1    1    2    0    0 -0.26665213200E+00 -0.26861368114E+00  0.34597504659E+01  0.34803922129E+01  0.00000000000E+00 0.  1.
</event>
<event>
 5    1  0.6076093E+001  0.1599378E+01  0.7818608E-02  0.3354038E+00
         11   -1    0    0    0    0  0.00000000000E+00  0.00000000000E+00  0.39999999674E+01  0.40000000000E+01  0.51100000000E-03 0. -1.
    9000002   -1    0    0    0    0 -0.00000000000E+00 -0.00000000000E+00  0.00000000000E+00  0.93800000000E+00  0.93800000000E+00 0.  1.
         11    1    1    2    0    0  0.25548537887E-01  0.13352618358E+00  0.12631796358E+01  0.12704743299E+01  0.51100000000E-03 0. -1.
    9000002    1    1    2    0    0 -0.18683149994E-01 -0.41013651893E+00  0.11410468602E+00  0.10302547761E+01  0.93800000000E+00 0.  1.
         22    1    1    2    0    0 -0.68653878929E-02  0.27661033535E+00  0.26227156455E+01  0.26372708940E+01  0.00000000000E+00 0. -1.
</event>
<event>
 5    1  0.6076093E+001  0.1599655E+01  0.7818608E-02  0.3353738E+00
         11   -1    0    0    0    0  0.00000000000E+00  0.00000000000E+00  0.39999999674E+01  0.40000000000E+01  0.51100000000E-03 0. -1.
    9000002   -1    0    0    0    0 -0.00000000000E+00 -0.00000000000E+00  0.00000000000E+00  0.93800000000E+00  0.93800000000E+00 0. -1.
         11    1    1    2    0    0  0.30237004616E-01 -0.25372536865E-01  0.38193187247E+00  0.38396648084E+00  0.51100000000E-03 0. -1.
    9000002    1    1    2    0    0 -0.28094614560E+00  0.27944331194E+00  0.10588069270E+00  0.10237548644E+01  0.93800000000E+00 0. -1.
         22    1    1    2    0    0  0.25070914098E+00 -0.25407077508E+00  0.35121874022E+01  0.35302786548E+01  0.00000000000E+00 0. -1.
</event>
<event>
 5    1  0.6076093E+001  0.1599672E+01  0.7818608E-02  0.3353719E+00
         11   -1    0    0    0    0  0.00000000000E+00  0.00000000000E+00  0.39999999674E+01  0.40000000000E+01  0.51100000000E-03 0.  1.
    9000002   -1    0    0    0    0 -0.00000000000E+00 -0.00000000000E+00  0.00000000000E+00  0.93800000000E+00  0.93800000000E+00 0.  1.
         11    1    1    2    0    0 -0.14048018129E+00  0.90808251044E-01  0.12094073941E+01  0.12209206878E+01  0.51100000000E-03 0.  1.
    9000002    1    1    2    0    0  0.44944904397E+00 -0.28666929533E+00  0.19567372741E+00  0.10965016806E+01  0.93800000000E+00 0.  1.
         22    1    1    2    0    0 -0.30896886268E+00  0.19586104428E+00  0.25949188459E+01  0.26205776316E+01  0.00000000000E+00 0.  1.
</event>
<event>
 5    1  0.6076093E+001  0.1599677E+01  0.7818608E-02  0.3353714E+00
         11   -1    0    0    0    0  0.00000000000E+00  0.00000000000E+00  0.39999999674E+01  0.40000000000E+01  0.51100000000E-03 0. -1.
    9000002   -1    0    0    0    0 -0.00000000000E+00 -0.00000000000E+00  0.00000000000E+00  0.93800000000E+00  0.93800000000E+00 0.  1.
         11    1    1    2    0    0  0.92472109163E-01 -0.89360713380E-01  0.11458306972E+01  0.11530241437E+01  0.51100000000E-03 0. -1.
    9000002    1    1    2    0    0 -0.31112239093E+00  0.30315498122E+00  0.12787385581E+00  0.10415833177E+01  0.93800000000E+00 0.  1.
         22    1    1    2    0    0  0.21865028177E+00 -0.21379426784E+00  0.27262954143E+01  0.27433925386E+01  0.00000000000E+00 0. -1.
</event>
<event>
 5    1  0.6076093E+001  0.1598773E+01  0.7818608E-02  0.3354696E+00
         11   -1    0    0    0    0  0.00000000000E+00  0.00000000000E+00  0.39999999674E+01  0.40000000000E+01  0.51100000000E-03 0.  1.
    9000002   -1    0    0    0    0 -0.00000000000E+00 -0.00000000000E+00  0.00000000000E+00  0.93800000000E+00  0.93800000000E+00 0. -1.
         11    1    1    2    0    0  0.21037965669E+00 -0.64381702765E-01  0.12780473425E+01  0.12968461259E+01  0.51100000000E-03 0.  1.
    9000002    1    1    2    0    0 -0.56808580509E+00  0.10265470109E+00  0.23229534893E+00  0.11256396398E+01  0.93800000000E+00 0. -1.
         22    1    1    2    0    0  0.35770614840E+00 -0.38272998328E-01  0.24896572760E+01  0.25155142342E+01  0.00000000000E+00 0.  1.
</event>
<event>
 5    1  0.6076093E+001  0.1599649E+01  0.7818608E-02  0.3353744E+00
         11   -1    0    0    0    0  0.00000000000E+00  0.00000000000E+00  0.39999999674E+01  0.40000000000E+01  0.51100000000E-03 0. -1.
    9000002   -1    0    0    0    0 -0.00000000000E+00 -0.00000000000E+00  0.00000000000E+00  0.93800000000E+00  0.93800000000E+00 0.  1.
         11    1    1    2    0    0 -0.61145710705E-01  0.35603449150E-01  0.44724995886E+00  0.45281253334E+00  0.51100000000E-03 0. -1.
    9000002    1    1    2    0    0  0.49507483795E+00 -0.27320625888E+00  0.22153330230E+00  0.11174353490E+01  0.93800000000E+00 0.  1.
         22    1    1    2    0    0 -0.43392912724E+00  0.23760280973E+00  0.33312167062E+01  0.33677521177E+01  0.00000000000E+00 0. -1.
</event>
<event>
 5    1  0.6076093E+001  0.1599513E+01  0.7818608E-02  0.3353892E+00
         11   -1    0    0    0    0  0.00000000000E+00  0.00000000000E+00  0.39999999674E+01  0.40000000000E+01  0.51100000000E-03 0.  1.
    9000002   -1    0    0    0    0 -0.00000000000E+00 -0.00000000000E+00  0.00000000000E+00  0.93800000000E+00  0.93800000000E+00 0. -1.
         11    1    1    2    0    0 -0.91438708317E-01 -0.74409573277E-01  0.12517925528E+01  0.12573315705E+01  0.51100000000E-03 0.  1.
    9000002    1    1    2    0    0  0.28339258167E+00  0.27634943651E+00  0.10576393031E+00  0.10235772445E+01  0.93800000000E+00 0. -1.
         22    1    1    2    0    0 -0.19195387336E+00 -0.20193986323E+00  0.26424434843E+01  0.26570911850E+01  0.00000000000E+00 0.  1.
</event>
<event>
 5    1  0.6076093E+001  0.1569284E+01  0.7818608E-02  0.3387391E+00
         11   -1    0    0    0    0  0.00000000000E+00  0.00000000000E+00  0.39999999674E+01  0.40000000000E+01  0.51100000000E-03 0. -1.
    9000002   -1    0    0    0    0 -0.00000000000E+00 -0.00000000000E+00  0.00000000000E+00  0.93800000000E+00  0.93800000000E+00 0. -1.
         11    1    1    2    0    0 -0.44979136850E-01  0.40879714559E-01  0.47541030758E-01  0.77166602496E-01  0.51100000000E-03 0. -1.
    9000002    1    1    2    0    0  0.26125235504E+00 -0.42069405974E+00  0.19553459665E+00  0.10785703794E+01  0.93800000000E+00 0. -1.
         22    1    1    2    0    0 -0.21627321819E+00  0.37981434519E+00  0.37569243399E+01  0.37822630181E+01  0.00000000000E+00 0. -1.
</event>
<event>
 5    1  0.6076093E+001  0.1598290E+01  0.7818608E-02  0.3355221E+00
         11   -1    0    0    0    0  0.00000000000E+00  0.00000000000E+00  0.39999999674E+01  0.40000000000E+01  0.51100000000E-03 0.  1.
    9000002   -1    0    0    0    0 -0.00000000000E+00 -0.00000000000E+00  0.00000000000E+00  0.93800000000E+00  0.93800000000E+00 0. -1.
         11    1    1    2    0    0  0.18713000716E+00  0.31714274747E-01  0.11978633381E+01  0.12128067747E+01  0.51100000000E-03 0.  1.
    9000002    1    1    2    0    0 -0.47347158973E+00 -0.57995006690E-01  0.15640534339E+00  0.10638822296E+01  0.93800000000E+00 0. -1.
         22    1    1    2    0    0  0.28634158257E+00  0.26280731943E-01  0.26457312859E+01  0.26613109957E+01  0.00000000000E+00 0.  1.
</event>
<event>
 5    1  0.6076093E+001  0.1599653E+01  0.7818608E-02  0.3353740E+00
         11   -1    0    0    0    0  0.00000000000E+00  0.00000000000E+00  0.39999999674E+01  0.40000000000E+01  0.51100000000E-03 0. -1.
    9000002   -1    0    0    0    0 -0.00000000000E+00 -0.00000000000E+00  0.00000000000E+00  0.93800000000E+00  0.93800000000E+00 0.  1.
         11    1    1    2    0    0 -0.17255962105E-02 -0.80263596736E-01  0.69164896773E+00  0.69629288257E+00  0.51100000000E-03 0. -1.
    9000002    1    1    2    0    0  0.31474851923E-01  0.46003952047E+00  0.14467438061E+00  0.10551785172E+01  0.93800000000E+00 0.  1.
         22    1    1    2    0    0 -0.29749255712E-01 -0.37977592374E+00  0.31636766190E+01  0.31865286003E+01  0.00000000000E+00 0. -1.
</event>
<event>
 5    1  0.6076093E+001  0.1551990E+01  0.7818608E-02  0.3407179E+00
         11   -1    0    0    0    0  0.00000000000E+00  0.00000000000E+00  0.39999999674E+01  0.40000000000E+01  0.51100000000E-03 0.  1.
    9000002   -1    0    0    0    0 -0.00000000000E+00 -0.00000000000E+00  0.00000000000E+00  0.93800000000E+00  0.93800000000E+00 0.  1.
         11    1    1    2    0    0  0.40537077024E-01  0.49323344171E-01  0.51470125226E-01  0.82009034903E-01  0.51100000000E-03 0.  1.
    9000002    1    1    2    0    0 -0.69402751845E-01  0.37528884062E+00  0.13830587875E+00  0.10220719016E+01  0.93800000000E+00 0.  1.
         22    1    1    2    0    0  0.28865674821E-01 -0.42461218479E+00  0.38102239634E+01  0.38339190635E+01  0.00000000000E+00 0.  1.
</event>
<event>
 5    1  0.6076093E+001  0.1599144E+01  0.7818608E-02  0.3354293E+00
         11   -1    0    0    0    0  0.00000000000E+00  0.00000000000E+00  0.39999999674E+01  0.40000000000E+01  0.51100000000E-03 0. -1.
    9000002   -1    0    0    0    0 -0.00000000000E+00 -0.00000000000E+00  0.00000000000E+00  0.93800000000E+00  0.93800000000E+00 0. -1.
         11    1    1    2    0    0 -0.65039008893E-01  0.18147965500E-01  0.46128717701E+00  0.46620332702E+00  0.51100000000E-03 0. -1.
    9000002    1    1    2    0    0  0.42600134177E+00 -0.24844294458E+00  0.16677255185E+00  0.10727805572E+01  0.93800000000E+00 0. -1.
         22    1    1    2    0    0 -0.36096233288E+00  0.23029497908E+00  0.33719402385E+01  0.33990161158E+01  0.00000000000E+00 0. -1.
</event>
<event>
 5    1  0.6076093E+001  0.1599503E+01  0.7818608E-02  0.3353903E+00
         11   -1    0    0    0    0  0.00000000000E+00  0.00000000000E+00  0.39999999674E+01  0.40000000000E+01  0.51100000000E-03 0.  1.
    9000002   -1    0    0    0    0 -0.00000000000E+00 -0.00000000000E+00  0.00000000000E+00  0.93800000000E+00  0.93800000000E+00 0. -1.
         11    1    1    2    0    0 -0.78552437048E-01 -0.27580968328E-01  0.59045212368E+00  0.59629285310E+00  0.51100000000E-03 0.  1.
    9000002    1    1    2    0    0  0.43762792842E+00  0.16991928628E+00  0.15028027094E+00  0.10596315055E+01  0.93800000000E+00 0. -1.
         22    1    1    2    0    0 -0.35907549137E+00 -0.14233831795E+00  0.32592675727E+01  0.32820756414E+01  0.00000000000E+00 0.  1.
</event>
<event>
 5    1  0.6076093E+001  0.1598805E+01  0.7818608E-02  0.3354661E+00
         11   -1    0    0    0    0  0.00000000000E+00  0.00000000000E+00  0.39999999674E+01  0.40000000000E+01  0.51100000000E-03 0. -1.
    9000002   -1    0    0    0    0 -0.00000000000E+00 -0.00000000000E+00  0.00000000000E+00  0.93800000000E+00  0.93800000000E+00 0. -1.
         11    1    1    2    0    0  0.53280546515E-01  0.48841350529E-01  0.80096447633E+00  0.80421927832E+00  0.51100000000E-03 0. -1.
    9000002    1    1    2    0    0 -0.15198138864E+00 -0.32739051078E+00  0.88170538718E-01  0.10089107656E+01  0.93800000000E+00 0. -1.
         22    1    1    2    0    0  0.98700842121E-01  0.27854916025E+00  0.31108649523E+01  0.31248699561E+01  0.00000000000E+00 0. -1.
</event>
<event>
 5    1  0.6076093E+001  0.1599675E+01  0.7818608E-02  0.3353717E+00
         11   -1    0    0    0    0  0.00000000000E+00  0.00000000000E+00  0.39999999674E+01  0.40000000000E+01  0.51100000000E-03 0. -1.
    9000002   -1    0    0    0    0 -0.00000000000E+00 -0.00000000000E+00  0.00000000000E+00  0.93800000000E+00  0.93800000000E+00 0.  1.
         11    1    1    2    0    0  0.13086076457E-01 -0.97664435007E-02  0.11474235859E+00  0.11589952024E+00  0.51100000000E-03 0. -1.
    9000002    1    1    2    0    0 -0.42628845457E+00  0.31320303547E+00  0.19252210013E+00  0.10939500660E+01  0.93800000000E+00 0.  1.
         22    1    1    2    0    0  0.41320237812E+00 -0.30343659197E+00  0.36927355086E+01  0.37281504137E+01  0.00000000000E+00 0. -1.
</event>
<event>
 5    1  0.6076093E+001  0.1588323E+01  0.7818608E-02  0.3366135E+00
         11   -1    0    0    0    0  0.00000000000E+00  0.00000000000E+00  0.39999999674E+01  0.40000000000E+01  0.51100000000E-03 0. -1.
    9000002   -1    0    0    0    0 -0.00000000000E+00 -0.00000000000E+00  0.00000000000E+00  0.93800000000E+00  0.93800000000E+00 0.  1.
         11    1    1    2    0    0 -0.15343229528E-01  0.38032116752E-01  0.10369777082E+01  0.10377884587E+01  0.51100000000E-03 0. -1.
    9000002    1    1    2    0    0 -0.35295682670E+00 -0.26304247889E-01  0.93252986082E-01  0.10068815990E+01  0.93800000000E+00 0.  1.
         22    1    1    2    0    0  0.36830005623E+00 -0.11727868862E-01  0.28697692731E+01  0.28933299423E+01  0.00000000000E+00 0. -1.
</event>
<event>
 5    1  0.6076093E+001  0.1584734E+01  0.7818608E-02  0.3370101E+00
         11   -1    0    0    0    0  0.00000000000E+00  0.00000000000E+00  0.39999999674E+01  0.40000000000E+01  0.51100000000E-03 0. -1.
    9000002   -1    0    0    0    0 -0.00000000000E+00 -0.00000000000E+00  0.00000000000E+00  0.93800000000E+00  0.93800000000E+00 0.  1.
         11    1    1    2    0    0 -0.33410406036E-02  0.64095585932E-01  0.83121242679E+00  0.83368685143E+00  0.51100000000E-03 0. -1.
    9000002    1    1    2    0    0  0.38239534890E+00  0.12879662525E+00  0.12244226081E+00  0.10284215482E+01  0.93800000000E+00 0.  1.
         22    1    1    2    0    0 -0.37905430830E+00 -0.19289221119E+00  0.30463452798E+01  0.30758916004E+01  0.00000000000E+00 0. -1.
</event>
<event>
 5    1  0.6076093E+001  0.1599633E+01  0.7818608E-02  0.3353762E+00
         11   -1    0    0    0    0  0.00000000000E+00  0.00000000000E+00  0.39999999674E+01  0.40000000000E+01  0.51100000000E-03 0.  1.
    9000002   -1    0    0    0    0 -0.00000000000E+00 -0.00000000000E+00  0.00000000000E+00  0.93800000000E+00  0.93800000000E+00 0. -1.
         11    1    1    2    0    0 -0.30879557209E-02 -0.48606841253E-01  0.59559675455E+00  0.59758506979E+00  0.51100000000E-03 0.  1.
    9000002    1    1    2    0    0  0.48043217744E-01  0.34557700586E+00  0.81648145547E-01  0.10041125621E+01  0.93800000000E+00 0. -1.
         22    1    1    2    0    0 -0.44955262023E-01 -0.29697016460E+00  0.33227550673E+01  0.33363023681E+01  0.00000000000E+00 0.  1.
</event>
<event>
 5    1  0.6076093E+001  0.1569542E+01  0.7818608E-02  0.3387100E+00
         11   -1    0    0    0    0  0.00000000000E+00  0.00000000000E+00  0.39999999674E+01  0.40000000000E+01  0.51100000000E-03 0. -1.
    9000002   -1    0    0    0    0 -0.00000000000E+00 -0.00000000000E+00  0.00000000000E+00  0.93800000000E+00  0.93800000000E+00 0.  1.
         11    1    1    2    0    0 -0.10098705311E+00 -0.59347292897E-01  0.68863413027E+00  0.69852538433E+00  0.51100000000E-03 0. -1.
    9000002    1    1    2    0    0 -0.22252646114E+00 -0.89704700456E-01  0.61503719879E-01  0.97015033204E+00  0.93800000000E+00 0.  1.
         22    1    1    2    0    0  0.32351351425E+00  0.14905199335E+00  0.32498621172E+01  0.32693242836E+01  0.00000000000E+00 0. -1.
</event>
<event>
 5    1  0.6076093E+001  0.1599676E+01  0.7818608E-02  0.3353715E+00
         11   -1    0    0    0    0  0.00000000000E+00  0.00000000000E+00  0.39999999674E+01  0.40000000000E+01  0.51100000000E-03 0. -1.
    9000002   -1    0    0    0    0 -0.00000000000E+00 -0.00000000000E+00  0.00000000000E+00  0.93800000000E+00  0.93800000000E+00 0. -1.
         11    1    1    2    0    0  0.11184300638E+00  0.39928491609E-01  0.91804362611E+00  0.92569298532E+00  0.51100000000E-03 0. -1.
    9000002    1    1    2    0    0 -0.46851265758E+00 -0.16918961819E+00  0.16980563125E+00  0.10755497151E+01  0.93800000000E+00 0. -1.
         22    1    1    2    0    0  0.35666965120E+00  0.12926112658E+00  0.29121507100E+01  0.29367572996E+01  0.00000000000E+00 0. -1.
</event>
<event>
 5    1  0.6076093E+001  0.1576898E+01  0.7818608E-02  0.3378826E+00
         11   -1    0    0    0    0  0.00000000000E+00  0.00000000000E+00  0.39999999674E+01  0.40000000000E+01  0.51100000000E-03 0.  1.
    9000002   -1    0    0    0    0 -0.00000000000E+00 -0.00000000000E+00  0.00000000000E+00  0.93800000000E+00  0.93800000000E+00 0. -1.
         11    1    1    2    0    0 -0.25760462431E+00 -0.27442457872E-02  0.12191069593E+01  0.12460295794E+01  0.51100000000E-03 0.  1.
    9000002    1    1    2    0    0  0.34994438886E+00 -0.25871886178E+00  0.14807350803E+00  0.10445890525E+01  0.93800000000E+00 0. -1.
         22    1    1    2    0    0 -0.92339764548E-01  0.26146310757E+00  0.26328195001E+01  0.26473813682E+01  0.00000000000E+00 0.  1.
</event>
<event>
 5    1  0.6076093E+001  0.1593265E+01  0.7818608E-02  0.3360706E+00
         11   -1    0    0    0    0  0.00000000000E+00  0.00000000000E+00  0.39999999674E+01  0.40000000000E+01  0.51100000000E-03 0. -1.
    9000002   -1    0    0    0    0 -0.00000000000E+00 -0.00000000000E+00  0.00000000000E+00  0.93800000000E+00  0.93800000000E+00 0. -1.
         11    1    1    2    0    0 -0.20078696296E-01  0.11861434067E-01  0.54100892639E-01  0.58915323715E-01  0.51100000000E-03 0. -1.
    9000002    1    1    2    0    0  0.24951739109E+00  0.28963960147E+00  0.10365226499E+00  0.10182032308E+01  0.93800000000E+00 0. -1.
         22    1    1    2    0    0 -0.22943869479E+00 -0.30150103554E+00  0.38422468097E+01  0.38608814455E+01  0.00000000000E+00 0. -1.
</event>
<event>
 5    1  0.6076093E+001  0.1598165E+01  0.7818608E-02  0.3355357E+00
         11   -1    0    0    0    0  0.00000000000E+00  0.00000000000E+00  0.39999999674E+01  0.40000000000E+01  0.51100000000E-03 0. -1.
    9000002   -1    0    0    0    0 -0.00000000000E+00 -0.00000000000E+00  0.00000000000E+00  0.93800000000E+00  0.93800000000E+00 0. -1.
         11    1    1    2    0    0  0.18518512297E+00 -0.26907280657E+00  0.10956498414E+01  0.11433033460E+01  0.51100000000E-03 0. -1.
    9000002    1    1    2    0    0 -0.66485066288E+00  0.76341401699E+00  0.83342471492E+00  0.16122245876E+01  0.93800000000E+00 0. -1.
         22    1    1    2    0    0  0.47966553992E+00 -0.49434121043E+00  0.20709254111E+01  0.21824720664E+01  0.00000000000E+00 0. -1.
</event>
<event>
 5    1  0.6076093E+001  0.1599677E+01  0.7818608E-02  0.3353715E+00
         11   -1    0    0    0    0  0.00000000000E+00  0.00000000000E+00  0.39999999674E+01  0.40000000000E+01  0.51100000000E-03 0. -1.
    9000002   -1    0    0    0    0 -0.00000000000E+00 -0.00000000000E+00  0.00000000000E+00  0.93800000000E+00  0.93800000000E+00 0. -1.
         11    1    1    2    0    0  0.12991864280E+00 -0.14554446939E+00  0.11466391483E+01  0.11631180696E+01  0.51100000000E-03 0. -1.
    9000002    1    1    2    0    0 -0.41954241586E+00  0.47090859370E+00  0.27941790473E+00  0.11643406322E+01  0.93800000000E+00 0. -1.
         22    1    1    2    0    0  0.28962377306E+00 -0.32536412431E+00  0.25739429143E+01  0.26105412982E+01  0.00000000000E+00 0. -1.
</event>
<event>
 5    1  0.6076093E+001  0.1599676E+01  0.7818608E-02  0.3353716E+00
         11   -1    0    0    0    0  0.00000000000E+00  0.00000000000E+00  0.39999999674E+01  0.40000000000E+01  0.51100000000E-03 0.  1.
    9000002   -1    0    0    0    0 -0.00000000000E+00 -0.00000000000E+00  0.00000000000E+00  0.93800000000E+00  0.93800000000E+00 0.  1.
         11    1    1    2    0    0 -0.81559236854E-01 -0.18269030650E+00  0.93277271547E+00  0.95398787050E+00  0.51100000000E-03 0.  1.
    9000002    1    1    2    0    0  0.31695903359E+00  0.69824600907E+00  0.42848089620E+00  0.12850877000E+01  0.93800000000E+00 0.  1.
         22    1    1    2    0    0 -0.23539979674E+00 -0.51555570258E+00  0.26387463557E+01  0.26989244295E+01  0.00000000000E+00 0.  1.
</event>
<event>
 5    1  0.6076093E+001  0.1599566E+01  0.7818608E-02  0.3353834E+00
         11   -1    0    0    0    0  0.00000000000E+00  0.00000000000E+00  0.39999999674E+01  0.40000000000E+01  0.51100000000E-03 0.  1.
    9000002   -1    0    0    0    0 -0.00000000000E+00 -0.00000000000E+00  0.00000000000E+00  0.93800000000E+00  0.93800000000E+00 0. -1.
         11    1    1    2    0    0  0.31874792440E-01  0.90874152962E-03  0.43247910895E+00  0.43365339732E+00  0.51100000000E-03 0.  1.
    9000002    1    1    2    0    0 -0.35455915148E+00  0.20426454546E-01  0.84708859572E-01  0.10065530402E+01  0.93800000000E+00 0. -1.
         22    1    1    2    0    0  0.32268435904E+00 -0.21335196075E-01  0.34828119988E+01  0.34977935624E+01  0.00000000000E+00 0.  1.
</event>
<event>
 5    1  0.6076093E+001  0.1599675E+01  0.7818608E-02  0.3353716E+00
         11   -1    0    0    0    0  0.00000000000E+00  0.00000000000E+00  0.39999999674E+01  0.40000000000E+01  0.51100000000E-03 0. -1.
    9000002   -1    0    0    0    0 -0.00000000000E+00 -0.00000000000E+00  0.00000000000E+00  0.93800000000E+00  0.93800000000E+00 0.  1.
         11    1    1    2    0    0  0.15417947055E+00  0.29089774686E-01  0.11860360957E+01  0.11963692597E+01  0.51100000000E-03 0. -1.
    9000002    1    1    2    0    0 -0.50164648485E+00 -0.91905432598E-01  0.17835489687E+00  0.10824741445E+01  0.93800000000E+00 0.  1.
         22    1    1    2    0    0  0.34746701430E+00  0.62815657912E-01  0.26356089748E+01  0.26591565958E+01  0.00000000000E+00 0. -1.
</event>
<event>
 5    1  0.6076093E+001  0.1551537E+01  0.7818608E-02  0.3407703E+00
         11   -1    0    0    0    0  0.00000000000E+00  0.00000000000E+00  0.39999999674E+01  0.40000000000E+01  0.51100000000E-03 0. -1.
    9000002   -1    0    0    0    0 -0.00000000000E+00 -0.00000000000E+00  0.00000000000E+00  0.93800000000E+00  0.93800000000E+00 0. -1.
         11    1    1    2    0    0  0.14588061718E+00  0.33377324101E-01  0.54550251901E+00  0.56565754622E+00  0.51100000000E-03 0. -1.
    9000002    1    1    2    0    0  0.21313637721E+00  0.13923789614E+00  0.80888233516E-01  0.97529544925E+00  0.93800000000E+00 0. -1.
         22    1    1    2    0    0 -0.35901699439E+00 -0.17261522024E+00  0.33736092148E+01  0.33970470045E+01  0.00000000000E+00 0. -1.
</event>
<event>
 5    1  0.6076093E+001  0.1598767E+01  0.7818608E-02  0.3354702E+00
         11   -1    0    0    0    0  0.00000000000E+00  0.00000000000E+00  0.39999999674E+01  0.40000000000E+01  0.51100000000E-03 0. -1.
    9000002   -1    0    0    0    0 -0.00000000000E+00 -0.00000000000E+00  0.00000000000E+00  0.93800000000E+00  0.93800000000E+00 0. -1.
         11    1    1    2    0    0 -0.11106102050E+00 -0.13577635766E+00  0.97119612371E+00  0.98691030059E+00  0.51100000000E-03 0. -1.
    9000002    1    1    2    0    0  0.51591155980E+00  0.55772852861E+00  0.42080531919E+00  0.12783375790E+01  0.93800000000E+00 0. -1.
         22    1    1    2    0    0 -0.40485053930E+00 -0.42195217094E+00  0.26079985245E+01  0.26727521204E+01  0.00000000000E+00 0. -1.
</event>
<event>
 5    1  0.6076093E+001  0.1595386E+01  0.7818608E-02  0.3358386E+00
         11   -1    0    0    0    0  0.00000000000E+00  0.00000000000E+00  0.39999999674E+01  0.40000000000E+01  0.51100000000E-03 0.  1.
    9000002   -1    0    0    0    0 -0.00000000000E+00 -0.00000000000E+00  0.00000000000E+00  0.93800000000E+00  0.93800000000E+00 0.  1.
         11    1    1    2    0    0 -0.13425543476E+00 -0.43731482749E-01  0.12122278382E+01  0.12204235155E+01  0.51100000000E-03 0.  1.
    9000002    1    1    2    0    0  0.23633176237E+00  0.27009851666E+00  0.89933775828E-01  0.10083342673E+01  0.93800000000E+00 0.  1.
         22    1    1    2    0    0 -0.10207632761E+00 -0.22636703391E+00  0.26978383533E+01  0.27092422172E+01  0.00000000000E+00 0.  1.
</event>
<event>
 5    1  0.6076093E+001  0.1599666E+01  0.7818608E-02  0.3353726E+00
         11   -1    0    0    0    0  0.00000000000E+00  0.00000000000E+00  0.39999999674E+01  0.40000000000E+01  0.51100000000E-03 0. -1.
    9000002   -1    0    0    0    0 -0.00000000000E+00 -0.00000000000E+00  0.00000000000E+00  0.93800000000E+00  0.93800000000E+00 0. -1.
         11    1    1    2    0    0  0.95068504055E-01  0.31023198490E+00  0.14107135288E+01  0.14475478667E+01  0.51100000000E-03 0. -1.
    9000002    1    1    2    0    0 -0.23932717261E+00 -0.76543103949E+00  0.47409935375E+00  0.13220349349E+01  0.93800000000E+00 0. -1.
         22    1    1    2    0    0  0.14425866855E+00  0.45519905460E+00  0.21151870848E+01  0.21684171984E+01  0.00000000000E+00 0. -1.
</event>
<event>
 5    1  0.6076093E+001  0.1571758E+01  0.7818608E-02  0.3384598E+00
         11   -1    0    0    0    0  0.00000000000E+00  0.00000000000E+00  0.39999999674E+01  0.40000000000E+01  0.51100000000E-03 0. -1.
    9000002   -1    0    0    0    0 -0.00000000000E+00 -0.00000000000E+00  0.00000000000E+00  0.93800000000E+00  0.93800000000E+00 0. -1.
         11    1    1    2    0    0  0.82041730148E-01 -0.28058001974E-01  0.19831234297E+00  0.21643969935E+00  0.51100000000E-03 0. -1.
    9000002    1    1    2    0    0  0.13804320532E+00  0.31753773549E+00  0.10313069347E+00  0.10051696772E+01  0.93800000000E+00 0. -1.
         22    1    1    2    0    0 -0.22008493547E+00 -0.28947973352E+00  0.36985569309E+01  0.37163906235E+01  0.00000000000E+00 0. -1.
</event>
<event>
 5    1  0.6076093E+001  0.1599631E+01  0.7818608E-02  0.3353764E+00
         11   -1    0    0    0    0  0.00000000000E+00  0.00000000000E+00  0.39999999674E+01  0.40000000000E+01  0.51100000000E-03 0. -1.
    9000002   -1    0    0    0    0 -0.00000000000E+00 -0.00000000000E+00  0.00000000000E+00  0.93800000000E+00  0.93800000000E+00 0.  1.
         11    1    1    2    0    0  0.76378563564E-01  0.27383932619E+00  0.13899361308E+01  0.14187122225E+01  0.51100000000E-03 0. -1.
    9000002    1    1    2    0    0 -0.19123744121E+00 -0.72724950593E+00  0.41022310525E+00  0.12702718602E+01  0.93800000000E+00 0.  1.
         22    1    1    2    0    0  0.11485887764E+00  0.45341017975E+00  0.21998407313E+01  0.22490159172E+01  0.00000000000E+00 0. -1.
</event>
<event>
 5    1  0.6076093E+001  0.1519121E+01  0.7818608E-02  0.3446113E+00
         11   -1    0    0    0    0  0.00000000000E+00  0.00000000000E+00  0.39999999674E+01  0.40000000000E+01  0.51100000000E-03 0. -1.
    9000002   -1    0    0    0    0 -0.00000000000E+00 -0.00000000000E+00  0.00000000000E+00  0.93800000000E+00  0.93800000000E+00 0. -1.
         11    1    1    2    0    0 -0.41146070630E+00 -0.29594138400E+00  0.13746297505E+01  0.14650899043E+01  0.51100000000E-03 0. -1.
    9000002    1    1    2    0    0 -0.27667988692E-01 -0.14686321025E+00  0.20264230007E+00  0.97120658045E+00  0.93800000000E+00 0. -1.
         22    1    1    2    0    0  0.43912869499E+00  0.44280459425E+00  0.24227279168E+01  0.25017035153E+01  0.00000000000E+00 0. -1.
</event>
<event>
 5    1  0.6076093E+001  0.1599674E+01  0.7818608E-02  0.3353717E+00
         11   -1    0    0    0    0  0.00000000000E+00  0.00000000000E+00  0.39999999674E+01  0.40000000000E+01  0.51100000000E-03 0. -1.
    9000002   -1    0    0    0    0 -0.00000000000E+00 -0.00000000000E+00  0.00000000000E+00  0.93800000000E+00  0.93800000000E+00 0.  1.
         11    1    1    2    0    0  0.54563142063E-02  0.12203241747E+00  0.10741042887E+01  0.10810281987E+01  0.51100000000E-03 0. -1.
    9000002    1    1    2    0    0 -0.18540712880E-01 -0.43382582805E+00  0.12777002006E+00  0.10414978565E+01  0.93800000000E+00 0.  1.
         22    1    1    2    0    0  0.13084398673E-01  0.31179341058E+00  0.27981256586E+01  0.28154739448E+01  0.00000000000E+00 0. -1.
</event>
<event>
 5    1  0.6076093E+001  0.1599672E+01  0.7818608E-02  0.3353719E+00
         11   -1    0    0    0    0  0.00000000000E+00  0.00000000000E+00  0.39999999674E+01  0.40000000000E+01  0.51100000000E-03 0.  1.
    9000002   -1    0    0    0    0 -0.00000000000E+00 -0.00000000000E+00  0.00000000000E+00  0.93800000000E+00  0.93800000000E+00 0.  1.
         11    1    1    2    0    0 -0.24292679558E-02 -0.10349585448E+00  0.95159427730E+00  0.95720908006E+00  0.51100000000E-03 0.  1.
    9000002    1    1    2    0    0  0.92993467212E-02  0.41333821946E+00  0.11550602118E+00  0.10315622145E+01  0.93800000000E+00 0.  1.
         22    1    1    2    0    0 -0.68700787654E-02 -0.30984236498E+00  0.29328996689E+01  0.29492287054E+01  0.00000000000E+00 0. -1.
</event>
<event>
 5    1  0.6076093E+001  0.1592873E+01  0.7818608E-02  0.3361135E+00
         11   -1    0    0    0    0  0.00000000000E+00  0.00000000000E+00  0.39999999674E+01  0.40000000000E+01  0.51100000000E-03 0.  1.
    9000002   -1    0    0    0    0 -0.00000000000E+00 -0.00000000000E+00  0.00000000000E+00  0.93800000000E+00  0.93800000000E+00 0.  1.
         11    1    1    2    0    0 -0.84298988681E-01 -0.29111661330E+00  0.84113525928E+00  0.89407157854E+00  0.51100000000E-03 0.  1.
    9000002    1    1    2    0    0  0.59464902606E+00  0.92323829749E+00  0.10546555906E+01  0.17883285025E+01  0.93800000000E+00 0.  1.
         22    1    1    2    0    0 -0.51035003738E+00 -0.63212168419E+00  0.21042091174E+01  0.22555999189E+01  0.00000000000E+00 0.  1.
</event>
<event>
 5    1  0.6076093E+001  0.1599201E+01  0.7818608E-02  0.3354231E+00
         11   -1    0    0    0    0  0.00000000000E+00  0.00000000000E+00  0.39999999674E+01  0.40000000000E+01  0.51100000000E-03 0. -1.
    9000002   -1    0    0    0    0 -0.00000000000E+00 -0.00000000000E+00  0.00000000000E+00  0.93800000000E+00  0.93800000000E+00 0. -1.
         11    1    1    2    0    0  0.73464238729E-01 -0.35314895792E-01  0.85295004935E+00  0.85683614773E+00  0.51100000000E-03 0. -1.
    9000002    1    1    2    0    0 -0.42989621411E+00  0.17349389545E+00  0.14667762451E+00  0.10565364226E+01  0.93800000000E+00 0. -1.
         22    1    1    2    0    0  0.35643197538E+00 -0.13817899966E+00  0.30003722935E+01  0.30246274297E+01  0.00000000000E+00 0. -1.
</event>
<event>
 5    1  0.6076093E+001  0.1465450E+01  0.7818608E-02  0.3513733E+00
         11   -1    0    0    0    0  0.00000000000E+00  0.00000000000E+00  0.39999999674E+01  0.40000000000E+01  0.51100000000E-03 0.  1.
    9000002   -1    0    0    0    0 -0.00000000000E+00 -0.00000000000E+00  0.00000000000E+00  0.93800000000E+00  0.93800000000E+00 0. -1.
         11    1    1    2    0    0 -0.10268383776E+00  0.55073236215E-01  0.28483408188E-01  0.11995248037E+00  0.51100000000E-03 0.  1.
    9000002    1    1    2    0    0 -0.38553100731E+00 -0.17192470628E+00  0.24436019774E+00  0.10572360987E+01  0.93800000000E+00 0. -1.
         22    1    1    2    0    0  0.48821484507E+00  0.11685147007E+00  0.37271563614E+01  0.37608114209E+01  0.00000000000E+00 0.  1.
</event>
<event>
 5    1  0.6076093E+001  0.1599665E+01  0.7818608E-02  0.3353727E+00
         11   -1    0    0    0    0  0.00000000000E+00  0.00000000000E+00  0.39999999674E+01  0.40000000000E+01  0.51100000000E-03 0. -1.
    9000002   -1    0    0    0    0 -0.00000000000E+00 -0.00000000000E+00  0.00000000000E+00  0.93800000000E+00  0.93800000000E+00 0.  1.
         11    1    1    2    0    0 -0.15090172349E+00  0.12028862397E-01  0.13758516608E+01  0.13841546436E+01  0.51100000000E-03 0. -1.
    9000002    1    1    2    0    0  0.41927275411E+00 -0.24864001804E-01  0.11931533800E+00  0.10346439053E+01  0.93800000000E+00 0.  1.
         22    1    1    2    0    0 -0.26837103062E+00  0.12835139407E-01  0.25048329686E+01  0.25192014511E+01  0.00000000000E+00 0. -1.
</event>
<event>
 5    1  0.6076093E+001  0.1573228E+01  0.7818608E-02  0.3382944E+00
         11   -1    0    0    0    0  0.00000000000E+00  0.00000000000E+00  0.39999999674E+01  0.40000000000E+01  0.51100000000E-03 0. -1.
    9000002   -1    0    0    0    0 -0.00000000000E+00 -0.00000000000E+00  0.00000000000E+00  0.93800000000E+00  0.93800000000E+00 0.  1.
         11    1    1    2    0    0  0.57034257832E-01 -0.12108386282E+00  0.12352141255E+01  0.12424445281E+01  0.51100000000E-03 0. -1.
    9000002    1    1    2    0    0  0.22278931472E+00 -0.28072509398E-01  0.53709304594E-01  0.96599784365E+00  0.93800000000E+00 0.  1.
         22    1    1    2    0    0 -0.27982357255E+00  0.14915637221E+00  0.27110765373E+01  0.27295576283E+01  0.00000000000E+00 0. -1.
</event>
<event>
 5    1  0.6076093E+001  0.1599663E+01  0.7818608E-02  0.3353729E+00
         11   -1    0    0    0    0  0.00000000000E+00  0.00000000000E+00  0.39999999674E+01  0.40000000000E+01  0.51100000000E-03 0.  1.
    9000002   -1    0    0    0    0 -0.00000000000E+00 -0.00000000000E+00  0.00000000000E+00  0.93800000000E+00  0.93800000000E+00 0.  1.
         11    1    1    2    0    0  0.27240912204E+00  0.13542974370E+00  0.14550154164E+01  0.14864784117E+01  0.51100000000E-03 0.  1.
    9000002    1    1    2    0    0 -0.67959070264E+00 -0.32633092483E+00  0.41250651762E+00  0.12721403314E+01  0.93800000000E+00 0.  1.
         22    1    1    2    0    0  0.40718158061E+00  0.19090118114E+00  0.21324780333E+01  0.21793812570E+01  0.00000000000E+00 0.  1.
</event>
<event>
 5    1  0.6076093E+001  0.1599677E+01  0.7818608E-02  0.3353714E+00
         11   -1    0    0    0    0  0.00000000000E+00  0.00000000000E+00  0.39999999674E+01  0.40000000000E+01  0.51100000000E-03 0. -1.
    9000002   -1    0    0    0    0 -0.00000000000E+00 -0.00000000000E+00  0.00000000000E+00  0.93800000000E+00  0.93800000000E+00 0. -1.
         11    1    1    2    0    0  0.14111684660E+00 -0.31467445953E-02  0.12783458932E+01  0.12861152165E+01  0.51100000000E-03 0. -1.
    9000002    1    1    2    0    0 -0.42741941409E+00  0.11459780983E-01  0.12377001145E+00  0.10382589744E+01  0.93800000000E+00 0. -1.
         22    1    1    2    0    0  0.28630256749E+00 -0.83130363873E-02  0.25978840627E+01  0.26136258091E+01  0.00000000000E+00 0. -1.
</event>
<event>
 5    1  0.6076093E+001  0.1599284E+01  0.7818608E-02  0.3354140E+00
         11   -1    0    0    0    0  0.00000000000E+00  0.00000000000E+00  0.39999999674E+01  0.40000000000E+01  0.51100000000E-03 0. -1.
    9000002   -1    0    0    0    0 -0.00000000000E+00 -0.00000000000E+00  0.00000000000E+00  0.93800000000E+00  0.93800000000E+00 0. -1.
         11    1    1    2    0    0 -0.23711247787E-01 -0.19133165242E-01  0.41382565187E+00  0.41494605981E+00  0.51100000000E-03 0. -1.
    9000002    1    1    2    0    0  0.19325198803E+00  0.31591374938E+00  0.92492502078E-01  0.10126927919E+01  0.93800000000E+00 0. -1.
         22    1    1    2    0    0 -0.16954074024E+00 -0.29678058414E+00  0.34936818134E+01  0.35103611482E+01  0.00000000000E+00 0. -1.
</event>
<event>
 5    1  0.6076093E+001  0.1599445E+01  0.7818608E-02  0.3353966E+00
         11   -1    0    0    0    0  0.00000000000E+00  0.00000000000E+00  0.39999999674E+01  0.40000000000E+01  0.51100000000E-03 0. -1.
    9000002   -1    0    0    0    0 -0.00000000000E+00 -0.00000000000E+00  0.00000000000E+00  0.93800000000E+00  0.93800000000E+00 0. -1.
         11    1    1    2    0    0  0.44102585650E-01  0.15659617055E+00  0.13093531235E+01  0.13194215634E+01  0.51100000000E-03 0. -1.
    9000002    1    1    2    0    0 -0.15114264577E+00 -0.41555858914E+00  0.13285059568E+00  0.10454789913E+01  0.93800000000E+00 0. -1.
         22    1    1    2    0    0  0.10704006012E+00  0.25896241859E+00  0.25577962482E+01  0.25730994454E+01  0.00000000000E+00 0. -1.
</event>
<event>
 5    1  0.6076093E+001  0.1599537E+01  0.7818608E-02  0.3353866E+00
         11   -1    0    0    0    0  0.00000000000E+00  0.00000000000E+00  0.39999999674E+01  0.40000000000E+01  0.51100000000E-03 0. -1.
    9000002   -1    0    0    0    0 -0.00000000000E+00 -0.00000000000E+00  0.00000000000E+00  0.93800000000E+00  0.93800000000E+00 0.  1.
         11    1    1    2    0    0  0.24431052141E-01 -0.83847783930E-01  0.89424010344E+00  0.89849482520E+00  0.51100000000E-03 0. -1.
    9000002    1    1    2    0    0 -0.15822220977E+00  0.36923178476E+00  0.10898509534E+00  0.10262008232E+01  0.93800000000E+00 0.  1.
         22    1    1    2    0    0  0.13379115763E+00 -0.28538400083E+00  0.29967747686E+01  0.30133043516E+01  0.00000000000E+00 0. -1.
</event>
<event>
 5    1  0.6076093E+001  0.1594291E+01  0.7818608E-02  0.3359584E+00
         11   -1    0    0    0    0  0.00000000000E+00  0.00000000000E+00  0.39999999674E+01  0.40000000000E+01  0.51100000000E-03 0.  1.
    9000002   -1    0    0    0    0 -0.00000000000E+00 -0.00000000000E+00  0.00000000000E+00  0.93800000000E+00  0.93800000000E+00 0.  1.
         11    1    1    2    0    0 -0.76159766602E-01  0.23954118720E+00  0.13087584486E+01  0.13326774660E+01  0.51100000000E-03 0.  1.
    9000002    1    1    2    0    0  0.39007323024E+00 -0.51442060961E+00  0.29945548795E+00  0.11774138091E+01  0.93800000000E+00 0.  1.
         22    1    1    2    0    0 -0.31391346364E+00  0.27487942241E+00  0.23917860308E+01  0.24279087250E+01  0.00000000000E+00 0.  1.
</event>
<event>
 5    1  0.6974328E+001  0.1564411E+01  0.7818608E-02  0.3392920E+00
         11   -1    0    0    0    0  0.00000000000E+00  0.00000000000E+00  0.39999999674E+01  0.40000000000E+01  0.51100000000E-03 0. -1.
    9000002   -1    0    0    0    0 -0.00000000000E+00 -0.00000000000E+00  0.00000000000E+00  0.93800000000E+00  0.93800000000E+00 0.  1.
         11    1    1    2    0    0 -0.17894826801E+00 -0.98382010983E-01  0.14310970032E+01  0.14455934409E+01  0.51100000000E-03 0. -1.
    9000002    1    1    2    0    0  0.52053364902E-01 -0.13357255943E+00  0.40015085100E-01  0.94973490431E+00  0.93800000000E+00 0.  1.
         22    1    1    2    0    0  0.12689490311E+00  0.23195457041E+00  0.25288878790E+01  0.25426716548E+01  0.00000000000E+00 0. -1.
</event>
<event>
 5    1  0.6076093E+001  0.1599675E+01  0.7818608E-02  0.3353716E+00
         11   -1    0    0    0    0  0.00000000000E+00  0.00000000000E+00  0.39999999674E+01  0.40000000000E+01  0.51100000000E-03 0. -1.
    9000002   -1    0    0    0    0 -0.00000000000E+00 -0.00000000000E+00  0.00000000000E+00  0.93800000000E+00  0.93800000000E+00 0. -1.
         11    1    1    2    0    0  0.32744178670E-01 -0.68326735234E-01  0.68817571152E+00  0.69233430872E+00  0.51100000000E-03 0. -1.
    9000002    1    1    2    0    0 -0.18019795935E+00  0.39054568814E+00  0.12529066191E+00  0.10394897734E+01  0.93800000000E+00 0. -1.
         22    1    1    2    0    0  0.14745378068E+00 -0.32221895290E+00  0.31865335939E+01  0.32061759179E+01  0.00000000000E+00 0.  1.
</event>
<event>
 5    1  0.6262720E+001  0.1556167E+01  0.7818608E-02  0.3402357E+00
         11   -1    0    0    0    0  0.00000000000E+00  0.00000000000E+00  0.39999999674E+01  0.40000000000E+01  0.51100000000E-03 0. -1.
    9000002   -1    0    0    0    0 -0.00000000000E+00 -0.00000000000E+00  0.00000000000E+00  0.93800000000E+00  0.93800000000E+00 0.  1.
         11    1    1    2    0    0  0.13390700550E+00  0.17756198217E-01  0.46529313109E+00  0.48450420809E+00  0.51100000000E-03 0. -1.
    9000002    1    1    2    0    0  0.24044030754E+00 -0.43878630018E-01  0.73604962186E-01  0.97211036725E+00  0.93800000000E+00 0.  1.
         22    1    1    2    0    0 -0.37434731304E+00  0.26122431800E-01  0.34611018741E+01  0.34813854247E+01  0.00000000000E+00 0. -1.
</event>
<event>
 5    1  0.6076093E+001  0.1591043E+01  0.7818608E-02  0.3363142E+00
         11   -1    0    0    0    0  0.00000000000E+00  0.00000000000E+00  0.39999999674E+01  0.40000000000E+01  0.51100000000E-03 0.  1.
    9000002   -1    0    0    0    0 -0.00000000000E+00 -0.00000000000E+00  0.00000000000E+00  0.93800000000E+00  0.93800000000E+00 0.  1.
         11    1    1    2    0    0 -0.78669461940E-01 -0.39853967333E-01 -0.11527097116E+00  0.14513745508E+00  0.51100000000E-03 0.  1.
    9000002    1    1    2    0    0  0.50479297731E+00 -0.48715770446E+00  0.82296048247E+00  0.14315189606E+01  0.93800000000E+00 0.  1.
         22    1    1    2    0    0 -0.42612351537E+00  0.52701167179E+00  0.32923104561E+01  0.33613435843E+01  0.00000000000E+00 0.  1.
</event>
<event>
 5    1  0.6076093E+001  0.1597795E+01  0.7818608E-02  0.3355760E+00
         11   -1    0    0    0    0  0.00000000000E+00  0.00000000000E+00  0.39999999674E+01  0.40000000000E+01  0.51100000000E-03 0. -1.
    9000002   -1    0    0    0    0 -0.00000000000E+00 -0.00000000000E+00  0.00000000000E+00  0.93800000000E+00  0.93800000000E+00 0. -1.
         11    1    1    2    0    0 -0.45527570718E-01  0.23067512179E-01  0.10144030548E+01  0.10156863140E+01  0.51100000000E-03 0. -1.
    9000002    1    1    2    0    0  0.24787614375E+00 -0.25061781080E+00  0.84854469138E-01  0.10056322144E+01  0.93800000000E+00 0. -1.
         22    1    1    2    0    0 -0.20234857304E+00  0.22755029862E+00  0.29007424434E+01  0.29166814716E+01  0.00000000000E+00 0. -1.
</event>
<event>
 5    1  0.6076093E+001  0.1599629E+01  0.7818608E-02  0.3353766E+00
         11   -1    0    0    0    0  0.00000000000E+00  0.00000000000E+00  0.39999999674E+01  0.40000000000E+01  0.51100000000E-03 0. -1.
    9000002   -1    0    0    0    0 -0.00000000000E+00 -0.00000000000E+00  0.00000000000E+00  0.93800000000E+00  0.93800000000E+00 0.  1.
         11    1    1    2    0    0  0.10967776525E+00  0.74541754168E-01  0.12466874940E+01  0.12537207241E+01  0.51100000000E-03 0. -1.
    9000002    1    1    2    0    0 -0.33402326227E+00 -0.21013833386E+00  0.10501055027E+00  0.10230351288E+01  0.93800000000E+00 0.  1.
         22    1    1    2    0    0  0.22434549702E+00  0.13559657969E+00  0.26483019231E+01  0.26612441471E+01  0.00000000000E+00 0. -1.
</event>
<event>
 5    1  0.6076093E+001  0.1599677E+01  0.7818608E-02  0.3353714E+00
         11   -1    0    0    0    0  0.00000000000E+00  0.00000000000E+00  0.39999999674E+01  0.40000000000E+01  0.51100000000E-03 0.  1.
    9000002   -1    0    0    0    0 -0.00000000000E+00 -0.00000000000E+00  0.00000000000E+00  0.93800000000E+00  0.93800000000E+00 0. -1.
         11    1    1    2    0    0  0.92314395703E-01 -0.49137551387E-02  0.99414964354E+00  0.99843871495E+00  0.51100000000E-03 0.  1.
    9000002    1    1    2    0    0 -0.36134757889E+00  0.19039124046E-01  0.87910186036E-01  0.10092109600E+01  0.93800000000E+00 0. -1.
         22    1    1    2    0    0  0.26903318319E+00 -0.14125368907E-01  0.29179401378E+01  0.29303503250E+01  0.00000000000E+00 0.  1.
</event>
<event>
 5    1  0.6076093E+001  0.1598838E+01  0.7818608E-02  0.3354626E+00
         11   -1    0    0    0    0  0.00000000000E+00  0.00000000000E+00  0.39999999674E+01  0.40000000000E+01  0.51100000000E-03 0.  1.
    9000002   -1    0    0    0    0 -0.00000000000E+00 -0.00000000000E+00  0.00000000000E+00  0.93800000000E+00  0.93800000000E+00 0. -1.
         11    1    1    2    0    0  0.56409553939E-02 -0.25823668640E-02  0.23543082822E+00  0.23551311002E+00  0.51100000000E-03 0.  1.
    9000002    1    1    2    0    0 -0.33926986549E+00 -0.83386920067E-01  0.82510985428E-01  0.10043453006E+01  0.93800000000E+00 0. -1.
         22    1    1    2    0    0  0.33362891009E+00  0.85969286931E-01  0.36820581537E+01  0.36981415894E+01  0.00000000000E+00 0.  1.
</event>
<event>
 5    1  0.6076093E+001  0.1599673E+01  0.7818608E-02  0.3353718E+00
         11   -1    0    0    0    0  0.00000000000E+00  0.00000000000E+00  0.39999999674E+01  0.40000000000E+01  0.51100000000E-03 0. -1.
    9000002   -1    0    0    0    0 -0.00000000000E+00 -0.00000000000E+00  0.00000000000E+00  0.93800000000E+00  0.93800000000E+00 0.  1.
         11    1    1    2    0    0 -0.39071140340E-02  0.13292127572E+00  0.10777095683E+01  0.10858828233E+01  0.51100000000E-03 0. -1.
    9000002    1    1    2    0    0  0.93995598704E-02 -0.47977074880E+00  0.15711614521E+00  0.10652688892E+01  0.93800000000E+00 0.  1.
         22    1    1    2    0    0 -0.54924458364E-02  0.34684947307E+00  0.27651742538E+01  0.27868482876E+01  0.00000000000E+00 0. -1.
</event>
<event>
 5    1  0.6076093E+001  0.1599469E+01  0.7818608E-02  0.3353940E+00
         11   -1    0    0    0    0  0.00000000000E+00  0.00000000000E+00  0.39999999674E+01  0.40000000000E+01  0.51100000000E-03 0. -1.
    9000002   -1    0    0    0    0 -0.00000000000E+00 -0.00000000000E+00  0.00000000000E+00  0.93800000000E+00  0.93800000000E+00 0.  1.
         11    1    1    2    0    0  0.10295071085E+00 -0.46758523736E-01  0.97454333373E+00  0.98108112755E+00  0.51100000000E-03 0. -1.
    9000002    1    1    2    0    0 -0.45012738704E+00  0.22218663572E+00  0.17274104276E+00  0.10778056566E+01  0.93800000000E+00 0.  1.
         22    1    1    2    0    0  0.34717667619E+00 -0.17542811198E+00  0.28527155909E+01  0.28791132158E+01  0.00000000000E+00 0. -1.
</event>
<event>
 5    1  0.6076093E+001  0.1599585E+01  0.7818608E-02  0.3353814E+00
         11   -1    0    0    0    0  0.00000000000E+00  0.00000000000E+00  0.39999999674E+01  0.40000000000E+01  0.51100000000E-03 0. -1.
    9000002   -1    0    0    0    0 -0.00000000000E+00 -0.00000000000E+00  0.00000000000E+00  0.93800000000E+00  0.93800000000E+00 0. -1.
         11    1    1    2    0    0 -0.10682347511E+00  0.33902989115E-01  0.90545549280E+00  0.91236537532E+00  0.51100000000E-03 0. -1.
    9000002    1    1    2    0    0  0.47232510407E+00 -0.17921265008E+00  0.17494084388E+00  0.10796557214E+01  0.93800000000E+00 0. -1.
         22    1    1    2    0    0 -0.36550162896E+00  0.14530966096E+00  0.29196036307E+01  0.29459789033E+01  0.00000000000E+00 0. -1.
</event>
<event>
 5    1  0.6076093E+001  0.1598966E+01  0.7818608E-02  0.3354486E+00
         11   -1    0    0    0    0  0.00000000000E+00  0.00000000000E+00  0.39999999674E+01  0.40000000000E+01  0.51100000000E-03 0.  1.
    9000002   -1    0    0    0    0 -0.00000000000E+00 -0.00000000000E+00  0.00000000000E+00  0.93800000000E+00  0.93800000000E+00 0.  1.
         11    1    1    2    0    0 -0.51115249881E-02 -0.68270435223E-01  0.47646455488E+00  0.48135819634E+00  0.51100000000E-03 0.  1.
    9000002    1    1    2    0    0  0.88035379289E-01  0.39106297762E+00  0.10898617658E+00  0.10258666907E+01  0.93800000000E+00 0.  1.
         22    1    1    2    0    0 -0.82923854301E-01 -0.32279254239E+00  0.34145492359E+01  0.34307751129E+01  0.00000000000E+00 0.  1.
</event>
<event>
 5    1  0.6076093E+001  0.1598642E+01  0.7818608E-02  0.3354839E+00
         11   -1    0    0    0    0  0.00000000000E+00  0.00000000000E+00  0.39999999674E+01  0.40000000000E+01  0.51100000000E-03 0.  1.
    9000002   -1    0    0    0    0 -0.00000000000E+00 -0.00000000000E+00  0.00000000000E+00  0.93800000000E+00  0.93800000000E+00 0.  1.
         11    1    1    2    0    0  0.90991420055E-01  0.37679220032E-01  0.38921267495E+00  0.40147967521E+00  0.51100000000E-03 0.  1.
    9000002    1    1    2    0    0 -0.92259239779E+00 -0.41994239102E+00  0.83532987241E+00  0.16140471926E+01  0.93800000000E+00 0.  1.
         22    1    1    2    0    0  0.83160097773E+00  0.38226317099E+00  0.27754574200E+01  0.29224731322E+01  0.00000000000E+00 0.  1.
</event>
<event>
 5    1  0.6258430E+001  0.1599440E+01  0.7818608E-02  0.3353971E+00
         11   -1    0    0    0    0  0.00000000000E+00  0.00000000000E+00  0.39999999674E+01  0.40000000000E+01  0.51100000000E-03 0. -1.
    9000002   -1    0    0    0    0 -0.00000000000E+00 -0.00000000000E+00  0.00000000000E+00  0.93800000000E+00  0.93800000000E+00 0.  1.
         11    1    1    2    0    0 -0.42095145016E-01 -0.13274661369E+00  0.14203170386E+01  0.14271280306E+01  0.51100000000E-03 0. -1.
    9000002    1    1    2    0    0  0.15238003413E+00  0.33268680729E+00  0.90135765930E-01  0.10108751866E+01  0.93800000000E+00 0.  1.
         22    1    1    2    0    0 -0.11028488911E+00 -0.19994019360E+00  0.24895471629E+01  0.24999967828E+01  0.00000000000E+00 0. -1.
</event>
<event>
 5    1  0.6736297E+001  0.1599665E+01  0.7818608E-02  0.3353727E+00
         11   -1    0    0    0    0  0.00000000000E+00  0.00000000000E+00  0.39999999674E+01  0.40000000000E+01  0.51100000000E-03 0. -1.
    9000002   -1    0    0    0    0 -0.00000000000E+00 -0.00000000000E+00  0.00000000000E+00  0.93800000000E+00  0.93800000000E+00 0.  1.
         11    1    1    2    0    0 -0.48719005404E-01  0.12350708045E+00  0.14697055392E+01  0.14756904057E+01  0.51100000000E-03 0. -1.
    9000002    1    1    2    0    0  0.12430298570E+00 -0.33795130541E+00  0.87047694576E-01  0.10085056362E+01  0.93800000000E+00 0.  1.
         22    1    1    2    0    0 -0.75583980296E-01  0.21444422496E+00  0.24432467336E+01  0.24538039581E+01  0.00000000000E+00 0. -1.
</event>
<event>
 5    1  0.6076093E+001  0.1594735E+01  0.7818608E-02  0.3359097E+00
         11   -1    0    0    0    0  0.00000000000E+00  0.00000000000E+00  0.39999999674E+01  0.40000000000E+01  0.51100000000E-03 0.  1.
    9000002   -1    0    0    0    0 -0.00000000000E+00 -0.00000000000E+00  0.00000000000E+00  0.93800000000E+00  0.93800000000E+00 0.  1.
         11    1    1    2    0    0 -0.34033644146E-01  0.18278544172E-01  0.52501329172E+00  0.52643291283E+00  0.51100000000E-03 0.  1.
    9000002    1    1    2    0    0  0.20364950435E+00  0.29063830690E+00  0.88494087797E-01  0.10067864469E+01  0.93800000000E+00 0.  1.
         22    1    1    2    0    0 -0.16961586020E+00 -0.30891685107E+00  0.33864925878E+01  0.34047806403E+01  0.00000000000E+00 0.  1.
</event>
<event>
 5    1  0.6076093E+001  0.1599675E+01  0.7818608E-02  0.3353716E+00
         11   -1    0    0    0    0  0.00000000000E+00  0.00000000000E+00  0.39999999674E+01  0.40000000000E+01  0.51100000000E-03 0. -1.
    9000002   -1    0    0    0    0 -0.00000000000E+00 -0.00000000000E+00  0.00000000000E+00  0.93800000000E+00  0.93800000000E+00 0.  1.
         11    1    1    2    0    0  0.59748395631E-01 -0.60356335379E-01  0.89523234933E+00  0.89925189930E+00  0.51100000000E-03 0. -1.
    9000002    1    1    2    0    0 -0.25569422178E+00  0.26097142908E+00  0.89660461948E-01  0.10106278347E+01  0.93800000000E+00 0.  1.
         22    1    1    2    0    0  0.19594582615E+00 -0.20061509370E+00  0.30151071561E+01  0.30281202660E+01  0.00000000000E+00 0. -1.
</event>
<event>
 5    1  0.6076093E+001  0.1598885E+01  0.7818608E-02  0.3354575E+00
         11   -1    0    0    0    0  0.00000000000E+00  0.00000000000E+00  0.39999999674E+01  0.40000000000E+01  0.51100000000E-03 0.  1.
    9000002   -1    0    0    0    0 -0.00000000000E+00 -0.00000000000E+00  0.00000000000E+00  0.93800000000E+00  0.93800000000E+00 0. -1.
         11    1    1    2    0    0 -0.30995339593E-01  0.50316656108E-01  0.55999781743E+00  0.56310771048E+00  0.51100000000E-03 0.  1.
    9000002    1    1    2    0    0  0.29530495442E+00 -0.20565335721E+00  0.87568087018E-01  0.10084693795E+01  0.93800000000E+00 0. -1.
         22    1    1    2    0    0 -0.26430961483E+00  0.15533670110E+00  0.33524340629E+01  0.33664229101E+01  0.00000000000E+00 0.  1.
</event>
<event>
 5    1  0.6076093E+001  0.1586250E+01  0.7818608E-02  0.3368424E+00
         11   -1    0    0    0    0  0.00000000000E+00  0.00000000000E+00  0.39999999674E+01  0.40000000000E+01  0.51100000000E-03 0. -1.
    9000002   -1    0    0    0    0 -0.00000000000E+00 -0.00000000000E+00  0.00000000000E+00  0.93800000000E+00  0.93800000000E+00 0.  1.
         11    1    1    2    0    0 -0.45586231613E-01  0.30759259047E-01  0.92336244294E+00  0.92499875604E+00  0.51100000000E-03 0. -1.
    9000002    1    1    2    0    0 -0.29540558207E+00 -0.24233897702E+00  0.10937402345E+00  0.10187243566E+01  0.93800000000E+00 0.  1.
         22    1    1    2    0    0  0.34099181368E+00  0.21157971798E+00  0.29672635010E+01  0.29942768874E+01  0.00000000000E+00 0. -1.
</event>
<event>
 5    1  0.6076093E+001  0.1599554E+01  0.7818608E-02  0.3353848E+00
         11   -1    0    0    0    0  0.00000000000E+00  0.00000000000E+00  0.39999999674E+01  0.40000000000E+01  0.51100000000E-03 0.  1.
    9000002   -1    0    0    0    0 -0.00000000000E+00 -0.00000000000E+00  0.00000000000E+00  0.93800000000E+00  0.93800000000E+00 0. -1.
         11    1    1    2    0    0  0.12562898152E+00  0.90992216666E-01  0.10920449164E+01  0.11030070648E+01  0.51100000000E-03 0.  1.
    9000002    1    1    2    0    0 -0.47358777695E+00 -0.29789192400E+00  0.21671847168E+00  0.11134791766E+01  0.93800000000E+00 0. -1.
         22    1    1    2    0    0  0.34795879543E+00  0.20689970734E+00  0.26912365793E+01  0.27215137585E+01  0.00000000000E+00 0.  1.
</event>
<event>
 5    1  0.6076093E+001  0.1599382E+01  0.7818608E-02  0.3354034E+00
         11   -1    0    0    0    0  0.00000000000E+00  0.00000000000E+00  0.39999999674E+01  0.40000000000E+01  0.51100000000E-03 0. -1.
    9000002   -1    0    0    0    0 -0.00000000000E+00 -0.00000000000E+00  0.00000000000E+00  0.93800000000E+00  0.93800000000E+00 0.  1.
         11    1    1    2    0    0 -0.17172904693E-01 -0.18203274881E-01  0.21866644221E+00  0.22009439325E+00  0.51100000000E-03 0. -1.
    9000002    1    1    2    0    0  0.13888887595E+00  0.34977813153E+00  0.95497029822E-01  0.10151839951E+01  0.93800000000E+00 0.  1.
         22    1    1    2    0    0 -0.12171597126E+00 -0.33157485665E+00  0.36858364953E+01  0.37027216117E+01  0.00000000000E+00 0. -1.
</event>
<event>
 5    1  0.6076093E+001  0.1599673E+01  0.7818608E-02  0.3353718E+00
         11   -1    0    0    0    0  0.00000000000E+00  0.00000000000E+00  0.39999999674E+01  0.40000000000E+01  0.51100000000E-03 0.  1.
    9000002   -1    0    0    0    0 -0.00000000000E+00 -0.00000000000E+00  0.00000000000E+00  0.93800000000E+00  0.93800000000E+00 0. -1.
         11    1    1    2    0    0  0.28544562798E-01  0.69140166228E-01  0.75411155239E+00  0.75781241031E+00  0.51100000000E-03 0.  1.
    9000002    1    1    2    0    0 -0.14772009991E+00 -0.34854004791E+00  0.96405116175E-01  0.10160902220E+01  0.93800000000E+00 0. -1.
         22    1    1    2    0    0  0.11917553711E+00  0.27939988168E+00  0.31494832988E+01  0.31640973676E+01  0.00000000000E+00 0.  1.
</event>
<event>
 5    1  0.6076093E+001  0.1542126E+01  0.7818608E-02  0.3418677E+00
         11   -1    0    0    0    0  0.00000000000E+00  0.00000000000E+00  0.39999999674E+01  0.40000000000E+01  0.51100000000E-03 0. -1.
    9000002   -1    0    0    0    0 -0.00000000000E+00 -0.00000000000E+00  0.00000000000E+00  0.93800000000E+00  0.93800000000E+00 0. -1.
         11    1    1    2    0    0  0.15119815864E+00 -0.10700219651E+00  0.58915013458E+00  0.61758278427E+00  0.51100000000E-03 0. -1.
    9000002    1    1    2    0    0  0.69932683820E-01 -0.14943359889E+00  0.61917891500E-01  0.95441018751E+00  0.93800000000E+00 0. -1.
         22    1    1    2    0    0 -0.22113084246E+00  0.25643579540E+00  0.33489319413E+01  0.33660070282E+01  0.00000000000E+00 0. -1.
</event>
<event>
 5    1  0.6076093E+001  0.1588590E+01  0.7818608E-02  0.3365841E+00
         11   -1    0    0    0    0  0.00000000000E+00  0.00000000000E+00  0.39999999674E+01  0.40000000000E+01  0.51100000000E-03 0. -1.
    9000002   -1    0    0    0    0 -0.00000000000E+00 -0.00000000000E+00  0.00000000000E+00  0.93800000000E+00  0.93800000000E+00 0.  1.
         11    1    1    2    0    0  0.30724652393E-01 -0.52165294817E-01  0.11914636319E+01  0.11930008673E+01  0.51100000000E-03 0. -1.
    9000002    1    1    2    0    0  0.27929550628E+00  0.11823663084E+00  0.70127705678E-01  0.98830550732E+00  0.93800000000E+00 0.  1.
         22    1    1    2    0    0 -0.31002015868E+00 -0.66071336019E-01  0.27384086298E+01  0.27566936254E+01  0.00000000000E+00 0. -1.
</event>
<event>
 5    1  0.6076093E+001  0.1598382E+01  0.7818608E-02  0.3355121E+00
         11   -1    0    0    0    0  0.00000000000E+00  0.00000000000E+00  0.39999999674E+01  0.40000000000E+01  0.51100000000E-03 0. -1.
    9000002   -1    0    0    0    0 -0.00000000000E+00 -0.00000000000E+00  0.00000000000E+00  0.93800000000E+00  0.93800000000E+00 0.  1.
         11    1    1    2    0    0 -0.15995492182E+00  0.59010513206E-01  0.10422303072E+01  0.10560833736E+01  0.51100000000E-03 0. -1.
    9000002    1    1    2    0    0  0.47654872375E+00 -0.30931846294E+00  0.22497350204E+00  0.11194791978E+01  0.93800000000E+00 0.  1.
         22    1    1    2    0    0 -0.31659380193E+00  0.25030794973E+00  0.27327961581E+01  0.27624374286E+01  0.00000000000E+00 0. -1.
</event>
<event>
 5    1  0.6076093E+001  0.1585119E+01  0.7818608E-02  0.3369675E+00
         11   -1    0    0    0    0  0.00000000000E+00  0.00000000000E+00  0.39999999674E+01  0.40000000000E+01  0.51100000000E-03 0.  1.
    9000002   -1    0    0    0    0 -0.00000000000E+00 -0.00000000000E+00  0.00000000000E+00  0.93800000000E+00  0.93800000000E+00 0.  1.
         11    1    1    2    0    0  0.84476041741E-01 -0.45905015888E-01  0.70838391364E+00  0.71487866266E+00  0.51100000000E-03 0.  1.
    9000002    1    1    2    0    0  0.15064673555E+00  0.25026005287E+00  0.68315479395E-01  0.98480228357E+00  0.93800000000E+00 0.  1.
         22    1    1    2    0    0 -0.23512277729E+00 -0.20435503698E+00  0.32233005743E+01  0.32383190538E+01  0.00000000000E+00 0.  1.
</event>
<event>
 5    1  0.6076093E+001  0.1599567E+01  0.7818608E-02  0.3353834E+00
         11   -1    0    0    0    0  0.00000000000E+00  0.00000000000E+00  0.39999999674E+01  0.40000000000E+01  0.51100000000E-03 0. -1.
    9000002   -1    0    0    0    0 -0.00000000000E+00 -0.00000000000E+00  0.00000000000E+00  0.93800000000E+00  0.93800000000E+00 0.  1.
         11    1    1    2    0    0  0.61285787522E-01  0.76115155385E-01  0.93345481199E+00  0.93855613139E+00  0.51100000000E-03 0. -1.
    9000002    1    1    2    0    0 -0.27549098118E+00 -0.27720947648E+00  0.10299795045E+00  0.10213681767E+01  0.93800000000E+00 0.  1.
         22    1    1    2    0    0  0.21420519365E+00  0.20109432110E+00  0.29635472049E+01  0.29780756919E+01  0.00000000000E+00 0. -1.
</event>
<event>
 5    1  0.6076093E+001  0.1599677E+01  0.7818608E-02  0.3353714E+00
         11   -1    0    0    0    0  0.00000000000E+00  0.00000000000E+00  0.39999999674E+01  0.40000000000E+01  0.51100000000E-03 0. -1.
    9000002   -1    0    0    0    0 -0.00000000000E+00 -0.00000000000E+00  0.00000000000E+00  0.93800000000E+00  0.93800000000E+00 0. -1.
         11    1    1    2    0    0  0.87243412934E-01 -0.44824014899E-01  0.10112630885E+01  0.10160088093E+01  0.51100000000E-03 0. -1.
    9000002    1    1    2    0    0 -0.33653447343E+00  0.17187009468E+00  0.96053640975E-01  0.10158076015E+01  0.93800000000E+00 0. -1.
         22    1    1    2    0    0  0.24929106050E+00 -0.12704607979E+00  0.28926832379E+01  0.29061835892E+01  0.00000000000E+00 0. -1.
</event>
<event>
 5    1  0.6076093E+001  0.1599656E+01  0.7818608E-02  0.3353737E+00
         11   -1    0    0    0    0  0.00000000000E+00  0.00000000000E+00  0.39999999674E+01  0.40000000000E+01  0.51100000000E-03 0. -1.
    9000002   -1    0    0    0    0 -0.00000000000E+00 -0.00000000000E+00  0.00000000000E+00  0.93800000000E+00  0.93800000000E+00 0. -1.
         11    1    1    2    0    0  0.13252743522E+00 -0.12142312255E+00  0.11476576109E+01  0.11616476871E+01  0.51100000000E-03 0. -1.
    9000002    1    1    2    0    0 -0.41951797712E+00  0.39334073898E+00  0.22956709024E+00  0.11239472047E+01  0.93800000000E+00 0. -1.
         22    1    1    2    0    0  0.28699054190E+00 -0.27191761642E+00  0.26227752662E+01  0.26524051082E+01  0.00000000000E+00 0.  1.
</event>
<event>
 5    1  0.6076093E+001  0.1581574E+01  0.7818608E-02  0.3373609E+00
         11   -1    0    0    0    0  0.00000000000E+00  0.00000000000E+00  0.39999999674E+01  0.40000000000E+01  0.51100000000E-03 0.  1.
    9000002   -1    0    0    0    0 -0.00000000000E+00 -0.00000000000E+00  0.00000000000E+00  0.93800000000E+00  0.93800000000E+00 0.  1.
         11    1    1    2    0    0  0.22225200159E-01 -0.34540395941E-01  0.12918934409E+01  0.12925462940E+01  0.51100000000E-03 0.  1.
    9000002    1    1    2    0    0  0.15434494335E+00 -0.30038551214E+00  0.90985963823E-01  0.10010875402E+01  0.93800000000E+00 0.  1.
         22    1    1    2    0    0 -0.17657014350E+00  0.33492590808E+00  0.26171205626E+01  0.26443661658E+01  0.00000000000E+00 0.  1.
</event>
<event>
 5    1  0.6076093E+001  0.1496566E+01  0.7818608E-02  0.3473892E+00
         11   -1    0    0    0    0  0.00000000000E+00  0.00000000000E+00  0.39999999674E+01  0.40000000000E+01  0.51100000000E-03 0.  1.
    9000002   -1    0    0    0    0 -0.00000000000E+00 -0.00000000000E+00  0.00000000000E+00  0.93800000000E+00  0.93800000000E+00 0.  1.
         11    1    1    2    0    0 -0.30767542759E+00 -0.20786779205E-01  0.64965559839E+00  0.71913066725E+00  0.51100000000E-03 0.  1.
    9000002    1    1    2    0    0  0.12075660599E+00 -0.25024533405E+00  0.13598746408E+00  0.98769503162E+00  0.93800000000E+00 0.  1.
         22    1    1    2    0    0  0.18691882160E+00  0.27103211325E+00  0.32143569049E+01  0.32311743011E+01  0.00000000000E+00 0.  1.
</event>
<event>
 5    1  0.6076093E+001  0.1599513E+01  0.7818608E-02  0.3353892E+00
         11   -1    0    0    0    0  0.00000000000E+00  0.00000000000E+00  0.39999999674E+01  0.40000000000E+01  0.51100000000E-03 0. -1.
    9000002   -1    0    0    0    0 -0.00000000000E+00 -0.00000000000E+00  0.00000000000E+00  0.93800000000E+00  0.93800000000E+00 0. -1.
         11    1    1    2    0    0  0.16541407244E-01  0.11590677678E+00  0.86747538621E+00  0.87534096549E+00  0.51100000000E-03 0. -1.
    9000002    1    1    2    0    0 -0.63272547464E-01 -0.45823739333E+00  0.14575303979E+00  0.10559701097E+01  0.93800000000E+00 0. -1.
         22    1    1    2    0    0  0.46731140220E-01  0.34233061655E+00  0.29867715414E+01  0.30066889248E+01  0.00000000000E+00 0. -1.
</event>
<event>
 5    1  0.6076093E+001  0.1487545E+01  0.7818608E-02  0.3485257E+00
         11   -1    0    0    0    0  0.00000000000E+00  0.00000000000E+00  0.39999999674E+01  0.40000000000E+01  0.51100000000E-03 0. -1.
    9000002   -1    0    0    0    0 -0.00000000000E+00 -0.00000000000E+00  0.00000000000E+00  0.93800000000E+00  0.93800000000E+00 0. -1.
         11    1    1    2    0    0  0.32147952883E+00  0.28225121674E+00  0.63950907831E+00  0.76940688791E+00  0.51100000000E-03 0. -1.
    9000002    1    1    2    0    0 -0.18186611834E+00  0.16253331449E-01  0.18165157065E+00  0.97271822688E+00  0.93800000000E+00 0. -1.
         22    1    1    2    0    0 -0.13961341048E+00 -0.29850454819E+00  0.31788393184E+01  0.31958748852E+01  0.00000000000E+00 0. -1.
</event>
<event>
 5    1  0.6076093E+001  0.1594761E+01  0.7818608E-02  0.3359069E+00
         11   -1    0    0    0    0  0.00000000000E+00  0.00000000000E+00  0.39999999674E+01  0.40000000000E+01  0.51100000000E-03 0.  1.
    9000002   -1    0    0    0    0 -0.00000000000E+00 -0.00000000000E+00  0.00000000000E+00  0.93800000000E+00  0.93800000000E+00 0. -1.
         11    1    1    2    0    0 -0.56934036632E-01  0.16287500522E+00  0.90124328762E+00  0.91761074343E+00  0.51100000000E-03 0.  1.
    9000002    1    1    2    0    0  0.19244952362E+00 -0.39409457501E+00  0.13464275361E+00  0.10441839035E+01  0.93800000000E+00 0. -1.
         22    1    1    2    0    0 -0.13551548699E+00  0.23121956979E+00  0.29641139261E+01  0.29762053531E+01  0.00000000000E+00 0. -1.
</event>
<event>
 5    1  0.6076093E+001  0.1599055E+01  0.7818608E-02  0.3354390E+00
         11   -1    0    0    0    0  0.00000000000E+00  0.00000000000E+00  0.39999999674E+01  0.40000000000E+01  0.51100000000E-03 0.  1.
    9000002   -1    0    0    0    0 -0.00000000000E+00 -0.00000000000E+00  0.00000000000E+00  0.93800000000E+00  0.93800000000E+00 0.  1.
         11    1    1    2    0    0  0.51019938011E-01 -0.79850366175E-01  0.65244146023E+00  0.65928691417E+00  0.51100000000E-03 0.  1.
    9000002    1    1    2    0    0 -0.17005769372E+00  0.49935638876E+00  0.19198352581E+00  0.10931505369E+01  0.93800000000E+00 0.  1.
         22    1    1    2    0    0  0.11903775571E+00 -0.41950602258E+00  0.31555749813E+01  0.31855625489E+01  0.00000000000E+00 0.  1.
</event>
<event>
 5    1  0.6076093E+001  0.1599567E+01  0.7818608E-02  0.3353834E+00
         11   -1    0    0    0    0  0.00000000000E+00  0.00000000000E+00  0.39999999674E+01  0.40000000000E+01  0.51100000000E-03 0. -1.
    9000002   -1    0    0    0    0 -0.00000000000E+00 -0.00000000000E+00  0.00000000000E+00  0.93800000000E+00  0.93800000000E+00 0. -1.
         11    1    1    2    0    0 -0.30065690796E-01  0.13480981495E+00  0.10502029469E+01  0.10592469602E+01  0.51100000000E-03 0. -1.
    9000002    1    1    2    0    0  0.14685396799E+00 -0.47426876441E+00  0.16874076088E+00  0.10746229074E+01  0.93800000000E+00 0. -1.
         22    1    1    2    0    0 -0.11678827719E+00  0.33945894946E+00  0.27810562596E+01  0.28041301323E+01  0.00000000000E+00 0. -1.
</event>
<event>
 5    1  0.6076093E+001  0.1599673E+01  0.7818608E-02  0.3353718E+00
         11   -1    0    0    0    0  0.00000000000E+00  0.00000000000E+00  0.39999999674E+01  0.40000000000E+01  0.51100000000E-03 0. -1.
    9000002   -1    0    0    0    0 -0.00000000000E+00 -0.00000000000E+00  0.00000000000E+00  0.93800000000E+00  0.93800000000E+00 0.  1.
         11    1    1    2    0    0 -0.18988506834E-01 -0.14212999244E-01  0.23634294160E+00  0.23753067150E+00  0.51100000000E-03 0.  1.
    9000002    1    1    2    0    0  0.30588431356E+00  0.25025729947E+00  0.10529502261E+00  0.10232912445E+01  0.93800000000E+00 0.  1.
         22    1    1    2    0    0 -0.28689580673E+00 -0.23604430023E+00  0.36583620031E+01  0.36771780840E+01  0.00000000000E+00 0. -1.
</event>
<event>
 5    1  0.6076093E+001  0.1540951E+01  0.7818608E-02  0.3420057E+00
         11   -1    0    0    0    0  0.00000000000E+00  0.00000000000E+00  0.39999999674E+01  0.40000000000E+01  0.51100000000E-03 0. -1.
    9000002   -1    0    0    0    0 -0.00000000000E+00 -0.00000000000E+00  0.00000000000E+00  0.93800000000E+00  0.93800000000E+00 0. -1.
         11    1    1    2    0    0  0.15628155655E+00  0.27506065941E+00  0.11685270487E+01  0.12105940757E+01  0.51100000000E-03 0. -1.
    9000002    1    1    2    0    0  0.15092092766E+00 -0.32250664137E+00  0.13415946063E+00  0.10122402981E+01  0.93800000000E+00 0. -1.
         22    1    1    2    0    0 -0.30720248420E+00  0.47445981960E-01  0.26973134580E+01  0.27151656263E+01  0.00000000000E+00 0. -1.
</event>
<event>
 5    1  0.6076093E+001  0.1599458E+01  0.7818608E-02  0.3353951E+00
         11   -1    0    0    0    0  0.00000000000E+00  0.00000000000E+00  0.39999999674E+01  0.40000000000E+01  0.51100000000E-03 0.  1.
    9000002   -1    0    0    0    0 -0.00000000000E+00 -0.00000000000E+00  0.00000000000E+00  0.93800000000E+00  0.93800000000E+00 0.  1.
         11    1    1    2    0    0 -0.28843957918E-01  0.20252744525E-01  0.25629190571E+00  0.25870436723E+00  0.51100000000E-03 0.  1.
    9000002    1    1    2    0    0  0.30200811937E+00 -0.30451957838E+00  0.12473806142E+00  0.10389151369E+01  0.93800000000E+00 0.  1.
         22    1    1    2    0    0 -0.27316416145E+00  0.28426683386E+00  0.36189700002E+01  0.36403804958E+01  0.00000000000E+00 0.  1.
</event>
<event>
 5    1  0.6076093E+001  0.1599462E+01  0.7818608E-02  0.3353947E+00
         11   -1    0    0    0    0  0.00000000000E+00  0.00000000000E+00  0.39999999674E+01  0.40000000000E+01  0.51100000000E-03 0.  1.
    9000002   -1    0    0    0    0 -0.00000000000E+00 -0.00000000000E+00  0.00000000000E+00  0.93800000000E+00  0.93800000000E+00 0.  1.
         11    1    1    2    0    0  0.11075767766E-01 -0.36645127289E-01  0.52517244599E+00  0.52656613748E+00  0.51100000000E-03 0.  1.
    9000002    1    1    2    0    0 -0.55413714895E-01  0.35846122119E+00  0.88516319162E-01  0.10095762803E+01  0.93800000000E+00 0.  1.
         22    1    1    2    0    0  0.44337947129E-01 -0.32181609390E+00  0.33863112022E+01  0.34018575823E+01  0.00000000000E+00 0.  1.
</event>
<event>
 5    1  0.6076093E+001  0.1599674E+01  0.7818608E-02  0.3353717E+00
         11   -1    0    0    0    0  0.00000000000E+00  0.00000000000E+00  0.39999999674E+01  0.40000000000E+01  0.51100000000E-03 0. -1.
    9000002   -1    0    0    0    0 -0.00000000000E+00 -0.00000000000E+00  0.00000000000E+00  0.93800000000E+00  0.93800000000E+00 0. -1.
         11    1    1    2    0    0  0.41824924044E-01  0.13018398678E+00  0.88112634879E+00  0.89167320154E+00  0.51100000000E-03 0. -1.
    9000002    1    1    2    0    0 -0.17226073645E+00 -0.55395924591E+00  0.23383676523E+00  0.11274166223E+01  0.93800000000E+00 0. -1.
         22    1    1    2    0    0  0.13043581241E+00  0.42377525913E+00  0.28850368533E+01  0.29189101762E+01  0.00000000000E+00 0. -1.
</event>
<event>
 5    1  0.1195621E+002  0.1563029E+01  0.7818608E-02  0.3394494E+00
         11   -1    0    0    0    0  0.00000000000E+00  0.00000000000E+00  0.39999999674E+01  0.40000000000E+01  0.51100000000E-03 0.  1.
    9000002   -1    0    0    0    0 -0.00000000000E+00 -0.00000000000E+00  0.00000000000E+00  0.93800000000E+00  0.93800000000E+00 0.  1.
         11    1    1    2    0    0 -0.43016313860E-01  0.18464089947E+00  0.13601781618E+01  0.13733271854E+01  0.51100000000E-03 0.  1.
    9000002    1    1    2    0    0 -0.10200439689E+00  0.57445631841E-01  0.36375631172E-01  0.94597678838E+00  0.93800000000E+00 0.  1.
         22    1    1    2    0    0  0.14502071075E+00 -0.24208653131E+00  0.26034461744E+01  0.26186960263E+01  0.00000000000E+00 0.  1.
</event>
<event>
 5    1  0.6076093E+001  0.1599672E+01  0.7818608E-02  0.3353719E+00
         11   -1    0    0    0    0  0.00000000000E+00  0.00000000000E+00  0.39999999674E+01  0.40000000000E+01  0.51100000000E-03 0. -1.
    9000002   -1    0    0    0    0 -0.00000000000E+00 -0.00000000000E+00  0.00000000000E+00  0.93800000000E+00  0.93800000000E+00 0.  1.
         11    1    1    2    0    0  0.74300361202E-01  0.70433718440E-01  0.10860449822E+01  0.10908599437E+01  0.51100000000E-03 0. -1.
    9000002    1    1    2    0    0 -0.26799946938E+00 -0.26178528365E+00  0.94379885252E-01  0.10144490195E+01  0.93800000000E+00 0.  1.
         22    1    1    2    0    0  0.19369910818E+00  0.19135156521E+00  0.28195750999E+01  0.28326910368E+01  0.00000000000E+00 0. -1.
</event>
<event>
 5    1  0.6146454E+001  0.1556968E+01  0.7818608E-02  0.3401435E+00
         11   -1    0    0    0    0  0.00000000000E+00  0.00000000000E+00  0.39999999674E+01  0.40000000000E+01  0.51100000000E-03 0.  1.
    9000002   -1    0    0    0    0 -0.00000000000E+00 -0.00000000000E+00  0.00000000000E+00  0.93800000000E+00  0.93800000000E+00 0.  1.
         11    1    1    2    0    0 -0.78592347644E-01  0.44991164769E-01  0.16186698360E+00  0.18547814835E+00  0.51100000000E-03 0.  1.
    9000002    1    1    2    0    0 -0.25916351576E+00  0.72337043050E-01  0.81845584421E-01  0.97925536781E+00  0.93800000000E+00 0.  1.
         22    1    1    2    0    0  0.33775586340E+00 -0.11732820782E+00  0.37562873993E+01  0.37732664838E+01  0.00000000000E+00 0.  1.
</event>
<event>
 5    1  0.6076093E+001  0.1577597E+01  0.7818608E-02  0.3378043E+00
         11   -1    0    0    0    0  0.00000000000E+00  0.00000000000E+00  0.39999999674E+01  0.40000000000E+01  0.51100000000E-03 0.  1.
    9000002   -1    0    0    0    0 -0.00000000000E+00 -0.00000000000E+00  0.00000000000E+00  0.93800000000E+00  0.93800000000E+00 0.  1.
         11    1    1    2    0    0  0.24045981667E+00 -0.40442989262E-01  0.13103049333E+01  0.13327999993E+01  0.51100000000E-03 0.  1.
    9000002    1    1    2    0    0 -0.56742944328E+00 -0.35458224896E+00  0.34160148364E+00  0.12017655004E+01  0.93800000000E+00 0.  1.
         22    1    1    2    0    0  0.32696962661E+00  0.39502523822E+00  0.23480935504E+01  0.24034345003E+01  0.00000000000E+00 0.  1.
</event>
<event>
 5    1  0.6076093E+001  0.1584855E+01  0.7818608E-02  0.3369967E+00
         11   -1    0    0    0    0  0.00000000000E+00  0.00000000000E+00  0.39999999674E+01  0.40000000000E+01  0.51100000000E-03 0.  1.
    9000002   -1    0    0    0    0 -0.00000000000E+00 -0.00000000000E+00  0.00000000000E+00  0.93800000000E+00  0.93800000000E+00 0. -1.
         11    1    1    2    0    0 -0.20327223612E+00 -0.55380239653E-01  0.12222181030E+01  0.12402434944E+01  0.51100000000E-03 0.  1.
    9000002    1    1    2    0    0  0.34958694407E+00 -0.13929976324E+00  0.10747911971E+00  0.10163715938E+01  0.93800000000E+00 0. -1.
         22    1    1    2    0    0 -0.14631470795E+00  0.19468000289E+00  0.26703027447E+01  0.26813849118E+01  0.00000000000E+00 0.  1.
</event>
<event>
 5    1  0.6076093E+001  0.1561501E+01  0.7818608E-02  0.3396239E+00
         11   -1    0    0    0    0  0.00000000000E+00  0.00000000000E+00  0.39999999674E+01  0.40000000000E+01  0.51100000000E-03 0.  1.
    9000002   -1    0    0    0    0 -0.00000000000E+00 -0.00000000000E+00  0.00000000000E+00  0.93800000000E+00  0.93800000000E+00 0.  1.
         11    1    1    2    0    0  0.15748900211E-01 -0.96679774426E-01  0.17268099053E+00  0.19852957526E+00  0.51100000000E-03 0.  1.
    9000002    1    1    2    0    0 -0.42831012733E+00 -0.77854149957E-01  0.16179671150E+00  0.10466771277E+01  0.93800000000E+00 0.  1.
         22    1    1    2    0    0  0.41256122712E+00  0.17453392438E+00  0.36655222653E+01  0.36927932970E+01  0.00000000000E+00 0.  1.
</event>
<event>
 5    1  0.6076093E+001  0.1453671E+01  0.7818608E-02  0.3529297E+00
         11   -1    0    0    0    0  0.00000000000E+00  0.00000000000E+00  0.39999999674E+01  0.40000000000E+01  0.51100000000E-03 0. -1.
    9000002   -1    0    0    0    0 -0.00000000000E+00 -0.00000000000E+00  0.00000000000E+00  0.93800000000E+00  0.93800000000E+00 0.  1.
         11    1    1    2    0    0  0.24609914440E+00 -0.16050659812E+00  0.43999330400E+00  0.52907610568E+00  0.51100000000E-03 0. -1.
    9000002    1    1    2    0    0 -0.45875554191E-01 -0.19172648152E+00  0.14432637049E+00  0.96929753503E+00  0.93800000000E+00 0.  1.
         22    1    1    2    0    0 -0.20022359020E+00  0.35223307965E+00  0.34156802929E+01  0.34396263593E+01  0.00000000000E+00 0. -1.
</event>
<event>
 5    1  0.6076093E+001  0.1437817E+01  0.7818608E-02  0.3550686E+00
         11   -1    0    0    0    0  0.00000000000E+00  0.00000000000E+00  0.39999999674E+01  0.40000000000E+01  0.51100000000E-03 0. -1.
    9000002   -1    0    0    0    0 -0.00000000000E+00 -0.00000000000E+00  0.00000000000E+00  0.93800000000E+00  0.93800000000E+00 0. -1.
         11    1    1    2    0    0 -0.45413263177E+00 -0.44895047739E+00  0.11143080690E+01  0.12843191629E+01  0.51100000000E-03 0. -1.
    9000002    1    1    2    0    0  0.67082415355E+00  0.15360900741E+00  0.54536661340E+00  0.12848616716E+01  0.93800000000E+00 0. -1.
         22    1    1    2    0    0 -0.21669152178E+00  0.29534146998E+00  0.23403252849E+01  0.23688191655E+01  0.00000000000E+00 0. -1.
</event>
<event>
 5    1  0.6076093E+001  0.1558383E+01  0.7818608E-02  0.3399810E+00
         11   -1    0    0    0    0  0.00000000000E+00  0.00000000000E+00  0.39999999674E+01  0.40000000000E+01  0.51100000000E-03 0.  1.
    9000002   -1    0    0    0    0 -0.00000000000E+00 -0.00000000000E+00  0.00000000000E+00  0.93800000000E+00  0.93800000000E+00 0. -1.
         11    1    1    2    0    0  0.12756364688E+00 -0.30233941106E-01  0.11827935380E+00  0.17656965157E+00  0.51100000000E-03 0.  1.
    9000002    1    1    2    0    0 -0.78872214178E+00  0.13834838574E+00  0.52822927495E+00  0.13416754674E+01  0.93800000000E+00 0. -1.
         22    1    1    2    0    0  0.66115849490E+00 -0.10811444463E+00  0.33534913386E+01  0.34197548811E+01  0.00000000000E+00 0.  1.
</event>
<event>
 5    1  0.6076093E+001  0.1599549E+01  0.7818608E-02  0.3353853E+00
         11   -1    0    0    0    0  0.00000000000E+00  0.00000000000E+00  0.39999999674E+01  0.40000000000E+01  0.51100000000E-03 0.  1.
    9000002   -1    0    0    0    0 -0.00000000000E+00 -0.00000000000E+00  0.00000000000E+00  0.93800000000E+00  0.93800000000E+00 0.  1.
         11    1    1    2    0    0  0.45598105065E-01 -0.62925353285E-02  0.40513197741E+00  0.40773884218E+00  0.51100000000E-03 0.  1.
    9000002    1    1    2    0    0 -0.37737056670E+00  0.11217501523E+00  0.10456725386E+00  0.10226290086E+01  0.93800000000E+00 0.  1.
         22    1    1    2    0    0  0.33177246163E+00 -0.10588247990E+00  0.34903007361E+01  0.35076321492E+01  0.00000000000E+00 0.  1.
</event>
<event>
 5    1  0.9817362E+001  0.1594351E+01  0.7818608E-02  0.3359517E+00
         11   -1    0    0    0    0  0.00000000000E+00  0.00000000000E+00  0.39999999674E+01  0.40000000000E+01  0.51100000000E-03 0.  1.
    9000002   -1    0    0    0    0 -0.00000000000E+00 -0.00000000000E+00  0.00000000000E+00  0.93800000000E+00  0.93800000000E+00 0. -1.
         11    1    1    2    0    0  0.40347723834E-02 -0.17820909867E-02  0.11815577902E+01  0.11815661335E+01  0.51100000000E-03 0.  1.
    9000002    1    1    2    0    0 -0.53656735775E-01 -0.26010258531E+00  0.51021545143E-01  0.97620673950E+00  0.93800000000E+00 0. -1.
         22    1    1    2    0    0  0.49621963392E-01  0.26188467630E+00  0.27674206320E+01  0.27802271270E+01  0.00000000000E+00 0.  1.
</event>
<event>
 5    1  0.6076093E+001  0.1571289E+01  0.7818608E-02  0.3385127E+00
         11   -1    0    0    0    0  0.00000000000E+00  0.00000000000E+00  0.39999999674E+01  0.40000000000E+01  0.51100000000E-03 0. -1.
    9000002   -1    0    0    0    0 -0.00000000000E+00 -0.00000000000E+00  0.00000000000E+00  0.93800000000E+00  0.93800000000E+00 0.  1.
         11    1    1    2    0    0 -0.32731231066E+00 -0.87931461249E-01  0.82434610643E+00  0.89129796078E+00  0.51100000000E-03 0. -1.
    9000002    1    1    2    0    0  0.75542116745E+00 -0.89343678738E-02  0.44967233055E+00  0.12856088705E+01  0.93800000000E+00 0.  1.
         22    1    1    2    0    0 -0.42810885680E+00  0.96865829122E-01  0.27259815304E+01  0.27610931687E+01  0.00000000000E+00 0. -1.
</event>
<event>
 5    1  0.6076093E+001  0.1596104E+01  0.7818608E-02  0.3357602E+00
         11   -1    0    0    0    0  0.00000000000E+00  0.00000000000E+00  0.39999999674E+01  0.40000000000E+01  0.51100000000E-03 0. -1.
    9000002   -1    0    0    0    0 -0.00000000000E+00 -0.00000000000E+00  0.00000000000E+00  0.93800000000E+00  0.93800000000E+00 0.  1.
         11    1    1    2    0    0  0.58850261824E-01 -0.91710255544E-02  0.26568683789E+00  0.27228150502E+00  0.51100000000E-03 0. -1.
    9000002    1    1    2    0    0 -0.43187209247E+00  0.47071276864E+00  0.29092144365E+00  0.11715644674E+01  0.93800000000E+00 0.  1.
         22    1    1    2    0    0  0.37302183064E+00 -0.46154174309E+00  0.34433916858E+01  0.34941540276E+01  0.00000000000E+00 0. -1.
</event>
<event>
 5    1  0.6076093E+001  0.1599418E+01  0.7818608E-02  0.3353995E+00
         11   -1    0    0    0    0  0.00000000000E+00  0.00000000000E+00  0.39999999674E+01  0.40000000000E+01  0.51100000000E-03 0. -1.
    9000002   -1    0    0    0    0 -0.00000000000E+00 -0.00000000000E+00  0.00000000000E+00  0.93800000000E+00  0.93800000000E+00 0. -1.
         11    1    1    2    0    0  0.76119537035E-01  0.89073997301E-02  0.10064441685E+01  0.10093580391E+01  0.51100000000E-03 0. -1.
    9000002    1    1    2    0    0 -0.33897095092E+00 -0.85085636980E-01  0.82100729659E-01  0.10043532252E+01  0.93800000000E+00 0. -1.
         22    1    1    2    0    0  0.26285141389E+00  0.76178237250E-01  0.29114550692E+01  0.29242887357E+01  0.00000000000E+00 0. -1.
</event>
<event>
 5    1  0.6076093E+001  0.1598384E+01  0.7818608E-02  0.3355120E+00
         11   -1    0    0    0    0  0.00000000000E+00  0.00000000000E+00  0.39999999674E+01  0.40000000000E+01  0.51100000000E-03 0.  1.
    9000002   -1    0    0    0    0 -0.00000000000E+00 -0.00000000000E+00  0.00000000000E+00  0.93800000000E+00  0.93800000000E+00 0. -1.
         11    1    1    2    0    0  0.25740493412E-02 -0.52262976451E-02  0.88960609601E-01  0.89152628109E-01  0.51100000000E-03 0.  1.
    9000002    1    1    2    0    0 -0.22682194318E+00 -0.32530721666E+00  0.10711164581E+00  0.10240067792E+01  0.93800000000E+00 0. -1.
         22    1    1    2    0    0  0.22424789384E+00  0.33053351431E+00  0.38039277120E+01  0.38248405927E+01  0.00000000000E+00 0.  1.
</event>
<event>
 5    1  0.6076093E+001  0.1599664E+01  0.7818608E-02  0.3353728E+00
         11   -1    0    0    0    0  0.00000000000E+00  0.00000000000E+00  0.39999999674E+01  0.40000000000E+01  0.51100000000E-03 0. -1.
    9000002   -1    0    0    0    0 -0.00000000000E+00 -0.00000000000E+00  0.00000000000E+00  0.93800000000E+00  0.93800000000E+00 0. -1.
         11    1    1    2    0    0 -0.94134120840E-01 -0.27866063659E-01  0.29630183314E+00  0.31214225548E+00  0.51100000000E-03 0. -1.
    9000002    1    1    2    0    0  0.98783228567E+00  0.27133690849E+00  0.85662380927E+00  0.16318960424E+01  0.93800000000E+00 0. -1.
         22    1    1    2    0    0 -0.89369816483E+00 -0.24347084483E+00  0.28470743250E+01  0.29939617021E+01  0.00000000000E+00 0. -1.
</event>
<event>
 5    1  0.6076093E+001  0.1598234E+01  0.7818608E-02  0.3355282E+00
         11   -1    0    0    0    0  0.00000000000E+00  0.00000000000E+00  0.39999999674E+01  0.40000000000E+01  0.51100000000E-03 0.  1.
    9000002   -1    0    0    0    0 -0.00000000000E+00 -0.00000000000E+00  0.00000000000E+00  0.93800000000E+00  0.93800000000E+00 0. -1.
         11    1    1    2    0    0 -0.33309199076E-01  0.17000211634E-01  0.32167857397E+00  0.32384545081E+00  0.51100000000E-03 0.  1.
    9000002    1    1    2    0    0  0.14433130413E+00 -0.36633209975E+00  0.10568435289E+00  0.10227628831E+01  0.93800000000E+00 0. -1.
         22    1    1    2    0    0 -0.11102210505E+00  0.34933188812E+00  0.35726370405E+01  0.35913916661E+01  0.00000000000E+00 0.  1.
</event>
<event>
 5    1  0.6076093E+001  0.1568759E+01  0.7818608E-02  0.3387986E+00
         11   -1    0    0    0    0  0.00000000000E+00  0.00000000000E+00  0.39999999674E+01  0.40000000000E+01  0.51100000000E-03 0. -1.
    9000002   -1    0    0    0    0 -0.00000000000E+00 -0.00000000000E+00  0.00000000000E+00  0.93800000000E+00  0.93800000000E+00 0. -1.
         11    1    1    2    0    0 -0.32627582112E+00  0.16025234071E+00  0.98019391131E+00  0.10454267497E+01  0.51100000000E-03 0. -1.
    9000002    1    1    2    0    0  0.50056022479E+00 -0.49046862275E+00  0.38664233866E+00  0.12330678435E+01  0.93800000000E+00 0. -1.
         22    1    1    2    0    0 -0.17428440367E+00  0.33021628204E+00  0.26331637174E+01  0.26595054068E+01  0.00000000000E+00 0.  1.
</event>
<event>
 5    1  0.6076093E+001  0.1140813E+01  0.7818608E-02  0.4140500E+00
         11   -1    0    0    0    0  0.00000000000E+00  0.00000000000E+00  0.39999999674E+01  0.40000000000E+01  0.51100000000E-03 0.  1.
    9000002   -1    0    0    0    0 -0.00000000000E+00 -0.00000000000E+00  0.00000000000E+00  0.93800000000E+00  0.93800000000E+00 0.  1.
         11    1    1    2    0    0 -0.88043515099E-01  0.68759010615E+00  0.84702726642E+00  0.10945260462E+01  0.51100000000E-03 0.  1.
    9000002    1    1    2    0    0  0.16803075778E+00  0.11592982013E+00  0.52478891748E+00  0.10940390608E+01  0.93800000000E+00 0.  1.
         22    1    1    2    0    0 -0.79987242680E-01 -0.80351992628E+00  0.26281837835E+01  0.27494348930E+01  0.00000000000E+00 0.  1.
</event>
<event>
 5    1  0.6076093E+001  0.1598356E+01  0.7818608E-02  0.3355150E+00
         11   -1    0    0    0    0  0.00000000000E+00  0.00000000000E+00  0.39999999674E+01  0.40000000000E+01  0.51100000000E-03 0. -1.
    9000002   -1    0    0    0    0 -0.00000000000E+00 -0.00000000000E+00  0.00000000000E+00  0.93800000000E+00  0.93800000000E+00 0.  1.
         11    1    1    2    0    0 -0.14108980658E+00  0.94158342794E-01  0.10103030320E+01  0.10244435585E+01  0.51100000000E-03 0. -1.
    9000002    1    1    2    0    0  0.39383447513E+00 -0.31204085780E+00  0.17409875406E+00  0.10782529698E+01  0.93800000000E+00 0.  1.
         22    1    1    2    0    0 -0.25274466854E+00  0.21788251500E+00  0.28155981813E+01  0.28353034717E+01  0.00000000000E+00 0. -1.
</event>
<event>
 5    1  0.6076093E+001  0.1569947E+01  0.7818608E-02  0.3386642E+00
         11   -1    0    0    0    0  0.00000000000E+00  0.00000000000E+00  0.39999999674E+01  0.40000000000E+01  0.51100000000E-03 0.  1.
    9000002   -1    0    0    0    0 -0.00000000000E+00 -0.00000000000E+00  0.00000000000E+00  0.93800000000E+00  0.93800000000E+00 0.  1.
         11    1    1    2    0    0  0.54838005522E-01 -0.81888966960E-01  0.34785854561E+00  0.36155060314E+00  0.51100000000E-03 0.  1.
    9000002    1    1    2    0    0  0.61519329095E-01 -0.22469193971E+00  0.58914231006E-01  0.96829023657E+00  0.93800000000E+00 0.  1.
         22    1    1    2    0    0 -0.11635733462E+00  0.30658090667E+00  0.35932271907E+01  0.36081591603E+01  0.00000000000E+00 0.  1.
</event>
<event>
 5    1  0.6076093E+001  0.1599360E+01  0.7818608E-02  0.3354058E+00
         11   -1    0    0    0    0  0.00000000000E+00  0.00000000000E+00  0.39999999674E+01  0.40000000000E+01  0.51100000000E-03 0.  1.
    9000002   -1    0    0    0    0 -0.00000000000E+00 -0.00000000000E+00  0.00000000000E+00  0.93800000000E+00  0.93800000000E+00 0.  1.
         11    1    1    2    0    0  0.51279973355E-01  0.32627707524E-01  0.86850292986E+00  0.87062724703E+00  0.51100000000E-03 0.  1.
    9000002    1    1    2    0    0 -0.29703613302E+00 -0.19343694648E+00  0.84546342806E-01  0.10063003531E+01  0.93800000000E+00 0.  1.
         22    1    1    2    0    0  0.24575615966E+00  0.16080923895E+00  0.30469506947E+01  0.30610723999E+01  0.00000000000E+00 0.  1.
</event>
<event>
 5    1  0.6076093E+001  0.1591487E+01  0.7818608E-02  0.3362655E+00
         11   -1    0    0    0    0  0.00000000000E+00  0.00000000000E+00  0.39999999674E+01  0.40000000000E+01  0.51100000000E-03 0. -1.
    9000002   -1    0    0    0    0 -0.00000000000E+00 -0.00000000000E+00  0.00000000000E+00  0.93800000000E+00  0.93800000000E+00 0.  1.
         11    1    1    2    0    0  0.39621821880E-01 -0.88665595451E-01  0.14323270123E+01  0.14356156895E+01  0.51100000000E-03 0. -1.
    9000002    1    1    2    0    0  0.15060311809E+00  0.36313103060E+00  0.11096617083E+00  0.10230850090E+01  0.93800000000E+00 0.  1.
         22    1    1    2    0    0 -0.19022493996E+00 -0.27446543515E+00  0.24567067842E+01  0.24792993015E+01  0.00000000000E+00 0. -1.
</event>
<event>
 5    1  0.6076093E+001  0.1599676E+01  0.7818608E-02  0.3353715E+00
         11   -1    0    0    0    0  0.00000000000E+00  0.00000000000E+00  0.39999999674E+01  0.40000000000E+01  0.51100000000E-03 0. -1.
    9000002   -1    0    0    0    0 -0.00000000000E+00 -0.00000000000E+00  0.00000000000E+00  0.93800000000E+00  0.93800000000E+00 0. -1.
         11    1    1    2    0    0  0.73536295754E-01 -0.15841608602E+00  0.14178520371E+01  0.14285684804E+01  0.51100000000E-03 0. -1.
    9000002    1    1    2    0    0 -0.19966766915E+00  0.43237784214E+00  0.15467061443E+00  0.10632896009E+01  0.93800000000E+00 0. -1.
         22    1    1    2    0    0  0.12613137339E+00 -0.27396175612E+00  0.24274773158E+01  0.24461419186E+01  0.00000000000E+00 0. -1.
</event>
<event>
 5    1  0.6076093E+001  0.1599636E+01  0.7818608E-02  0.3353758E+00
         11   -1    0    0    0    0  0.00000000000E+00  0.00000000000E+00  0.39999999674E+01  0.40000000000E+01  0.51100000000E-03 0.  1.
    9000002   -1    0    0    0    0 -0.00000000000E+00 -0.00000000000E+00  0.00000000000E+00  0.93800000000E+00  0.93800000000E+00 0.  1.
         11    1    1    2    0    0 -0.75131310272E-01 -0.30264171185E-01  0.61039906987E+00  0.61574988385E+00  0.51100000000E-03 0.  1.
    9000002    1    1    2    0    0  0.48105597822E+00  0.22175543874E+00  0.19311457172E+00  0.10944074043E+01  0.93800000000E+00 0.  1.
         22    1    1    2    0    0 -0.40592466794E+00 -0.19149126756E+00  0.31964863258E+01  0.32278427118E+01  0.00000000000E+00 0.  1.
</event>
<event>
 5    1  0.6076093E+001  0.1599676E+01  0.7818608E-02  0.3353715E+00
         11   -1    0    0    0    0  0.00000000000E+00  0.00000000000E+00  0.39999999674E+01  0.40000000000E+01  0.51100000000E-03 0.  1.
    9000002   -1    0    0    0    0 -0.00000000000E+00 -0.00000000000E+00  0.00000000000E+00  0.93800000000E+00  0.93800000000E+00 0. -1.
         11    1    1    2    0    0  0.78616411517E-01 -0.30274629871E-01  0.74712176815E+00  0.75185656275E+00  0.51100000000E-03 0.  1.
    9000002    1    1    2    0    0 -0.40927629280E+00  0.15296121075E+00  0.12941447370E+00  0.10428309172E+01  0.93800000000E+00 0. -1.
         22    1    1    2    0    0  0.33065988129E+00 -0.12268658088E+00  0.31234637255E+01  0.31433125201E+01  0.00000000000E+00 0.  1.
</event>
<event>
 5    1  0.6076093E+001  0.1594180E+01  0.7818608E-02  0.3359704E+00
         11   -1    0    0    0    0  0.00000000000E+00  0.00000000000E+00  0.39999999674E+01  0.40000000000E+01  0.51100000000E-03 0.  1.
    9000002   -1    0    0    0    0 -0.00000000000E+00 -0.00000000000E+00  0.00000000000E+00  0.93800000000E+00  0.93800000000E+00 0.  1.
         11    1    1    2    0    0 -0.25428845571E-01 -0.65250863549E-01  0.75144560369E+00  0.75470196622E+00  0.51100000000E-03 0.  1.
    9000002    1    1    2    0    0  0.39537474758E+00  0.86036388684E-01  0.11510344229E+00  0.10280156874E+01  0.93800000000E+00 0.  1.
         22    1    1    2    0    0 -0.36994590201E+00 -0.20785525135E-01  0.31334509214E+01  0.31552823463E+01  0.00000000000E+00 0.  1.
</event>
<event>
 5    1  0.6076093E+001  0.1599654E+01  0.7818608E-02  0.3353739E+00
         11   -1    0    0    0    0  0.00000000000E+00  0.00000000000E+00  0.39999999674E+01  0.40000000000E+01  0.51100000000E-03 0.  1.
    9000002   -1    0    0    0    0 -0.00000000000E+00 -0.00000000000E+00  0.00000000000E+00  0.93800000000E+00  0.93800000000E+00 0.  1.
         11    1    1    2    0    0  0.12008352903E+00  0.25128323416E-01  0.11643653814E+01  0.11708110390E+01  0.51100000000E-03 0.  1.
    9000002    1    1    2    0    0 -0.39215632754E+00 -0.69088950477E-01  0.10694602287E+00  0.10246176458E+01  0.93800000000E+00 0.  1.
         22    1    1    2    0    0  0.27207279851E+00  0.43960627061E-01  0.27286885631E+01  0.27425713151E+01  0.00000000000E+00 0.  1.
</event>
<event>
 5    1  0.6076093E+001  0.1599673E+01  0.7818608E-02  0.3353718E+00
         11   -1    0    0    0    0  0.00000000000E+00  0.00000000000E+00  0.39999999674E+01  0.40000000000E+01  0.51100000000E-03 0.  1.
    9000002   -1    0    0    0    0 -0.00000000000E+00 -0.00000000000E+00  0.00000000000E+00  0.93800000000E+00  0.93800000000E+00 0.  1.
         11    1    1    2    0    0 -0.37829185148E-01  0.83563415159E-02  0.29194605615E+00  0.29450574954E+00  0.51100000000E-03 0.  1.
    9000002    1    1    2    0    0  0.48197418639E+00 -0.11339004946E+00  0.16769036227E+00  0.10738344739E+01  0.93800000000E+00 0.  1.
         22    1    1    2    0    0 -0.44414500124E+00  0.10503370794E+00  0.35403635489E+01  0.35696597766E+01  0.00000000000E+00 0.  1.
</event>
<event>
 5    1  0.6076093E+001  0.1599205E+01  0.7818608E-02  0.3354227E+00
         11   -1    0    0    0    0  0.00000000000E+00  0.00000000000E+00  0.39999999674E+01  0.40000000000E+01  0.51100000000E-03 0.  1.
    9000002   -1    0    0    0    0 -0.00000000000E+00 -0.00000000000E+00  0.00000000000E+00  0.93800000000E+00  0.93800000000E+00 0. -1.
         11    1    1    2    0    0 -0.57413750163E-01 -0.94964744041E-01  0.10298025958E+01  0.10357645914E+01  0.51100000000E-03 0.  1.
    9000002    1    1    2    0    0  0.18628522753E+00  0.43674830629E+00  0.15411956765E+00  0.10625667556E+01  0.93800000000E+00 0. -1.
         22    1    1    2    0    0 -0.12887147737E+00 -0.34178356225E+00  0.28160778039E+01  0.28396686530E+01  0.00000000000E+00 0.  1.
</event>
<event>
 5    1  0.6076093E+001  0.1591217E+01  0.7818608E-02  0.3362952E+00
         11   -1    0    0    0    0  0.00000000000E+00  0.00000000000E+00  0.39999999674E+01  0.40000000000E+01  0.51100000000E-03 0. -1.
    9000002   -1    0    0    0    0 -0.00000000000E+00 -0.00000000000E+00  0.00000000000E+00  0.93800000000E+00  0.93800000000E+00 0. -1.
         11    1    1    2    0    0 -0.51220992158E-01  0.24221432613E-01  0.18297464942E+00  0.19154699498E+00  0.51100000000E-03 0. -1.
    9000002    1    1    2    0    0  0.37779034367E+00  0.20378874081E+00  0.13199702546E+00  0.10399627923E+01  0.93800000000E+00 0. -1.
         22    1    1    2    0    0 -0.32656935151E+00 -0.22801017342E+00  0.36850282925E+01  0.37064902127E+01  0.00000000000E+00 0. -1.
</event>
<event>
 5    1  0.6076093E+001  0.1599674E+01  0.7818608E-02  0.3353718E+00
         11   -1    0    0    0    0  0.00000000000E+00  0.00000000000E+00  0.39999999674E+01  0.40000000000E+01  0.51100000000E-03 0. -1.
    9000002   -1    0    0    0    0 -0.00000000000E+00 -0.00000000000E+00  0.00000000000E+00  0.93800000000E+00  0.93800000000E+00 0.  1.
         11    1    1    2    0    0 -0.29082090009E-01  0.34423222922E-01  0.29329708104E+00  0.29673922070E+00  0.51100000000E-03 0. -1.
    9000002    1    1    2    0    0  0.36683507012E+00 -0.45430401387E+00  0.23708963577E+00  0.11300511498E+01  0.93800000000E+00 0.  1.
         22    1    1    2    0    0 -0.33775298011E+00  0.41988079094E+00  0.34696132505E+01  0.35112096295E+01  0.00000000000E+00 0. -1.
</event>
<event>
 5    1  0.6076093E+001  0.1599677E+01  0.7818608E-02  0.3353714E+00
         11   -1    0    0    0    0  0.00000000000E+00  0.00000000000E+00  0.39999999674E+01  0.40000000000E+01  0.51100000000E-03 0. -1.
    9000002   -1    0    0    0    0 -0.00000000000E+00 -0.00000000000E+00  0.00000000000E+00  0.93800000000E+00  0.93800000000E+00 0.  1.
         11    1    1    2    0    0  0.17876048583E+00  0.19184289828E+00  0.14355157589E+01  0.14592685716E+01  0.51100000000E-03 0. -1.
    9000002    1    1    2    0    0 -0.45811567220E+00 -0.49248795750E+00  0.32102874732E+00  0.11980475007E+01  0.93800000000E+00 0.  1.
         22    1    1    2    0    0  0.27935518637E+00  0.30064505922E+00  0.22434554611E+01  0.22806839276E+01  0.00000000000E+00 0. -1.
</event>
<event>
 5    1  0.6076093E+001  0.1599298E+01  0.7818608E-02  0.3354125E+00
         11   -1    0    0    0    0  0.00000000000E+00  0.00000000000E+00  0.39999999674E+01  0.40000000000E+01  0.51100000000E-03 0.  1.
    9000002   -1    0    0    0    0 -0.00000000000E+00 -0.00000000000E+00  0.00000000000E+00  0.93800000000E+00  0.93800000000E+00 0.  1.
         11    1    1    2    0    0  0.86584256241E-01 -0.17707719126E+00  0.13690285995E+01  0.13831459548E+01  0.51100000000E-03 0.  1.
    9000002    1    1    2    0    0 -0.29425286593E+00  0.46014639273E+00  0.20625718077E+00  0.11048554098E+01  0.93800000000E+00 0.  1.
         22    1    1    2    0    0  0.20766860969E+00 -0.28306920147E+00  0.24247141871E+01  0.24499986354E+01  0.00000000000E+00 0.  1.
</event>
<event>
 5    1  0.6076093E+001  0.1599677E+01  0.7818608E-02  0.3353714E+00
         11   -1    0    0    0    0  0.00000000000E+00  0.00000000000E+00  0.39999999674E+01  0.40000000000E+01  0.51100000000E-03 0. -1.
    9000002   -1    0    0    0    0 -0.00000000000E+00 -0.00000000000E+00  0.00000000000E+00  0.93800000000E+00  0.93800000000E+00 0. -1.
         11    1    1    2    0    0  0.48588785277E-01 -0.10800005764E-01  0.50648021375E+00  0.50892040460E+00  0.51100000000E-03 0.  1.
    9000002    1    1    2    0    0 -0.37397184057E+00  0.82615592969E-01  0.98728442180E-01  0.10179742526E+01  0.93800000000E+00 0. -1.
         22    1    1    2    0    0  0.32538305529E+00 -0.71815587205E-01  0.33947913114E+01  0.34111053428E+01  0.00000000000E+00 0. -1.
</event>
<event>
 5    1  0.6076093E+001  0.1540776E+01  0.7818608E-02  0.3420263E+00
         11   -1    0    0    0    0  0.00000000000E+00  0.00000000000E+00  0.39999999674E+01  0.40000000000E+01  0.51100000000E-03 0.  1.
    9000002   -1    0    0    0    0 -0.00000000000E+00 -0.00000000000E+00  0.00000000000E+00  0.93800000000E+00  0.93800000000E+00 0.  1.
         11    1    1    2    0    0  0.19070304679E+00  0.25518858332E+00  0.13553327490E+01  0.13922700839E+01  0.51100000000E-03 0.  1.
    9000002    1    1    2    0    0 -0.25374372380E+00  0.10821801473E-01  0.89398109901E-01  0.97587858405E+00  0.93800000000E+00 0.  1.
         22    1    1    2    0    0  0.63040677013E-01 -0.26601038479E+00  0.25552691085E+01  0.25698513320E+01  0.00000000000E+00 0.  1.
</event>
<event>
 5    1  0.6076093E+001  0.1597302E+01  0.7818608E-02  0.3356297E+00
         11   -1    0    0    0    0  0.00000000000E+00  0.00000000000E+00  0.39999999674E+01  0.40000000000E+01  0.51100000000E-03 0.  1.
    9000002   -1    0    0    0    0 -0.00000000000E+00 -0.00000000000E+00  0.00000000000E+00  0.93800000000E+00  0.93800000000E+00 0. -1.
         11    1    1    2    0    0  0.76077487512E-02 -0.59617510463E-01  0.32524571555E+00  0.33075241798E+00  0.51100000000E-03 0.  1.
    9000002    1    1    2    0    0 -0.31306695694E+00  0.38689476799E+00  0.17163618103E+00  0.10756400233E+01  0.93800000000E+00 0. -1.
         22    1    1    2    0    0  0.30545920819E+00 -0.32727725753E+00  0.35031180708E+01  0.35316075587E+01  0.00000000000E+00 0.  1.
</event>
<event>
 5    1  0.6076093E+001  0.1571154E+01  0.7818608E-02  0.3385280E+00
         11   -1    0    0    0    0  0.00000000000E+00  0.00000000000E+00  0.39999999674E+01  0.40000000000E+01  0.51100000000E-03 0.  1.
    9000002   -1    0    0    0    0 -0.00000000000E+00 -0.00000000000E+00  0.00000000000E+00  0.93800000000E+00  0.93800000000E+00 0.  1.
         11    1    1    2    0    0 -0.46554155895E-01  0.12179298269E+00  0.98669854366E+00  0.99527639239E+00  0.51100000000E-03 0.  1.
    9000002    1    1    2    0    0 -0.27264593353E+00  0.46809732603E-01  0.73346639003E-01  0.98068888318E+00  0.93800000000E+00 0.  1.
         22    1    1    2    0    0  0.31920008942E+00 -0.16860271529E+00  0.29399547847E+01  0.29620347244E+01  0.00000000000E+00 0.  1.
</event>
<event>
 5    1  0.6076093E+001  0.1599624E+01  0.7818608E-02  0.3353771E+00
         11   -1    0    0    0    0  0.00000000000E+00  0.00000000000E+00  0.39999999674E+01  0.40000000000E+01  0.51100000000E-03 0. -1.
    9000002   -1    0    0    0    0 -0.00000000000E+00 -0.00000000000E+00  0.00000000000E+00  0.93800000000E+00  0.93800000000E+00 0. -1.
         11    1    1    2    0    0 -0.59066415340E-01 -0.43687851360E-01  0.65153950017E+00  0.65566870535E+00  0.51100000000E-03 0. -1.
    9000002    1    1    2    0    0  0.32397015722E+00  0.23446259030E+00  0.10791835093E+00  0.10253876045E+01  0.93800000000E+00 0. -1.
         22    1    1    2    0    0 -0.26490374188E+00 -0.19077473894E+00  0.32405421163E+01  0.32569436901E+01  0.00000000000E+00 0. -1.
</event>
<event>
 5    1  0.6076093E+001  0.1597796E+01  0.7818608E-02  0.3355758E+00
         11   -1    0    0    0    0  0.00000000000E+00  0.00000000000E+00  0.39999999674E+01  0.40000000000E+01  0.51100000000E-03 0.  1.
    9000002   -1    0    0    0    0 -0.00000000000E+00 -0.00000000000E+00  0.00000000000E+00  0.93800000000E+00  0.93800000000E+00 0.  1.
         11    1    1    2    0    0 -0.50570471268E-04 -0.97528768625E-01  0.88885187617E+00  0.89418665957E+00  0.51100000000E-03 0.  1.
    9000002    1    1    2    0    0  0.17315643279E+00  0.34424593927E+00  0.10152458597E+00  0.10191367222E+01  0.93800000000E+00 0.  1.
         22    1    1    2    0    0 -0.17310586232E+00 -0.24671717065E+00  0.30096235052E+01  0.30246766183E+01  0.00000000000E+00 0.  1.
</event>
<event>
 5    1  0.6076093E+001  0.1599677E+01  0.7818608E-02  0.3353714E+00
         11   -1    0    0    0    0  0.00000000000E+00  0.00000000000E+00  0.39999999674E+01  0.40000000000E+01  0.51100000000E-03 0. -1.
    9000002   -1    0    0    0    0 -0.00000000000E+00 -0.00000000000E+00  0.00000000000E+00  0.93800000000E+00  0.93800000000E+00 0.  1.
         11    1    1    2    0    0  0.72483840561E-01 -0.96690427548E-01  0.12821841509E+01  0.12878662212E+01  0.51100000000E-03 0. -1.
    9000002    1    1    2    0    0 -0.22063306927E+00  0.29379714785E+00  0.90695034059E-01  0.10114669073E+01  0.93800000000E+00 0.  1.
         22    1    1    2    0    0  0.14814922871E+00 -0.19710672030E+00  0.26271207824E+01  0.26386668715E+01  0.00000000000E+00 0. -1.
</event>
<event>
 5    1  0.6076093E+001  0.1599676E+01  0.7818608E-02  0.3353715E+00
         11   -1    0    0    0    0  0.00000000000E+00  0.00000000000E+00  0.39999999674E+01  0.40000000000E+01  0.51100000000E-03 0. -1.
    9000002   -1    0    0    0    0 -0.00000000000E+00 -0.00000000000E+00  0.00000000000E+00  0.93800000000E+00  0.93800000000E+00 0.  1.
         11    1    1    2    0    0  0.12275084775E+00  0.62721291010E-01  0.89140924997E+00  0.90200468016E+00  0.51100000000E-03 0. -1.
    9000002    1    1    2    0    0 -0.51920778323E+00 -0.26832673595E+00  0.23754116714E+00  0.11304184028E+01  0.93800000000E+00 0.  1.
         22    1    1    2    0    0  0.39645693548E+00  0.20560544494E+00  0.28710495502E+01  0.29055769170E+01  0.00000000000E+00 0. -1.
</event>
<event>
 5    1  0.6076093E+001  0.1599562E+01  0.7818608E-02  0.3353839E+00
         11   -1    0    0    0    0  0.00000000000E+00  0.00000000000E+00  0.39999999674E+01  0.40000000000E+01  0.51100000000E-03 0.  1.
    9000002   -1    0    0    0    0 -0.00000000000E+00 -0.00000000000E+00  0.00000000000E+00  0.93800000000E+00  0.93800000000E+00 0.  1.
         11    1    1    2    0    0 -0.20550636673E+00  0.24658286277E+00  0.10742109443E+01  0.11211446779E+01  0.51100000000E-03 0.  1.
    9000002    1    1    2    0    0  0.59266310922E+00 -0.76842670048E+00  0.74563159136E+00  0.15419272438E+01  0.93800000000E+00 0.  1.
         22    1    1    2    0    0 -0.38715674249E+00  0.52184383771E+00  0.21801574317E+01  0.22749280783E+01  0.00000000000E+00 0.  1.
</event>
<event>
 5    1  0.6076093E+001  0.1599675E+01  0.7818608E-02  0.3353716E+00
         11   -1    0    0    0    0  0.00000000000E+00  0.00000000000E+00  0.39999999674E+01  0.40000000000E+01  0.51100000000E-03 0.  1.
    9000002   -1    0    0    0    0 -0.00000000000E+00 -0.00000000000E+00  0.00000000000E+00  0.93800000000E+00  0.93800000000E+00 0. -1.
         11    1    1    2    0    0  0.30249118805E-02  0.24287102858E-01  0.23769080248E+00  0.23894809513E+00  0.51100000000E-03 0.  1.
    9000002    1    1    2    0    0 -0.59148709973E-01 -0.39398460907E+00  0.10704103393E+00  0.10247068971E+01  0.93800000000E+00 0. -1.
         22    1    1    2    0    0  0.56123798093E-01  0.36969750622E+00  0.36552681310E+01  0.36743450077E+01  0.00000000000E+00 0.  1.
</event>
<event>
 5    1  0.6076093E+001  0.1596899E+01  0.7818608E-02  0.3356736E+00
         11   -1    0    0    0    0  0.00000000000E+00  0.00000000000E+00  0.39999999674E+01  0.40000000000E+01  0.51100000000E-03 0. -1.
    9000002   -1    0    0    0    0 -0.00000000000E+00 -0.00000000000E+00  0.00000000000E+00  0.93800000000E+00  0.93800000000E+00 0. -1.
         11    1    1    2    0    0  0.99876926318E-01  0.14695125541E+00  0.58861530973E+00  0.61484820553E+00  0.51100000000E-03 0. -1.
    9000002    1    1    2    0    0 -0.63997971283E+00 -0.58074651349E+00  0.56725637290E+00  0.13958740410E+01  0.93800000000E+00 0. -1.
         22    1    1    2    0    0  0.54010278651E+00  0.43379525808E+00  0.28441282847E+01  0.29272777535E+01  0.00000000000E+00 0. -1.
</event>
<event>
 5    1  0.6076093E+001  0.1599674E+01  0.7818608E-02  0.3353717E+00
         11   -1    0    0    0    0  0.00000000000E+00  0.00000000000E+00  0.39999999674E+01  0.40000000000E+01  0.51100000000E-03 0. -1.
    9000002   -1    0    0    0    0 -0.00000000000E+00 -0.00000000000E+00  0.00000000000E+00  0.93800000000E+00  0.93800000000E+00 0. -1.
         11    1    1    2    0    0 -0.17205331626E-01 -0.20529645729E+00  0.14160349333E+01  0.14309429940E+01  0.51100000000E-03 0. -1.
    9000002    1    1    2    0    0  0.43607524815E-01  0.54515153576E+00  0.20646441593E+00  0.11052435787E+01  0.93800000000E+00 0. -1.
         22    1    1    2    0    0 -0.26402193190E-01 -0.33985507847E+00  0.23775006181E+01  0.24018134273E+01  0.00000000000E+00 0. -1.
</event>
<event>
 5    1  0.6076093E+001  0.1599674E+01  0.7818608E-02  0.3353717E+00
         11   -1    0    0    0    0  0.00000000000E+00  0.00000000000E+00  0.39999999674E+01  0.40000000000E+01  0.51100000000E-03 0.  1.
    9000002   -1    0    0    0    0 -0.00000000000E+00 -0.00000000000E+00  0.00000000000E+00  0.93800000000E+00  0.93800000000E+00 0.  1.
         11    1    1    2    0    0 -0.12000802113E+00  0.49074312884E-01  0.11379475786E+01  0.11453100743E+01  0.51100000000E-03 0.  1.
    9000002    1    1    2    0    0  0.40884871331E+00 -0.16034056453E+00  0.13078835115E+00  0.10439425079E+01  0.93800000000E+00 0.  1.
         22    1    1    2    0    0 -0.28884069218E+00  0.11126625165E+00  0.27312640376E+01  0.27487474178E+01  0.00000000000E+00 0. -1.
</event>
<event>
 5    1  0.6076093E+001  0.1599649E+01  0.7818608E-02  0.3353745E+00
         11   -1    0    0    0    0  0.00000000000E+00  0.00000000000E+00  0.39999999674E+01  0.40000000000E+01  0.51100000000E-03 0. -1.
    9000002   -1    0    0    0    0 -0.00000000000E+00 -0.00000000000E+00  0.00000000000E+00  0.93800000000E+00  0.93800000000E+00 0. -1.
         11    1    1    2    0    0  0.13392253953E+00  0.49416029992E-01  0.10736885839E+01  0.10831364766E+01  0.51100000000E-03 0. -1.
    9000002    1    1    2    0    0 -0.45816174932E+00 -0.18101481310E+00  0.16594858515E+00  0.10724091962E+01  0.93800000000E+00 0. -1.
         22    1    1    2    0    0  0.32423920979E+00  0.13159878311E+00  0.27603627983E+01  0.27824543272E+01  0.00000000000E+00 0. -1.
</event>
<event>
 5    1  0.6076093E+001  0.1599677E+01  0.7818608E-02  0.3353714E+00
         11   -1    0    0    0    0  0.00000000000E+00  0.00000000000E+00  0.39999999674E+01  0.40000000000E+01  0.51100000000E-03 0.  1.
    9000002   -1    0    0    0    0 -0.00000000000E+00 -0.00000000000E+00  0.00000000000E+00  0.93800000000E+00  0.93800000000E+00 0.  1.
         11    1    1    2    0    0 -0.86888239137E-01  0.10044826608E+00  0.13151373247E+01  0.13218267149E+01  0.51100000000E-03 0.  1.
    9000002    1    1    2    0    0  0.25658173977E+00 -0.29946490277E+00  0.10482184157E+00  0.10229100819E+01  0.93800000000E+00 0.  1.
         22    1    1    2    0    0 -0.16969350064E+00  0.19901663669E+00  0.25800408011E+01  0.25932632032E+01  0.00000000000E+00 0. -1.
</event>
<event>
 5    1  0.6076093E+001  0.1587948E+01  0.7818608E-02  0.3366549E+00
         11   -1    0    0    0    0  0.00000000000E+00  0.00000000000E+00  0.39999999674E+01  0.40000000000E+01  0.51100000000E-03 0. -1.
    9000002   -1    0    0    0    0 -0.00000000000E+00 -0.00000000000E+00  0.00000000000E+00  0.93800000000E+00  0.93800000000E+00 0.  1.
         11    1    1    2    0    0  0.15698904926E+00  0.61912271999E-01  0.59170422024E+00  0.61529898129E+00  0.51100000000E-03 0. -1.
    9000002    1    1    2    0    0 -0.40071662934E+00 -0.30785830664E+00  0.18565164586E+00  0.10815087090E+01  0.93800000000E+00 0.  1.
         22    1    1    2    0    0  0.24372758008E+00  0.24594603464E+00  0.32226441013E+01  0.32411923097E+01  0.00000000000E+00 0. -1.
</event>
<event>
 5    1  0.6076093E+001  0.1599677E+01  0.7818608E-02  0.3353714E+00
         11   -1    0    0    0    0  0.00000000000E+00  0.00000000000E+00  0.39999999674E+01  0.40000000000E+01  0.51100000000E-03 0. -1.
    9000002   -1    0    0    0    0 -0.00000000000E+00 -0.00000000000E+00  0.00000000000E+00  0.93800000000E+00  0.93800000000E+00 0.  1.
         11    1    1    2    0    0 -0.24658351926E-01  0.74553348348E-01  0.72525646595E+00  0.72949533144E+00  0.51100000000E-03 0.  1.
    9000002    1    1    2    0    0  0.13134059273E+00 -0.39814034931E+00  0.11885933193E+00  0.10342812141E+01  0.93800000000E+00 0.  1.
         22    1    1    2    0    0 -0.10668224081E+00  0.32358700096E+00  0.31558841695E+01  0.31742234545E+01  0.00000000000E+00 0. -1.
</event>
<event>
 5    1  0.6076093E+001  0.1599667E+01  0.7818608E-02  0.3353725E+00
         11   -1    0    0    0    0  0.00000000000E+00  0.00000000000E+00  0.39999999674E+01  0.40000000000E+01  0.51100000000E-03 0.  1.
    9000002   -1    0    0    0    0 -0.00000000000E+00 -0.00000000000E+00  0.00000000000E+00  0.93800000000E+00  0.93800000000E+00 0. -1.
         11    1    1    2    0    0 -0.29198548443E-01  0.96618242889E-01  0.80331024810E+00  0.80962661512E+00  0.51100000000E-03 0.  1.
    9000002    1    1    2    0    0  0.14320404052E+00 -0.44857454153E+00  0.15107933484E+00  0.10603751609E+01  0.93800000000E+00 0. -1.
         22    1    1    2    0    0 -0.11400549207E+00  0.35195629864E+00  0.30456103844E+01  0.30679982239E+01  0.00000000000E+00 0.  1.
</event>
<event>
 5    1  0.6076093E+001  0.1599653E+01  0.7818608E-02  0.3353740E+00
         11   -1    0    0    0    0  0.00000000000E+00  0.00000000000E+00  0.39999999674E+01  0.40000000000E+01  0.51100000000E-03 0. -1.
    9000002   -1    0    0    0    0 -0.00000000000E+00 -0.00000000000E+00  0.00000000000E+00  0.93800000000E+00  0.93800000000E+00 0. -1.
         11    1    1    2    0    0  0.41380305284E-01  0.11616435659E+00  0.88173580618E+00  0.89031723584E+00  0.51100000000E-03 0. -1.
    9000002    1    1    2    0    0 -0.19960570636E+00 -0.50168460896E+00  0.20100240353E+00  0.11008069091E+01  0.93800000000E+00 0. -1.
         22    1    1    2    0    0  0.15822540108E+00  0.38552025237E+00  0.29172617576E+01  0.29468758551E+01  0.00000000000E+00 0. -1.
</event>
<event>
 5    1  0.6076093E+001  0.1599619E+01  0.7818608E-02  0.3353777E+00
         11   -1    0    0    0    0  0.00000000000E+00  0.00000000000E+00  0.39999999674E+01  0.40000000000E+01  0.51100000000E-03 0. -1.
    9000002   -1    0    0    0    0 -0.00000000000E+00 -0.00000000000E+00  0.00000000000E+00  0.93800000000E+00  0.93800000000E+00 0.  1.
         11    1    1    2    0    0 -0.65555179238E-02 -0.26088331011E-01  0.17781858857E+00  0.17984239598E+00  0.51100000000E-03 0. -1.
    9000002    1    1    2    0    0  0.21921164833E+00  0.55924814058E+00  0.25183216422E+00  0.11419613253E+01  0.93800000000E+00 0.  1.
         22    1    1    2    0    0 -0.21265613041E+00 -0.53315980957E+00  0.35703492146E+01  0.36161962787E+01  0.00000000000E+00 0. -1.
</event>
<event>
 5    1  0.6076093E+001  0.1599590E+01  0.7818608E-02  0.3353809E+00
         11   -1    0    0    0    0  0.00000000000E+00  0.00000000000E+00  0.39999999674E+01  0.40000000000E+01  0.51100000000E-03 0. -1.
    9000002   -1    0    0    0    0 -0.00000000000E+00 -0.00000000000E+00  0.00000000000E+00  0.93800000000E+00  0.93800000000E+00 0.  1.
         11    1    1    2    0    0  0.12258631279E+00 -0.16044642455E+00  0.11783662956E+01  0.11955408178E+01  0.51100000000E-03 0. -1.
    9000002    1    1    2    0    0 -0.35560246377E+00  0.50284658535E+00  0.26564753471E+00  0.11531350369E+01  0.93800000000E+00 0.  1.
         22    1    1    2    0    0  0.23301615099E+00 -0.34240016081E+00  0.25559861371E+01  0.25893241453E+01  0.00000000000E+00 0. -1.
</event>
<event>
 5    1  0.6076093E+001  0.1599050E+01  0.7818608E-02  0.3354396E+00
         11   -1    0    0    0    0  0.00000000000E+00  0.00000000000E+00  0.39999999674E+01  0.40000000000E+01  0.51100000000E-03 0. -1.
    9000002   -1    0    0    0    0 -0.00000000000E+00 -0.00000000000E+00  0.00000000000E+00  0.93800000000E+00  0.93800000000E+00 0.  1.
         11    1    1    2    0    0  0.70974793060E-04 -0.95278655594E-03  0.14789661072E-02  0.18333852264E-02  0.51100000000E-03 0. -1.
    9000002    1    1    2    0    0  0.34529940692E-03 -0.41938655010E+00  0.11947155260E+00  0.10344093240E+01  0.93800000000E+00 0.  1.
         22    1    1    2    0    0 -0.41627419998E-03  0.42033933666E+00  0.38790494487E+01  0.39017572908E+01  0.00000000000E+00 0. -1.
</event>
<event>
 5    1  0.6076093E+001  0.1593917E+01  0.7818608E-02  0.3359992E+00
         11   -1    0    0    0    0  0.00000000000E+00  0.00000000000E+00  0.39999999674E+01  0.40000000000E+01  0.51100000000E-03 0.  1.
    9000002   -1    0    0    0    0 -0.00000000000E+00 -0.00000000000E+00  0.00000000000E+00  0.93800000000E+00  0.93800000000E+00 0. -1.
         11    1    1    2    0    0 -0.31004714455E-02  0.18304687144E+00  0.12436441785E+01  0.12570468861E+01  0.51100000000E-03 0.  1.
    9000002    1    1    2    0    0  0.26529975970E+00 -0.50708379508E+00  0.23278360263E+00  0.11231874925E+01  0.93800000000E+00 0. -1.
         22    1    1    2    0    0 -0.26219928825E+00  0.32403692364E+00  0.25235721862E+01  0.25577656214E+01  0.00000000000E+00 0. -1.
</event>
<event>
 5    1  0.6076093E+001  0.1597929E+01  0.7818608E-02  0.3355614E+00
         11   -1    0    0    0    0  0.00000000000E+00  0.00000000000E+00  0.39999999674E+01  0.40000000000E+01  0.51100000000E-03 0.  1.
    9000002   -1    0    0    0    0 -0.00000000000E+00 -0.00000000000E+00  0.00000000000E+00  0.93800000000E+00  0.93800000000E+00 0. -1.
         11    1    1    2    0    0 -0.53238168481E-01  0.29523801533E-01  0.69094771449E+00  0.69362451133E+00  0.51100000000E-03 0.  1.
    9000002    1    1    2    0    0  0.44584657001E+00 -0.80098323154E-02  0.13647684394E+00  0.10475272074E+01  0.93800000000E+00 0. -1.
         22    1    1    2    0    0 -0.39260840153E+00 -0.21513969217E-01  0.31725754089E+01  0.31968482812E+01  0.00000000000E+00 0.  1.
</event>
<event>
 5    1  0.6076093E+001  0.1599666E+01  0.7818608E-02  0.3353726E+00
         11   -1    0    0    0    0  0.00000000000E+00  0.00000000000E+00  0.39999999674E+01  0.40000000000E+01  0.51100000000E-03 0. -1.
    9000002   -1    0    0    0    0 -0.00000000000E+00 -0.00000000000E+00  0.00000000000E+00  0.93800000000E+00  0.93800000000E+00 0.  1.
         11    1    1    2    0    0  0.14625136437E-01 -0.18281780061E-01  0.19262890044E+00  0.19404708837E+00  0.51100000000E-03 0.  1.
    9000002    1    1    2    0    0 -0.32011002713E+00  0.38040775364E+00  0.16913882142E+00  0.10750034555E+01  0.93800000000E+00 0.  1.
         22    1    1    2    0    0  0.30548489069E+00 -0.36212597358E+00  0.36382322455E+01  0.36689494561E+01  0.00000000000E+00 0. -1.
</event>
<event>
 5    1  0.6076093E+001  0.1599672E+01  0.7818608E-02  0.3353719E+00
         11   -1    0    0    0    0  0.00000000000E+00  0.00000000000E+00  0.39999999674E+01  0.40000000000E+01  0.51100000000E-03 0.  1.
    9000002   -1    0    0    0    0 -0.00000000000E+00 -0.00000000000E+00  0.00000000000E+00  0.93800000000E+00  0.93800000000E+00 0. -1.
         11    1    1    2    0    0  0.81239504869E-01  0.22587652774E+00  0.11886738434E+01  0.12126688872E+01  0.51100000000E-03 0.  1.
    9000002    1    1    2    0    0 -0.24902496854E+00 -0.68079942920E+00  0.37816714179E+00  0.12443294117E+01  0.93800000000E+00 0. -1.
         22    1    1    2    0    0  0.16778546367E+00  0.45492290146E+00  0.24331589822E+01  0.24810017011E+01  0.00000000000E+00 0.  1.
</event>
<event>
 5    1  0.6076093E+001  0.1599351E+01  0.7818608E-02  0.3354068E+00
         11   -1    0    0    0    0  0.00000000000E+00  0.00000000000E+00  0.39999999674E+01  0.40000000000E+01  0.51100000000E-03 0. -1.
    9000002   -1    0    0    0    0 -0.00000000000E+00 -0.00000000000E+00  0.00000000000E+00  0.93800000000E+00  0.93800000000E+00 0. -1.
         11    1    1    2    0    0 -0.67212590688E-01  0.15467493818E-01  0.43475793965E+00  0.44019484654E+00  0.51100000000E-03 0. -1.
    9000002    1    1    2    0    0  0.52199321906E+00 -0.23799152485E+00  0.22869106553E+00  0.11230585426E+01  0.93800000000E+00 0. -1.
         22    1    1    2    0    0 -0.45478062837E+00  0.22252403104E+00  0.33365509622E+01  0.33747466109E+01  0.00000000000E+00 0. -1.
</event>
<event>
 5    1  0.6076093E+001  0.1599675E+01  0.7818608E-02  0.3353716E+00
         11   -1    0    0    0    0  0.00000000000E+00  0.00000000000E+00  0.39999999674E+01  0.40000000000E+01  0.51100000000E-03 0.  1.
    9000002   -1    0    0    0    0 -0.00000000000E+00 -0.00000000000E+00  0.00000000000E+00  0.93800000000E+00  0.93800000000E+00 0. -1.
         11    1    1    2    0    0  0.10440745478E+00  0.84480777996E-01  0.11788965322E+01  0.11865223189E+01  0.51100000000E-03 0.  1.
    9000002    1    1    2    0    0 -0.34645926281E+00 -0.27402279214E+00  0.13236597439E+00  0.10452211549E+01  0.93800000000E+00 0. -1.
         22    1    1    2    0    0  0.24205180803E+00  0.18954201415E+00  0.26887374608E+01  0.27062565263E+01  0.00000000000E+00 0.  1.
</event>
<event>
 5    1  0.6076093E+001  0.1599674E+01  0.7818608E-02  0.3353717E+00
         11   -1    0    0    0    0  0.00000000000E+00  0.00000000000E+00  0.39999999674E+01  0.40000000000E+01  0.51100000000E-03 0.  1.
    9000002   -1    0    0    0    0 -0.00000000000E+00 -0.00000000000E+00  0.00000000000E+00  0.93800000000E+00  0.93800000000E+00 0.  1.
         11    1    1    2    0    0  0.47001602393E-01  0.79276112580E-01  0.69950758262E+00  0.70555295472E+00  0.51100000000E-03 0.  1.
    9000002    1    1    2    0    0 -0.26413600126E+00 -0.43699668395E+00  0.17881238117E+00  0.10828443086E+01  0.93800000000E+00 0.  1.
         22    1    1    2    0    0  0.21713439887E+00  0.35772057137E+00  0.31216800036E+01  0.31496027367E+01  0.00000000000E+00 0.  1.
</event>
<event>
 5    1  0.6076093E+001  0.1599665E+01  0.7818608E-02  0.3353727E+00
         11   -1    0    0    0    0  0.00000000000E+00  0.00000000000E+00  0.39999999674E+01  0.40000000000E+01  0.51100000000E-03 0. -1.
    9000002   -1    0    0    0    0 -0.00000000000E+00 -0.00000000000E+00  0.00000000000E+00  0.93800000000E+00  0.93800000000E+00 0. -1.
         11    1    1    2    0    0  0.12756347242E+00 -0.95734596216E-02  0.12578296504E+01  0.12643179115E+01  0.51100000000E-03 0. -1.
    9000002    1    1    2    0    0 -0.38813002337E+00  0.39575415462E-01  0.10255159703E+00  0.10210641305E+01  0.93800000000E+00 0. -1.
         22    1    1    2    0    0  0.26056655095E+00 -0.30001955840E-01  0.26396187199E+01  0.26526179580E+01  0.00000000000E+00 0. -1.
</event>
<event>
 5    1  0.6076093E+001  0.1587867E+01  0.7818608E-02  0.3366638E+00
         11   -1    0    0    0    0  0.00000000000E+00  0.00000000000E+00  0.39999999674E+01  0.40000000000E+01  0.51100000000E-03 0. -1.
    9000002   -1    0    0    0    0 -0.00000000000E+00 -0.00000000000E+00  0.00000000000E+00  0.93800000000E+00  0.93800000000E+00 0. -1.
         11    1    1    2    0    0  0.13359625769E-01 -0.23564486551E-01  0.12154059127E+00  0.12452365668E+00  0.51100000000E-03 0. -1.
    9000002    1    1    2    0    0  0.36799448137E-01 -0.63063041100E+00  0.29264899933E+00  0.11681337044E+01  0.93800000000E+00 0. -1.
         22    1    1    2    0    0 -0.50159073906E-01  0.65419489755E+00  0.35858103768E+01  0.36453426389E+01  0.00000000000E+00 0. -1.
</event>
<event>
 5    1  0.6076093E+001  0.1476580E+01  0.7818608E-02  0.3499274E+00
         11   -1    0    0    0    0  0.00000000000E+00  0.00000000000E+00  0.39999999674E+01  0.40000000000E+01  0.51100000000E-03 0. -1.
    9000002   -1    0    0    0    0 -0.00000000000E+00 -0.00000000000E+00  0.00000000000E+00  0.93800000000E+00  0.93800000000E+00 0. -1.
         11    1    1    2    0    0 -0.35477163032E+00  0.11000947922E+00  0.10633963331E+01  0.11264000256E+01  0.51100000000E-03 0. -1.
    9000002    1    1    2    0    0 -0.16386299469E-02  0.69411226575E-01  0.98642811242E-01  0.94572459400E+00  0.93800000000E+00 0. -1.
         22    1    1    2    0    0  0.35641026026E+00 -0.17942070579E+00  0.28379608230E+01  0.28658753804E+01  0.00000000000E+00 0. -1.
</event>
<event>
 5    1  0.6076093E+001  0.1540329E+01  0.7818608E-02  0.3420788E+00
         11   -1    0    0    0    0  0.00000000000E+00  0.00000000000E+00  0.39999999674E+01  0.40000000000E+01  0.51100000000E-03 0. -1.
    9000002   -1    0    0    0    0 -0.00000000000E+00 -0.00000000000E+00  0.00000000000E+00  0.93800000000E+00  0.93800000000E+00 0.  1.
         11    1    1    2    0    0  0.73989704728E-01  0.56682642936E-01  0.10016342374E+00  0.13682240676E+00  0.51100000000E-03 0. -1.
    9000002    1    1    2    0    0  0.48027409930E-01  0.32032982050E+00  0.11880540530E+00  0.99943811731E+00  0.93800000000E+00 0.  1.
         22    1    1    2    0    0 -0.12201711466E+00 -0.37701246343E+00  0.37810311383E+01  0.38017394759E+01  0.00000000000E+00 0. -1.
</event>
<event>
 5    1  0.6076093E+001  0.1597437E+01  0.7818608E-02  0.3356150E+00
         11   -1    0    0    0    0  0.00000000000E+00  0.00000000000E+00  0.39999999674E+01  0.40000000000E+01  0.51100000000E-03 0.  1.
    9000002   -1    0    0    0    0 -0.00000000000E+00 -0.00000000000E+00  0.00000000000E+00  0.93800000000E+00  0.93800000000E+00 0.  1.
         11    1    1    2    0    0 -0.99169297259E-01  0.16379431933E+00  0.49212159069E+00  0.52805970279E+00  0.51100000000E-03 0.  1.
    9000002    1    1    2    0    0  0.61128048127E+00 -0.78751123895E+00  0.80241923160E+00  0.15866815690E+01  0.93800000000E+00 0.  1.
         22    1    1    2    0    0 -0.51211118402E+00  0.62371691962E+00  0.27054591451E+01  0.28232587282E+01  0.00000000000E+00 0.  1.
</event>
<event>
 5    1  0.6076093E+001  0.1503178E+01  0.7818608E-02  0.3465657E+00
         11   -1    0    0    0    0  0.00000000000E+00  0.00000000000E+00  0.39999999674E+01  0.40000000000E+01  0.51100000000E-03 0.  1.
    9000002   -1    0    0    0    0 -0.00000000000E+00 -0.00000000000E+00  0.00000000000E+00  0.93800000000E+00  0.93800000000E+00 0. -1.
         11    1    1    2    0    0 -0.29910994549E-01  0.23202546558E+00  0.60321032465E+00  0.64698797605E+00  0.51100000000E-03 0.  1.
    9000002    1    1    2    0    0 -0.34343039775E+00  0.18379640479E+00  0.18674477684E+00  0.10326873526E+01  0.93800000000E+00 0. -1.
         22    1    1    2    0    0  0.37334139230E+00 -0.41582187037E+00  0.32100448659E+01  0.32583246714E+01  0.00000000000E+00 0.  1.
</event>
<event>
 5    1  0.6076093E+001  0.1596931E+01  0.7818608E-02  0.3356701E+00
         11   -1    0    0    0    0  0.00000000000E+00  0.00000000000E+00  0.39999999674E+01  0.40000000000E+01  0.51100000000E-03 0. -1.
    9000002   -1    0    0    0    0 -0.00000000000E+00 -0.00000000000E+00  0.00000000000E+00  0.93800000000E+00  0.93800000000E+00 0. -1.
         11    1    1    2    0    0 -0.18805397126E-01 -0.31453295994E-01  0.11706835327E+00  0.12267115899E+00  0.51100000000E-03 0. -1.
    9000002    1    1    2    0    0  0.96685388031E-01  0.51642549235E+00  0.19233625949E+00  0.10921907297E+01  0.93800000000E+00 0. -1.
         22    1    1    2    0    0 -0.77879990905E-01 -0.48497219636E+00  0.36905953546E+01  0.37231381113E+01  0.00000000000E+00 0. -1.
</event>
<event>
 5    1  0.6076093E+001  0.1585392E+01  0.7818608E-02  0.3369372E+00
         11   -1    0    0    0    0  0.00000000000E+00  0.00000000000E+00  0.39999999674E+01  0.40000000000E+01  0.51100000000E-03 0.  1.
    9000002   -1    0    0    0    0 -0.00000000000E+00 -0.00000000000E+00  0.00000000000E+00  0.93800000000E+00  0.93800000000E+00 0. -1.
         11    1    1    2    0    0  0.19174775263E+00 -0.52696719659E-01  0.67672350404E+00  0.70533616591E+00  0.51100000000E-03 0.  1.
    9000002    1    1    2    0    0 -0.54732659859E+00 -0.48363833372E-01  0.22210794184E+00  0.11095410780E+01  0.93800000000E+00 0. -1.
         22    1    1    2    0    0  0.35557884596E+00  0.10106055303E+00  0.31011685215E+01  0.31231227561E+01  0.00000000000E+00 0.  1.
</event>
<event>
 5    1  0.6076093E+001  0.1599518E+01  0.7818608E-02  0.3353886E+00
         11   -1    0    0    0    0  0.00000000000E+00  0.00000000000E+00  0.39999999674E+01  0.40000000000E+01  0.51100000000E-03 0. -1.
    9000002   -1    0    0    0    0 -0.00000000000E+00 -0.00000000000E+00  0.00000000000E+00  0.93800000000E+00  0.93800000000E+00 0.  1.
         11    1    1    2    0    0  0.57362764366E-01 -0.53024477736E-01  0.87902194522E+00  0.88248621705E+00  0.51100000000E-03 0. -1.
    9000002    1    1    2    0    0 -0.30709666687E+00  0.25373770924E+00  0.10714969999E+00  0.10247030039E+01  0.93800000000E+00 0.  1.
         22    1    1    2    0    0  0.24973390251E+00 -0.20071323150E+00  0.30138283221E+01  0.30308107791E+01  0.00000000000E+00 0.  1.
</event>
<event>
 5    1  0.6076093E+001  0.1599660E+01  0.7818608E-02  0.3353732E+00
         11   -1    0    0    0    0  0.00000000000E+00  0.00000000000E+00  0.39999999674E+01  0.40000000000E+01  0.51100000000E-03 0. -1.
    9000002   -1    0    0    0    0 -0.00000000000E+00 -0.00000000000E+00  0.00000000000E+00  0.93800000000E+00  0.93800000000E+00 0.  1.
         11    1    1    2    0    0 -0.16803447023E-01  0.77767685456E-02  0.10638743669E+00  0.10798787787E+00  0.51100000000E-03 0. -1.
    9000002    1    1    2    0    0  0.61874373550E+00 -0.30479412893E+00  0.33909395474E+00  0.12126714235E+01  0.93800000000E+00 0.  1.
         22    1    1    2    0    0 -0.60194028847E+00  0.29701736039E+00  0.35545185759E+01  0.36173406986E+01  0.00000000000E+00 0. -1.
</event>
<event>
 5    1  0.6076093E+001  0.1599631E+01  0.7818608E-02  0.3353764E+00
         11   -1    0    0    0    0  0.00000000000E+00  0.00000000000E+00  0.39999999674E+01  0.40000000000E+01  0.51100000000E-03 0.  1.
    9000002   -1    0    0    0    0 -0.00000000000E+00 -0.00000000000E+00  0.00000000000E+00  0.93800000000E+00  0.93800000000E+00 0. -1.
         11    1    1    2    0    0  0.45698356126E-02  0.12930893712E+00  0.88817600316E+00  0.89755142378E+00  0.51100000000E-03 0.  1.
    9000002    1    1    2    0    0 -0.46469284127E-01 -0.54081540648E+00  0.20327617273E+00  0.11026358876E+01  0.93800000000E+00 0. -1.
         22    1    1    2    0    0  0.41899448515E-01  0.41150646936E+00  0.29085477915E+01  0.29378126886E+01  0.00000000000E+00 0.  1.
</event>
<event>
 5    1  0.6076093E+001  0.1450571E+01  0.7818608E-02  0.3533439E+00
         11   -1    0    0    0    0  0.00000000000E+00  0.00000000000E+00  0.39999999674E+01  0.40000000000E+01  0.51100000000E-03 0. -1.
    9000002   -1    0    0    0    0 -0.00000000000E+00 -0.00000000000E+00  0.00000000000E+00  0.93800000000E+00  0.93800000000E+00 0.  1.
         11    1    1    2    0    0  0.17400916676E+00 -0.28902137565E+00  0.76667850665E+00  0.83762088046E+00  0.51100000000E-03 0. -1.
    9000002    1    1    2    0    0  0.12930237422E+00 -0.17896948179E+00  0.15995067888E+00  0.97682004436E+00  0.93800000000E+00 0.  1.
         22    1    1    2    0    0 -0.30331154097E+00  0.46799085744E+00  0.30733707818E+01  0.31235590752E+01  0.00000000000E+00 0. -1.
</event>
<event>
 5    1  0.6168322E+001  0.1599649E+01  0.7818608E-02  0.3353744E+00
         11   -1    0    0    0    0  0.00000000000E+00  0.00000000000E+00  0.39999999674E+01  0.40000000000E+01  0.51100000000E-03 0. -1.
    9000002   -1    0    0    0    0 -0.00000000000E+00 -0.00000000000E+00  0.00000000000E+00  0.93800000000E+00  0.93800000000E+00 0.  1.
         11    1    1    2    0    0 -0.90435823242E-01  0.10992283746E+00  0.13422869578E+01  0.13498133969E+01  0.51100000000E-03 0. -1.
    9000002    1    1    2    0    0  0.26681050744E+00 -0.33394250550E+00  0.12371416661E+00  0.10381977841E+01  0.93800000000E+00 0.  1.
         22    1    1    2    0    0 -0.17637468419E+00  0.22401966803E+00  0.25339988430E+01  0.25499888190E+01  0.00000000000E+00 0.  1.
</event>
<event>
 5    1  0.6076093E+001  0.1599666E+01  0.7818608E-02  0.3353726E+00
         11   -1    0    0    0    0  0.00000000000E+00  0.00000000000E+00  0.39999999674E+01  0.40000000000E+01  0.51100000000E-03 0.  1.
    9000002   -1    0    0    0    0 -0.00000000000E+00 -0.00000000000E+00  0.00000000000E+00  0.93800000000E+00  0.93800000000E+00 0.  1.
         11    1    1    2    0    0  0.91453360901E-01  0.52151650534E-01  0.10171048346E+01  0.10225390054E+01  0.51100000000E-03 0.  1.
    9000002    1    1    2    0    0 -0.33906169049E+00 -0.20693097653E+00  0.10639902874E+00  0.10241816305E+01  0.93800000000E+00 0.  1.
         22    1    1    2    0    0  0.24760832959E+00  0.15477932600E+00  0.28764961040E+01  0.28912793640E+01  0.00000000000E+00 0.  1.
</event>
<event>
 5    1  0.6076093E+001  0.1599628E+01  0.7818608E-02  0.3353767E+00
         11   -1    0    0    0    0  0.00000000000E+00  0.00000000000E+00  0.39999999674E+01  0.40000000000E+01  0.51100000000E-03 0.  1.
    9000002   -1    0    0    0    0 -0.00000000000E+00 -0.00000000000E+00  0.00000000000E+00  0.93800000000E+00  0.93800000000E+00 0.  1.
         11    1    1    2    0    0  0.15504108179E+00 -0.12398779457E+00  0.11111183365E+01  0.11287138385E+01  0.51100000000E-03 0.  1.
    9000002    1    1    2    0    0 -0.53832998215E+00  0.40550052872E+00  0.32247949201E+00  0.11991942592E+01  0.93800000000E+00 0.  1.
         22    1    1    2    0    0  0.38328890036E+00 -0.28151273415E+00  0.25664021388E+01  0.26100919023E+01  0.00000000000E+00 0.  1.
</event>
<event>
 5    1  0.6076093E+001  0.1599677E+01  0.7818608E-02  0.3353714E+00
         11   -1    0    0    0    0  0.00000000000E+00  0.00000000000E+00  0.39999999674E+01  0.40000000000E+01  0.51100000000E-03 0.  1.
    9000002   -1    0    0    0    0 -0.00000000000E+00 -0.00000000000E+00  0.00000000000E+00  0.93800000000E+00  0.93800000000E+00 0. -1.
         11    1    1    2    0    0  0.98902629813E-01 -0.28380524774E-01  0.93088797057E+00  0.93655745112E+00  0.51100000000E-03 0. -1.
    9000002    1    1    2    0    0 -0.41175409613E+00  0.11865793009E+00  0.12432924596E+00  0.10387121360E+01  0.93800000000E+00 0. -1.
         22    1    1    2    0    0  0.31285146632E+00 -0.90277405314E-01  0.29447827508E+01  0.29627304129E+01  0.00000000000E+00 0.  1.
</event>
<event>
 5    1  0.6076093E+001  0.1584681E+01  0.7818608E-02  0.3370160E+00
         11   -1    0    0    0    0  0.00000000000E+00  0.00000000000E+00  0.39999999674E+01  0.40000000000E+01  0.51100000000E-03 0. -1.
    9000002   -1    0    0    0    0 -0.00000000000E+00 -0.00000000000E+00  0.00000000000E+00  0.93800000000E+00  0.93800000000E+00 0. -1.
         11    1    1    2    0    0  0.10723496148E-01  0.92725609317E-01  0.13817195243E+01  0.13848689963E+01  0.51100000000E-03 0. -1.
    9000002    1    1    2    0    0  0.28624290906E+00 -0.18631437726E-01  0.66577205921E-01  0.98313715107E+00  0.93800000000E+00 0. -1.
         22    1    1    2    0    0 -0.29696640521E+00 -0.74094171592E-01  0.25517032372E+01  0.25699938527E+01  0.00000000000E+00 0. -1.
</event>
<event>
 5    1  0.6076093E+001  0.1595110E+01  0.7818608E-02  0.3358688E+00
         11   -1    0    0    0    0  0.00000000000E+00  0.00000000000E+00  0.39999999674E+01  0.40000000000E+01  0.51100000000E-03 0. -1.
    9000002   -1    0    0    0    0 -0.00000000000E+00 -0.00000000000E+00  0.00000000000E+00  0.93800000000E+00  0.93800000000E+00 0. -1.
         11    1    1    2    0    0  0.47346772097E-01 -0.72749599828E-01  0.12256592593E+01  0.12287290597E+01  0.51100000000E-03 0. -1.
    9000002    1    1    2    0    0 -0.38745376306E+00  0.24342862586E+00  0.14634573284E+00  0.10538685819E+01  0.93800000000E+00 0. -1.
         22    1    1    2    0    0  0.34010699097E+00 -0.17067902604E+00  0.26279949752E+01  0.26554023584E+01  0.00000000000E+00 0. -1.
</event>
<event>
 5    1  0.6076093E+001  0.1490103E+01  0.7818608E-02  0.3482019E+00
         11   -1    0    0    0    0  0.00000000000E+00  0.00000000000E+00  0.39999999674E+01  0.40000000000E+01  0.51100000000E-03 0.  1.
    9000002   -1    0    0    0    0 -0.00000000000E+00 -0.00000000000E+00  0.00000000000E+00  0.93800000000E+00  0.93800000000E+00 0.  1.
         11    1    1    2    0    0 -0.45715604046E+00 -0.80937460293E-01  0.11319252494E+01  0.12234367777E+01  0.51100000000E-03 0.  1.
    9000002    1    1    2    0    0  0.29161319188E+00  0.35796954361E+00  0.24774028602E+00  0.10744299406E+01  0.93800000000E+00 0.  1.
         22    1    1    2    0    0  0.16554284857E+00 -0.27703208332E+00  0.26203344320E+01  0.26401332817E+01  0.00000000000E+00 0.  1.
</event>
<event>
 5    1  0.9629617E+001  0.1590270E+01  0.7818608E-02  0.3363992E+00
         11   -1    0    0    0    0  0.00000000000E+00  0.00000000000E+00  0.39999999674E+01  0.40000000000E+01  0.51100000000E-03 0.  1.
    9000002   -1    0    0    0    0 -0.00000000000E+00 -0.00000000000E+00  0.00000000000E+00  0.93800000000E+00  0.93800000000E+00 0. -1.
         11    1    1    2    0    0 -0.64828812738E-01 -0.67905779522E-01  0.13578689684E+01  0.13611107106E+01  0.51100000000E-03 0.  1.
    9000002    1    1    2    0    0  0.20313185004E+00 -0.12472378374E+00  0.44899199533E-01  0.96885422477E+00  0.93800000000E+00 0. -1.
         22    1    1    2    0    0 -0.13830303730E+00  0.19262956326E+00  0.25972317994E+01  0.26080350647E+01  0.00000000000E+00 0.  1.
</event>
<event>
 5    1  0.6076093E+001  0.1514568E+01  0.7818608E-02  0.3451649E+00
         11   -1    0    0    0    0  0.00000000000E+00  0.00000000000E+00  0.39999999674E+01  0.40000000000E+01  0.51100000000E-03 0.  1.
    9000002   -1    0    0    0    0 -0.00000000000E+00 -0.00000000000E+00  0.00000000000E+00  0.93800000000E+00  0.93800000000E+00 0.  1.
         11    1    1    2    0    0  0.72415421029E-01  0.35013033032E+00  0.31988268453E+00  0.47975038759E+00  0.51100000000E-03 0.  1.
    9000002    1    1    2    0    0 -0.36339262052E+00 -0.59513739874E-01  0.29744886128E+00  0.10506740251E+01  0.93800000000E+00 0.  1.
         22    1    1    2    0    0  0.29097719949E+00 -0.29061659045E+00  0.33826684215E+01  0.34075755873E+01  0.00000000000E+00 0.  1.
</event>
<event>
 5    1  0.6076093E+001  0.1585776E+01  0.7818608E-02  0.3368948E+00
         11   -1    0    0    0    0  0.00000000000E+00  0.00000000000E+00  0.39999999674E+01  0.40000000000E+01  0.51100000000E-03 0.  1.
    9000002   -1    0    0    0    0 -0.00000000000E+00 -0.00000000000E+00  0.00000000000E+00  0.93800000000E+00  0.93800000000E+00 0. -1.
         11    1    1    2    0    0  0.22233999454E-01 -0.72247418949E-01  0.78585431279E+00  0.78948166687E+00  0.51100000000E-03 0.  1.
    9000002    1    1    2    0    0 -0.24759168278E+00 -0.18954220084E+00  0.75965271799E-01  0.99138418880E+00  0.93800000000E+00 0. -1.
         22    1    1    2    0    0  0.22535768333E+00  0.26178961979E+00  0.31381803828E+01  0.31571341443E+01  0.00000000000E+00 0.  1.
</event>
<event>
 5    1  0.6076093E+001  0.1599588E+01  0.7818608E-02  0.3353811E+00
         11   -1    0    0    0    0  0.00000000000E+00  0.00000000000E+00  0.39999999674E+01  0.40000000000E+01  0.51100000000E-03 0.  1.
    9000002   -1    0    0    0    0 -0.00000000000E+00 -0.00000000000E+00  0.00000000000E+00  0.93800000000E+00  0.93800000000E+00 0. -1.
         11    1    1    2    0    0 -0.67232003772E-01  0.10557263445E+00  0.12969581625E+01  0.13029836759E+01  0.51100000000E-03 0.  1.
    9000002    1    1    2    0    0  0.19061190840E+00 -0.34713131946E+00  0.10580711527E+00  0.10236562891E+01  0.93800000000E+00 0. -1.
         22    1    1    2    0    0 -0.12337990462E+00  0.24155868500E+00  0.25972346896E+01  0.26113600350E+01  0.00000000000E+00 0.  1.
</event>
<event>
 5    1  0.6076093E+001  0.1598601E+01  0.7818608E-02  0.3354883E+00
         11   -1    0    0    0    0  0.00000000000E+00  0.00000000000E+00  0.39999999674E+01  0.40000000000E+01  0.51100000000E-03 0.  1.
    9000002   -1    0    0    0    0 -0.00000000000E+00 -0.00000000000E+00  0.00000000000E+00  0.93800000000E+00  0.93800000000E+00 0.  1.
         11    1    1    2    0    0 -0.84968505786E-02 -0.12680587387E-01  0.41888938683E+00  0.41916771498E+00  0.51100000000E-03 0.  1.
    9000002    1    1    2    0    0  0.84862120581E-01  0.34681569930E+00  0.86416182751E-01  0.10073700737E+01  0.93800000000E+00 0.  1.
         22    1    1    2    0    0 -0.76365270003E-01 -0.33413511191E+00  0.34946943978E+01  0.35114622113E+01  0.00000000000E+00 0.  1.
</event>
<event>
 5    1  0.6076093E+001  0.1599673E+01  0.7818608E-02  0.3353718E+00
         11   -1    0    0    0    0  0.00000000000E+00  0.00000000000E+00  0.39999999674E+01  0.40000000000E+01  0.51100000000E-03 0. -1.
    9000002   -1    0    0    0    0 -0.00000000000E+00 -0.00000000000E+00  0.00000000000E+00  0.93800000000E+00  0.93800000000E+00 0.  1.
         11    1    1    2    0    0 -0.12226633351E-02  0.23692925919E+00  0.13378653280E+01  0.13586835046E+01  0.51100000000E-03 0. -1.
    9000002    1    1    2    0    0  0.83646813410E-03 -0.65975452392E+00  0.30788454347E+00  0.11873978371E+01  0.93800000000E+00 0.  1.
         22    1    1    2    0    0  0.38619520098E-03  0.42282526474E+00  0.23542500959E+01  0.23919186583E+01  0.00000000000E+00 0. -1.
</event>
<event>
 5    1  0.6076093E+001  0.1598194E+01  0.7818608E-02  0.3355326E+00
         11   -1    0    0    0    0  0.00000000000E+00  0.00000000000E+00  0.39999999674E+01  0.40000000000E+01  0.51100000000E-03 0. -1.
    9000002   -1    0    0    0    0 -0.00000000000E+00 -0.00000000000E+00  0.00000000000E+00  0.93800000000E+00  0.93800000000E+00 0. -1.
         11    1    1    2    0    0 -0.45084148615E+00  0.82702449924E-01  0.90049507960E+00  0.10104401963E+01  0.51100000000E-03 0. -1.
    9000002    1    1    2    0    0  0.12187678363E+01 -0.31536021023E+00  0.16975485495E+01  0.23122201839E+01  0.93800000000E+00 0. -1.
         22    1    1    2    0    0 -0.76792635017E+00  0.23265776031E+00  0.14019563383E+01  0.16153396198E+01  0.00000000000E+00 0. -1.
</event>
<event>
 5    1  0.6076093E+001  0.1599677E+01  0.7818608E-02  0.3353714E+00
         11   -1    0    0    0    0  0.00000000000E+00  0.00000000000E+00  0.39999999674E+01  0.40000000000E+01  0.51100000000E-03 0.  1.
    9000002   -1    0    0    0    0 -0.00000000000E+00 -0.00000000000E+00  0.00000000000E+00  0.93800000000E+00  0.93800000000E+00 0. -1.
         11    1    1    2    0    0 -0.67612785080E-01 -0.13362470491E+00  0.12930794457E+01  0.13017226143E+01  0.51100000000E-03 0. -1.
    9000002    1    1    2    0    0  0.20333830502E+00  0.40057645519E+00  0.13704953243E+00  0.10490159851E+01  0.93800000000E+00 0. -1.
         22    1    1    2    0    0 -0.13572551994E+00 -0.26695175028E+00  0.25698709892E+01  0.25872614006E+01  0.00000000000E+00 0.  1.
</event>
<event>
 5    1  0.6076093E+001  0.1599677E+01  0.7818608E-02  0.3353714E+00
         11   -1    0    0    0    0  0.00000000000E+00  0.00000000000E+00  0.39999999674E+01  0.40000000000E+01  0.51100000000E-03 0.  1.
    9000002   -1    0    0    0    0 -0.00000000000E+00 -0.00000000000E+00  0.00000000000E+00  0.93800000000E+00  0.93800000000E+00 0.  1.
         11    1    1    2    0    0  0.12886449114E+00 -0.18239658227E-01  0.12599330865E+01  0.12666374327E+01  0.51100000000E-03 0.  1.
    9000002    1    1    2    0    0 -0.39821762565E+00  0.57138125076E-01  0.10919804396E+00  0.10264551892E+01  0.93800000000E+00 0.  1.
         22    1    1    2    0    0  0.26935313451E+00 -0.38898466850E-01  0.26308688369E+01  0.26449073781E+01  0.00000000000E+00 0. -1.
</event>
<event>
 5    1  0.6076093E+001  0.1599642E+01  0.7818608E-02  0.3353752E+00
         11   -1    0    0    0    0  0.00000000000E+00  0.00000000000E+00  0.39999999674E+01  0.40000000000E+01  0.51100000000E-03 0. -1.
    9000002   -1    0    0    0    0 -0.00000000000E+00 -0.00000000000E+00  0.00000000000E+00  0.93800000000E+00  0.93800000000E+00 0.  1.
         11    1    1    2    0    0 -0.82980695367E-01 -0.12056154307E+00  0.89616002468E+00  0.90803300184E+00  0.51100000000E-03 0. -1.
    9000002    1    1    2    0    0  0.33941164890E+00  0.48136598295E+00  0.24151412882E+00  0.11336165804E+01  0.93800000000E+00 0.  1.
         22    1    1    2    0    0 -0.25643095353E+00 -0.36080443988E+00  0.28623258139E+01  0.28963504178E+01  0.00000000000E+00 0. -1.
</event>
<event>
 5    1  0.6076093E+001  0.1599593E+01  0.7818608E-02  0.3353805E+00
         11   -1    0    0    0    0  0.00000000000E+00  0.00000000000E+00  0.39999999674E+01  0.40000000000E+01  0.51100000000E-03 0.  1.
    9000002   -1    0    0    0    0 -0.00000000000E+00 -0.00000000000E+00  0.00000000000E+00  0.93800000000E+00  0.93800000000E+00 0.  1.
         11    1    1    2    0    0 -0.95324717080E-01  0.13920810956E+00  0.13482322851E+01  0.13587480470E+01  0.51100000000E-03 0.  1.
    9000002    1    1    2    0    0  0.27609372400E+00 -0.42440744093E+00  0.17574904214E+00  0.10803152994E+01  0.93800000000E+00 0.  1.
         22    1    1    2    0    0 -0.18076900692E+00  0.28519933137E+00  0.24760186401E+01  0.24989366536E+01  0.00000000000E+00 0.  1.
</event>
<event>
 5    1  0.6076093E+001  0.1546057E+01  0.7818608E-02  0.3414076E+00
         11   -1    0    0    0    0  0.00000000000E+00  0.00000000000E+00  0.39999999674E+01  0.40000000000E+01  0.51100000000E-03 0. -1.
    9000002   -1    0    0    0    0 -0.00000000000E+00 -0.00000000000E+00  0.00000000000E+00  0.93800000000E+00  0.93800000000E+00 0.  1.
         11    1    1    2    0    0 -0.99821943606E-01 -0.85827084783E-01  0.19710787763E+00  0.23702844861E+00  0.51100000000E-03 0. -1.
    9000002    1    1    2    0    0 -0.15667787407E+00  0.32858074479E+00  0.13390964648E+00  0.10150315539E+01  0.93800000000E+00 0.  1.
         22    1    1    2    0    0  0.25649981767E+00 -0.24275366001E+00  0.36689824433E+01  0.36859399975E+01  0.00000000000E+00 0. -1.
</event>
<event>
 5    1  0.6076093E+001  0.1599677E+01  0.7818608E-02  0.3353714E+00
         11   -1    0    0    0    0  0.00000000000E+00  0.00000000000E+00  0.39999999674E+01  0.40000000000E+01  0.51100000000E-03 0. -1.
    9000002   -1    0    0    0    0 -0.00000000000E+00 -0.00000000000E+00  0.00000000000E+00  0.93800000000E+00  0.93800000000E+00 0. -1.
         11    1    1    2    0    0  0.48825529349E-02  0.14913109113E+00  0.13999915191E+01  0.14079206073E+01  0.51100000000E-03 0. -1.
    9000002    1    1    2    0    0 -0.13909521052E-01 -0.41356286470E+00  0.11570536221E+00  0.10317264408E+01  0.93800000000E+00 0. -1.
         22    1    1    2    0    0  0.90269681172E-02  0.26443177357E+00  0.24843030860E+01  0.24983529519E+01  0.00000000000E+00 0. -1.
</event>
<event>
 5    1  0.6076093E+001  0.1599620E+01  0.7818608E-02  0.3353776E+00
         11   -1    0    0    0    0  0.00000000000E+00  0.00000000000E+00  0.39999999674E+01  0.40000000000E+01  0.51100000000E-03 0.  1.
    9000002   -1    0    0    0    0 -0.00000000000E+00 -0.00000000000E+00  0.00000000000E+00  0.93800000000E+00  0.93800000000E+00 0. -1.
         11    1    1    2    0    0 -0.85039768393E-01  0.28945117872E-01  0.88298521747E+00  0.88754309047E+00  0.51100000000E-03 0.  1.
    9000002    1    1    2    0    0  0.35489317340E+00 -0.15426022631E+00  0.10088753415E+00  0.10196899904E+01  0.93800000000E+00 0. -1.
         22    1    1    2    0    0 -0.26985340501E+00  0.12531510844E+00  0.30161272157E+01  0.30307669191E+01  0.00000000000E+00 0.  1.
</event>
<event>
 5    1  0.6076093E+001  0.1597270E+01  0.7818608E-02  0.3356331E+00
         11   -1    0    0    0    0  0.00000000000E+00  0.00000000000E+00  0.39999999674E+01  0.40000000000E+01  0.51100000000E-03 0.  1.
    9000002   -1    0    0    0    0 -0.00000000000E+00 -0.00000000000E+00  0.00000000000E+00  0.93800000000E+00  0.93800000000E+00 0. -1.
         11    1    1    2    0    0  0.38386243744E-01 -0.10544582090E+00  0.90397149195E+00  0.91091000886E+00  0.51100000000E-03 0.  1.
    9000002    1    1    2    0    0 -0.36131116145E+00  0.37307037618E+00  0.18746823799E+00  0.10884464163E+01  0.93800000000E+00 0. -1.
         22    1    1    2    0    0  0.32292491771E+00 -0.26762455528E+00  0.29085602374E+01  0.29386435748E+01  0.00000000000E+00 0.  1.
</event>
<event>
 5    1  0.6076093E+001  0.1599632E+01  0.7818608E-02  0.3353763E+00
         11   -1    0    0    0    0  0.00000000000E+00  0.00000000000E+00  0.39999999674E+01  0.40000000000E+01  0.51100000000E-03 0.  1.
    9000002   -1    0    0    0    0 -0.00000000000E+00 -0.00000000000E+00  0.00000000000E+00  0.93800000000E+00  0.93800000000E+00 0. -1.
         11    1    1    2    0    0 -0.18438951692E-01  0.41987946984E-01  0.57537697926E+00  0.57720179488E+00  0.51100000000E-03 0.  1.
    9000002    1    1    2    0    0  0.13339638278E+00 -0.32405115807E+00  0.82381367523E-01  0.10047061449E+01  0.93800000000E+00 0. -1.
         22    1    1    2    0    0 -0.11495743109E+00  0.28206321108E+00  0.33422416206E+01  0.33560920602E+01  0.00000000000E+00 0.  1.
</event>
<event>
 5    1  0.6076093E+001  0.1555237E+01  0.7818608E-02  0.3403428E+00
         11   -1    0    0    0    0  0.00000000000E+00  0.00000000000E+00  0.39999999674E+01  0.40000000000E+01  0.51100000000E-03 0. -1.
    9000002   -1    0    0    0    0 -0.00000000000E+00 -0.00000000000E+00  0.00000000000E+00  0.93800000000E+00  0.93800000000E+00 0.  1.
         11    1    1    2    0    0 -0.10249237362E+00  0.16114916822E+00  0.78883660807E+00  0.81162626647E+00  0.51100000000E-03 0. -1.
    9000002    1    1    2    0    0  0.25057316241E+00  0.17994630679E+00  0.99339569665E-01  0.99241117142E+00  0.93800000000E+00 0.  1.
         22    1    1    2    0    0 -0.14808078880E+00 -0.34109547500E+00  0.31118237896E+01  0.31339625621E+01  0.00000000000E+00 0. -1.
</event>
<event>
 5    1  0.9430266E+001  0.1592495E+01  0.7818608E-02  0.3361550E+00
         11   -1    0    0    0    0  0.00000000000E+00  0.00000000000E+00  0.39999999674E+01  0.40000000000E+01  0.51100000000E-03 0. -1.
    9000002   -1    0    0    0    0 -0.00000000000E+00 -0.00000000000E+00  0.00000000000E+00  0.93800000000E+00  0.93800000000E+00 0.  1.
         11    1    1    2    0    0 -0.20138642768E-01 -0.10411275557E-01  0.13979170651E+01  0.13981009769E+01  0.51100000000E-03 0. -1.
    9000002    1    1    2    0    0 -0.12618529950E+00  0.23560657873E+00  0.53069314583E-01  0.97677711987E+00  0.93800000000E+00 0.  1.
         22    1    1    2    0    0  0.14632394227E+00 -0.22519530317E+00  0.25490135877E+01  0.25631219032E+01  0.00000000000E+00 0. -1.
</event>
<event>
 5    1  0.6076093E+001  0.1597901E+01  0.7818608E-02  0.3355645E+00
         11   -1    0    0    0    0  0.00000000000E+00  0.00000000000E+00  0.39999999674E+01  0.40000000000E+01  0.51100000000E-03 0.  1.
    9000002   -1    0    0    0    0 -0.00000000000E+00 -0.00000000000E+00  0.00000000000E+00  0.93800000000E+00  0.93800000000E+00 0.  1.
         11    1    1    2    0    0 -0.83787980328E-01  0.29944557672E-01  0.10209705920E+01  0.10248406281E+01  0.51100000000E-03 0.  1.
    9000002    1    1    2    0    0  0.44019775450E+00 -0.22562179630E+00  0.16894096202E+00  0.10738083193E+01  0.93800000000E+00 0.  1.
         22    1    1    2    0    0 -0.35640977417E+00  0.19567723863E+00  0.28100884134E+01  0.28393510526E+01  0.00000000000E+00 0. -1.
</event>
<event>
 5    1  0.6076093E+001  0.1594026E+01  0.7818608E-02  0.3359873E+00
         11   -1    0    0    0    0  0.00000000000E+00  0.00000000000E+00  0.39999999674E+01  0.40000000000E+01  0.51100000000E-03 0. -1.
    9000002   -1    0    0    0    0 -0.00000000000E+00 -0.00000000000E+00  0.00000000000E+00  0.93800000000E+00  0.93800000000E+00 0. -1.
         11    1    1    2    0    0 -0.14541729746E+00  0.29838017958E-02  0.11253648282E+01  0.11347252316E+01  0.51100000000E-03 0. -1.
    9000002    1    1    2    0    0  0.35008635516E+00 -0.24969521640E+00  0.13004775137E+00  0.10400310451E+01  0.93800000000E+00 0. -1.
         22    1    1    2    0    0 -0.20466905770E+00  0.24671141461E+00  0.27445873878E+01  0.27632437233E+01  0.00000000000E+00 0. -1.
</event>
<event>
 5    1  0.6076093E+001  0.1599669E+01  0.7818608E-02  0.3353723E+00
         11   -1    0    0    0    0  0.00000000000E+00  0.00000000000E+00  0.39999999674E+01  0.40000000000E+01  0.51100000000E-03 0. -1.
    9000002   -1    0    0    0    0 -0.00000000000E+00 -0.00000000000E+00  0.00000000000E+00  0.93800000000E+00  0.93800000000E+00 0.  1.
         11    1    1    2    0    0  0.28547328645E-01  0.47456888640E-02  0.21561667645E+00  0.21755064657E+00  0.51100000000E-03 0. -1.
    9000002    1    1    2    0    0 -0.52355164029E+00 -0.65850539523E-01  0.19153599328E+00  0.10931480459E+01  0.93800000000E+00 0.  1.
         22    1    1    2    0    0  0.49500431165E+00  0.61104850659E-01  0.35928472976E+01  0.36273013075E+01  0.00000000000E+00 0. -1.
</event>
<event>
 5    1  0.6076093E+001  0.1599648E+01  0.7818608E-02  0.3353745E+00
         11   -1    0    0    0    0  0.00000000000E+00  0.00000000000E+00  0.39999999674E+01  0.40000000000E+01  0.51100000000E-03 0.  1.
    9000002   -1    0    0    0    0 -0.00000000000E+00 -0.00000000000E+00  0.00000000000E+00  0.93800000000E+00  0.93800000000E+00 0. -1.
         11    1    1    2    0    0  0.13236129401E+00  0.23034715108E-01  0.10535945163E+01  0.10621260642E+01  0.51100000000E-03 0.  1.
    9000002    1    1    2    0    0 -0.48799458334E+00 -0.10356157616E+00  0.17035460616E+00  0.10759778833E+01  0.93800000000E+00 0. -1.
         22    1    1    2    0    0  0.35563328933E+00  0.80526861051E-01  0.27760508449E+01  0.27998960525E+01  0.00000000000E+00 0.  1.
</event>
<event>
 5    1  0.6076093E+001  0.1599657E+01  0.7818608E-02  0.3353735E+00
         11   -1    0    0    0    0  0.00000000000E+00  0.00000000000E+00  0.39999999674E+01  0.40000000000E+01  0.51100000000E-03 0.  1.
    9000002   -1    0    0    0    0 -0.00000000000E+00 -0.00000000000E+00  0.00000000000E+00  0.93800000000E+00  0.93800000000E+00 0.  1.
         11    1    1    2    0    0 -0.12919396415E+00 -0.22638982271E-01  0.75476215620E+00  0.76607426366E+00  0.51100000000E-03 0.  1.
    9000002    1    1    2    0    0  0.61913773758E+00  0.12343407482E+00  0.28003792710E+00  0.11648316400E+01  0.93800000000E+00 0.  1.
         22    1    1    2    0    0 -0.48994377344E+00 -0.10079509255E+00  0.29651998841E+01  0.30070940963E+01  0.00000000000E+00 0.  1.
</event>
<event>
 5    1  0.6076093E+001  0.1593585E+01  0.7818608E-02  0.3360356E+00
         11   -1    0    0    0    0  0.00000000000E+00  0.00000000000E+00  0.39999999674E+01  0.40000000000E+01  0.51100000000E-03 0.  1.
    9000002   -1    0    0    0    0 -0.00000000000E+00 -0.00000000000E+00  0.00000000000E+00  0.93800000000E+00  0.93800000000E+00 0. -1.
         11    1    1    2    0    0  0.80248719275E-01  0.75686044743E-01  0.71528424792E+00  0.72374031998E+00  0.51100000000E-03 0.  1.
    9000002    1    1    2    0    0 -0.48717222840E-01 -0.49834863876E+00  0.17716744700E+00  0.10779411106E+01  0.93800000000E+00 0. -1.
         22    1    1    2    0    0 -0.31531496435E-01  0.42266259402E+00  0.31075482724E+01  0.31363185695E+01  0.00000000000E+00 0.  1.
</event>
<event>
 5    1  0.6076093E+001  0.1598934E+01  0.7818608E-02  0.3354521E+00
         11   -1    0    0    0    0  0.00000000000E+00  0.00000000000E+00  0.39999999674E+01  0.40000000000E+01  0.51100000000E-03 0. -1.
    9000002   -1    0    0    0    0 -0.00000000000E+00 -0.00000000000E+00  0.00000000000E+00  0.93800000000E+00  0.93800000000E+00 0. -1.
         11    1    1    2    0    0 -0.18265256461E-01 -0.44984312779E-01  0.68424232279E+00  0.68596284550E+00  0.51100000000E-03 0. -1.
    9000002    1    1    2    0    0  0.11462078568E-01  0.36520655495E+00  0.90277784253E-01  0.10106934676E+01  0.93800000000E+00 0. -1.
         22    1    1    2    0    0  0.68031778935E-02 -0.32022224217E+00  0.32254798603E+01  0.32413436869E+01  0.00000000000E+00 0. -1.
</event>
<event>
 5    1  0.6076093E+001  0.1599228E+01  0.7818608E-02  0.3354202E+00
         11   -1    0    0    0    0  0.00000000000E+00  0.00000000000E+00  0.39999999674E+01  0.40000000000E+01  0.51100000000E-03 0.  1.
    9000002   -1    0    0    0    0 -0.00000000000E+00 -0.00000000000E+00  0.00000000000E+00  0.93800000000E+00  0.93800000000E+00 0. -1.
         11    1    1    2    0    0  0.30747989485E+00  0.29114727246E+00  0.10546531993E+01  0.11364876823E+01  0.51100000000E-03 0.  1.
    9000002    1    1    2    0    0 -0.82044817046E+00 -0.82726749980E+00  0.12442729091E+01  0.19456530495E+01  0.93800000000E+00 0. -1.
         22    1    1    2    0    0  0.51296827561E+00  0.53612022735E+00  0.17010738590E+01  0.18558592683E+01  0.00000000000E+00 0.  1.
</event>
<event>
 5    1  0.6076093E+001  0.1599161E+01  0.7818608E-02  0.3354274E+00
         11   -1    0    0    0    0  0.00000000000E+00  0.00000000000E+00  0.39999999674E+01  0.40000000000E+01  0.51100000000E-03 0.  1.
    9000002   -1    0    0    0    0 -0.00000000000E+00 -0.00000000000E+00  0.00000000000E+00  0.93800000000E+00  0.93800000000E+00 0.  1.
         11    1    1    2    0    0 -0.33750977999E-01 -0.19725578488E-01  0.21236130060E+00  0.21593010460E+00  0.51100000000E-03 0.  1.
    9000002    1    1    2    0    0  0.39581222235E+00  0.27843796978E+00  0.16035480233E+00  0.10675920012E+01  0.93800000000E+00 0.  1.
         22    1    1    2    0    0 -0.36206124435E+00 -0.25871239130E+00  0.36272838644E+01  0.36544778942E+01  0.00000000000E+00 0.  1.
</event>
<event>
 5    1  0.6076093E+001  0.1599517E+01  0.7818608E-02  0.3353887E+00
         11   -1    0    0    0    0  0.00000000000E+00  0.00000000000E+00  0.39999999674E+01  0.40000000000E+01  0.51100000000E-03 0. -1.
    9000002   -1    0    0    0    0 -0.00000000000E+00 -0.00000000000E+00  0.00000000000E+00  0.93800000000E+00  0.93800000000E+00 0. -1.
         11    1    1    2    0    0 -0.58356533472E-01 -0.25552820870E-01  0.32008592850E+00  0.32636435834E+00  0.51100000000E-03 0. -1.
    9000002    1    1    2    0    0  0.57760205966E+00  0.27851047797E+00  0.28972069544E+00  0.11725929844E+01  0.93800000000E+00 0. -1.
         22    1    1    2    0    0 -0.51924552619E+00 -0.25295765710E+00  0.33901933434E+01  0.34390426573E+01  0.00000000000E+00 0. -1.
</event>
<event>
 5    1  0.6076093E+001  0.1599677E+01  0.7818608E-02  0.3353715E+00
         11   -1    0    0    0    0  0.00000000000E+00  0.00000000000E+00  0.39999999674E+01  0.40000000000E+01  0.51100000000E-03 0.  1.
    9000002   -1    0    0    0    0 -0.00000000000E+00 -0.00000000000E+00  0.00000000000E+00  0.93800000000E+00  0.93800000000E+00 0. -1.
         11    1    1    2    0    0 -0.21586965183E-01  0.37464230354E-01  0.34932289280E+00  0.35198907679E+00  0.51100000000E-03 0. -1.
    9000002    1    1    2    0    0  0.23539392450E+00 -0.41141281076E+00  0.15315180236E+00  0.10620594499E+01  0.93800000000E+00 0. -1.
         22    1    1    2    0    0 -0.21380695932E+00  0.37394858040E+00  0.34975252722E+01  0.35239514733E+01  0.00000000000E+00 0.  1.
</event>
<event>
 5    1  0.6076093E+001  0.1599675E+01  0.7818608E-02  0.3353716E+00
         11   -1    0    0    0    0  0.00000000000E+00  0.00000000000E+00  0.39999999674E+01  0.40000000000E+01  0.51100000000E-03 0.  1.
    9000002   -1    0    0    0    0 -0.00000000000E+00 -0.00000000000E+00  0.00000000000E+00  0.93800000000E+00  0.93800000000E+00 0.  1.
         11    1    1    2    0    0  0.12992865174E+00 -0.14832309424E+00  0.10973891812E+01  0.11149638877E+01  0.51100000000E-03 0.  1.
    9000002    1    1    2    0    0 -0.44017803559E+00  0.50167935161E+00  0.31566820461E+00  0.11937040212E+01  0.93800000000E+00 0.  1.
         22    1    1    2    0    0  0.31024938385E+00 -0.35335625737E+00  0.25869425816E+01  0.26293320911E+01  0.00000000000E+00 0.  1.
</event>
<event>
 5    1  0.6076093E+001  0.1599589E+01  0.7818608E-02  0.3353810E+00
         11   -1    0    0    0    0  0.00000000000E+00  0.00000000000E+00  0.39999999674E+01  0.40000000000E+01  0.51100000000E-03 0. -1.
    9000002   -1    0    0    0    0 -0.00000000000E+00 -0.00000000000E+00  0.00000000000E+00  0.93800000000E+00  0.93800000000E+00 0. -1.
         11    1    1    2    0    0  0.12269541211E-01 -0.46669131812E-01  0.47734645459E+00  0.47977958308E+00  0.51100000000E-03 0. -1.
    9000002    1    1    2    0    0 -0.13722462163E+00  0.33421617894E+00  0.87704962394E-01  0.10089931672E+01  0.93800000000E+00 0. -1.
         22    1    1    2    0    0  0.12495508042E+00 -0.28754704713E+00  0.34349485504E+01  0.34492272497E+01  0.00000000000E+00 0. -1.
</event>
<event>
 5    1  0.6076093E+001  0.1590315E+01  0.7818608E-02  0.3363943E+00
         11   -1    0    0    0    0  0.00000000000E+00  0.00000000000E+00  0.39999999674E+01  0.40000000000E+01  0.51100000000E-03 0. -1.
    9000002   -1    0    0    0    0 -0.00000000000E+00 -0.00000000000E+00  0.00000000000E+00  0.93800000000E+00  0.93800000000E+00 0. -1.
         11    1    1    2    0    0 -0.86829791578E-02 -0.59421998719E-01  0.66966473358E+00  0.67235220278E+00  0.51100000000E-03 0. -1.
    9000002    1    1    2    0    0  0.38017595577E+00 -0.44896728361E-01  0.10637667924E+00  0.10186802597E+01  0.93800000000E+00 0. -1.
         22    1    1    2    0    0 -0.37149297662E+00  0.10431872708E+00  0.32239585545E+01  0.32469675375E+01  0.00000000000E+00 0. -1.
</event>
<event>
 5    1  0.6076093E+001  0.1599677E+01  0.7818608E-02  0.3353714E+00
         11   -1    0    0    0    0  0.00000000000E+00  0.00000000000E+00  0.39999999674E+01  0.40000000000E+01  0.51100000000E-03 0. -1.
    9000002   -1    0    0    0    0 -0.00000000000E+00 -0.00000000000E+00  0.00000000000E+00  0.93800000000E+00  0.93800000000E+00 0.  1.
         11    1    1    2    0    0  0.25439247100E-01  0.93873914799E-01  0.10534249115E+01  0.10579053703E+01  0.51100000000E-03 0. -1.
    9000002    1    1    2    0    0 -0.95861812837E-01 -0.34804362156E+00  0.87491630755E-01  0.10088719617E+01  0.93800000000E+00 0.  1.
         22    1    1    2    0    0  0.70422565737E-01  0.25416970676E+00  0.28590834251E+01  0.28712226680E+01  0.00000000000E+00 0.  1.
</event>
<event>
 5    1  0.6076093E+001  0.1584232E+01  0.7818608E-02  0.3370657E+00
         11   -1    0    0    0    0  0.00000000000E+00  0.00000000000E+00  0.39999999674E+01  0.40000000000E+01  0.51100000000E-03 0.  1.
    9000002   -1    0    0    0    0 -0.00000000000E+00 -0.00000000000E+00  0.00000000000E+00  0.93800000000E+00  0.93800000000E+00 0.  1.
         11    1    1    2    0    0  0.12612598362E-02 -0.26018701793E+00  0.13094559439E+01  0.13350558060E+01  0.51100000000E-03 0.  1.
    9000002    1    1    2    0    0 -0.30737309104E+00  0.47266652380E+00  0.23508914051E+00  0.11193760600E+01  0.93800000000E+00 0.  1.
         22    1    1    2    0    0  0.30611183120E+00 -0.21247950587E+00  0.24554548829E+01  0.24835681339E+01  0.00000000000E+00 0.  1.
</event>
<event>
 5    1  0.6076093E+001  0.1598204E+01  0.7818608E-02  0.3355315E+00
         11   -1    0    0    0    0  0.00000000000E+00  0.00000000000E+00  0.39999999674E+01  0.40000000000E+01  0.51100000000E-03 0. -1.
    9000002   -1    0    0    0    0 -0.00000000000E+00 -0.00000000000E+00  0.00000000000E+00  0.93800000000E+00  0.93800000000E+00 0.  1.
         11    1    1    2    0    0  0.49039032971E+00 -0.34870013118E+00  0.96566455631E+00  0.11377973253E+01  0.51100000000E-03 0. -1.
    9000002    1    1    2    0    0 -0.99751141507E+00  0.81625903377E+00  0.20126408766E+01  0.25674647284E+01  0.93800000000E+00 0.  1.
         22    1    1    2    0    0  0.50712108535E+00 -0.46755890259E+00  0.10216945344E+01  0.12327379463E+01  0.00000000000E+00 0.  1.
</event>
<event>
 5    1  0.6076093E+001  0.1588222E+01  0.7818608E-02  0.3366247E+00
         11   -1    0    0    0    0  0.00000000000E+00  0.00000000000E+00  0.39999999674E+01  0.40000000000E+01  0.51100000000E-03 0. -1.
    9000002   -1    0    0    0    0 -0.00000000000E+00 -0.00000000000E+00  0.00000000000E+00  0.93800000000E+00  0.93800000000E+00 0. -1.
         11    1    1    2    0    0 -0.15450661882E+00  0.95180094542E-02  0.10367118354E+01  0.10482054086E+01  0.51100000000E-03 0. -1.
    9000002    1    1    2    0    0  0.25253694598E+00  0.23834249642E+00  0.90092720891E-01  0.10042622930E+01  0.93800000000E+00 0. -1.
         22    1    1    2    0    0 -0.98030327162E-01 -0.24786050587E+00  0.28731954111E+01  0.28855322985E+01  0.00000000000E+00 0. -1.
</event>
<event>
 5    1  0.6076093E+001  0.1598734E+01  0.7818608E-02  0.3354738E+00
         11   -1    0    0    0    0  0.00000000000E+00  0.00000000000E+00  0.39999999674E+01  0.40000000000E+01  0.51100000000E-03 0. -1.
    9000002   -1    0    0    0    0 -0.00000000000E+00 -0.00000000000E+00  0.00000000000E+00  0.93800000000E+00  0.93800000000E+00 0. -1.
         11    1    1    2    0    0 -0.72586421703E-02  0.24699395865E-01  0.40050739485E+00  0.40133425283E+00  0.51100000000E-03 0. -1.
    9000002    1    1    2    0    0 -0.71698319182E-01 -0.40537249231E+00  0.11527463955E+00  0.10308247906E+01  0.93800000000E+00 0. -1.
         22    1    1    2    0    0  0.78956961352E-01  0.38067309644E+00  0.34842179330E+01  0.35058409565E+01  0.00000000000E+00 0. -1.
</event>
<event>
 5    1  0.6076093E+001  0.1599659E+01  0.7818608E-02  0.3353734E+00
         11   -1    0    0    0    0  0.00000000000E+00  0.00000000000E+00  0.39999999674E+01  0.40000000000E+01  0.51100000000E-03 0.  1.
    9000002   -1    0    0    0    0 -0.00000000000E+00 -0.00000000000E+00  0.00000000000E+00  0.93800000000E+00  0.93800000000E+00 0. -1.
         11    1    1    2    0    0 -0.26663967779E+00  0.10958611683E+00  0.14133305495E+01  0.14424317447E+01  0.51100000000E-03 0.  1.
    9000002    1    1    2    0    0  0.68679334388E+00 -0.28916109379E+00  0.40199472640E+00  0.12636229641E+01  0.93800000000E+00 0. -1.
         22    1    1    2    0    0 -0.42015366609E+00  0.17957497696E+00  0.21846746915E+01  0.22319452912E+01  0.00000000000E+00 0.  1.
</event>
<event>
 5    1  0.6248867E+001  0.1599495E+01  0.7818608E-02  0.3353912E+00
         11   -1    0    0    0    0  0.00000000000E+00  0.00000000000E+00  0.39999999674E+01  0.40000000000E+01  0.51100000000E-03 0. -1.
    9000002   -1    0    0    0    0 -0.00000000000E+00 -0.00000000000E+00  0.00000000000E+00  0.93800000000E+00  0.93800000000E+00 0.  1.
         11    1    1    2    0    0 -0.12335865636E-01  0.12277879784E+00  0.13290516078E+01  0.13347678615E+01  0.51100000000E-03 0. -1.
    9000002    1    1    2    0    0  0.68542845252E-01 -0.39123545719E+00  0.10652742606E+00  0.10241852357E+01  0.93800000000E+00 0.  1.
         22    1    1    2    0    0 -0.56206979616E-01  0.26845665935E+00  0.25644209335E+01  0.25790469028E+01  0.00000000000E+00 0. -1.
</event>
<event>
 5    1  0.6076093E+001  0.1599670E+01  0.7818608E-02  0.3353722E+00
         11   -1    0    0    0    0  0.00000000000E+00  0.00000000000E+00  0.39999999674E+01  0.40000000000E+01  0.51100000000E-03 0. -1.
    9000002   -1    0    0    0    0 -0.00000000000E+00 -0.00000000000E+00  0.00000000000E+00  0.93800000000E+00  0.93800000000E+00 0.  1.
         11    1    1    2    0    0 -0.42061237727E-01 -0.50242086320E-01  0.71423603019E+00  0.71723551425E+00  0.51100000000E-03 0. -1.
    9000002    1    1    2    0    0  0.24262275854E+00  0.26942690170E+00  0.88273626310E-01  0.10095013083E+01  0.93800000000E+00 0.  1.
         22    1    1    2    0    0 -0.20056152082E+00 -0.21918481538E+00  0.31974903109E+01  0.32112631775E+01  0.00000000000E+00 0. -1.
</event>
<event>
 5    1  0.6076093E+001  0.1572237E+01  0.7818608E-02  0.3384058E+00
         11   -1    0    0    0    0  0.00000000000E+00  0.00000000000E+00  0.39999999674E+01  0.40000000000E+01  0.51100000000E-03 0. -1.
    9000002   -1    0    0    0    0 -0.00000000000E+00 -0.00000000000E+00  0.00000000000E+00  0.93800000000E+00  0.93800000000E+00 0.  1.
         11    1    1    2    0    0 -0.86703759116E-01  0.22865172243E+00  0.66032295268E+00  0.70414900055E+00  0.51100000000E-03 0. -1.
    9000002    1    1    2    0    0  0.88397323055E+00 -0.47460497551E+00  0.86711646243E+00  0.16243132440E+01  0.93800000000E+00 0.  1.
         22    1    1    2    0    0 -0.79726947143E+00  0.24595325308E+00  0.24725605523E+01  0.26095377555E+01  0.00000000000E+00 0. -1.
</event>
<event>
 5    1  0.6076093E+001  0.1599673E+01  0.7818608E-02  0.3353719E+00
         11   -1    0    0    0    0  0.00000000000E+00  0.00000000000E+00  0.39999999674E+01  0.40000000000E+01  0.51100000000E-03 0. -1.
    9000002   -1    0    0    0    0 -0.00000000000E+00 -0.00000000000E+00  0.00000000000E+00  0.93800000000E+00  0.93800000000E+00 0.  1.
         11    1    1    2    0    0  0.10280202214E-01 -0.55144199287E-01  0.47593154223E+00  0.47922610455E+00  0.51100000000E-03 0.  1.
    9000002    1    1    2    0    0 -0.95995500723E-01  0.44842363023E+00  0.14301835384E+00  0.10538487263E+01  0.93800000000E+00 0.  1.
         22    1    1    2    0    0  0.85715298509E-01 -0.39327943094E+00  0.33810500713E+01  0.34049251692E+01  0.00000000000E+00 0. -1.
</event>
<event>
 5    1  0.6076093E+001  0.1595843E+01  0.7818608E-02  0.3357887E+00
         11   -1    0    0    0    0  0.00000000000E+00  0.00000000000E+00  0.39999999674E+01  0.40000000000E+01  0.51100000000E-03 0.  1.
    9000002   -1    0    0    0    0 -0.00000000000E+00 -0.00000000000E+00  0.00000000000E+00  0.93800000000E+00  0.93800000000E+00 0.  1.
         11    1    1    2    0    0 -0.20310947982E+00 -0.22455358870E-01  0.96685356443E+00  0.98821241649E+00  0.51100000000E-03 0.  1.
    9000002    1    1    2    0    0  0.60997051198E+00 -0.98308523307E-01  0.27126739316E+00  0.11554906273E+01  0.93800000000E+00 0.  1.
         22    1    1    2    0    0 -0.40686103217E+00  0.12076388218E+00  0.27618790098E+01  0.27942969562E+01  0.00000000000E+00 0.  1.
</event>
<event>
 5    1  0.6076093E+001  0.1599658E+01  0.7818608E-02  0.3353735E+00
         11   -1    0    0    0    0  0.00000000000E+00  0.00000000000E+00  0.39999999674E+01  0.40000000000E+01  0.51100000000E-03 0. -1.
    9000002   -1    0    0    0    0 -0.00000000000E+00 -0.00000000000E+00  0.00000000000E+00  0.93800000000E+00  0.93800000000E+00 0.  1.
         11    1    1    2    0    0  0.24707744768E-01 -0.23491503747E-02  0.23224953398E+00  0.23357246908E+00  0.51100000000E-03 0. -1.
    9000002    1    1    2    0    0 -0.37486061110E+00  0.47523766143E-01  0.96058271161E-01  0.10158002646E+01  0.93800000000E+00 0.  1.
         22    1    1    2    0    0  0.35015286633E+00 -0.45174615769E-01  0.36716921622E+01  0.36886272663E+01  0.00000000000E+00 0. -1.
</event>
<event>
 5    1  0.6076093E+001  0.1599366E+01  0.7818608E-02  0.3354052E+00
         11   -1    0    0    0    0  0.00000000000E+00  0.00000000000E+00  0.39999999674E+01  0.40000000000E+01  0.51100000000E-03 0. -1.
    9000002   -1    0    0    0    0 -0.00000000000E+00 -0.00000000000E+00  0.00000000000E+00  0.93800000000E+00  0.93800000000E+00 0. -1.
         11    1    1    2    0    0  0.74765593496E-01 -0.10786829201E+00  0.12511398457E+01  0.12580050226E+01  0.51100000000E-03 0. -1.
    9000002    1    1    2    0    0 -0.17509618331E+00  0.35789175744E+00  0.10731392108E+00  0.10247465351E+01  0.93800000000E+00 0. -1.
         22    1    1    2    0    0  0.10033058981E+00 -0.25002346543E+00  0.26415462006E+01  0.26552484423E+01  0.00000000000E+00 0. -1.
</event>
<event>
 5    1  0.6076093E+001  0.1599676E+01  0.7818608E-02  0.3353715E+00
         11   -1    0    0    0    0  0.00000000000E+00  0.00000000000E+00  0.39999999674E+01  0.40000000000E+01  0.51100000000E-03 0. -1.
    9000002   -1    0    0    0    0 -0.00000000000E+00 -0.00000000000E+00  0.00000000000E+00  0.93800000000E+00  0.93800000000E+00 0. -1.
         11    1    1    2    0    0 -0.11534137799E+00  0.46065379004E-01  0.10552537172E+01  0.10625376800E+01  0.51100000000E-03 0. -1.
    9000002    1    1    2    0    0  0.42418226409E+00 -0.16653984218E+00  0.14116371957E+00  0.10523484727E+01  0.93800000000E+00 0. -1.
         22    1    1    2    0    0 -0.30884088611E+00  0.12047446318E+00  0.28035825306E+01  0.28231138474E+01  0.00000000000E+00 0. -1.
</event>
<event>
 5    1  0.6076093E+001  0.1599469E+01  0.7818608E-02  0.3353940E+00
         11   -1    0    0    0    0  0.00000000000E+00  0.00000000000E+00  0.39999999674E+01  0.40000000000E+01  0.51100000000E-03 0.  1.
    9000002   -1    0    0    0    0 -0.00000000000E+00 -0.00000000000E+00  0.00000000000E+00  0.93800000000E+00  0.93800000000E+00 0.  1.
         11    1    1    2    0    0  0.25024735396E-02 -0.13530570012E-02  0.28682562837E-01  0.28827828031E-01  0.51100000000E-03 0.  1.
    9000002    1    1    2    0    0 -0.36422750418E+00 -0.21223910484E+00  0.12038509013E+00  0.10353954232E+01  0.93800000000E+00 0.  1.
         22    1    1    2    0    0  0.36172503064E+00  0.21359216184E+00  0.38509323144E+01  0.38737767488E+01  0.00000000000E+00 0.  1.
</event>
<event>
 5    1  0.6076093E+001  0.1599675E+01  0.7818608E-02  0.3353716E+00
         11   -1    0    0    0    0  0.00000000000E+00  0.00000000000E+00  0.39999999674E+01  0.40000000000E+01  0.51100000000E-03 0.  1.
    9000002   -1    0    0    0    0 -0.00000000000E+00 -0.00000000000E+00  0.00000000000E+00  0.93800000000E+00  0.93800000000E+00 0. -1.
         11    1    1    2    0    0 -0.12106360596E-01  0.14337373933E-01  0.21019718000E+00  0.21103374105E+00  0.51100000000E-03 0.  1.
    9000002    1    1    2    0    0  0.22268542236E+00 -0.27852331814E+00  0.85329239204E-01  0.10071192160E+01  0.93800000000E+00 0. -1.
         22    1    1    2    0    0 -0.21057906176E+00  0.26418594420E+00  0.37044735482E+01  0.37198470430E+01  0.00000000000E+00 0.  1.
</event>
<event>
 5    1  0.6076093E+001  0.1599567E+01  0.7818608E-02  0.3353834E+00
         11   -1    0    0    0    0  0.00000000000E+00  0.00000000000E+00  0.39999999674E+01  0.40000000000E+01  0.51100000000E-03 0.  1.
    9000002   -1    0    0    0    0 -0.00000000000E+00 -0.00000000000E+00  0.00000000000E+00  0.93800000000E+00  0.93800000000E+00 0.  1.
         11    1    1    2    0    0  0.48158285212E-02 -0.42759684301E-01  0.36751350355E+00  0.37002434949E+00  0.51100000000E-03 0.  1.
    9000002    1    1    2    0    0 -0.46664170543E-01  0.37555844287E+00  0.96437762983E-01  0.10160540984E+01  0.93800000000E+00 0.  1.
         22    1    1    2    0    0  0.41848342022E-01 -0.33279875857E+00  0.35360487008E+01  0.35519215521E+01  0.00000000000E+00 0.  1.
</event>
<event>
 5    1  0.6076093E+001  0.1599487E+01  0.7818608E-02  0.3353920E+00
         11   -1    0    0    0    0  0.00000000000E+00  0.00000000000E+00  0.39999999674E+01  0.40000000000E+01  0.51100000000E-03 0. -1.
    9000002   -1    0    0    0    0 -0.00000000000E+00 -0.00000000000E+00  0.00000000000E+00  0.93800000000E+00  0.93800000000E+00 0.  1.
         11    1    1    2    0    0 -0.12420881192E-01  0.14171487431E+00  0.11828498683E+01  0.11913737684E+01  0.51100000000E-03 0. -1.
    9000002    1    1    2    0    0  0.14612766876E-01 -0.42178811924E+00  0.12065651457E+00  0.10356257746E+01  0.93800000000E+00 0.  1.
         22    1    1    2    0    0 -0.21918856840E-02  0.28007324493E+00  0.26964935845E+01  0.27110004570E+01  0.00000000000E+00 0. -1.
</event>
<event>
 5    1  0.6076093E+001  0.1599670E+01  0.7818608E-02  0.3353722E+00
         11   -1    0    0    0    0  0.00000000000E+00  0.00000000000E+00  0.39999999674E+01  0.40000000000E+01  0.51100000000E-03 0.  1.
    9000002   -1    0    0    0    0 -0.00000000000E+00 -0.00000000000E+00  0.00000000000E+00  0.93800000000E+00  0.93800000000E+00 0.  1.
         11    1    1    2    0    0  0.10999430588E-01 -0.35235850491E-01  0.36507157613E+00  0.36693333107E+00  0.51100000000E-03 0.  1.
    9000002    1    1    2    0    0 -0.11499318192E+00  0.35720711971E+00  0.94701669040E-01  0.10147082164E+01  0.93800000000E+00 0.  1.
         22    1    1    2    0    0  0.10399375134E+00 -0.32197126922E+00  0.35402267222E+01  0.35563584525E+01  0.00000000000E+00 0.  1.
</event>
<event>
 5    1  0.6076093E+001  0.1599621E+01  0.7818608E-02  0.3353775E+00
         11   -1    0    0    0    0  0.00000000000E+00  0.00000000000E+00  0.39999999674E+01  0.40000000000E+01  0.51100000000E-03 0. -1.
    9000002   -1    0    0    0    0 -0.00000000000E+00 -0.00000000000E+00  0.00000000000E+00  0.93800000000E+00  0.93800000000E+00 0. -1.
         11    1    1    2    0    0  0.22169770190E+00 -0.55047369676E-01  0.11015173431E+01  0.11249536890E+01  0.51100000000E-03 0. -1.
    9000002    1    1    2    0    0 -0.70276228178E+00  0.17248009567E+00  0.37673702326E+00  0.12431407775E+01  0.93800000000E+00 0. -1.
         22    1    1    2    0    0  0.48106457988E+00 -0.11743272599E+00  0.25217456010E+01  0.25699055335E+01  0.00000000000E+00 0. -1.
</event>
<event>
 5    1  0.6076093E+001  0.1599669E+01  0.7818608E-02  0.3353723E+00
         11   -1    0    0    0    0  0.00000000000E+00  0.00000000000E+00  0.39999999674E+01  0.40000000000E+01  0.51100000000E-03 0.  1.
    9000002   -1    0    0    0    0 -0.00000000000E+00 -0.00000000000E+00  0.00000000000E+00  0.93800000000E+00  0.93800000000E+00 0. -1.
         11    1    1    2    0    0  0.11018533425E+00 -0.66456709647E-01  0.12898382151E+01  0.12962407895E+01  0.51100000000E-03 0.  1.
    9000002    1    1    2    0    0 -0.34184131225E+00  0.19720312530E+00  0.10498791223E+00  0.10230400858E+01  0.93800000000E+00 0. -1.
         22    1    1    2    0    0  0.23165597800E+00 -0.13074641565E+00  0.26051738401E+01  0.26187191247E+01  0.00000000000E+00 0.  1.
</event>
<event>
 5    1  0.6076093E+001  0.1599675E+01  0.7818608E-02  0.3353716E+00
         11   -1    0    0    0    0  0.00000000000E+00  0.00000000000E+00  0.39999999674E+01  0.40000000000E+01  0.51100000000E-03 0. -1.
    9000002   -1    0    0    0    0 -0.00000000000E+00 -0.00000000000E+00  0.00000000000E+00  0.93800000000E+00  0.93800000000E+00 0. -1.
         11    1    1    2    0    0 -0.13061059196E+00 -0.13612068479E-01  0.12440891528E+01  0.12510005981E+01  0.51100000000E-03 0. -1.
    9000002    1    1    2    0    0  0.40696492764E+00  0.38209359347E-01  0.11282877417E+00  0.10293953272E+01  0.93800000000E+00 0. -1.
         22    1    1    2    0    0 -0.27635433568E+00 -0.24597290868E-01  0.26430820404E+01  0.26576040747E+01  0.00000000000E+00 0. -1.
</event>
<event>
 5    1  0.6076093E+001  0.1594253E+01  0.7818608E-02  0.3359624E+00
         11   -1    0    0    0    0  0.00000000000E+00  0.00000000000E+00  0.39999999674E+01  0.40000000000E+01  0.51100000000E-03 0.  1.
    9000002   -1    0    0    0    0 -0.00000000000E+00 -0.00000000000E+00  0.00000000000E+00  0.93800000000E+00  0.93800000000E+00 0.  1.
         11    1    1    2    0    0 -0.29946268146E-01 -0.34028723439E-01  0.40644559925E+00  0.40896579230E+00  0.51100000000E-03 0.  1.
    9000002    1    1    2    0    0 -0.23202820236E+00  0.31221821550E+00  0.10641655694E+00  0.10210219314E+01  0.93800000000E+00 0.  1.
         22    1    1    2    0    0  0.26197447051E+00 -0.27818949206E+00  0.34871378112E+01  0.35080122763E+01  0.00000000000E+00 0.  1.
</event>
<event>
 5    1  0.6076093E+001  0.1594288E+01  0.7818608E-02  0.3359586E+00
         11   -1    0    0    0    0  0.00000000000E+00  0.00000000000E+00  0.39999999674E+01  0.40000000000E+01  0.51100000000E-03 0.  1.
    9000002   -1    0    0    0    0 -0.00000000000E+00 -0.00000000000E+00  0.00000000000E+00  0.93800000000E+00  0.93800000000E+00 0. -1.
         11    1    1    2    0    0  0.44091656491E-01  0.47936322325E-01  0.74629389961E+00  0.74913070347E+00  0.51100000000E-03 0.  1.
    9000002    1    1    2    0    0 -0.35976566274E+00  0.88954968229E-01  0.96716001741E-01  0.10131842396E+01  0.93800000000E+00 0. -1.
         22    1    1    2    0    0  0.31567400625E+00 -0.13689129055E+00  0.31569900660E+01  0.31756850569E+01  0.00000000000E+00 0.  1.
</event>
<event>
 5    1  0.6076093E+001  0.1599503E+01  0.7818608E-02  0.3353903E+00
         11   -1    0    0    0    0  0.00000000000E+00  0.00000000000E+00  0.39999999674E+01  0.40000000000E+01  0.51100000000E-03 0. -1.
    9000002   -1    0    0    0    0 -0.00000000000E+00 -0.00000000000E+00  0.00000000000E+00  0.93800000000E+00  0.93800000000E+00 0.  1.
         11    1    1    2    0    0 -0.10847992246E+00 -0.25561050394E-01  0.90477394224E+00  0.91161253202E+00  0.51100000000E-03 0. -1.
    9000002    1    1    2    0    0  0.50567745572E+00  0.13780590166E+00  0.18899421933E+00  0.10909917372E+01  0.93800000000E+00 0.  1.
         22    1    1    2    0    0 -0.39719753327E+00 -0.11224485127E+00  0.29062318058E+01  0.29353957307E+01  0.00000000000E+00 0. -1.
</event>
<event>
 5    1  0.6076093E+001  0.1599647E+01  0.7818608E-02  0.3353747E+00
         11   -1    0    0    0    0  0.00000000000E+00  0.00000000000E+00  0.39999999674E+01  0.40000000000E+01  0.51100000000E-03 0. -1.
    9000002   -1    0    0    0    0 -0.00000000000E+00 -0.00000000000E+00  0.00000000000E+00  0.93800000000E+00  0.93800000000E+00 0.  1.
         11    1    1    2    0    0 -0.31226275088E-01 -0.41334949674E-03  0.19632711917E+00  0.19879600086E+00  0.51100000000E-03 0. -1.
    9000002    1    1    2    0    0  0.56190728248E+00  0.48391429255E-01  0.22032247934E+00  0.11164530977E+01  0.93800000000E+00 0.  1.
         22    1    1    2    0    0 -0.53068100739E+00 -0.47978079758E-01  0.35833503688E+01  0.36227509014E+01  0.00000000000E+00 0. -1.
</event>
<event>
 5    1  0.6076093E+001  0.1599670E+01  0.7818608E-02  0.3353722E+00
         11   -1    0    0    0    0  0.00000000000E+00  0.00000000000E+00  0.39999999674E+01  0.40000000000E+01  0.51100000000E-03 0.  1.
    9000002   -1    0    0    0    0 -0.00000000000E+00 -0.00000000000E+00  0.00000000000E+00  0.93800000000E+00  0.93800000000E+00 0. -1.
         11    1    1    2    0    0 -0.39593114998E-01  0.16254321025E-01  0.39652800203E+00  0.39883146218E+00  0.51100000000E-03 0.  1.
    9000002    1    1    2    0    0  0.38464220490E+00 -0.17736544932E+00  0.12139960316E+00  0.10363348841E+01  0.93800000000E+00 0. -1.
         22    1    1    2    0    0 -0.34504908990E+00  0.16111112829E+00  0.34820723622E+01  0.35028336537E+01  0.00000000000E+00 0.  1.
</event>
<event>
 5    1  0.6076093E+001  0.1567281E+01  0.7818608E-02  0.3389659E+00
         11   -1    0    0    0    0  0.00000000000E+00  0.00000000000E+00  0.39999999674E+01  0.40000000000E+01  0.51100000000E-03 0. -1.
    9000002   -1    0    0    0    0 -0.00000000000E+00 -0.00000000000E+00  0.00000000000E+00  0.93800000000E+00  0.93800000000E+00 0. -1.
         11    1    1    2    0    0  0.19942581430E+00 -0.18707556895E+00  0.60097560954E+00  0.66025742578E+00  0.51100000000E-03 0. -1.
    9000002    1    1    2    0    0 -0.35054451703E+00  0.59151072585E+00  0.37343059305E+00  0.12214994085E+01  0.93800000000E+00 0. -1.
         22    1    1    2    0    0  0.15111870273E+00 -0.40443515689E+00  0.30255937648E+01  0.30562431657E+01  0.00000000000E+00 0. -1.
</event>
<event>
 5    1  0.6076093E+001  0.1489536E+01  0.7818608E-02  0.3482737E+00
         11   -1    0    0    0    0  0.00000000000E+00  0.00000000000E+00  0.39999999674E+01  0.40000000000E+01  0.51100000000E-03 0.  1.
    9000002   -1    0    0    0    0 -0.00000000000E+00 -0.00000000000E+00  0.00000000000E+00  0.93800000000E+00  0.93800000000E+00 0. -1.
         11    1    1    2    0    0  0.29010296545E+00  0.27657270074E+00  0.14161107295E+01  0.14717411623E+01  0.51100000000E-03 0.  1.
    9000002    1    1    2    0    0  0.15457923694E+00 -0.29223717728E+00  0.16666686658E+00  0.10084240937E+01  0.93800000000E+00 0. -1.
         22    1    1    2    0    0 -0.44468220239E+00  0.15664476547E-01  0.24172223713E+01  0.24578347441E+01  0.00000000000E+00 0.  1.
</event>
<event>
 5    1  0.6076093E+001  0.1599675E+01  0.7818608E-02  0.3353717E+00
         11   -1    0    0    0    0  0.00000000000E+00  0.00000000000E+00  0.39999999674E+01  0.40000000000E+01  0.51100000000E-03 0. -1.
    9000002   -1    0    0    0    0 -0.00000000000E+00 -0.00000000000E+00  0.00000000000E+00  0.93800000000E+00  0.93800000000E+00 0. -1.
         11    1    1    2    0    0 -0.51118186791E-02 -0.48052543635E-01  0.49994495880E+00  0.50227522395E+00  0.51100000000E-03 0. -1.
    9000002    1    1    2    0    0  0.47310389804E-01  0.38016146439E+00  0.98785757883E-01  0.10180194684E+01  0.93800000000E+00 0. -1.
         22    1    1    2    0    0 -0.42198571125E-01 -0.33210892076E+00  0.34012692507E+01  0.34177053077E+01  0.00000000000E+00 0. -1.
</event>
<event>
 5    1  0.6076093E+001  0.1599677E+01  0.7818608E-02  0.3353714E+00
         11   -1    0    0    0    0  0.00000000000E+00  0.00000000000E+00  0.39999999674E+01  0.40000000000E+01  0.51100000000E-03 0.  1.
    9000002   -1    0    0    0    0 -0.00000000000E+00 -0.00000000000E+00  0.00000000000E+00  0.93800000000E+00  0.93800000000E+00 0.  1.
         11    1    1    2    0    0  0.19558116020E-02 -0.12555547249E+00  0.12414923011E+01  0.12478266693E+01  0.51100000000E-03 0. -1.
    9000002    1    1    2    0    0 -0.59273188172E-02  0.39389287146E+00  0.10459585943E+00  0.10227272467E+01  0.93800000000E+00 0.  1.
         22    1    1    2    0    0  0.39715072152E-02 -0.26833739897E+00  0.26539118068E+01  0.26674460840E+01  0.00000000000E+00 0.  1.
</event>
<event>
 5    1  0.6076093E+001  0.1589575E+01  0.7818608E-02  0.3364756E+00
         11   -1    0    0    0    0  0.00000000000E+00  0.00000000000E+00  0.39999999674E+01  0.40000000000E+01  0.51100000000E-03 0. -1.
    9000002   -1    0    0    0    0 -0.00000000000E+00 -0.00000000000E+00  0.00000000000E+00  0.93800000000E+00  0.93800000000E+00 0.  1.
         11    1    1    2    0    0  0.57080913596E-01  0.12285585771E-01  0.14159875323E+00  0.15316538236E+00  0.51100000000E-03 0. -1.
    9000002    1    1    2    0    0 -0.45170828359E+00  0.32229624485E+00  0.22252099886E+00  0.11123285656E+01  0.93800000000E+00 0.  1.
         22    1    1    2    0    0  0.39462736999E+00 -0.33458183062E+00  0.36358802153E+01  0.36725060520E+01  0.00000000000E+00 0. -1.
</event>
<event>
 5    1  0.6076093E+001  0.1599461E+01  0.7818608E-02  0.3353948E+00
         11   -1    0    0    0    0  0.00000000000E+00  0.00000000000E+00  0.39999999674E+01  0.40000000000E+01  0.51100000000E-03 0.  1.
    9000002   -1    0    0    0    0 -0.00000000000E+00 -0.00000000000E+00  0.00000000000E+00  0.93800000000E+00  0.93800000000E+00 0. -1.
         11    1    1    2    0    0  0.90738928556E-01 -0.14010721425E+00  0.14000668384E+01  0.14099826232E+01  0.51100000000E-03 0.  1.
    9000002    1    1    2    0    0 -0.28270706407E+00  0.35255874218E+00  0.13892954767E+00  0.10504124761E+01  0.93800000000E+00 0. -1.
         22    1    1    2    0    0  0.19196813551E+00 -0.21245152793E+00  0.24610035813E+01  0.24776049007E+01  0.00000000000E+00 0.  1.
</event>
<event>
 5    1  0.6076093E+001  0.1578843E+01  0.7818608E-02  0.3376651E+00
         11   -1    0    0    0    0  0.00000000000E+00  0.00000000000E+00  0.39999999674E+01  0.40000000000E+01  0.51100000000E-03 0. -1.
    9000002   -1    0    0    0    0 -0.00000000000E+00 -0.00000000000E+00  0.00000000000E+00  0.93800000000E+00  0.93800000000E+00 0.  1.
         11    1    1    2    0    0 -0.38048071754E-01 -0.45422695208E-01  0.79145541263E-01  0.98869382657E-01  0.51100000000E-03 0. -1.
    9000002    1    1    2    0    0  0.44201420942E+00  0.61993654869E-01  0.15340144349E+00  0.10500456073E+01  0.93800000000E+00 0.  1.
         22    1    1    2    0    0 -0.40396613766E+00 -0.16570959661E-01  0.37674529826E+01  0.37890850100E+01  0.00000000000E+00 0. -1.
</event>
<event>
 5    1  0.6076093E+001  0.1563487E+01  0.7818608E-02  0.3393972E+00
         11   -1    0    0    0    0  0.00000000000E+00  0.00000000000E+00  0.39999999674E+01  0.40000000000E+01  0.51100000000E-03 0. -1.
    9000002   -1    0    0    0    0 -0.00000000000E+00 -0.00000000000E+00  0.00000000000E+00  0.93800000000E+00  0.93800000000E+00 0.  1.
         11    1    1    2    0    0  0.14276975880E+00  0.10695816158E+00  0.88405628303E+00  0.90187528242E+00  0.51100000000E-03 0. -1.
    9000002    1    1    2    0    0  0.21181321351E+00 -0.36969858811E+00  0.15423547614E+00  0.10417170756E+01  0.93800000000E+00 0.  1.
         22    1    1    2    0    0 -0.35458297231E+00  0.26274042652E+00  0.29617082082E+01  0.29944076420E+01  0.00000000000E+00 0.  1.
</event>
<event>
 5    1  0.6076093E+001  0.1598856E+01  0.7818608E-02  0.3354606E+00
         11   -1    0    0    0    0  0.00000000000E+00  0.00000000000E+00  0.39999999674E+01  0.40000000000E+01  0.51100000000E-03 0.  1.
    9000002   -1    0    0    0    0 -0.00000000000E+00 -0.00000000000E+00  0.00000000000E+00  0.93800000000E+00  0.93800000000E+00 0. -1.
         11    1    1    2    0    0 -0.60986374917E-01 -0.74211062170E-01  0.11646598980E+01  0.11686143756E+01  0.51100000000E-03 0.  1.
    9000002    1    1    2    0    0  0.12507393973E+00  0.31923899394E+00  0.79420413394E-01  0.10018525978E+01  0.93800000000E+00 0. -1.
         22    1    1    2    0    0 -0.64087564817E-01 -0.24502793177E+00  0.27559196559E+01  0.27675330266E+01  0.00000000000E+00 0. -1.
</event>
<event>
 5    1  0.6076093E+001  0.1599675E+01  0.7818608E-02  0.3353716E+00
         11   -1    0    0    0    0  0.00000000000E+00  0.00000000000E+00  0.39999999674E+01  0.40000000000E+01  0.51100000000E-03 0.  1.
    9000002   -1    0    0    0    0 -0.00000000000E+00 -0.00000000000E+00  0.00000000000E+00  0.93800000000E+00  0.93800000000E+00 0. -1.
         11    1    1    2    0    0 -0.17088698716E-01  0.31713510632E-01  0.33779736466E+00  0.33971324830E+00  0.51100000000E-03 0.  1.
    9000002    1    1    2    0    0  0.20418997109E+00 -0.36749856518E+00  0.11954402912E+00  0.10348350181E+01  0.93800000000E+00 0. -1.
         22    1    1    2    0    0 -0.18710127238E+00  0.33578505455E+00  0.35426585736E+01  0.35634517336E+01  0.00000000000E+00 0.  1.
</event>
<event>
 5    1  0.6076093E+001  0.1597269E+01  0.7818608E-02  0.3356333E+00
         11   -1    0    0    0    0  0.00000000000E+00  0.00000000000E+00  0.39999999674E+01  0.40000000000E+01  0.51100000000E-03 0.  1.
    9000002   -1    0    0    0    0 -0.00000000000E+00 -0.00000000000E+00  0.00000000000E+00  0.93800000000E+00  0.93800000000E+00 0.  1.
         11    1    1    2    0    0 -0.75418568306E-01  0.77545241817E-01  0.12429342802E+01  0.12476326025E+01  0.51100000000E-03 0.  1.
    9000002    1    1    2    0    0  0.11578109023E+00 -0.36667836517E+00  0.10152465855E+00  0.10188275323E+01  0.93800000000E+00 0.  1.
         22    1    1    2    0    0 -0.40362521928E-01  0.28913312335E+00  0.26555410286E+01  0.26715398651E+01  0.00000000000E+00 0. -1.
</event>
<event>
 5    1  0.6076093E+001  0.1599077E+01  0.7818608E-02  0.3354366E+00
         11   -1    0    0    0    0  0.00000000000E+00  0.00000000000E+00  0.39999999674E+01  0.40000000000E+01  0.51100000000E-03 0.  1.
    9000002   -1    0    0    0    0 -0.00000000000E+00 -0.00000000000E+00  0.00000000000E+00  0.93800000000E+00  0.93800000000E+00 0.  1.
         11    1    1    2    0    0 -0.82327559492E-01  0.58503205146E-01  0.11951231000E+01  0.11993831487E+01  0.51100000000E-03 0.  1.
    9000002    1    1    2    0    0  0.23441248145E+00 -0.27325053416E+00  0.87492307767E-01  0.10085206839E+01  0.93800000000E+00 0.  1.
         22    1    1    2    0    0 -0.15208492195E+00  0.21474732901E+00  0.27173845595E+01  0.27300961674E+01  0.00000000000E+00 0.  1.
</event>
<event>
 5    1  0.6076093E+001  0.1599670E+01  0.7818608E-02  0.3353721E+00
         11   -1    0    0    0    0  0.00000000000E+00  0.00000000000E+00  0.39999999674E+01  0.40000000000E+01  0.51100000000E-03 0.  1.
    9000002   -1    0    0    0    0 -0.00000000000E+00 -0.00000000000E+00  0.00000000000E+00  0.93800000000E+00  0.93800000000E+00 0. -1.
         11    1    1    2    0    0  0.22590521014E-02  0.12396566736E-01  0.93530902883E-01  0.94377270030E-01  0.51100000000E-03 0.  1.
    9000002    1    1    2    0    0 -0.71568348199E-01 -0.48205451287E+00  0.16224724856E+00  0.10694235604E+01  0.93800000000E+00 0. -1.
         22    1    1    2    0    0  0.69309296097E-01  0.46965794614E+00  0.37442218159E+01  0.37741991696E+01  0.00000000000E+00 0.  1.
</event>
<event>
 5    1  0.6076093E+001  0.1597068E+01  0.7818608E-02  0.3356552E+00
         11   -1    0    0    0    0  0.00000000000E+00  0.00000000000E+00  0.39999999674E+01  0.40000000000E+01  0.51100000000E-03 0. -1.
    9000002   -1    0    0    0    0 -0.00000000000E+00 -0.00000000000E+00  0.00000000000E+00  0.93800000000E+00  0.93800000000E+00 0.  1.
         11    1    1    2    0    0  0.89157795947E-01  0.28882295434E-01  0.38922427482E+00  0.40034871899E+00  0.51100000000E-03 0. -1.
    9000002    1    1    2    0    0 -0.51813418418E+00 -0.42904629841E+00  0.32395668098E+00  0.11988893569E+01  0.93800000000E+00 0.  1.
         22    1    1    2    0    0  0.42897638824E+00  0.40016400297E+00  0.32868190116E+01  0.33387619241E+01  0.00000000000E+00 0. -1.
</event>
<event>
 5    1  0.6076093E+001  0.1567900E+01  0.7818608E-02  0.3388957E+00
         11   -1    0    0    0    0  0.00000000000E+00  0.00000000000E+00  0.39999999674E+01  0.40000000000E+01  0.51100000000E-03 0. -1.
    9000002   -1    0    0    0    0 -0.00000000000E+00 -0.00000000000E+00  0.00000000000E+00  0.93800000000E+00  0.93800000000E+00 0.  1.
         11    1    1    2    0    0  0.81245301347E-01  0.14883036619E+00  0.12852992515E+01  0.12964357693E+01  0.51100000000E-03 0. -1.
    9000002    1    1    2    0    0 -0.12669308300E+00  0.14793064401E+00  0.49264328196E-01  0.95927346818E+00  0.93800000000E+00 0.  1.
         22    1    1    2    0    0  0.45447781648E-01 -0.29676101020E+00  0.26654363877E+01  0.26822907625E+01  0.00000000000E+00 0. -1.
</event>
<event>
 5    1  0.6076093E+001  0.1488025E+01  0.7818608E-02  0.3484649E+00
         11   -1    0    0    0    0  0.00000000000E+00  0.00000000000E+00  0.39999999674E+01  0.40000000000E+01  0.51100000000E-03 0.  1.
    9000002   -1    0    0    0    0 -0.00000000000E+00 -0.00000000000E+00  0.00000000000E+00  0.93800000000E+00  0.93800000000E+00 0. -1.
         11    1    1    2    0    0  0.52827402655E-01 -0.37359640519E+00  0.92192632412E+00  0.99614929436E+00  0.51100000000E-03 0.  1.
    9000002    1    1    2    0    0  0.15148319039E+00  0.16305462286E+00  0.12254868847E+00  0.97180046720E+00  0.93800000000E+00 0. -1.
         22    1    1    2    0    0 -0.20431059305E+00  0.21054178233E+00  0.29555249548E+01  0.29700502384E+01  0.00000000000E+00 0.  1.
</event>
<event>
 5    1  0.6076093E+001  0.1599677E+01  0.7818608E-02  0.3353714E+00
         11   -1    0    0    0    0  0.00000000000E+00  0.00000000000E+00  0.39999999674E+01  0.40000000000E+01  0.51100000000E-03 0.  1.
    9000002   -1    0    0    0    0 -0.00000000000E+00 -0.00000000000E+00  0.00000000000E+00  0.93800000000E+00  0.93800000000E+00 0.  1.
         11    1    1    2    0    0 -0.17727923308E+00 -0.56301876477E-01  0.10773123899E+01  0.10932520635E+01  0.51100000000E-03 0.  1.
    9000002    1    1    2    0    0  0.60990735115E+00  0.19391247490E+00  0.28834079688E+00  0.11715687944E+01  0.93800000000E+00 0.  1.
         22    1    1    2    0    0 -0.43262811807E+00 -0.13761059843E+00  0.26343467806E+01  0.26731791421E+01  0.00000000000E+00 0. -1.
</event>
<event>
 5    1  0.6076093E+001  0.1599566E+01  0.7818608E-02  0.3353835E+00
         11   -1    0    0    0    0  0.00000000000E+00  0.00000000000E+00  0.39999999674E+01  0.40000000000E+01  0.51100000000E-03 0.  1.
    9000002   -1    0    0    0    0 -0.00000000000E+00 -0.00000000000E+00  0.00000000000E+00  0.93800000000E+00  0.93800000000E+00 0. -1.
         11    1    1    2    0    0  0.22861041782E-01  0.64773516978E-01  0.54060001471E+00  0.54494666965E+00  0.51100000000E-03 0.  1.
    9000002    1    1    2    0    0 -0.12109543333E+00 -0.50501469911E+00  0.18534438421E+00  0.10880719145E+01  0.93800000000E+00 0. -1.
         22    1    1    2    0    0  0.98234391549E-01  0.44024118213E+00  0.32740555684E+01  0.33049814159E+01  0.00000000000E+00 0.  1.
</event>
<event>
 5    1  0.6076093E+001  0.1571599E+01  0.7818608E-02  0.3384777E+00
         11   -1    0    0    0    0  0.00000000000E+00  0.00000000000E+00  0.39999999674E+01  0.40000000000E+01  0.51100000000E-03 0.  1.
    9000002   -1    0    0    0    0 -0.00000000000E+00 -0.00000000000E+00  0.00000000000E+00  0.93800000000E+00  0.93800000000E+00 0.  1.
         11    1    1    2    0    0 -0.51377616089E-01  0.10723673619E+00  0.32345741030E+00  0.34462201674E+00  0.51100000000E-03 0.  1.
    9000002    1    1    2    0    0 -0.34523038543E+00 -0.32293736725E+00  0.17744032286E+00  0.10652706841E+01  0.93800000000E+00 0.  1.
         22    1    1    2    0    0  0.39660800152E+00  0.21570063106E+00  0.34991022342E+01  0.35281072992E+01  0.00000000000E+00 0.  1.
</event>
<event>
 5    1  0.6125595E+001  0.1599191E+01  0.7818608E-02  0.3354242E+00
         11   -1    0    0    0    0  0.00000000000E+00  0.00000000000E+00  0.39999999674E+01  0.40000000000E+01  0.51100000000E-03 0. -1.
    9000002   -1    0    0    0    0 -0.00000000000E+00 -0.00000000000E+00  0.00000000000E+00  0.93800000000E+00  0.93800000000E+00 0. -1.
         11    1    1    2    0    0  0.83912630777E-01 -0.48071903921E-02  0.12382516543E+01  0.12411010673E+01  0.51100000000E-03 0. -1.
    9000002    1    1    2    0    0 -0.33242604867E+00  0.56579834970E-01  0.76525804516E-01  0.99970423342E+00  0.93800000000E+00 0. -1.
         22    1    1    2    0    0  0.24851341789E+00 -0.51772644578E-01  0.26852225085E+01  0.26971946993E+01  0.00000000000E+00 0. -1.
</event>
<event>
 5    1  0.6076093E+001  0.1599676E+01  0.7818608E-02  0.3353715E+00
         11   -1    0    0    0    0  0.00000000000E+00  0.00000000000E+00  0.39999999674E+01  0.40000000000E+01  0.51100000000E-03 0. -1.
    9000002   -1    0    0    0    0 -0.00000000000E+00 -0.00000000000E+00  0.00000000000E+00  0.93800000000E+00  0.93800000000E+00 0.  1.
         11    1    1    2    0    0  0.60433224623E-01  0.78136838691E-01  0.98590446063E+00  0.99084075755E+00  0.51100000000E-03 0. -1.
    9000002    1    1    2    0    0 -0.23897820230E+00 -0.31189798022E+00  0.10404674035E+00  0.10222820821E+01  0.93800000000E+00 0.  1.
         22    1    1    2    0    0  0.17854497768E+00  0.23376114153E+00  0.29100487664E+01  0.29248771603E+01  0.00000000000E+00 0. -1.
</event>
<event>
 5    1  0.6076093E+001  0.1599551E+01  0.7818608E-02  0.3353851E+00
         11   -1    0    0    0    0  0.00000000000E+00  0.00000000000E+00  0.39999999674E+01  0.40000000000E+01  0.51100000000E-03 0. -1.
    9000002   -1    0    0    0    0 -0.00000000000E+00 -0.00000000000E+00  0.00000000000E+00  0.93800000000E+00  0.93800000000E+00 0. -1.
         11    1    1    2    0    0  0.62375117603E-01  0.96461241533E-01  0.10271369096E+01  0.10335404775E+01  0.51100000000E-03 0. -1.
    9000002    1    1    2    0    0 -0.22253341360E+00 -0.32282236328E+00  0.10369769795E+00  0.10219259322E+01  0.93800000000E+00 0. -1.
         22    1    1    2    0    0  0.16015829600E+00  0.22636112174E+00  0.28691653598E+01  0.28825335902E+01  0.00000000000E+00 0. -1.
</event>
<event>
 5    1  0.6076093E+001  0.1599666E+01  0.7818608E-02  0.3353726E+00
         11   -1    0    0    0    0  0.00000000000E+00  0.00000000000E+00  0.39999999674E+01  0.40000000000E+01  0.51100000000E-03 0. -1.
    9000002   -1    0    0    0    0 -0.00000000000E+00 -0.00000000000E+00  0.00000000000E+00  0.93800000000E+00  0.93800000000E+00 0. -1.
         11    1    1    2    0    0  0.13240297650E-01  0.17376062066E+00  0.11204119045E+01  0.11338832195E+01  0.51100000000E-03 0. -1.
    9000002    1    1    2    0    0 -0.38223410794E-01 -0.57391874649E+00  0.22965422831E+00  0.11240234968E+01  0.93800000000E+00 0. -1.
         22    1    1    2    0    0  0.24983113144E-01  0.40015812583E+00  0.26499338346E+01  0.26800932837E+01  0.00000000000E+00 0. -1.
</event>
<event>
 5    1  0.6076093E+001  0.1590987E+01  0.7818608E-02  0.3363204E+00
         11   -1    0    0    0    0  0.00000000000E+00  0.00000000000E+00  0.39999999674E+01  0.40000000000E+01  0.51100000000E-03 0.  1.
    9000002   -1    0    0    0    0 -0.00000000000E+00 -0.00000000000E+00  0.00000000000E+00  0.93800000000E+00  0.93800000000E+00 0.  1.
         11    1    1    2    0    0  0.13483716222E+00 -0.15011986004E+00  0.12840055216E+01  0.12997643915E+01  0.51100000000E-03 0.  1.
    9000002    1    1    2    0    0 -0.46406932408E+00  0.13792917953E+00  0.16779149009E+00  0.10688230818E+01  0.93800000000E+00 0.  1.
         22    1    1    2    0    0  0.32923216186E+00  0.12190680511E-01  0.25482029557E+01  0.25694125267E+01  0.00000000000E+00 0.  1.
</event>
