<event>
 5    1  0.1173395E+001  0.1557375E+01  0.7818608E-02  0.3400968E+00
         11   -1    0    0    0    0  0.00000000000E+00  0.00000000000E+00  0.39999999674E+01  0.40000000000E+01  0.51100000000E-03 0.  1.
    9000002   -1    0    0    0    0 -0.00000000000E+00 -0.00000000000E+00  0.00000000000E+00  0.93800000000E+00  0.93800000000E+00 0.  1.
         11    1    1    2    0    0  0.19508448037E+00  0.26387763335E-01  0.11808391455E+01  0.11971364238E+01  0.51100000000E-03 0.  1.
    9000002    1    1    2    0    0  0.10026302853E+00 -0.18010304318E+00  0.60611042442E-01  0.96229282421E+00  0.93800000000E+00 0.  1.
         22    1    1    2    0    0 -0.29534750891E+00  0.15371527985E+00  0.27585497794E+01  0.27785707520E+01  0.00000000000E+00 0. -1.
</event>
<event>
 5    1  0.1173395E+001  0.1302223E+01  0.7818608E-02  0.3777691E+00
         11   -1    0    0    0    0  0.00000000000E+00  0.00000000000E+00  0.39999999674E+01  0.40000000000E+01  0.51100000000E-03 0. -1.
    9000002   -1    0    0    0    0 -0.00000000000E+00 -0.00000000000E+00  0.00000000000E+00  0.93800000000E+00  0.93800000000E+00 0.  1.
         11    1    1    2    0    0  0.59410220035E+00  0.93109348842E-01  0.62083733379E+00  0.86432981636E+00  0.51100000000E-03 0. -1.
    9000002    1    1    2    0    0 -0.35195292840E+00 -0.21775306956E+00  0.42968861690E+00  0.11116490321E+01  0.93800000000E+00 0.  1.
         22    1    1    2    0    0 -0.24214927195E+00  0.12464372072E+00  0.29494740167E+01  0.29620211515E+01  0.00000000000E+00 0. -1.
</event>
<event>
 5    1  0.1173395E+001  0.1521524E+01  0.7818608E-02  0.3443205E+00
         11   -1    0    0    0    0  0.00000000000E+00  0.00000000000E+00  0.39999999674E+01  0.40000000000E+01  0.51100000000E-03 0.  1.
    9000002   -1    0    0    0    0 -0.00000000000E+00 -0.00000000000E+00  0.00000000000E+00  0.93800000000E+00  0.93800000000E+00 0. -1.
         11    1    1    2    0    0 -0.68852899043E-01 -0.31939335389E+00  0.13282010074E+01  0.13677978701E+01  0.51100000000E-03 0.  1.
    9000002    1    1    2    0    0  0.96464536675E-01  0.80388528556E-02  0.65529547395E-01  0.94525560119E+00  0.93800000000E+00 0. -1.
         22    1    1    2    0    0 -0.27611637632E-01  0.31135450103E+00  0.26062694126E+01  0.26249465287E+01  0.00000000000E+00 0.  1.
</event>
<event>
 5    1  0.1173395E+001  0.1574784E+01  0.7818608E-02  0.3381195E+00
         11   -1    0    0    0    0  0.00000000000E+00  0.00000000000E+00  0.39999999674E+01  0.40000000000E+01  0.51100000000E-03 0. -1.
    9000002   -1    0    0    0    0 -0.00000000000E+00 -0.00000000000E+00  0.00000000000E+00  0.93800000000E+00  0.93800000000E+00 0.  1.
         11    1    1    2    0    0 -0.21718118003E+00  0.14912299780E+00  0.12277671121E+01  0.12557140104E+01  0.51100000000E-03 0. -1.
    9000002    1    1    2    0    0  0.40804632799E+00  0.16201843521E-01  0.13374674923E+00  0.10317443959E+01  0.93800000000E+00 0.  1.
         22    1    1    2    0    0 -0.19086514797E+00 -0.16532484132E+00  0.26384861061E+01  0.26505415937E+01  0.00000000000E+00 0. -1.
</event>
<event>
 5    1  0.1173395E+001  0.1529130E+01  0.7818608E-02  0.3434068E+00
         11   -1    0    0    0    0  0.00000000000E+00  0.00000000000E+00  0.39999999674E+01  0.40000000000E+01  0.51100000000E-03 0. -1.
    9000002   -1    0    0    0    0 -0.00000000000E+00 -0.00000000000E+00  0.00000000000E+00  0.93800000000E+00  0.93800000000E+00 0. -1.
         11    1    1    2    0    0 -0.11585204989E+00  0.22581427930E+00  0.95481064519E+00  0.98796630281E+00  0.51100000000E-03 0. -1.
    9000002    1    1    2    0    0 -0.19420603541E+00 -0.18042848666E-01  0.79946173377E-01  0.96139321779E+00  0.93800000000E+00 0. -1.
         22    1    1    2    0    0  0.31005808530E+00 -0.20777143063E+00  0.29652431488E+01  0.29886404794E+01  0.00000000000E+00 0. -1.
</event>
<event>
 5    1  0.1173395E+001  0.1475184E+01  0.7818608E-02  0.3501073E+00
         11   -1    0    0    0    0  0.00000000000E+00  0.00000000000E+00  0.39999999674E+01  0.40000000000E+01  0.51100000000E-03 0.  1.
    9000002   -1    0    0    0    0 -0.00000000000E+00 -0.00000000000E+00  0.00000000000E+00  0.93800000000E+00  0.93800000000E+00 0.  1.
         11    1    1    2    0    0  0.33798162876E+00 -0.23548953474E+00  0.67633291855E+00  0.79190490603E+00  0.51100000000E-03 0.  1.
    9000002    1    1    2    0    0 -0.13626737074E+00  0.53218628141E+00  0.33716332965E+00  0.11381186868E+01  0.93800000000E+00 0.  1.
         22    1    1    2    0    0 -0.20171425802E+00 -0.29669674667E+00  0.29865037192E+01  0.30079764071E+01  0.00000000000E+00 0.  1.
</event>
<event>
 5    1  0.1173395E+001  0.1511978E+01  0.7818608E-02  0.3454814E+00
         11   -1    0    0    0    0  0.00000000000E+00  0.00000000000E+00  0.39999999674E+01  0.40000000000E+01  0.51100000000E-03 0.  1.
    9000002   -1    0    0    0    0 -0.00000000000E+00 -0.00000000000E+00  0.00000000000E+00  0.93800000000E+00  0.93800000000E+00 0. -1.
         11    1    1    2    0    0 -0.11143366306E+00  0.48649532726E+00  0.95220301523E+00  0.10750748849E+01  0.51100000000E-03 0.  1.
    9000002    1    1    2    0    0 -0.37770433310E+00 -0.14376365499E+00  0.31971522150E+00  0.10702291225E+01  0.93800000000E+00 0. -1.
         22    1    1    2    0    0  0.48913799617E+00 -0.34273167227E+00  0.27280817306E+01  0.27926959927E+01  0.00000000000E+00 0.  1.
</event>
<event>
 5    1  0.1173395E+001  0.1140843E+01  0.7818608E-02  0.4140421E+00
         11   -1    0    0    0    0  0.00000000000E+00  0.00000000000E+00  0.39999999674E+01  0.40000000000E+01  0.51100000000E-03 0.  1.
    9000002   -1    0    0    0    0 -0.00000000000E+00 -0.00000000000E+00  0.00000000000E+00  0.93800000000E+00  0.93800000000E+00 0.  1.
         11    1    1    2    0    0 -0.37399671407E-01  0.92060734119E+00  0.11291136727E+01  0.14573313141E+01  0.51100000000E-03 0.  1.
    9000002    1    1    2    0    0 -0.99142065690E-02 -0.37196196403E+00  0.66842875106E+00  0.12104110828E+01  0.93800000000E+00 0.  1.
         22    1    1    2    0    0  0.47313877976E-01 -0.54864537716E+00  0.22024575436E+01  0.22702576031E+01  0.00000000000E+00 0.  1.
</event>
<event>
 5    1  0.1173395E+001  0.1548639E+01  0.7818608E-02  0.3411068E+00
         11   -1    0    0    0    0  0.00000000000E+00  0.00000000000E+00  0.39999999674E+01  0.40000000000E+01  0.51100000000E-03 0. -1.
    9000002   -1    0    0    0    0 -0.00000000000E+00 -0.00000000000E+00  0.00000000000E+00  0.93800000000E+00  0.93800000000E+00 0. -1.
         11    1    1    2    0    0  0.22036149923E+00  0.17646618758E+00  0.13413131620E+01  0.13707008300E+01  0.51100000000E-03 0. -1.
    9000002    1    1    2    0    0 -0.18417725724E+00  0.82153985674E-01  0.66224039163E-01  0.96171729880E+00  0.93800000000E+00 0. -1.
         22    1    1    2    0    0 -0.36184241993E-01 -0.25862017325E+00  0.25924627662E+01  0.26055818712E+01  0.00000000000E+00 0. -1.
</event>
<event>
 5    1  0.1173395E+001  0.1556917E+01  0.7818608E-02  0.3401494E+00
         11   -1    0    0    0    0  0.00000000000E+00  0.00000000000E+00  0.39999999674E+01  0.40000000000E+01  0.51100000000E-03 0. -1.
    9000002   -1    0    0    0    0 -0.00000000000E+00 -0.00000000000E+00  0.00000000000E+00  0.93800000000E+00  0.93800000000E+00 0. -1.
         11    1    1    2    0    0  0.84105371549E-01  0.37377588620E+00  0.14345317568E+01  0.14848110146E+01  0.51100000000E-03 0. -1.
    9000002    1    1    2    0    0 -0.39719699081E+00 -0.36794467717E+00  0.24334863409E+00  0.11100501307E+01  0.93800000000E+00 0. -1.
         22    1    1    2    0    0  0.31309161926E+00 -0.58312090281E-02  0.23221195765E+01  0.23431388547E+01  0.00000000000E+00 0. -1.
</event>
<event>
 5    1  0.1173395E+001  0.1574549E+01  0.7818608E-02  0.3381459E+00
         11   -1    0    0    0    0  0.00000000000E+00  0.00000000000E+00  0.39999999674E+01  0.40000000000E+01  0.51100000000E-03 0.  1.
    9000002   -1    0    0    0    0 -0.00000000000E+00 -0.00000000000E+00  0.00000000000E+00  0.93800000000E+00  0.93800000000E+00 0. -1.
         11    1    1    2    0    0  0.72450202760E-01 -0.11391221677E+00  0.10947192036E+01  0.11030119767E+01  0.51100000000E-03 0.  1.
    9000002    1    1    2    0    0  0.84142405409E-01 -0.98714395855E-01  0.29786556842E-01  0.94739417103E+00  0.93800000000E+00 0. -1.
         22    1    1    2    0    0 -0.15659260817E+00  0.21262661262E+00  0.28754942070E+01  0.28875938523E+01  0.00000000000E+00 0.  1.
</event>
<event>
 5    1  0.1173395E+001  0.1584814E+01  0.7818608E-02  0.3370012E+00
         11   -1    0    0    0    0  0.00000000000E+00  0.00000000000E+00  0.39999999674E+01  0.40000000000E+01  0.51100000000E-03 0.  1.
    9000002   -1    0    0    0    0 -0.00000000000E+00 -0.00000000000E+00  0.00000000000E+00  0.93800000000E+00  0.93800000000E+00 0. -1.
         11    1    1    2    0    0  0.26859854568E+00  0.18353180740E+00  0.13993915544E+01  0.14367066808E+01  0.51100000000E-03 0.  1.
    9000002    1    1    2    0    0 -0.34280224692E+00 -0.43938335368E+00  0.22908167103E+00  0.11148513461E+01  0.93800000000E+00 0. -1.
         22    1    1    2    0    0  0.74203701243E-01  0.25585154628E+00  0.23715267419E+01  0.23864419730E+01  0.00000000000E+00 0.  1.
</event>
<event>
 5    1  0.1173395E+001  0.1504972E+01  0.7818608E-02  0.3463435E+00
         11   -1    0    0    0    0  0.00000000000E+00  0.00000000000E+00  0.39999999674E+01  0.40000000000E+01  0.51100000000E-03 0. -1.
    9000002   -1    0    0    0    0 -0.00000000000E+00 -0.00000000000E+00  0.00000000000E+00  0.93800000000E+00  0.93800000000E+00 0. -1.
         11    1    1    2    0    0 -0.26366375905E-01  0.23230966625E+00  0.44904381977E+00  0.50626433807E+00  0.51100000000E-03 0. -1.
    9000002    1    1    2    0    0 -0.13102239772E+00  0.44858451487E-01  0.85900835881E-01  0.95205152328E+00  0.93800000000E+00 0. -1.
         22    1    1    2    0    0  0.15738877363E+00 -0.27716811773E+00  0.34650553117E+01  0.34796841386E+01  0.00000000000E+00 0. -1.
</event>
<event>
 5    1  0.1173395E+001  0.1510315E+01  0.7818608E-02  0.3456852E+00
         11   -1    0    0    0    0  0.00000000000E+00  0.00000000000E+00  0.39999999674E+01  0.40000000000E+01  0.51100000000E-03 0.  1.
    9000002   -1    0    0    0    0 -0.00000000000E+00 -0.00000000000E+00  0.00000000000E+00  0.93800000000E+00  0.93800000000E+00 0. -1.
         11    1    1    2    0    0  0.51569309133E-01  0.25350711238E+00  0.84284771236E+00  0.88165626920E+00  0.51100000000E-03 0.  1.
    9000002    1    1    2    0    0 -0.63285406435E-01  0.18984999373E+00  0.96756520467E-01  0.96397815693E+00  0.93800000000E+00 0. -1.
         22    1    1    2    0    0  0.11716097302E-01 -0.44335710612E+00  0.30603957345E+01  0.30923655739E+01  0.00000000000E+00 0.  1.
</event>
<event>
 5    1  0.1173395E+001  0.1488506E+01  0.7818608E-02  0.3484040E+00
         11   -1    0    0    0    0  0.00000000000E+00  0.00000000000E+00  0.39999999674E+01  0.40000000000E+01  0.51100000000E-03 0. -1.
    9000002   -1    0    0    0    0 -0.00000000000E+00 -0.00000000000E+00  0.00000000000E+00  0.93800000000E+00  0.93800000000E+00 0. -1.
         11    1    1    2    0    0 -0.25015395344E+00  0.48867351787E-01  0.45091904202E+00  0.51797032933E+00  0.51100000000E-03 0. -1.
    9000002    1    1    2    0    0 -0.89905847106E-01 -0.11756248799E+00  0.10147319610E+00  0.95501037139E+00  0.93800000000E+00 0. -1.
         22    1    1    2    0    0  0.34005980055E+00  0.68695136206E-01  0.34476077292E+01  0.34650192993E+01  0.00000000000E+00 0. -1.
</event>
<event>
 5    1  0.1173395E+001  0.1573014E+01  0.7818608E-02  0.3383184E+00
         11   -1    0    0    0    0  0.00000000000E+00  0.00000000000E+00  0.39999999674E+01  0.40000000000E+01  0.51100000000E-03 0. -1.
    9000002   -1    0    0    0    0 -0.00000000000E+00 -0.00000000000E+00  0.00000000000E+00  0.93800000000E+00  0.93800000000E+00 0. -1.
         11    1    1    2    0    0  0.29205844383E+00  0.13197670505E-02  0.14152582846E+01  0.14450799804E+01  0.51100000000E-03 0. -1.
    9000002    1    1    2    0    0 -0.36223060798E+00 -0.28852099600E+00  0.16959671796E+00  0.10597463967E+01  0.93800000000E+00 0. -1.
         22    1    1    2    0    0  0.70172164157E-01  0.28720122895E+00  0.24151449648E+01  0.24331736230E+01  0.00000000000E+00 0. -1.
</event>
<event>
 5    1  0.1173395E+001  0.1580812E+01  0.7818608E-02  0.3374456E+00
         11   -1    0    0    0    0  0.00000000000E+00  0.00000000000E+00  0.39999999674E+01  0.40000000000E+01  0.51100000000E-03 0. -1.
    9000002   -1    0    0    0    0 -0.00000000000E+00 -0.00000000000E+00  0.00000000000E+00  0.93800000000E+00  0.93800000000E+00 0. -1.
         11    1    1    2    0    0  0.27361960967E+00 -0.62535293146E-01  0.11565099879E+01  0.11900814959E+01  0.51100000000E-03 0. -1.
    9000002    1    1    2    0    0 -0.49610244335E+00 -0.95014940355E-01  0.19208727436E+00  0.10825372946E+01  0.93800000000E+00 0. -1.
         22    1    1    2    0    0  0.22248283368E+00  0.15755023350E+00  0.26514027051E+01  0.26653812095E+01  0.00000000000E+00 0. -1.
</event>
<event>
 5    1  0.1173395E+001  0.1592216E+01  0.7818608E-02  0.3361855E+00
         11   -1    0    0    0    0  0.00000000000E+00  0.00000000000E+00  0.39999999674E+01  0.40000000000E+01  0.51100000000E-03 0. -1.
    9000002   -1    0    0    0    0 -0.00000000000E+00 -0.00000000000E+00  0.00000000000E+00  0.93800000000E+00  0.93800000000E+00 0.  1.
         11    1    1    2    0    0 -0.71258884525E-01  0.17097084324E-01  0.13488279234E+01  0.13508172219E+01  0.51100000000E-03 0. -1.
    9000002    1    1    2    0    0  0.34532719198E+00  0.19991979262E+00  0.11361242732E+00  0.10256561688E+01  0.93800000000E+00 0.  1.
         22    1    1    2    0    0 -0.27406830745E+00 -0.21701687694E+00  0.25375596166E+01  0.25615266092E+01  0.00000000000E+00 0. -1.
</event>
<event>
 5    1  0.1173395E+001  0.1461101E+01  0.7818608E-02  0.3519448E+00
         11   -1    0    0    0    0  0.00000000000E+00  0.00000000000E+00  0.39999999674E+01  0.40000000000E+01  0.51100000000E-03 0.  1.
    9000002   -1    0    0    0    0 -0.00000000000E+00 -0.00000000000E+00  0.00000000000E+00  0.93800000000E+00  0.93800000000E+00 0.  1.
         11    1    1    2    0    0 -0.42034339761E+00  0.12668767587E+00  0.77440744013E+00  0.89019407073E+00  0.51100000000E-03 0.  1.
    9000002    1    1    2    0    0  0.21246390477E+00  0.73894737161E-01  0.17106250456E+00  0.97964673402E+00  0.93800000000E+00 0.  1.
         22    1    1    2    0    0  0.20787949284E+00 -0.20058241303E+00  0.30545300227E+01  0.30681591952E+01  0.00000000000E+00 0.  1.
</event>
<event>
 5    1  0.1173395E+001  0.1553733E+01  0.7818608E-02  0.3405163E+00
         11   -1    0    0    0    0  0.00000000000E+00  0.00000000000E+00  0.39999999674E+01  0.40000000000E+01  0.51100000000E-03 0. -1.
    9000002   -1    0    0    0    0 -0.00000000000E+00 -0.00000000000E+00  0.00000000000E+00  0.93800000000E+00  0.93800000000E+00 0.  1.
         11    1    1    2    0    0  0.12984992514E+00  0.13339859666E+00  0.98668013311E+00  0.10040887087E+01  0.51100000000E-03 0. -1.
    9000002    1    1    2    0    0  0.11767930449E+00  0.93438105981E-01  0.49620205622E-01  0.95125457327E+00  0.93800000000E+00 0.  1.
         22    1    1    2    0    0 -0.24752922963E+00 -0.22683670264E+00  0.29636996286E+01  0.29826567181E+01  0.00000000000E+00 0. -1.
</event>
<event>
 5    1  0.1173395E+001  0.1588466E+01  0.7818608E-02  0.3365978E+00
         11   -1    0    0    0    0  0.00000000000E+00  0.00000000000E+00  0.39999999674E+01  0.40000000000E+01  0.51100000000E-03 0. -1.
    9000002   -1    0    0    0    0 -0.00000000000E+00 -0.00000000000E+00  0.00000000000E+00  0.93800000000E+00  0.93800000000E+00 0. -1.
         11    1    1    2    0    0 -0.18615272848E+00 -0.42441370637E-01  0.71603493568E+00  0.74105357330E+00  0.51100000000E-03 0. -1.
    9000002    1    1    2    0    0  0.50663147877E+00 -0.65614482233E-02  0.18616679085E+00  0.10822294497E+01  0.93800000000E+00 0. -1.
         22    1    1    2    0    0 -0.32047875028E+00  0.49002818860E-01  0.30977982408E+01  0.31147169770E+01  0.00000000000E+00 0. -1.
</event>
<event>
 5    1  0.1173395E+001  0.1553595E+01  0.7818608E-02  0.3405323E+00
         11   -1    0    0    0    0  0.00000000000E+00  0.00000000000E+00  0.39999999674E+01  0.40000000000E+01  0.51100000000E-03 0.  1.
    9000002   -1    0    0    0    0 -0.00000000000E+00 -0.00000000000E+00  0.00000000000E+00  0.93800000000E+00  0.93800000000E+00 0. -1.
         11    1    1    2    0    0  0.18290507096E+00 -0.95260688582E-01  0.12482031228E+01  0.12651245633E+01  0.51100000000E-03 0.  1.
    9000002    1    1    2    0    0  0.13891021207E+00  0.50902923681E-01  0.49247464727E-01  0.95087142529E+00  0.93800000000E+00 0. -1.
         22    1    1    2    0    0 -0.32181528302E+00  0.44357764901E-01  0.27025493799E+01  0.27220040115E+01  0.00000000000E+00 0.  1.
</event>
<event>
 5    1  0.1173395E+001  0.1556699E+01  0.7818608E-02  0.3401745E+00
         11   -1    0    0    0    0  0.00000000000E+00  0.00000000000E+00  0.39999999674E+01  0.40000000000E+01  0.51100000000E-03 0. -1.
    9000002   -1    0    0    0    0 -0.00000000000E+00 -0.00000000000E+00  0.00000000000E+00  0.93800000000E+00  0.93800000000E+00 0. -1.
         11    1    1    2    0    0 -0.13339244130E+00 -0.14700160338E+00  0.10382117096E+01  0.10570178947E+01  0.51100000000E-03 0. -1.
    9000002    1    1    2    0    0 -0.70937796351E-01 -0.43971191819E-01  0.36561053776E-01  0.94241516717E+00  0.93800000000E+00 0. -1.
         22    1    1    2    0    0  0.20433023765E+00  0.19097279520E+00  0.29252272040E+01  0.29385669381E+01  0.00000000000E+00 0.  1.
</event>
<event>
 5    1  0.1173395E+001  0.1046293E+01  0.7818608E-02  0.4422251E+00
         11   -1    0    0    0    0  0.00000000000E+00  0.00000000000E+00  0.39999999674E+01  0.40000000000E+01  0.51100000000E-03 0. -1.
    9000002   -1    0    0    0    0 -0.00000000000E+00 -0.00000000000E+00  0.00000000000E+00  0.93800000000E+00  0.93800000000E+00 0. -1.
         11    1    1    2    0    0  0.79488031278E+00 -0.29873913495E+00  0.91285126592E+00  0.12467467574E+01  0.51100000000E-03 0. -1.
    9000002    1    1    2    0    0 -0.92377173504E-01 -0.24003137669E-02  0.67072355361E+00  0.11568290233E+01  0.93800000000E+00 0.  1.
         22    1    1    2    0    0 -0.70250313927E+00  0.30113944872E+00  0.24164251478E+01  0.25344242193E+01  0.00000000000E+00 0. -1.
</event>
<event>
 5    1  0.1173395E+001  0.1593373E+01  0.7818608E-02  0.3360588E+00
         11   -1    0    0    0    0  0.00000000000E+00  0.00000000000E+00  0.39999999674E+01  0.40000000000E+01  0.51100000000E-03 0. -1.
    9000002   -1    0    0    0    0 -0.00000000000E+00 -0.00000000000E+00  0.00000000000E+00  0.93800000000E+00  0.93800000000E+00 0.  1.
         11    1    1    2    0    0  0.78455496054E-01 -0.65662202532E-01  0.11766762518E+01  0.11811155965E+01  0.51100000000E-03 0. -1.
    9000002    1    1    2    0    0  0.11307295264E-01  0.32268068064E+00  0.74713860866E-01  0.99482502863E+00  0.93800000000E+00 0.  1.
         22    1    1    2    0    0 -0.89762791318E-01 -0.25701847811E+00  0.27486098547E+01  0.27620593749E+01  0.00000000000E+00 0. -1.
</event>
<event>
 5    1  0.1173395E+001  0.1471020E+01  0.7818608E-02  0.3506467E+00
         11   -1    0    0    0    0  0.00000000000E+00  0.00000000000E+00  0.39999999674E+01  0.40000000000E+01  0.51100000000E-03 0.  1.
    9000002   -1    0    0    0    0 -0.00000000000E+00 -0.00000000000E+00  0.00000000000E+00  0.93800000000E+00  0.93800000000E+00 0.  1.
         11    1    1    2    0    0  0.19167014544E+00 -0.36812938668E+00  0.11091848005E+01  0.11842921399E+01  0.51100000000E-03 0.  1.
    9000002    1    1    2    0    0 -0.17550613312E-01  0.80352984111E-01  0.10474412652E+00  0.94740696542E+00  0.93800000000E+00 0.  1.
         22    1    1    2    0    0 -0.17411953213E+00  0.28777640256E+00  0.27860710404E+01  0.28063008946E+01  0.00000000000E+00 0.  1.
</event>
<event>
 5    1  0.1173395E+001  0.1535928E+01  0.7818608E-02  0.3425983E+00
         11   -1    0    0    0    0  0.00000000000E+00  0.00000000000E+00  0.39999999674E+01  0.40000000000E+01  0.51100000000E-03 0.  1.
    9000002   -1    0    0    0    0 -0.00000000000E+00 -0.00000000000E+00  0.00000000000E+00  0.93800000000E+00  0.93800000000E+00 0.  1.
         11    1    1    2    0    0 -0.19046398902E-01 -0.28111487009E+00  0.12342202982E+01  0.12659732782E+01  0.51100000000E-03 0.  1.
    9000002    1    1    2    0    0  0.55207938514E-01 -0.32397896132E-02  0.49784020207E-01  0.94094678988E+00  0.93800000000E+00 0.  1.
         22    1    1    2    0    0 -0.36161539611E-01  0.28435465970E+00  0.27159956489E+01  0.27310799319E+01  0.00000000000E+00 0.  1.
</event>
<event>
 5    1  0.1173395E+001  0.1536825E+01  0.7818608E-02  0.3424921E+00
         11   -1    0    0    0    0  0.00000000000E+00  0.00000000000E+00  0.39999999674E+01  0.40000000000E+01  0.51100000000E-03 0.  1.
    9000002   -1    0    0    0    0 -0.00000000000E+00 -0.00000000000E+00  0.00000000000E+00  0.93800000000E+00  0.93800000000E+00 0.  1.
         11    1    1    2    0    0  0.13103797155E+00  0.14671773683E+00  0.56582558555E+00  0.59904582352E+00  0.51100000000E-03 0.  1.
    9000002    1    1    2    0    0  0.11831866790E+00  0.46533135713E-01  0.58299702219E-01  0.94837096917E+00  0.93800000000E+00 0.  1.
         22    1    1    2    0    0 -0.24935663946E+00 -0.19325087254E+00  0.33758746796E+01  0.33905832073E+01  0.00000000000E+00 0.  1.
</event>
<event>
 5    1  0.1173395E+001  0.1472610E+01  0.7818608E-02  0.3504403E+00
         11   -1    0    0    0    0  0.00000000000E+00  0.00000000000E+00  0.39999999674E+01  0.40000000000E+01  0.51100000000E-03 0.  1.
    9000002   -1    0    0    0    0 -0.00000000000E+00 -0.00000000000E+00  0.00000000000E+00  0.93800000000E+00  0.93800000000E+00 0.  1.
         11    1    1    2    0    0 -0.14850920615E+00  0.47188236162E+00  0.10016028589E+01  0.11171107803E+01  0.51100000000E-03 0.  1.
    9000002    1    1    2    0    0 -0.22068087928E-02 -0.17427223498E+00  0.16535989327E+00  0.96827866660E+00  0.93800000000E+00 0.  1.
         22    1    1    2    0    0  0.15071601494E+00 -0.29761012665E+00  0.28330372152E+01  0.28526105531E+01  0.00000000000E+00 0.  1.
</event>
<event>
 5    1  0.1173395E+001  0.1589225E+01  0.7818608E-02  0.3365142E+00
         11   -1    0    0    0    0  0.00000000000E+00  0.00000000000E+00  0.39999999674E+01  0.40000000000E+01  0.51100000000E-03 0. -1.
    9000002   -1    0    0    0    0 -0.00000000000E+00 -0.00000000000E+00  0.00000000000E+00  0.93800000000E+00  0.93800000000E+00 0.  1.
         11    1    1    2    0    0 -0.82128451167E-01  0.21859309557E+00  0.13589036451E+01  0.13788210187E+01  0.51100000000E-03 0. -1.
    9000002    1    1    2    0    0 -0.40983898749E-01 -0.42973901047E+00  0.13519047776E+00  0.10413816603E+01  0.93800000000E+00 0.  1.
         22    1    1    2    0    0  0.12311234992E+00  0.21114591491E+00  0.25059058445E+01  0.25177973210E+01  0.00000000000E+00 0. -1.
</event>
<event>
 5    1  0.1173395E+001  0.1339163E+01  0.7818608E-02  0.3709646E+00
         11   -1    0    0    0    0  0.00000000000E+00  0.00000000000E+00  0.39999999674E+01  0.40000000000E+01  0.51100000000E-03 0.  1.
    9000002   -1    0    0    0    0 -0.00000000000E+00 -0.00000000000E+00  0.00000000000E+00  0.93800000000E+00  0.93800000000E+00 0. -1.
         11    1    1    2    0    0 -0.59500179066E+00  0.46560477167E-01  0.79663886680E+00  0.99540381461E+00  0.51100000000E-03 0.  1.
    9000002    1    1    2    0    0  0.28325366271E+00 -0.42324749671E+00  0.47067792297E+00  0.11665130895E+01  0.93800000000E+00 0. -1.
         22    1    1    2    0    0  0.31174812795E+00  0.37668701954E+00  0.27326831776E+01  0.27760830958E+01  0.00000000000E+00 0.  1.
</event>
<event>
 5    1  0.1173395E+001  0.1201599E+01  0.7818608E-02  0.3989427E+00
         11   -1    0    0    0    0  0.00000000000E+00  0.00000000000E+00  0.39999999674E+01  0.40000000000E+01  0.51100000000E-03 0. -1.
    9000002   -1    0    0    0    0 -0.00000000000E+00 -0.00000000000E+00  0.00000000000E+00  0.93800000000E+00  0.93800000000E+00 0. -1.
         11    1    1    2    0    0 -0.24164135556E+00  0.85011105161E+00  0.98006057527E+00  0.13196963049E+01  0.51100000000E-03 0. -1.
    9000002    1    1    2    0    0  0.30190291250E-01 -0.51901196274E+00  0.73571125890E+00  0.13005383222E+01  0.93800000000E+00 0. -1.
         22    1    1    2    0    0  0.21145106431E+00 -0.33109908887E+00  0.22842281332E+01  0.23177653729E+01  0.00000000000E+00 0.  1.
</event>
<event>
 5    1  0.1173395E+001  0.1539977E+01  0.7818608E-02  0.3421203E+00
         11   -1    0    0    0    0  0.00000000000E+00  0.00000000000E+00  0.39999999674E+01  0.40000000000E+01  0.51100000000E-03 0. -1.
    9000002   -1    0    0    0    0 -0.00000000000E+00 -0.00000000000E+00  0.00000000000E+00  0.93800000000E+00  0.93800000000E+00 0. -1.
         11    1    1    2    0    0 -0.22980208159E+00 -0.14032254296E+00  0.95823345037E+00  0.99534467362E+00  0.51100000000E-03 0. -1.
    9000002    1    1    2    0    0 -0.65142329023E-01  0.30306045363E+00  0.11272180864E+00  0.99430345857E+00  0.93800000000E+00 0. -1.
         22    1    1    2    0    0  0.29494441062E+00 -0.16273791068E+00  0.29290447083E+01  0.29483518678E+01  0.00000000000E+00 0. -1.
</event>
<event>
 5    1  0.1173395E+001  0.1522548E+01  0.7818608E-02  0.3441970E+00
         11   -1    0    0    0    0  0.00000000000E+00  0.00000000000E+00  0.39999999674E+01  0.40000000000E+01  0.51100000000E-03 0. -1.
    9000002   -1    0    0    0    0 -0.00000000000E+00 -0.00000000000E+00  0.00000000000E+00  0.93800000000E+00  0.93800000000E+00 0.  1.
         11    1    1    2    0    0 -0.26952105390E+00  0.12525271711E+00  0.99507297421E+00  0.10385087033E+01  0.51100000000E-03 0. -1.
    9000002    1    1    2    0    0  0.68732527712E-01  0.86774635279E-01  0.66778269287E-01  0.94686711578E+00  0.93800000000E+00 0.  1.
         22    1    1    2    0    0  0.20078852619E+00 -0.21202735239E+00  0.29381487239E+01  0.29526241810E+01  0.00000000000E+00 0. -1.
</event>
<event>
 5    1  0.1173395E+001  0.1542743E+01  0.7818608E-02  0.3417953E+00
         11   -1    0    0    0    0  0.00000000000E+00  0.00000000000E+00  0.39999999674E+01  0.40000000000E+01  0.51100000000E-03 0. -1.
    9000002   -1    0    0    0    0 -0.00000000000E+00 -0.00000000000E+00  0.00000000000E+00  0.93800000000E+00  0.93800000000E+00 0. -1.
         11    1    1    2    0    0  0.25994901778E+00  0.61920616520E-01  0.12588579473E+01  0.12869076297E+01  0.51100000000E-03 0. -1.
    9000002    1    1    2    0    0 -0.52224916899E-01  0.15906309077E+00  0.61999996700E-01  0.95483847240E+00  0.93800000000E+00 0. -1.
         22    1    1    2    0    0 -0.20772410088E+00 -0.22098370729E+00  0.26791420233E+01  0.26962538979E+01  0.00000000000E+00 0. -1.
</event>
<event>
 5    1  0.1173395E+001  0.1559783E+01  0.7818608E-02  0.3398205E+00
         11   -1    0    0    0    0  0.00000000000E+00  0.00000000000E+00  0.39999999674E+01  0.40000000000E+01  0.51100000000E-03 0. -1.
    9000002   -1    0    0    0    0 -0.00000000000E+00 -0.00000000000E+00  0.00000000000E+00  0.93800000000E+00  0.93800000000E+00 0. -1.
         11    1    1    2    0    0  0.11935698857E+00 -0.11209875387E+00  0.79129133798E+00  0.80805597827E+00  0.51100000000E-03 0. -1.
    9000002    1    1    2    0    0  0.16713934629E+00 -0.25763112464E-01  0.49108157539E-01  0.95438719091E+00  0.93800000000E+00 0. -1.
         22    1    1    2    0    0 -0.28649633486E+00  0.13786186633E+00  0.31596004718E+01  0.31755568308E+01  0.00000000000E+00 0. -1.
</event>
<event>
 5    1  0.1173395E+001  0.1599267E+01  0.7818608E-02  0.3354159E+00
         11   -1    0    0    0    0  0.00000000000E+00  0.00000000000E+00  0.39999999674E+01  0.40000000000E+01  0.51100000000E-03 0.  1.
    9000002   -1    0    0    0    0 -0.00000000000E+00 -0.00000000000E+00  0.00000000000E+00  0.93800000000E+00  0.93800000000E+00 0.  1.
         11    1    1    2    0    0  0.65473830315E-01  0.61949898230E-01  0.99215545945E+00  0.99624160181E+00  0.51100000000E-03 0.  1.
    9000002    1    1    2    0    0 -0.20875733074E+00 -0.31150668108E+00  0.94890667828E-01  0.10146251891E+01  0.93800000000E+00 0.  1.
         22    1    1    2    0    0  0.14328350042E+00  0.24955678285E+00  0.29129538401E+01  0.29271332091E+01  0.00000000000E+00 0. -1.
</event>
<event>
 5    1  0.1173395E+001  0.1423452E+01  0.7818608E-02  0.3570517E+00
         11   -1    0    0    0    0  0.00000000000E+00  0.00000000000E+00  0.39999999674E+01  0.40000000000E+01  0.51100000000E-03 0. -1.
    9000002   -1    0    0    0    0 -0.00000000000E+00 -0.00000000000E+00  0.00000000000E+00  0.93800000000E+00  0.93800000000E+00 0. -1.
         11    1    1    2    0    0 -0.94674390758E+00  0.40550200145E-01  0.68485874614E+00  0.11691877987E+01  0.51100000000E-03 0. -1.
    9000002    1    1    2    0    0  0.10625012855E+01 -0.12327331254E+00  0.20476185141E+01  0.24933292744E+01  0.93800000000E+00 0. -1.
         22    1    1    2    0    0 -0.11575737790E+00  0.82723112390E-01  0.12675227071E+01  0.12754829269E+01  0.00000000000E+00 0. -1.
</event>
<event>
 5    1  0.1173395E+001  0.1596435E+01  0.7818608E-02  0.3357242E+00
         11   -1    0    0    0    0  0.00000000000E+00  0.00000000000E+00  0.39999999674E+01  0.40000000000E+01  0.51100000000E-03 0.  1.
    9000002   -1    0    0    0    0 -0.00000000000E+00 -0.00000000000E+00  0.00000000000E+00  0.93800000000E+00  0.93800000000E+00 0.  1.
         11    1    1    2    0    0  0.67857681518E-01 -0.33184955548E-03  0.14592516586E+01  0.14608286824E+01  0.51100000000E-03 0.  1.
    9000002    1    1    2    0    0 -0.26195930316E+00 -0.15945795857E+00  0.65332050036E-01  0.98902062356E+00  0.93800000000E+00 0.  1.
         22    1    1    2    0    0  0.19410162165E+00  0.15978980813E+00  0.24754162587E+01  0.24881506941E+01  0.00000000000E+00 0. -1.
</event>
<event>
 5    1  0.1173395E+001  0.1508464E+01  0.7818608E-02  0.3459127E+00
         11   -1    0    0    0    0  0.00000000000E+00  0.00000000000E+00  0.39999999674E+01  0.40000000000E+01  0.51100000000E-03 0.  1.
    9000002   -1    0    0    0    0 -0.00000000000E+00 -0.00000000000E+00  0.00000000000E+00  0.93800000000E+00  0.93800000000E+00 0.  1.
         11    1    1    2    0    0  0.15661726355E-01 -0.21155161445E+00  0.39641754798E+00  0.44960706035E+00  0.51100000000E-03 0.  1.
    9000002    1    1    2    0    0 -0.78538221397E-01 -0.12201214474E+00  0.84426242435E-01  0.95290451048E+00  0.93800000000E+00 0.  1.
         22    1    1    2    0    0  0.62876495042E-01  0.33356375918E+00  0.35191561769E+01  0.35354884292E+01  0.00000000000E+00 0.  1.
</event>
<event>
 5    1  0.1173395E+001  0.1521337E+01  0.7818608E-02  0.3443432E+00
         11   -1    0    0    0    0  0.00000000000E+00  0.00000000000E+00  0.39999999674E+01  0.40000000000E+01  0.51100000000E-03 0. -1.
    9000002   -1    0    0    0    0 -0.00000000000E+00 -0.00000000000E+00  0.00000000000E+00  0.93800000000E+00  0.93800000000E+00 0.  1.
         11    1    1    2    0    0  0.19726060261E+00  0.20286326358E+00  0.95702681868E+00  0.99798088250E+00  0.51100000000E-03 0. -1.
    9000002    1    1    2    0    0  0.77256418832E-01 -0.37543322262E-01  0.64255554325E-01  0.94411378104E+00  0.93800000000E+00 0.  1.
         22    1    1    2    0    0 -0.27451702144E+00 -0.16531994132E+00  0.29787175944E+01  0.29959053365E+01  0.00000000000E+00 0. -1.
</event>
<event>
 5    1  0.1173395E+001  0.1580935E+01  0.7818608E-02  0.3374320E+00
         11   -1    0    0    0    0  0.00000000000E+00  0.00000000000E+00  0.39999999674E+01  0.40000000000E+01  0.51100000000E-03 0. -1.
    9000002   -1    0    0    0    0 -0.00000000000E+00 -0.00000000000E+00  0.00000000000E+00  0.93800000000E+00  0.93800000000E+00 0. -1.
         11    1    1    2    0    0  0.72778599206E-01  0.19142868965E+00  0.56370110208E+00  0.59975066597E+00  0.51100000000E-03 0. -1.
    9000002    1    1    2    0    0  0.13594998227E-01 -0.63130620660E+00  0.29970805740E+00  0.11697868482E+01  0.93800000000E+00 0. -1.
         22    1    1    2    0    0 -0.86373597433E-01  0.43987751694E+00  0.31365908079E+01  0.31684624859E+01  0.00000000000E+00 0. -1.
</event>
<event>
 5    1  0.1173395E+001  0.1459453E+01  0.7818608E-02  0.3521623E+00
         11   -1    0    0    0    0  0.00000000000E+00  0.00000000000E+00  0.39999999674E+01  0.40000000000E+01  0.51100000000E-03 0.  1.
    9000002   -1    0    0    0    0 -0.00000000000E+00 -0.00000000000E+00  0.00000000000E+00  0.93800000000E+00  0.93800000000E+00 0.  1.
         11    1    1    2    0    0  0.50626418308E+00 -0.23742227187E+00  0.64104939514E+00  0.85065700866E+00  0.51100000000E-03 0.  1.
    9000002    1    1    2    0    0 -0.81390479276E+00 -0.85977118970E-02  0.75422922937E+00  0.14530040133E+01  0.93800000000E+00 0.  1.
         22    1    1    2    0    0  0.30764060968E+00  0.24601998377E+00  0.26047213429E+01  0.26343389780E+01  0.00000000000E+00 0.  1.
</event>
<event>
 5    1  0.1173395E+001  0.1514744E+01  0.7818608E-02  0.3451435E+00
         11   -1    0    0    0    0  0.00000000000E+00  0.00000000000E+00  0.39999999674E+01  0.40000000000E+01  0.51100000000E-03 0.  1.
    9000002   -1    0    0    0    0 -0.00000000000E+00 -0.00000000000E+00  0.00000000000E+00  0.93800000000E+00  0.93800000000E+00 0.  1.
         11    1    1    2    0    0 -0.28976006877E+00  0.86885516578E-01  0.95571639563E+00  0.10024490413E+01  0.51100000000E-03 0.  1.
    9000002    1    1    2    0    0 -0.27449581346E-01 -0.10810734234E+00  0.73127740182E-01  0.94743461166E+00  0.93800000000E+00 0.  1.
         22    1    1    2    0    0  0.31720965011E+00  0.21221825758E-01  0.29711558315E+01  0.29881163470E+01  0.00000000000E+00 0.  1.
</event>
<event>
 5    1  0.1173395E+001  0.1552352E+01  0.7818608E-02  0.3406760E+00
         11   -1    0    0    0    0  0.00000000000E+00  0.00000000000E+00  0.39999999674E+01  0.40000000000E+01  0.51100000000E-03 0.  1.
    9000002   -1    0    0    0    0 -0.00000000000E+00 -0.00000000000E+00  0.00000000000E+00  0.93800000000E+00  0.93800000000E+00 0. -1.
         11    1    1    2    0    0  0.38393250711E-01  0.25727161039E+00  0.14039651839E+01  0.14278589643E+01  0.51100000000E-03 0.  1.
    9000002    1    1    2    0    0 -0.59649333414E-01 -0.20324696719E-01  0.37805706680E-01  0.94087427839E+00  0.93800000000E+00 0. -1.
         22    1    1    2    0    0  0.21256082703E-01 -0.23694691367E+00  0.25582290768E+01  0.25692667573E+01  0.00000000000E+00 0.  1.
</event>
<event>
 5    1  0.1173395E+001  0.1533931E+01  0.7818608E-02  0.3428350E+00
         11   -1    0    0    0    0  0.00000000000E+00  0.00000000000E+00  0.39999999674E+01  0.40000000000E+01  0.51100000000E-03 0.  1.
    9000002   -1    0    0    0    0 -0.00000000000E+00 -0.00000000000E+00  0.00000000000E+00  0.93800000000E+00  0.93800000000E+00 0.  1.
         11    1    1    2    0    0 -0.34772715022E+00 -0.24213067546E-01  0.12740516515E+01  0.13208740725E+01  0.51100000000E-03 0.  1.
    9000002    1    1    2    0    0  0.18658576648E+00  0.22532951390E+00  0.11021255801E+00  0.98872566773E+00  0.93800000000E+00 0.  1.
         22    1    1    2    0    0  0.16114138374E+00 -0.20111644636E+00  0.26157357579E+01  0.26284002598E+01  0.00000000000E+00 0.  1.
</event>
<event>
 5    1  0.1173395E+001  0.1501765E+01  0.7818608E-02  0.3467409E+00
         11   -1    0    0    0    0  0.00000000000E+00  0.00000000000E+00  0.39999999674E+01  0.40000000000E+01  0.51100000000E-03 0. -1.
    9000002   -1    0    0    0    0 -0.00000000000E+00 -0.00000000000E+00  0.00000000000E+00  0.93800000000E+00  0.93800000000E+00 0. -1.
         11    1    1    2    0    0 -0.34338778231E+00  0.56105567499E-01  0.10045124486E+01  0.10630656256E+01  0.51100000000E-03 0. -1.
    9000002    1    1    2    0    0  0.84922510590E-01  0.91092530887E-01  0.85833044244E-01  0.95011630523E+00  0.93800000000E+00 0. -1.
         22    1    1    2    0    0  0.25846527172E+00 -0.14719809839E+00  0.29096544745E+01  0.29248180692E+01  0.00000000000E+00 0. -1.
</event>
<event>
 5    1  0.1173395E+001  0.1577037E+01  0.7818608E-02  0.3378670E+00
         11   -1    0    0    0    0  0.00000000000E+00  0.00000000000E+00  0.39999999674E+01  0.40000000000E+01  0.51100000000E-03 0. -1.
    9000002   -1    0    0    0    0 -0.00000000000E+00 -0.00000000000E+00  0.00000000000E+00  0.93800000000E+00  0.93800000000E+00 0.  1.
         11    1    1    2    0    0  0.45373399960E-01  0.13609530034E+00  0.14164728919E+01  0.14237192106E+01  0.51100000000E-03 0. -1.
    9000002    1    1    2    0    0  0.81811548213E-01  0.57485604702E-01  0.23304503919E-01  0.94360204751E+00  0.93800000000E+00 0.  1.
         22    1    1    2    0    0 -0.12718494817E+00 -0.19358090505E+00  0.25602225716E+01  0.25706787419E+01  0.00000000000E+00 0. -1.
</event>
<event>
 5    1  0.1173395E+001  0.1578172E+01  0.7818608E-02  0.3377400E+00
         11   -1    0    0    0    0  0.00000000000E+00  0.00000000000E+00  0.39999999674E+01  0.40000000000E+01  0.51100000000E-03 0.  1.
    9000002   -1    0    0    0    0 -0.00000000000E+00 -0.00000000000E+00  0.00000000000E+00  0.93800000000E+00  0.93800000000E+00 0.  1.
         11    1    1    2    0    0 -0.96901513398E-01 -0.92991298530E-01  0.14911189668E+01  0.14971550752E+01  0.51100000000E-03 0.  1.
    9000002    1    1    2    0    0  0.27052779824E-01 -0.14445841403E+00  0.30290655754E-01  0.94992716042E+00  0.93800000000E+00 0.  1.
         22    1    1    2    0    0  0.69848733574E-01  0.23744971256E+00  0.24785903448E+01  0.24909177644E+01  0.00000000000E+00 0.  1.
</event>
<event>
 5    1  0.1173395E+001  0.1468456E+01  0.7818608E-02  0.3509804E+00
         11   -1    0    0    0    0  0.00000000000E+00  0.00000000000E+00  0.39999999674E+01  0.40000000000E+01  0.51100000000E-03 0. -1.
    9000002   -1    0    0    0    0 -0.00000000000E+00 -0.00000000000E+00  0.00000000000E+00  0.93800000000E+00  0.93800000000E+00 0. -1.
         11    1    1    2    0    0  0.51220463048E+00 -0.13585791097E+00  0.11578507412E+01  0.12733536647E+01  0.51100000000E-03 0. -1.
    9000002    1    1    2    0    0 -0.46155261809E+00 -0.14712039648E+00  0.28788593528E+00  0.10942566162E+01  0.93800000000E+00 0. -1.
         22    1    1    2    0    0 -0.50652012385E-01  0.28297830745E+00  0.25542632909E+01  0.25703897191E+01  0.00000000000E+00 0. -1.
</event>
<event>
 5    1  0.1173395E+001  0.1537960E+01  0.7818608E-02  0.3423581E+00
         11   -1    0    0    0    0  0.00000000000E+00  0.00000000000E+00  0.39999999674E+01  0.40000000000E+01  0.51100000000E-03 0. -1.
    9000002   -1    0    0    0    0 -0.00000000000E+00 -0.00000000000E+00  0.00000000000E+00  0.93800000000E+00  0.93800000000E+00 0. -1.
         11    1    1    2    0    0  0.18229911562E+00  0.21027630847E+00  0.11697073407E+01  0.12023579406E+01  0.51100000000E-03 0. -1.
    9000002    1    1    2    0    0 -0.11266321052E+00  0.65509579546E-01  0.57988425410E-01  0.94878404366E+00  0.93800000000E+00 0. -1.
         22    1    1    2    0    0 -0.69635905105E-01 -0.27578588801E+00  0.27723042013E+01  0.27868580157E+01  0.00000000000E+00 0. -1.
</event>
<event>
 5    1  0.1173395E+001  0.1559402E+01  0.7818608E-02  0.3398641E+00
         11   -1    0    0    0    0  0.00000000000E+00  0.00000000000E+00  0.39999999674E+01  0.40000000000E+01  0.51100000000E-03 0. -1.
    9000002   -1    0    0    0    0 -0.00000000000E+00 -0.00000000000E+00  0.00000000000E+00  0.93800000000E+00  0.93800000000E+00 0. -1.
         11    1    1    2    0    0 -0.13522864304E+00  0.11084115624E+00  0.12550269275E+01  0.12671485303E+01  0.51100000000E-03 0. -1.
    9000002    1    1    2    0    0 -0.10514169640E+00  0.11925131480E+00  0.47107441087E-01  0.95254331314E+00  0.93800000000E+00 0. -1.
         22    1    1    2    0    0  0.24037033944E+00 -0.23009247104E+00  0.26978655987E+01  0.27183081566E+01  0.00000000000E+00 0. -1.
</event>
<event>
 5    1  0.1173395E+001  0.1448548E+01  0.7818608E-02  0.3536153E+00
         11   -1    0    0    0    0  0.00000000000E+00  0.00000000000E+00  0.39999999674E+01  0.40000000000E+01  0.51100000000E-03 0. -1.
    9000002   -1    0    0    0    0 -0.00000000000E+00 -0.00000000000E+00  0.00000000000E+00  0.93800000000E+00  0.93800000000E+00 0. -1.
         11    1    1    2    0    0 -0.34463957488E+00  0.18255782286E+00  0.48278862272E+00  0.62063589214E+00  0.51100000000E-03 0. -1.
    9000002    1    1    2    0    0  0.80028518838E-01 -0.71142449997E+00  0.56824198067E+00  0.13096840579E+01  0.93800000000E+00 0. -1.
         22    1    1    2    0    0  0.26461105605E+00  0.52886667711E+00  0.29489693640E+01  0.30076800499E+01  0.00000000000E+00 0.  1.
</event>
<event>
 5    1  0.1173395E+001  0.1522975E+01  0.7818608E-02  0.3441455E+00
         11   -1    0    0    0    0  0.00000000000E+00  0.00000000000E+00  0.39999999674E+01  0.40000000000E+01  0.51100000000E-03 0. -1.
    9000002   -1    0    0    0    0 -0.00000000000E+00 -0.00000000000E+00  0.00000000000E+00  0.93800000000E+00  0.93800000000E+00 0.  1.
         11    1    1    2    0    0 -0.17197820918E+00  0.23874157660E+00  0.94156189897E+00  0.98646495911E+00  0.51100000000E-03 0. -1.
    9000002    1    1    2    0    0  0.93565490968E-01  0.21134830325E-01  0.64261677546E-01  0.94507922702E+00  0.93800000000E+00 0.  1.
         22    1    1    2    0    0  0.78412718213E-01 -0.25987640693E+00  0.29941763908E+01  0.30064558139E+01  0.00000000000E+00 0. -1.
</event>
<event>
 5    1  0.1173395E+001  0.1543631E+01  0.7818608E-02  0.3416913E+00
         11   -1    0    0    0    0  0.00000000000E+00  0.00000000000E+00  0.39999999674E+01  0.40000000000E+01  0.51100000000E-03 0.  1.
    9000002   -1    0    0    0    0 -0.00000000000E+00 -0.00000000000E+00  0.00000000000E+00  0.93800000000E+00  0.93800000000E+00 0.  1.
         11    1    1    2    0    0 -0.93090236661E-01 -0.26386073915E+00  0.12726119858E+01  0.13030079851E+01  0.51100000000E-03 0.  1.
    9000002    1    1    2    0    0 -0.41220134818E-01  0.59949628929E-01  0.45399723504E-01  0.94191198762E+00  0.93800000000E+00 0.  1.
         22    1    1    2    0    0  0.13431037148E+00  0.20391111022E+00  0.26819882581E+01  0.26930800273E+01  0.00000000000E+00 0.  1.
</event>
<event>
 5    1  0.1173395E+001  0.1512162E+01  0.7818608E-02  0.3454590E+00
         11   -1    0    0    0    0  0.00000000000E+00  0.00000000000E+00  0.39999999674E+01  0.40000000000E+01  0.51100000000E-03 0. -1.
    9000002   -1    0    0    0    0 -0.00000000000E+00 -0.00000000000E+00  0.00000000000E+00  0.93800000000E+00  0.93800000000E+00 0.  1.
         11    1    1    2    0    0 -0.24558948034E+00  0.22043822122E-01  0.14524138974E+01  0.14731960200E+01  0.51100000000E-03 0. -1.
    9000002    1    1    2    0    0 -0.21732197122E+00  0.23071478922E+00  0.13979270601E+00  0.99992207386E+00  0.93800000000E+00 0.  1.
         22    1    1    2    0    0  0.46291145157E+00 -0.25275861134E+00  0.24077933640E+01  0.24648819061E+01  0.00000000000E+00 0. -1.
</event>
<event>
 5    1  0.1173395E+001  0.1562408E+01  0.7818608E-02  0.3395203E+00
         11   -1    0    0    0    0  0.00000000000E+00  0.00000000000E+00  0.39999999674E+01  0.40000000000E+01  0.51100000000E-03 0. -1.
    9000002   -1    0    0    0    0 -0.00000000000E+00 -0.00000000000E+00  0.00000000000E+00  0.93800000000E+00  0.93800000000E+00 0. -1.
         11    1    1    2    0    0  0.18600933995E+00 -0.23399590084E-01  0.12344395364E+01  0.12485945080E+01  0.51100000000E-03 0. -1.
    9000002    1    1    2    0    0  0.92468252800E-01  0.34454861097E-01  0.34129917106E-01  0.94379360375E+00  0.93800000000E+00 0. -1.
         22    1    1    2    0    0 -0.27847759275E+00 -0.11055271012E-01  0.27314305139E+01  0.27456118882E+01  0.00000000000E+00 0. -1.
</event>
<event>
 5    1  0.1173395E+001  0.1454270E+01  0.7818608E-02  0.3528500E+00
         11   -1    0    0    0    0  0.00000000000E+00  0.00000000000E+00  0.39999999674E+01  0.40000000000E+01  0.51100000000E-03 0.  1.
    9000002   -1    0    0    0    0 -0.00000000000E+00 -0.00000000000E+00  0.00000000000E+00  0.93800000000E+00  0.93800000000E+00 0. -1.
         11    1    1    2    0    0  0.95394708507E-02 -0.37588598320E+00  0.98247761445E+00  0.10519713864E+01  0.51100000000E-03 0.  1.
    9000002    1    1    2    0    0  0.13290517718E+00 -0.16237529138E+00  0.15956365542E+00  0.97433776562E+00  0.93800000000E+00 0. -1.
         22    1    1    2    0    0 -0.14244464804E+00  0.53826127458E+00  0.28579586975E+01  0.29116908479E+01  0.00000000000E+00 0.  1.
</event>
<event>
 5    1  0.1173395E+001  0.1481366E+01  0.7818608E-02  0.3493128E+00
         11   -1    0    0    0    0  0.00000000000E+00  0.00000000000E+00  0.39999999674E+01  0.40000000000E+01  0.51100000000E-03 0.  1.
    9000002   -1    0    0    0    0 -0.00000000000E+00 -0.00000000000E+00  0.00000000000E+00  0.93800000000E+00  0.93800000000E+00 0. -1.
         11    1    1    2    0    0 -0.26359073285E+00  0.24934222684E+00  0.50069517985E+00  0.61834257882E+00  0.51100000000E-03 0.  1.
    9000002    1    1    2    0    0  0.53530831507E-01  0.54332490376E-01  0.15349192973E+00  0.95353098635E+00  0.93800000000E+00 0. -1.
         22    1    1    2    0    0  0.21005990135E+00 -0.30367471721E+00  0.33458128578E+01  0.33661264348E+01  0.00000000000E+00 0.  1.
</event>
<event>
 5    1  0.1173395E+001  0.1499752E+01  0.7818608E-02  0.3469913E+00
         11   -1    0    0    0    0  0.00000000000E+00  0.00000000000E+00  0.39999999674E+01  0.40000000000E+01  0.51100000000E-03 0. -1.
    9000002   -1    0    0    0    0 -0.00000000000E+00 -0.00000000000E+00  0.00000000000E+00  0.93800000000E+00  0.93800000000E+00 0.  1.
         11    1    1    2    0    0  0.28541907743E+00 -0.41800638956E-01  0.10317182042E+01  0.10712861696E+01  0.51100000000E-03 0. -1.
    9000002    1    1    2    0    0  0.10170686899E+00 -0.31707743303E+00  0.15864363490E+00  0.10079157647E+01  0.93800000000E+00 0.  1.
         22    1    1    2    0    0 -0.38712594643E+00  0.35887807199E+00  0.28096381283E+01  0.28587980658E+01  0.00000000000E+00 0. -1.
</event>
<event>
 5    1  0.1173395E+001  0.1545565E+01  0.7818608E-02  0.3414650E+00
         11   -1    0    0    0    0  0.00000000000E+00  0.00000000000E+00  0.39999999674E+01  0.40000000000E+01  0.51100000000E-03 0. -1.
    9000002   -1    0    0    0    0 -0.00000000000E+00 -0.00000000000E+00  0.00000000000E+00  0.93800000000E+00  0.93800000000E+00 0. -1.
         11    1    1    2    0    0  0.22122049482E+00  0.21478439596E-01  0.76924350595E+00  0.80070947494E+00  0.51100000000E-03 0. -1.
    9000002    1    1    2    0    0 -0.58163704637E-01  0.28662951350E+00  0.10048001136E+00  0.98766377236E+00  0.93800000000E+00 0. -1.
         22    1    1    2    0    0 -0.16305679018E+00 -0.30810795309E+00  0.31302764500E+01  0.31496267527E+01  0.00000000000E+00 0. -1.
</event>
<event>
 5    1  0.1173395E+001  0.1572786E+01  0.7818608E-02  0.3383441E+00
         11   -1    0    0    0    0  0.00000000000E+00  0.00000000000E+00  0.39999999674E+01  0.40000000000E+01  0.51100000000E-03 0.  1.
    9000002   -1    0    0    0    0 -0.00000000000E+00 -0.00000000000E+00  0.00000000000E+00  0.93800000000E+00  0.93800000000E+00 0. -1.
         11    1    1    2    0    0 -0.20516054658E-01 -0.11125571000E+00  0.12973543228E+01  0.13022777129E+01  0.51100000000E-03 0.  1.
    9000002    1    1    2    0    0 -0.10210276838E+00 -0.20103690553E+00  0.54339728172E-01  0.96624925291E+00  0.93800000000E+00 0. -1.
         22    1    1    2    0    0  0.12261882303E+00  0.31229261554E+00  0.26483059164E+01  0.26694730342E+01  0.00000000000E+00 0.  1.
</event>
<event>
 5    1  0.1173395E+001  0.1582520E+01  0.7818608E-02  0.3372557E+00
         11   -1    0    0    0    0  0.00000000000E+00  0.00000000000E+00  0.39999999674E+01  0.40000000000E+01  0.51100000000E-03 0.  1.
    9000002   -1    0    0    0    0 -0.00000000000E+00 -0.00000000000E+00  0.00000000000E+00  0.93800000000E+00  0.93800000000E+00 0.  1.
         11    1    1    2    0    0  0.17791541482E-01  0.84322027716E-01  0.13010749539E+01  0.13039260102E+01  0.51100000000E-03 0.  1.
    9000002    1    1    2    0    0  0.38608658366E-01  0.18446240580E+00  0.36415801946E-01  0.95743778821E+00  0.93800000000E+00 0.  1.
         22    1    1    2    0    0 -0.56400199847E-01 -0.26878443352E+00  0.26625092115E+01  0.26766362016E+01  0.00000000000E+00 0.  1.
</event>
<event>
 5    1  0.1173395E+001  0.1581118E+01  0.7818608E-02  0.3374116E+00
         11   -1    0    0    0    0  0.00000000000E+00  0.00000000000E+00  0.39999999674E+01  0.40000000000E+01  0.51100000000E-03 0. -1.
    9000002   -1    0    0    0    0 -0.00000000000E+00 -0.00000000000E+00  0.00000000000E+00  0.93800000000E+00  0.93800000000E+00 0. -1.
         11    1    1    2    0    0  0.77767254162E-01  0.55432193031E-01  0.64914841934E+00  0.65613596555E+00  0.51100000000E-03 0. -1.
    9000002    1    1    2    0    0 -0.75520154849E-01  0.28677879202E+00  0.73294503209E-01  0.98648945942E+00  0.93800000000E+00 0. -1.
         22    1    1    2    0    0 -0.22470993136E-02 -0.34221098505E+00  0.32775570448E+01  0.32953745750E+01  0.00000000000E+00 0. -1.
</event>
<event>
 5    1  0.1173395E+001  0.1501320E+01  0.7818608E-02  0.3467963E+00
         11   -1    0    0    0    0  0.00000000000E+00  0.00000000000E+00  0.39999999674E+01  0.40000000000E+01  0.51100000000E-03 0.  1.
    9000002   -1    0    0    0    0 -0.00000000000E+00 -0.00000000000E+00  0.00000000000E+00  0.93800000000E+00  0.93800000000E+00 0.  1.
         11    1    1    2    0    0  0.16601386268E+00  0.49969270565E+00  0.10961672968E+01  0.12160741780E+01  0.51100000000E-03 0.  1.
    9000002    1    1    2    0    0  0.16220776667E+00 -0.16313749374E+00  0.21127659979E+00  0.98863896497E+00  0.93800000000E+00 0.  1.
         22    1    1    2    0    0 -0.32822162936E+00 -0.33655521190E+00  0.26925560707E+01  0.27332868570E+01  0.00000000000E+00 0.  1.
</event>
<event>
 5    1  0.1173395E+001  0.1512942E+01  0.7818608E-02  0.3453635E+00
         11   -1    0    0    0    0  0.00000000000E+00  0.00000000000E+00  0.39999999674E+01  0.40000000000E+01  0.51100000000E-03 0. -1.
    9000002   -1    0    0    0    0 -0.00000000000E+00 -0.00000000000E+00  0.00000000000E+00  0.93800000000E+00  0.93800000000E+00 0.  1.
         11    1    1    2    0    0  0.26766270733E+00 -0.24922260663E+00  0.14368782362E+01  0.14826916602E+01  0.51100000000E-03 0. -1.
    9000002    1    1    2    0    0  0.87933194977E-01  0.22761427731E+00  0.10884576351E+00  0.97531118431E+00  0.93800000000E+00 0.  1.
         22    1    1    2    0    0 -0.35559590231E+00  0.21608329326E-01  0.24542759677E+01  0.24799971555E+01  0.00000000000E+00 0. -1.
</event>
<event>
 5    1  0.1173395E+001  0.1539592E+01  0.7818608E-02  0.3421657E+00
         11   -1    0    0    0    0  0.00000000000E+00  0.00000000000E+00  0.39999999674E+01  0.40000000000E+01  0.51100000000E-03 0.  1.
    9000002   -1    0    0    0    0 -0.00000000000E+00 -0.00000000000E+00  0.00000000000E+00  0.93800000000E+00  0.93800000000E+00 0. -1.
         11    1    1    2    0    0 -0.18915973549E+00 -0.25217857575E-01  0.67992697197E+00  0.70619989678E+00  0.51100000000E-03 0.  1.
    9000002    1    1    2    0    0 -0.19751125931E+00  0.54643365931E-01  0.74357070530E-01  0.96300029540E+00  0.93800000000E+00 0. -1.
         22    1    1    2    0    0  0.38667099481E+00 -0.29425508356E-01  0.32457159249E+01  0.32687998078E+01  0.00000000000E+00 0.  1.
</event>
<event>
 5    1  0.1173395E+001  0.1380534E+01  0.7818608E-02  0.3638591E+00
         11   -1    0    0    0    0  0.00000000000E+00  0.00000000000E+00  0.39999999674E+01  0.40000000000E+01  0.51100000000E-03 0.  1.
    9000002   -1    0    0    0    0 -0.00000000000E+00 -0.00000000000E+00  0.00000000000E+00  0.93800000000E+00  0.93800000000E+00 0.  1.
         11    1    1    2    0    0  0.48693173031E+00 -0.37332299473E+00  0.12466627429E+01  0.13894750174E+01  0.51100000000E-03 0.  1.
    9000002    1    1    2    0    0 -0.31300305515E+00 -0.13707632364E-01  0.26439568261E+00  0.10236737218E+01  0.93800000000E+00 0.  1.
         22    1    1    2    0    0 -0.17392867516E+00  0.38703062710E+00  0.24889415418E+01  0.25248512608E+01  0.00000000000E+00 0. -1.
</event>
<event>
 5    1  0.1173395E+001  0.1298922E+01  0.7818608E-02  0.3784000E+00
         11   -1    0    0    0    0  0.00000000000E+00  0.00000000000E+00  0.39999999674E+01  0.40000000000E+01  0.51100000000E-03 0. -1.
    9000002   -1    0    0    0    0 -0.00000000000E+00 -0.00000000000E+00  0.00000000000E+00  0.93800000000E+00  0.93800000000E+00 0.  1.
         11    1    1    2    0    0  0.44537017592E+00 -0.47948729166E+00  0.62916205491E+00  0.90780383835E+00  0.51100000000E-03 0. -1.
    9000002    1    1    2    0    0 -0.55483501982E+00  0.18687574503E+00  0.63198603757E+00  0.12735834464E+01  0.93800000000E+00 0.  1.
         22    1    1    2    0    0  0.10946484390E+00  0.29261154663E+00  0.27388518749E+01  0.27566127152E+01  0.00000000000E+00 0. -1.
</event>
<event>
 5    1  0.1173395E+001  0.1544610E+01  0.7818608E-02  0.3415767E+00
         11   -1    0    0    0    0  0.00000000000E+00  0.00000000000E+00  0.39999999674E+01  0.40000000000E+01  0.51100000000E-03 0.  1.
    9000002   -1    0    0    0    0 -0.00000000000E+00 -0.00000000000E+00  0.00000000000E+00  0.93800000000E+00  0.93800000000E+00 0.  1.
         11    1    1    2    0    0 -0.29683873045E+00 -0.11467500476E+00  0.11055326892E+01  0.11504200871E+01  0.51100000000E-03 0.  1.
    9000002    1    1    2    0    0  0.33127118147E+00 -0.15292539104E+00  0.13560815395E+00  0.10155591279E+01  0.93800000000E+00 0.  1.
         22    1    1    2    0    0 -0.34432451023E-01  0.26760039580E+00  0.27588591242E+01  0.27720207850E+01  0.00000000000E+00 0.  1.
</event>
<event>
 5    1  0.1173395E+001  0.1473399E+01  0.7818608E-02  0.3503382E+00
         11   -1    0    0    0    0  0.00000000000E+00  0.00000000000E+00  0.39999999674E+01  0.40000000000E+01  0.51100000000E-03 0. -1.
    9000002   -1    0    0    0    0 -0.00000000000E+00 -0.00000000000E+00  0.00000000000E+00  0.93800000000E+00  0.93800000000E+00 0.  1.
         11    1    1    2    0    0  0.58896384080E-01  0.42639928024E+00  0.95324721541E+00  0.10459281261E+01  0.51100000000E-03 0. -1.
    9000002    1    1    2    0    0  0.26849112863E+00 -0.28435289390E+00  0.21606491433E+00  0.10389764683E+01  0.93800000000E+00 0.  1.
         22    1    1    2    0    0 -0.32738751270E+00 -0.14204638635E+00  0.28306878376E+01  0.28530954056E+01  0.00000000000E+00 0. -1.
</event>
<event>
 5    1  0.1173395E+001  0.1571760E+01  0.7818608E-02  0.3384597E+00
         11   -1    0    0    0    0  0.00000000000E+00  0.00000000000E+00  0.39999999674E+01  0.40000000000E+01  0.51100000000E-03 0. -1.
    9000002   -1    0    0    0    0 -0.00000000000E+00 -0.00000000000E+00  0.00000000000E+00  0.93800000000E+00  0.93800000000E+00 0.  1.
         11    1    1    2    0    0 -0.75435428465E-01 -0.26800787924E+00  0.13198049357E+01  0.13488528669E+01  0.51100000000E-03 0. -1.
    9000002    1    1    2    0    0  0.48613714626E+00  0.28809414887E+00  0.24847024888E+00  0.11229020564E+01  0.93800000000E+00 0.  1.
         22    1    1    2    0    0 -0.41070171779E+00 -0.20086269631E-01  0.24317247828E+01  0.24662450767E+01  0.00000000000E+00 0. -1.
</event>
<event>
 5    1  0.1173395E+001  0.1580700E+01  0.7818608E-02  0.3374581E+00
         11   -1    0    0    0    0  0.00000000000E+00  0.00000000000E+00  0.39999999674E+01  0.40000000000E+01  0.51100000000E-03 0.  1.
    9000002   -1    0    0    0    0 -0.00000000000E+00 -0.00000000000E+00  0.00000000000E+00  0.93800000000E+00  0.93800000000E+00 0. -1.
         11    1    1    2    0    0  0.77724175615E-01 -0.20620226757E+00  0.11165064611E+01  0.11380454127E+01  0.51100000000E-03 0.  1.
    9000002    1    1    2    0    0  0.14146066539E+00  0.39232841620E+00  0.13374534899E+00  0.10352123088E+01  0.93800000000E+00 0. -1.
         22    1    1    2    0    0 -0.21918484100E+00 -0.18612614863E+00  0.27497481573E+01  0.27647422784E+01  0.00000000000E+00 0.  1.
</event>
<event>
 5    1  0.1173395E+001  0.1294190E+01  0.7818608E-02  0.3793111E+00
         11   -1    0    0    0    0  0.00000000000E+00  0.00000000000E+00  0.39999999674E+01  0.40000000000E+01  0.51100000000E-03 0. -1.
    9000002   -1    0    0    0    0 -0.00000000000E+00 -0.00000000000E+00  0.00000000000E+00  0.93800000000E+00  0.93800000000E+00 0. -1.
         11    1    1    2    0    0  0.46930958182E+00 -0.43193358064E+00  0.83666189105E+00  0.10520558363E+01  0.51100000000E-03 0. -1.
    9000002    1    1    2    0    0 -0.34552595418E+00 -0.61740536692E-02  0.38604994436E+00  0.10715898765E+01  0.93800000000E+00 0. -1.
         22    1    1    2    0    0 -0.12378362764E+00  0.43810763431E+00  0.27772881319E+01  0.28143542871E+01  0.00000000000E+00 0. -1.
</event>
<event>
 5    1  0.1173395E+001  0.1585631E+01  0.7818608E-02  0.3369108E+00
         11   -1    0    0    0    0  0.00000000000E+00  0.00000000000E+00  0.39999999674E+01  0.40000000000E+01  0.51100000000E-03 0.  1.
    9000002   -1    0    0    0    0 -0.00000000000E+00 -0.00000000000E+00  0.00000000000E+00  0.93800000000E+00  0.93800000000E+00 0. -1.
         11    1    1    2    0    0  0.68749429726E-01  0.20456196024E-01  0.10820936752E+01  0.10844684980E+01  0.51100000000E-03 0.  1.
    9000002    1    1    2    0    0  0.85683719302E-01  0.24508001257E+00  0.55669502428E-01  0.97485845425E+00  0.93800000000E+00 0. -1.
         22    1    1    2    0    0 -0.15443314903E+00 -0.26553620859E+00  0.28622367897E+01  0.28786730478E+01  0.00000000000E+00 0.  1.
</event>
<event>
 5    1  0.1173395E+001  0.1493034E+01  0.7818608E-02  0.3478324E+00
         11   -1    0    0    0    0  0.00000000000E+00  0.00000000000E+00  0.39999999674E+01  0.40000000000E+01  0.51100000000E-03 0.  1.
    9000002   -1    0    0    0    0 -0.00000000000E+00 -0.00000000000E+00  0.00000000000E+00  0.93800000000E+00  0.93800000000E+00 0. -1.
         11    1    1    2    0    0 -0.19581659964E-01 -0.43918988638E+00  0.66736770410E+00  0.79915649988E+00  0.51100000000E-03 0.  1.
    9000002    1    1    2    0    0 -0.13325405042E+00  0.12491905933E+00  0.18685476554E+00  0.97371459717E+00  0.93800000000E+00 0. -1.
         22    1    1    2    0    0  0.15283571039E+00  0.31427082705E+00  0.31457774977E+01  0.31651289030E+01  0.00000000000E+00 0.  1.
</event>
<event>
 5    1  0.1173395E+001  0.1521576E+01  0.7818608E-02  0.3443143E+00
         11   -1    0    0    0    0  0.00000000000E+00  0.00000000000E+00  0.39999999674E+01  0.40000000000E+01  0.51100000000E-03 0.  1.
    9000002   -1    0    0    0    0 -0.00000000000E+00 -0.00000000000E+00  0.00000000000E+00  0.93800000000E+00  0.93800000000E+00 0.  1.
         11    1    1    2    0    0 -0.28054666772E+00  0.22126567646E+00  0.13345006041E+01  0.13815053585E+01  0.51100000000E-03 0.  1.
    9000002    1    1    2    0    0  0.14897159206E+00  0.25380524761E-02  0.74669841716E-01  0.95269017115E+00  0.93800000000E+00 0.  1.
         22    1    1    2    0    0  0.13157507566E+00 -0.22380372894E+00  0.25908295216E+01  0.26038044703E+01  0.00000000000E+00 0.  1.
</event>
<event>
 5    1  0.1173395E+001  0.1619757E+01  0.7818608E-02  0.3332195E+00
         11   -1    0    0    0    0  0.00000000000E+00  0.00000000000E+00  0.39999999674E+01  0.40000000000E+01  0.51100000000E-03 0.  1.
    9000002   -1    0    0    0    0 -0.00000000000E+00 -0.00000000000E+00  0.00000000000E+00  0.93800000000E+00  0.93800000000E+00 0. -1.
         11    1    1    2    0    0  0.66923346029E-01 -0.28710415026E+00  0.21863142784E-01  0.29561086833E+00  0.51100000000E-03 0.  1.
    9000002    1    1    2    0    0  0.22956726474E+00  0.40327788015E+00  0.51811010334E+00  0.11677398070E+01  0.93800000000E+00 0. -1.
         22    1    1    2    0    0 -0.29649061077E+00 -0.11617372989E+00  0.34600267212E+01  0.34746493247E+01  0.00000000000E+00 0.  1.
</event>
<event>
 5    1  0.1173395E+001  0.1525239E+01  0.7818608E-02  0.3438730E+00
         11   -1    0    0    0    0  0.00000000000E+00  0.00000000000E+00  0.39999999674E+01  0.40000000000E+01  0.51100000000E-03 0. -1.
    9000002   -1    0    0    0    0 -0.00000000000E+00 -0.00000000000E+00  0.00000000000E+00  0.93800000000E+00  0.93800000000E+00 0. -1.
         11    1    1    2    0    0 -0.24123341876E+00 -0.19693559640E-01  0.70103644678E+00  0.74164260898E+00  0.51100000000E-03 0. -1.
    9000002    1    1    2    0    0 -0.66726053277E-01  0.10570423207E+00  0.67049433096E-01  0.94866505013E+00  0.93800000000E+00 0. -1.
         22    1    1    2    0    0  0.30795947204E+00 -0.86010672431E-01  0.32319140875E+01  0.32476923409E+01  0.00000000000E+00 0. -1.
</event>
<event>
 5    1  0.1173395E+001  0.1559057E+01  0.7818608E-02  0.3399037E+00
         11   -1    0    0    0    0  0.00000000000E+00  0.00000000000E+00  0.39999999674E+01  0.40000000000E+01  0.51100000000E-03 0.  1.
    9000002   -1    0    0    0    0 -0.00000000000E+00 -0.00000000000E+00  0.00000000000E+00  0.93800000000E+00  0.93800000000E+00 0. -1.
         11    1    1    2    0    0 -0.23548230454E+00 -0.72441226795E-01  0.10009714922E+01  0.10308461749E+01  0.51100000000E-03 0.  1.
    9000002    1    1    2    0    0  0.24741007429E+00 -0.20553543845E+00  0.10205834230E+00  0.99685328236E+00  0.93800000000E+00 0. -1.
         22    1    1    2    0    0 -0.11927769751E-01  0.27797666525E+00  0.28969701329E+01  0.29103005427E+01  0.00000000000E+00 0.  1.
</event>
<event>
 5    1  0.1173395E+001  0.1459076E+01  0.7818608E-02  0.3522121E+00
         11   -1    0    0    0    0  0.00000000000E+00  0.00000000000E+00  0.39999999674E+01  0.40000000000E+01  0.51100000000E-03 0. -1.
    9000002   -1    0    0    0    0 -0.00000000000E+00 -0.00000000000E+00  0.00000000000E+00  0.93800000000E+00  0.93800000000E+00 0. -1.
         11    1    1    2    0    0 -0.34192979172E+00  0.46941735839E-01  0.93468483163E+00  0.99637116810E+00  0.51100000000E-03 0. -1.
    9000002    1    1    2    0    0 -0.12125041850E+00  0.28371606089E+00  0.18373539755E+00  0.10043899459E+01  0.93800000000E+00 0. -1.
         22    1    1    2    0    0  0.46318021022E+00 -0.33065779673E+00  0.28815797382E+01  0.29372388860E+01  0.00000000000E+00 0. -1.
</event>
<event>
 5    1  0.1173395E+001  0.1584959E+01  0.7818608E-02  0.3369852E+00
         11   -1    0    0    0    0  0.00000000000E+00  0.00000000000E+00  0.39999999674E+01  0.40000000000E+01  0.51100000000E-03 0. -1.
    9000002   -1    0    0    0    0 -0.00000000000E+00 -0.00000000000E+00  0.00000000000E+00  0.93800000000E+00  0.93800000000E+00 0. -1.
         11    1    1    2    0    0 -0.45334168136E-01  0.17139822292E+00  0.13054507028E+01  0.13174347559E+01  0.51100000000E-03 0. -1.
    9000002    1    1    2    0    0  0.28203018377E+00 -0.12805131000E+00  0.75731779640E-01  0.99071563276E+00  0.93800000000E+00 0. -1.
         22    1    1    2    0    0 -0.23669601564E+00 -0.43346912921E-01  0.26188174850E+01  0.26298496113E+01  0.00000000000E+00 0. -1.
</event>
<event>
 5    1  0.1173395E+001  0.1568698E+01  0.7818608E-02  0.3388054E+00
         11   -1    0    0    0    0  0.00000000000E+00  0.00000000000E+00  0.39999999674E+01  0.40000000000E+01  0.51100000000E-03 0.  1.
    9000002   -1    0    0    0    0 -0.00000000000E+00 -0.00000000000E+00  0.00000000000E+00  0.93800000000E+00  0.93800000000E+00 0.  1.
         11    1    1    2    0    0  0.22988268771E+00  0.92764683036E-01  0.14066161297E+01  0.14282928740E+01  0.51100000000E-03 0.  1.
    9000002    1    1    2    0    0 -0.24863609749E+00  0.15093517934E+00  0.80928398839E-01  0.98539065506E+00  0.93800000000E+00 0.  1.
         22    1    1    2    0    0  0.18753409773E-01 -0.24369986238E+00  0.25124554388E+01  0.25243164709E+01  0.00000000000E+00 0.  1.
</event>
<event>
 5    1  0.1173395E+001  0.1498691E+01  0.7818608E-02  0.3471237E+00
         11   -1    0    0    0    0  0.00000000000E+00  0.00000000000E+00  0.39999999674E+01  0.40000000000E+01  0.51100000000E-03 0.  1.
    9000002   -1    0    0    0    0 -0.00000000000E+00 -0.00000000000E+00  0.00000000000E+00  0.93800000000E+00  0.93800000000E+00 0. -1.
         11    1    1    2    0    0 -0.21777069771E-02  0.36665935688E+00  0.10756407522E+01  0.11364185476E+01  0.51100000000E-03 0.  1.
    9000002    1    1    2    0    0 -0.34445893887E-01 -0.84433177286E-01  0.83071322131E-01  0.94607627895E+00  0.93800000000E+00 0. -1.
         22    1    1    2    0    0  0.36623600864E-01 -0.28222617959E+00  0.28412878930E+01  0.28555051734E+01  0.00000000000E+00 0.  1.
</event>
<event>
 5    1  0.1173395E+001  0.1507849E+01  0.7818608E-02  0.3459884E+00
         11   -1    0    0    0    0  0.00000000000E+00  0.00000000000E+00  0.39999999674E+01  0.40000000000E+01  0.51100000000E-03 0. -1.
    9000002   -1    0    0    0    0 -0.00000000000E+00 -0.00000000000E+00  0.00000000000E+00  0.93800000000E+00  0.93800000000E+00 0. -1.
         11    1    1    2    0    0 -0.90527991424E-01  0.24497274086E+00  0.68174568590E+00  0.73005780755E+00  0.51100000000E-03 0. -1.
    9000002    1    1    2    0    0 -0.51967907866E-01  0.88341204814E-01  0.77262013409E-01  0.94674085717E+00  0.93800000000E+00 0. -1.
         22    1    1    2    0    0  0.14249589929E+00 -0.33331394567E+00  0.32409922681E+01  0.32612013353E+01  0.00000000000E+00 0. -1.
</event>
<event>
 5    1  0.1173395E+001  0.1454980E+01  0.7818608E-02  0.3527554E+00
         11   -1    0    0    0    0  0.00000000000E+00  0.00000000000E+00  0.39999999674E+01  0.40000000000E+01  0.51100000000E-03 0. -1.
    9000002   -1    0    0    0    0 -0.00000000000E+00 -0.00000000000E+00  0.00000000000E+00  0.93800000000E+00  0.93800000000E+00 0.  1.
         11    1    1    2    0    0  0.29718507302E+00  0.86788761380E-01  0.70543852006E+00  0.77038628196E+00  0.51100000000E-03 0. -1.
    9000002    1    1    2    0    0  0.24383534011E+00  0.90567431261E-01  0.16573324106E+00  0.98740550935E+00  0.93800000000E+00 0.  1.
         22    1    1    2    0    0 -0.54102041313E+00 -0.17735619264E+00  0.31288282062E+01  0.31802082087E+01  0.00000000000E+00 0. -1.
</event>
<event>
 5    1  0.1173395E+001  0.1587486E+01  0.7818608E-02  0.3367058E+00
         11   -1    0    0    0    0  0.00000000000E+00  0.00000000000E+00  0.39999999674E+01  0.40000000000E+01  0.51100000000E-03 0.  1.
    9000002   -1    0    0    0    0 -0.00000000000E+00 -0.00000000000E+00  0.00000000000E+00  0.93800000000E+00  0.93800000000E+00 0. -1.
         11    1    1    2    0    0 -0.18771615681E-01 -0.89566584789E-01  0.44733305921E+00  0.45659793435E+00  0.51100000000E-03 0.  1.
    9000002    1    1    2    0    0  0.36587401399E+00  0.68660473287E-01  0.10317702414E+00  0.10144296688E+01  0.93800000000E+00 0. -1.
         22    1    1    2    0    0 -0.34710239831E+00  0.20906111502E-01  0.34494898840E+01  0.34669723968E+01  0.00000000000E+00 0.  1.
</event>
<event>
 5    1  0.1173395E+001  0.1529983E+01  0.7818608E-02  0.3433050E+00
         11   -1    0    0    0    0  0.00000000000E+00  0.00000000000E+00  0.39999999674E+01  0.40000000000E+01  0.51100000000E-03 0. -1.
    9000002   -1    0    0    0    0 -0.00000000000E+00 -0.00000000000E+00  0.00000000000E+00  0.93800000000E+00  0.93800000000E+00 0. -1.
         11    1    1    2    0    0 -0.73880973991E-01 -0.18982519706E+00  0.13019078390E+01  0.13177466700E+01  0.51100000000E-03 0. -1.
    9000002    1    1    2    0    0 -0.10647365841E+00 -0.26673885045E+00  0.11128104866E+00  0.98727591182E+00  0.93800000000E+00 0. -1.
         22    1    1    2    0    0  0.18035463241E+00  0.45656404751E+00  0.25868110797E+01  0.26329774182E+01  0.00000000000E+00 0. -1.
</event>
<event>
 5    1  0.1173395E+001  0.1510160E+01  0.7818608E-02  0.3457043E+00
         11   -1    0    0    0    0  0.00000000000E+00  0.00000000000E+00  0.39999999674E+01  0.40000000000E+01  0.51100000000E-03 0.  1.
    9000002   -1    0    0    0    0 -0.00000000000E+00 -0.00000000000E+00  0.00000000000E+00  0.93800000000E+00  0.93800000000E+00 0.  1.
         11    1    1    2    0    0 -0.19455561134E+00 -0.32027303986E+00  0.13795997855E+01  0.14295882398E+01  0.51100000000E-03 0.  1.
    9000002    1    1    2    0    0  0.23183763708E-01  0.86133167197E-01  0.73562272383E-01  0.94509883997E+00  0.93800000000E+00 0.  1.
         22    1    1    2    0    0  0.17137184764E+00  0.23413987266E+00  0.25468379095E+01  0.25633129203E+01  0.00000000000E+00 0. -1.
</event>
<event>
 5    1  0.1173395E+001  0.1468336E+01  0.7818608E-02  0.3509960E+00
         11   -1    0    0    0    0  0.00000000000E+00  0.00000000000E+00  0.39999999674E+01  0.40000000000E+01  0.51100000000E-03 0. -1.
    9000002   -1    0    0    0    0 -0.00000000000E+00 -0.00000000000E+00  0.00000000000E+00  0.93800000000E+00  0.93800000000E+00 0. -1.
         11    1    1    2    0    0  0.38627389945E+00  0.64445639854E+00  0.11953179518E+01  0.14118487320E+01  0.51100000000E-03 0. -1.
    9000002    1    1    2    0    0 -0.61323018438E+00 -0.61936698344E+00  0.80280309630E+00  0.15112920071E+01  0.93800000000E+00 0. -1.
         22    1    1    2    0    0  0.22695628492E+00 -0.25089415100E-01  0.20018789192E+01  0.20148592609E+01  0.00000000000E+00 0. -1.
</event>
<event>
 5    1  0.1173395E+001  0.1573977E+01  0.7818608E-02  0.3382101E+00
         11   -1    0    0    0    0  0.00000000000E+00  0.00000000000E+00  0.39999999674E+01  0.40000000000E+01  0.51100000000E-03 0. -1.
    9000002   -1    0    0    0    0 -0.00000000000E+00 -0.00000000000E+00  0.00000000000E+00  0.93800000000E+00  0.93800000000E+00 0.  1.
         11    1    1    2    0    0 -0.10879968316E+00  0.83513137428E-01  0.12886028770E+01  0.12958817272E+01  0.51100000000E-03 0. -1.
    9000002    1    1    2    0    0 -0.13182859838E+00  0.45338588876E-01  0.31988392042E-01  0.94884225466E+00  0.93800000000E+00 0.  1.
         22    1    1    2    0    0  0.24062828154E+00 -0.12885172630E+00  0.26794086983E+01  0.26932760181E+01  0.00000000000E+00 0. -1.
</event>
<event>
 5    1  0.1173395E+001  0.1501883E+01  0.7818608E-02  0.3467263E+00
         11   -1    0    0    0    0  0.00000000000E+00  0.00000000000E+00  0.39999999674E+01  0.40000000000E+01  0.51100000000E-03 0.  1.
    9000002   -1    0    0    0    0 -0.00000000000E+00 -0.00000000000E+00  0.00000000000E+00  0.93800000000E+00  0.93800000000E+00 0. -1.
         11    1    1    2    0    0  0.15820181979E+00 -0.18470196403E+00  0.39646696541E+00  0.46511175762E+00  0.51100000000E-03 0.  1.
    9000002    1    1    2    0    0 -0.30339849787E+00 -0.14503356730E+00  0.15840303882E+00  0.10089702210E+01  0.93800000000E+00 0. -1.
         22    1    1    2    0    0  0.14519667808E+00  0.32973553133E+00  0.34451299631E+01  0.34639180214E+01  0.00000000000E+00 0.  1.
</event>
<event>
 5    1  0.1173395E+001  0.1542662E+01  0.7818608E-02  0.3418048E+00
         11   -1    0    0    0    0  0.00000000000E+00  0.00000000000E+00  0.39999999674E+01  0.40000000000E+01  0.51100000000E-03 0.  1.
    9000002   -1    0    0    0    0 -0.00000000000E+00 -0.00000000000E+00  0.00000000000E+00  0.93800000000E+00  0.93800000000E+00 0. -1.
         11    1    1    2    0    0 -0.17310232834E+00  0.17270801359E+00  0.68815457267E+00  0.73030777829E+00  0.51100000000E-03 0.  1.
    9000002    1    1    2    0    0  0.34215070296E+00  0.10630688222E+00  0.13383075930E+00  0.10129772598E+01  0.93800000000E+00 0. -1.
         22    1    1    2    0    0 -0.16904837462E+00 -0.27901489581E+00  0.31780146354E+01  0.31947149619E+01  0.00000000000E+00 0.  1.
</event>
<event>
 5    1  0.1173395E+001  0.1559924E+01  0.7818608E-02  0.3398043E+00
         11   -1    0    0    0    0  0.00000000000E+00  0.00000000000E+00  0.39999999674E+01  0.40000000000E+01  0.51100000000E-03 0. -1.
    9000002   -1    0    0    0    0 -0.00000000000E+00 -0.00000000000E+00  0.00000000000E+00  0.93800000000E+00  0.93800000000E+00 0.  1.
         11    1    1    2    0    0 -0.55955730162E-01 -0.18743006155E+00  0.11323691901E+01  0.11491393804E+01  0.51100000000E-03 0. -1.
    9000002    1    1    2    0    0  0.17937423402E+00 -0.10353834094E+00  0.58893981969E-01  0.96239690616E+00  0.93800000000E+00 0.  1.
         22    1    1    2    0    0 -0.12341850386E+00  0.29096840249E+00  0.28087367953E+01  0.28264637134E+01  0.00000000000E+00 0. -1.
</event>
<event>
 5    1  0.1173395E+001  0.1473738E+01  0.7818608E-02  0.3502942E+00
         11   -1    0    0    0    0  0.00000000000E+00  0.00000000000E+00  0.39999999674E+01  0.40000000000E+01  0.51100000000E-03 0.  1.
    9000002   -1    0    0    0    0 -0.00000000000E+00 -0.00000000000E+00  0.00000000000E+00  0.93800000000E+00  0.93800000000E+00 0. -1.
         11    1    1    2    0    0 -0.48044003203E+00 -0.30251222263E+00  0.11133368770E+01  0.12497421862E+01  0.51100000000E-03 0.  1.
    9000002    1    1    2    0    0  0.27556643449E+00  0.16996942529E+00  0.22766529879E+00  0.10180873998E+01  0.93800000000E+00 0. -1.
         22    1    1    2    0    0  0.20487359754E+00  0.13254279733E+00  0.26589977916E+01  0.26701704140E+01  0.00000000000E+00 0.  1.
</event>
<event>
 5    1  0.1173395E+001  0.1465519E+01  0.7818608E-02  0.3513642E+00
         11   -1    0    0    0    0  0.00000000000E+00  0.00000000000E+00  0.39999999674E+01  0.40000000000E+01  0.51100000000E-03 0. -1.
    9000002   -1    0    0    0    0 -0.00000000000E+00 -0.00000000000E+00  0.00000000000E+00  0.93800000000E+00  0.93800000000E+00 0.  1.
         11    1    1    2    0    0  0.53263853680E-02 -0.51509776417E+00  0.87630593820E+00  0.10164971399E+01  0.51100000000E-03 0. -1.
    9000002    1    1    2    0    0 -0.21114938476E+00  0.35723942856E+00  0.27621628767E+00  0.10622351480E+01  0.93800000000E+00 0.  1.
         22    1    1    2    0    0  0.20582299939E+00  0.15785833561E+00  0.28474777415E+01  0.28592677121E+01  0.00000000000E+00 0.  1.
</event>
<event>
 5    1  0.1173395E+001  0.1551764E+01  0.7818608E-02  0.3407441E+00
         11   -1    0    0    0    0  0.00000000000E+00  0.00000000000E+00  0.39999999674E+01  0.40000000000E+01  0.51100000000E-03 0.  1.
    9000002   -1    0    0    0    0 -0.00000000000E+00 -0.00000000000E+00  0.00000000000E+00  0.93800000000E+00  0.93800000000E+00 0.  1.
         11    1    1    2    0    0  0.51462285170E-01  0.22837271074E+00  0.11556739857E+01  0.11791459130E+01  0.51100000000E-03 0.  1.
    9000002    1    1    2    0    0  0.99567037328E-01 -0.83712917637E-02  0.42410334330E-01  0.94425966233E+00  0.93800000000E+00 0.  1.
         22    1    1    2    0    0 -0.15102932250E+00 -0.22000141898E+00  0.28019156473E+01  0.28145944247E+01  0.00000000000E+00 0.  1.
</event>
<event>
 5    1  0.1173395E+001  0.1526229E+01  0.7818608E-02  0.3437541E+00
         11   -1    0    0    0    0  0.00000000000E+00  0.00000000000E+00  0.39999999674E+01  0.40000000000E+01  0.51100000000E-03 0.  1.
    9000002   -1    0    0    0    0 -0.00000000000E+00 -0.00000000000E+00  0.00000000000E+00  0.93800000000E+00  0.93800000000E+00 0. -1.
         11    1    1    2    0    0 -0.37260407438E+00 -0.19863312955E+00  0.14119206328E+01  0.14737058902E+01  0.51100000000E-03 0.  1.
    9000002    1    1    2    0    0  0.36414572931E+00 -0.23346184054E-01  0.15174025807E+00  0.10178488406E+01  0.93800000000E+00 0. -1.
         22    1    1    2    0    0  0.84583450744E-02  0.22197931361E+00  0.24363390765E+01  0.24464452691E+01  0.00000000000E+00 0.  1.
</event>
<event>
 5    1  0.1173395E+001  0.1562098E+01  0.7818608E-02  0.3395557E+00
         11   -1    0    0    0    0  0.00000000000E+00  0.00000000000E+00  0.39999999674E+01  0.40000000000E+01  0.51100000000E-03 0.  1.
    9000002   -1    0    0    0    0 -0.00000000000E+00 -0.00000000000E+00  0.00000000000E+00  0.93800000000E+00  0.93800000000E+00 0.  1.
         11    1    1    2    0    0 -0.63155672677E-01  0.17697508700E+00  0.14530304797E+01  0.14651302523E+01  0.51100000000E-03 0.  1.
    9000002    1    1    2    0    0 -0.51923529907E-01  0.87981893426E-01  0.34843834482E-01  0.94419010762E+00  0.93800000000E+00 0.  1.
         22    1    1    2    0    0  0.11507920258E+00 -0.26495698042E+00  0.25121256532E+01  0.25286796400E+01  0.00000000000E+00 0.  1.
</event>
<event>
 5    1  0.1173395E+001  0.1593414E+01  0.7818608E-02  0.3360543E+00
         11   -1    0    0    0    0  0.00000000000E+00  0.00000000000E+00  0.39999999674E+01  0.40000000000E+01  0.51100000000E-03 0. -1.
    9000002   -1    0    0    0    0 -0.00000000000E+00 -0.00000000000E+00  0.00000000000E+00  0.93800000000E+00  0.93800000000E+00 0.  1.
         11    1    1    2    0    0 -0.10688659036E+00  0.19819721054E+00  0.97105588158E+00  0.99682328611E+00  0.51100000000E-03 0. -1.
    9000002    1    1    2    0    0  0.25469003336E+00 -0.48631795486E+00  0.21404680927E+00  0.11077148563E+01  0.93800000000E+00 0.  1.
         22    1    1    2    0    0 -0.14780344300E+00  0.28812074432E+00  0.28148972765E+01  0.28334618576E+01  0.00000000000E+00 0. -1.
</event>
<event>
 5    1  0.1173395E+001  0.1467697E+01  0.7818608E-02  0.3510795E+00
         11   -1    0    0    0    0  0.00000000000E+00  0.00000000000E+00  0.39999999674E+01  0.40000000000E+01  0.51100000000E-03 0. -1.
    9000002   -1    0    0    0    0 -0.00000000000E+00 -0.00000000000E+00  0.00000000000E+00  0.93800000000E+00  0.93800000000E+00 0. -1.
         11    1    1    2    0    0 -0.81859352059E-01  0.45145107419E+00  0.81817521419E+00  0.93804049387E+00  0.51100000000E-03 0. -1.
    9000002    1    1    2    0    0 -0.13311513729E+00 -0.21757428588E+00  0.18892694424E+00  0.99025027135E+00  0.93800000000E+00 0. -1.
         22    1    1    2    0    0  0.21497448935E+00 -0.23387678831E+00  0.29928978089E+01  0.30097092348E+01  0.00000000000E+00 0. -1.
</event>
<event>
 5    1  0.1173395E+001  0.1587497E+01  0.7818608E-02  0.3367046E+00
         11   -1    0    0    0    0  0.00000000000E+00  0.00000000000E+00  0.39999999674E+01  0.40000000000E+01  0.51100000000E-03 0. -1.
    9000002   -1    0    0    0    0 -0.00000000000E+00 -0.00000000000E+00  0.00000000000E+00  0.93800000000E+00  0.93800000000E+00 0. -1.
         11    1    1    2    0    0  0.58162060701E-01  0.47023009206E-02  0.61004119001E+00  0.61282579219E+00  0.51100000000E-03 0. -1.
    9000002    1    1    2    0    0  0.21960087207E+00  0.14478708276E+00  0.55429172602E-01  0.97575828745E+00  0.93800000000E+00 0. -1.
         22    1    1    2    0    0 -0.27776293277E+00 -0.14948938368E+00  0.33345296047E+01  0.33494159204E+01  0.00000000000E+00 0. -1.
</event>
<event>
 5    1  0.1173395E+001  0.1547686E+01  0.7818608E-02  0.3412177E+00
         11   -1    0    0    0    0  0.00000000000E+00  0.00000000000E+00  0.39999999674E+01  0.40000000000E+01  0.51100000000E-03 0.  1.
    9000002   -1    0    0    0    0 -0.00000000000E+00 -0.00000000000E+00  0.00000000000E+00  0.93800000000E+00  0.93800000000E+00 0. -1.
         11    1    1    2    0    0 -0.21321234896E+00 -0.13674785988E+00  0.13340097436E+01  0.13578445199E+01  0.51100000000E-03 0.  1.
    9000002    1    1    2    0    0  0.24326430012E-01 -0.66785546738E-01  0.42118149858E-01  0.94163157498E+00  0.93800000000E+00 0. -1.
         22    1    1    2    0    0  0.18888591895E+00  0.20353340662E+00  0.26238720739E+01  0.26385239051E+01  0.00000000000E+00 0.  1.
</event>
<event>
 5    1  0.1173395E+001  0.1524632E+01  0.7818608E-02  0.3439460E+00
         11   -1    0    0    0    0  0.00000000000E+00  0.00000000000E+00  0.39999999674E+01  0.40000000000E+01  0.51100000000E-03 0.  1.
    9000002   -1    0    0    0    0 -0.00000000000E+00 -0.00000000000E+00  0.00000000000E+00  0.93800000000E+00  0.93800000000E+00 0.  1.
         11    1    1    2    0    0 -0.20526297078E+00 -0.22494397213E+00  0.12057959574E+01  0.12436546264E+01  0.51100000000E-03 0.  1.
    9000002    1    1    2    0    0  0.37008513584E-01 -0.32003296446E-01  0.58114301439E-01  0.94107125824E+00  0.93800000000E+00 0.  1.
         22    1    1    2    0    0  0.16825445720E+00  0.25694726858E+00  0.27360897085E+01  0.27532741153E+01  0.00000000000E+00 0.  1.
</event>
<event>
 5    1  0.1173395E+001  0.1457103E+01  0.7818608E-02  0.3524734E+00
         11   -1    0    0    0    0  0.00000000000E+00  0.00000000000E+00  0.39999999674E+01  0.40000000000E+01  0.51100000000E-03 0. -1.
    9000002   -1    0    0    0    0 -0.00000000000E+00 -0.00000000000E+00  0.00000000000E+00  0.93800000000E+00  0.93800000000E+00 0.  1.
         11    1    1    2    0    0 -0.43010490336E-01  0.39625859541E+00  0.10023238188E+01  0.10786677318E+01  0.51100000000E-03 0. -1.
    9000002    1    1    2    0    0  0.10886873451E+00  0.16261218620E-01  0.12062202675E+00  0.95210845071E+00  0.93800000000E+00 0.  1.
         22    1    1    2    0    0 -0.65858244170E-01 -0.41251981403E+00  0.28770541218E+01  0.29072238175E+01  0.00000000000E+00 0. -1.
</event>
<event>
 5    1  0.1173395E+001  0.1507995E+01  0.7818608E-02  0.3459705E+00
         11   -1    0    0    0    0  0.00000000000E+00  0.00000000000E+00  0.39999999674E+01  0.40000000000E+01  0.51100000000E-03 0.  1.
    9000002   -1    0    0    0    0 -0.00000000000E+00 -0.00000000000E+00  0.00000000000E+00  0.93800000000E+00  0.93800000000E+00 0.  1.
         11    1    1    2    0    0 -0.24063730690E+00 -0.29342487541E+00  0.99370311602E+00  0.10636966743E+01  0.51100000000E-03 0.  1.
    9000002    1    1    2    0    0  0.34563142126E+00  0.32228632001E-01  0.15853152785E+00  0.10126578936E+01  0.93800000000E+00 0.  1.
         22    1    1    2    0    0 -0.10499411436E+00  0.26119624341E+00  0.28477653235E+01  0.28616454321E+01  0.00000000000E+00 0.  1.
</event>
<event>
 5    1  0.1173395E+001  0.1558063E+01  0.7818608E-02  0.3400177E+00
         11   -1    0    0    0    0  0.00000000000E+00  0.00000000000E+00  0.39999999674E+01  0.40000000000E+01  0.51100000000E-03 0. -1.
    9000002   -1    0    0    0    0 -0.00000000000E+00 -0.00000000000E+00  0.00000000000E+00  0.93800000000E+00  0.93800000000E+00 0.  1.
         11    1    1    2    0    0 -0.99883466422E-01 -0.21368291403E+00  0.13052437510E+01  0.13263855417E+01  0.51100000000E-03 0. -1.
    9000002    1    1    2    0    0  0.28364190532E+00 -0.53499319281E-01  0.88640066848E-01  0.98540142534E+00  0.93800000000E+00 0.  1.
         22    1    1    2    0    0 -0.18375843890E+00  0.26718223331E+00  0.26061161495E+01  0.26262130330E+01  0.00000000000E+00 0. -1.
</event>
<event>
 5    1  0.1173395E+001  0.1574311E+01  0.7818608E-02  0.3381727E+00
         11   -1    0    0    0    0  0.00000000000E+00  0.00000000000E+00  0.39999999674E+01  0.40000000000E+01  0.51100000000E-03 0. -1.
    9000002   -1    0    0    0    0 -0.00000000000E+00 -0.00000000000E+00  0.00000000000E+00  0.93800000000E+00  0.93800000000E+00 0.  1.
         11    1    1    2    0    0  0.70996875945E-02 -0.23305813391E+00  0.13498738672E+01  0.13698635764E+01  0.51100000000E-03 0. -1.
    9000002    1    1    2    0    0 -0.31511112057E+00  0.23510206292E+00  0.12548214835E+00  0.10247720565E+01  0.93800000000E+00 0.  1.
         22    1    1    2    0    0  0.30801143297E+00 -0.20439290149E-02  0.25246439518E+01  0.25433643671E+01  0.00000000000E+00 0. -1.
</event>
<event>
 5    1  0.1173395E+001  0.1575010E+01  0.7818608E-02  0.3380941E+00
         11   -1    0    0    0    0  0.00000000000E+00  0.00000000000E+00  0.39999999674E+01  0.40000000000E+01  0.51100000000E-03 0.  1.
    9000002   -1    0    0    0    0 -0.00000000000E+00 -0.00000000000E+00  0.00000000000E+00  0.93800000000E+00  0.93800000000E+00 0.  1.
         11    1    1    2    0    0  0.31553076560E+00 -0.14064233185E+00  0.14077257581E+01  0.14494937050E+01  0.51100000000E-03 0.  1.
    9000002    1    1    2    0    0 -0.53489199638E+00 -0.48552050389E-02  0.22039654404E+00  0.11020669932E+01  0.93800000000E+00 0.  1.
         22    1    1    2    0    0  0.21936123079E+00  0.14549753688E+00  0.23718776652E+01  0.23864393019E+01  0.00000000000E+00 0.  1.
</event>
<event>
 5    1  0.1173395E+001  0.1469375E+01  0.7818608E-02  0.3508606E+00
         11   -1    0    0    0    0  0.00000000000E+00  0.00000000000E+00  0.39999999674E+01  0.40000000000E+01  0.51100000000E-03 0. -1.
    9000002   -1    0    0    0    0 -0.00000000000E+00 -0.00000000000E+00  0.00000000000E+00  0.93800000000E+00  0.93800000000E+00 0. -1.
         11    1    1    2    0    0 -0.40042996122E+00  0.11630453282E+00  0.73430697985E+00  0.84443939982E+00  0.51100000000E-03 0. -1.
    9000002    1    1    2    0    0  0.94748599195E-01  0.56697992113E-01  0.14783037909E+00  0.95597582623E+00  0.93800000000E+00 0. -1.
         22    1    1    2    0    0  0.30568136202E+00 -0.17300252494E+00  0.31178626084E+01  0.31375847739E+01  0.00000000000E+00 0. -1.
</event>
<event>
 5    1  0.1173395E+001  0.9992654E+00  0.7818608E-02  0.4590051E+00
         11   -1    0    0    0    0  0.00000000000E+00  0.00000000000E+00  0.39999999674E+01  0.40000000000E+01  0.51100000000E-03 0. -1.
    9000002   -1    0    0    0    0 -0.00000000000E+00 -0.00000000000E+00  0.00000000000E+00  0.93800000000E+00  0.93800000000E+00 0. -1.
         11    1    1    2    0    0 -0.67176301155E+00 -0.10860247219E+00  0.21243987693E+00  0.71287516655E+00  0.51100000000E-03 0. -1.
    9000002    1    1    2    0    0  0.11993090979E+00 -0.16555092131E+00  0.10655146510E+01  0.14342091905E+01  0.93800000000E+00 0.  1.
         22    1    1    2    0    0  0.55183210176E+00  0.27415339350E+00  0.27220454394E+01  0.27909156429E+01  0.00000000000E+00 0. -1.
</event>
<event>
 5    1  0.1173395E+001  0.1478362E+01  0.7818608E-02  0.3496980E+00
         11   -1    0    0    0    0  0.00000000000E+00  0.00000000000E+00  0.39999999674E+01  0.40000000000E+01  0.51100000000E-03 0.  1.
    9000002   -1    0    0    0    0 -0.00000000000E+00 -0.00000000000E+00  0.00000000000E+00  0.93800000000E+00  0.93800000000E+00 0.  1.
         11    1    1    2    0    0  0.28845896583E+00 -0.27326935704E+00  0.10008457147E+01  0.10768366275E+01  0.51100000000E-03 0.  1.
    9000002    1    1    2    0    0 -0.76318761548E-02  0.15126517114E+00  0.11075677062E+00  0.95658269887E+00  0.93800000000E+00 0.  1.
         22    1    1    2    0    0 -0.28082708967E+00  0.12200418590E+00  0.28883974820E+01  0.29045806737E+01  0.00000000000E+00 0.  1.
</event>
<event>
 5    1  0.1173395E+001  0.1508967E+01  0.7818608E-02  0.3458508E+00
         11   -1    0    0    0    0  0.00000000000E+00  0.00000000000E+00  0.39999999674E+01  0.40000000000E+01  0.51100000000E-03 0.  1.
    9000002   -1    0    0    0    0 -0.00000000000E+00 -0.00000000000E+00  0.00000000000E+00  0.93800000000E+00  0.93800000000E+00 0.  1.
         11    1    1    2    0    0  0.13214567548E+00  0.23964818539E+00  0.83506273971E+00  0.87876263728E+00  0.51100000000E-03 0.  1.
    9000002    1    1    2    0    0  0.16860238572E+00  0.32218705333E-01  0.90139551955E-01  0.95782772369E+00  0.93800000000E+00 0.  1.
         22    1    1    2    0    0 -0.30074806120E+00 -0.27186689073E+00  0.30747976757E+01  0.31014096390E+01  0.00000000000E+00 0.  1.
</event>
<event>
 5    1  0.1173395E+001  0.1463345E+01  0.7818608E-02  0.3516494E+00
         11   -1    0    0    0    0  0.00000000000E+00  0.00000000000E+00  0.39999999674E+01  0.40000000000E+01  0.51100000000E-03 0. -1.
    9000002   -1    0    0    0    0 -0.00000000000E+00 -0.00000000000E+00  0.00000000000E+00  0.93800000000E+00  0.93800000000E+00 0. -1.
         11    1    1    2    0    0  0.11205450580E+00 -0.32432631706E+00  0.49880175520E+00  0.60543143652E+00  0.51100000000E-03 0. -1.
    9000002    1    1    2    0    0  0.17523301674E+00  0.67462384402E-01  0.16081951108E+00  0.97003334922E+00  0.93800000000E+00 0. -1.
         22    1    1    2    0    0 -0.28728752254E+00  0.25686393266E+00  0.33403787011E+01  0.33625352143E+01  0.00000000000E+00 0.  1.
</event>
<event>
 5    1  0.1173395E+001  0.1564848E+01  0.7818608E-02  0.3392423E+00
         11   -1    0    0    0    0  0.00000000000E+00  0.00000000000E+00  0.39999999674E+01  0.40000000000E+01  0.51100000000E-03 0.  1.
    9000002   -1    0    0    0    0 -0.00000000000E+00 -0.00000000000E+00  0.00000000000E+00  0.93800000000E+00  0.93800000000E+00 0. -1.
         11    1    1    2    0    0  0.10042755765E+00 -0.15987729366E+00  0.14428051548E+01  0.14551059821E+01  0.51100000000E-03 0.  1.
    9000002    1    1    2    0    0 -0.34010543390E-01 -0.10291359202E+00  0.33657161136E-01  0.94484111309E+00  0.93800000000E+00 0. -1.
         22    1    1    2    0    0 -0.66417014257E-01  0.26279088568E+00  0.25235376515E+01  0.25380529048E+01  0.00000000000E+00 0.  1.
</event>
<event>
 5    1  0.1173395E+001  0.1532962E+01  0.7818608E-02  0.3429501E+00
         11   -1    0    0    0    0  0.00000000000E+00  0.00000000000E+00  0.39999999674E+01  0.40000000000E+01  0.51100000000E-03 0. -1.
    9000002   -1    0    0    0    0 -0.00000000000E+00 -0.00000000000E+00  0.00000000000E+00  0.93800000000E+00  0.93800000000E+00 0.  1.
         11    1    1    2    0    0 -0.51984075571E-01 -0.30566435991E+00  0.13015642600E+01  0.13379846146E+01  0.51100000000E-03 0. -1.
    9000002    1    1    2    0    0  0.11100140595E+00  0.39528674545E-01  0.59720107651E-01  0.94725620584E+00  0.93800000000E+00 0.  1.
         22    1    1    2    0    0 -0.59017330383E-01  0.26613568536E+00  0.26387155997E+01  0.26527591795E+01  0.00000000000E+00 0. -1.
</event>
<event>
 5    1  0.1173395E+001  0.1551958E+01  0.7818608E-02  0.3407217E+00
         11   -1    0    0    0    0  0.00000000000E+00  0.00000000000E+00  0.39999999674E+01  0.40000000000E+01  0.51100000000E-03 0.  1.
    9000002   -1    0    0    0    0 -0.00000000000E+00 -0.00000000000E+00  0.00000000000E+00  0.93800000000E+00  0.93800000000E+00 0.  1.
         11    1    1    2    0    0  0.12317013361E+00  0.20281855133E+00  0.14018479480E+01  0.14217890762E+01  0.51100000000E-03 0.  1.
    9000002    1    1    2    0    0 -0.19067558274E+00  0.12038600848E+00  0.70731189803E-01  0.96731425613E+00  0.93800000000E+00 0.  1.
         22    1    1    2    0    0  0.67505449128E-01 -0.32320455982E+00  0.25274208295E+01  0.25488966677E+01  0.00000000000E+00 0.  1.
</event>
<event>
 5    1  0.1173395E+001  0.1598022E+01  0.7818608E-02  0.3355513E+00
         11   -1    0    0    0    0  0.00000000000E+00  0.00000000000E+00  0.39999999674E+01  0.40000000000E+01  0.51100000000E-03 0. -1.
    9000002   -1    0    0    0    0 -0.00000000000E+00 -0.00000000000E+00  0.00000000000E+00  0.93800000000E+00  0.93800000000E+00 0. -1.
         11    1    1    2    0    0  0.28446021195E-01 -0.65992109960E-01  0.12878704748E+01  0.12898739301E+01  0.51100000000E-03 0. -1.
    9000002    1    1    2    0    0 -0.12985285837E+00  0.33379745917E+00  0.87433348695E-01  0.10078547014E+01  0.93800000000E+00 0. -1.
         22    1    1    2    0    0  0.10140683717E+00 -0.26780534921E+00  0.26246961439E+01  0.26402713685E+01  0.00000000000E+00 0. -1.
</event>
<event>
 5    1  0.1173395E+001  0.1501113E+01  0.7818608E-02  0.3468220E+00
         11   -1    0    0    0    0  0.00000000000E+00  0.00000000000E+00  0.39999999674E+01  0.40000000000E+01  0.51100000000E-03 0. -1.
    9000002   -1    0    0    0    0 -0.00000000000E+00 -0.00000000000E+00  0.00000000000E+00  0.93800000000E+00  0.93800000000E+00 0.  1.
         11    1    1    2    0    0  0.31477839985E+00  0.86362670196E-01  0.64653057950E+00  0.72425548198E+00  0.51100000000E-03 0. -1.
    9000002    1    1    2    0    0 -0.13018827150E+00 -0.49863173187E+00  0.27865390286E+00  0.11059270264E+01  0.93800000000E+00 0.  1.
         22    1    1    2    0    0 -0.18459012836E+00  0.41226906167E+00  0.30748154850E+01  0.31078174917E+01  0.00000000000E+00 0. -1.
</event>
<event>
 5    1  0.1173395E+001  0.1506862E+01  0.7818608E-02  0.3461100E+00
         11   -1    0    0    0    0  0.00000000000E+00  0.00000000000E+00  0.39999999674E+01  0.40000000000E+01  0.51100000000E-03 0. -1.
    9000002   -1    0    0    0    0 -0.00000000000E+00 -0.00000000000E+00  0.00000000000E+00  0.93800000000E+00  0.93800000000E+00 0. -1.
         11    1    1    2    0    0 -0.24487780184E+00  0.30464096676E+00  0.12549128699E+01  0.13143735499E+01  0.51100000000E-03 0. -1.
    9000002    1    1    2    0    0 -0.85423546203E-03 -0.19540694790E+00  0.98248647272E-01  0.96316218868E+00  0.93800000000E+00 0. -1.
         22    1    1    2    0    0  0.24573203730E+00 -0.10923401886E+00  0.26468384502E+01  0.26604642614E+01  0.00000000000E+00 0. -1.
</event>
<event>
 5    1  0.1173395E+001  0.1594801E+01  0.7818608E-02  0.3359025E+00
         11   -1    0    0    0    0  0.00000000000E+00  0.00000000000E+00  0.39999999674E+01  0.40000000000E+01  0.51100000000E-03 0.  1.
    9000002   -1    0    0    0    0 -0.00000000000E+00 -0.00000000000E+00  0.00000000000E+00  0.93800000000E+00  0.93800000000E+00 0. -1.
         11    1    1    2    0    0  0.11049928105E+00  0.31104506478E-01  0.14731977164E+01  0.14776634779E+01  0.51100000000E-03 0.  1.
    9000002    1    1    2    0    0 -0.19404652844E+00 -0.27496024359E+00  0.79734212447E-01  0.99972933106E+00  0.93800000000E+00 0. -1.
         22    1    1    2    0    0  0.83547247393E-01  0.24385573711E+00  0.24470680386E+01  0.24606071910E+01  0.00000000000E+00 0.  1.
</event>
<event>
 5    1  0.1173395E+001  0.1538450E+01  0.7818608E-02  0.3423002E+00
         11   -1    0    0    0    0  0.00000000000E+00  0.00000000000E+00  0.39999999674E+01  0.40000000000E+01  0.51100000000E-03 0. -1.
    9000002   -1    0    0    0    0 -0.00000000000E+00 -0.00000000000E+00  0.00000000000E+00  0.93800000000E+00  0.93800000000E+00 0.  1.
         11    1    1    2    0    0  0.70186155367E-01 -0.37846193120E+00  0.13716973464E+01  0.14246801048E+01  0.51100000000E-03 0. -1.
    9000002    1    1    2    0    0  0.17455615850E+00  0.34791290152E+00  0.15448843960E+00  0.10272409248E+01  0.93800000000E+00 0.  1.
         22    1    1    2    0    0 -0.24474231387E+00  0.30549029678E-01  0.24738141814E+01  0.24860789705E+01  0.00000000000E+00 0. -1.
</event>
<event>
 5    1  0.1173395E+001  0.1569328E+01  0.7818608E-02  0.3387341E+00
         11   -1    0    0    0    0  0.00000000000E+00  0.00000000000E+00  0.39999999674E+01  0.40000000000E+01  0.51100000000E-03 0. -1.
    9000002   -1    0    0    0    0 -0.00000000000E+00 -0.00000000000E+00  0.00000000000E+00  0.93800000000E+00  0.93800000000E+00 0.  1.
         11    1    1    2    0    0  0.16711618139E+00  0.88339955154E-01  0.14606582770E+01  0.14728389692E+01  0.51100000000E-03 0. -1.
    9000002    1    1    2    0    0 -0.15196106042E-01  0.90427558559E-01  0.28001803378E-01  0.94288714382E+00  0.93800000000E+00 0.  1.
         22    1    1    2    0    0 -0.15192007535E+00 -0.17876751371E+00  0.25113398870E+01  0.25222738870E+01  0.00000000000E+00 0.  1.
</event>
<event>
 5    1  0.1173395E+001  0.1567324E+01  0.7818608E-02  0.3389611E+00
         11   -1    0    0    0    0  0.00000000000E+00  0.00000000000E+00  0.39999999674E+01  0.40000000000E+01  0.51100000000E-03 0.  1.
    9000002   -1    0    0    0    0 -0.00000000000E+00 -0.00000000000E+00  0.00000000000E+00  0.93800000000E+00  0.93800000000E+00 0. -1.
         11    1    1    2    0    0  0.15702441826E+00  0.37853263781E-03  0.10065883966E+01  0.10187626183E+01  0.51100000000E-03 0.  1.
    9000002    1    1    2    0    0  0.11999437221E+00 -0.77825754118E-01  0.37728474948E-01  0.94959093045E+00  0.93800000000E+00 0. -1.
         22    1    1    2    0    0 -0.27701879047E+00  0.77447221480E-01  0.29556830958E+01  0.29696464512E+01  0.00000000000E+00 0.  1.
</event>
<event>
 5    1  0.1173395E+001  0.1570128E+01  0.7818608E-02  0.3386438E+00
         11   -1    0    0    0    0  0.00000000000E+00  0.00000000000E+00  0.39999999674E+01  0.40000000000E+01  0.51100000000E-03 0. -1.
    9000002   -1    0    0    0    0 -0.00000000000E+00 -0.00000000000E+00  0.00000000000E+00  0.93800000000E+00  0.93800000000E+00 0.  1.
         11    1    1    2    0    0 -0.11206177693E+00  0.86446898527E-01  0.14482403851E+01  0.14551396436E+01  0.51100000000E-03 0. -1.
    9000002    1    1    2    0    0 -0.40138622433E-01  0.18391806592E+00  0.45833520873E-01  0.95780043622E+00  0.93800000000E+00 0.  1.
         22    1    1    2    0    0  0.15220039937E+00 -0.27036496444E+00  0.25059260614E+01  0.25250599202E+01  0.00000000000E+00 0. -1.
</event>
<event>
 5    1  0.1173395E+001  0.1535121E+01  0.7818608E-02  0.3426938E+00
         11   -1    0    0    0    0  0.00000000000E+00  0.00000000000E+00  0.39999999674E+01  0.40000000000E+01  0.51100000000E-03 0. -1.
    9000002   -1    0    0    0    0 -0.00000000000E+00 -0.00000000000E+00  0.00000000000E+00  0.93800000000E+00  0.93800000000E+00 0. -1.
         11    1    1    2    0    0 -0.23498454584E+00  0.17014376949E+00  0.11666697424E+01  0.12022001447E+01  0.51100000000E-03 0. -1.
    9000002    1    1    2    0    0 -0.11476437415E-01 -0.79892989861E-01  0.52838444242E-01  0.94294777142E+00  0.93800000000E+00 0. -1.
         22    1    1    2    0    0  0.24646098325E+00 -0.90250779633E-01  0.27804917807E+01  0.27928520839E+01  0.00000000000E+00 0. -1.
</event>
<event>
 5    1  0.1173395E+001  0.1098027E+01  0.7818608E-02  0.4260034E+00
         11   -1    0    0    0    0  0.00000000000E+00  0.00000000000E+00  0.39999999674E+01  0.40000000000E+01  0.51100000000E-03 0. -1.
    9000002   -1    0    0    0    0 -0.00000000000E+00 -0.00000000000E+00  0.00000000000E+00  0.93800000000E+00  0.93800000000E+00 0.  1.
         11    1    1    2    0    0  0.57173218512E+00 -0.33957946759E+00  0.42111943575E+00  0.78710466051E+00  0.51100000000E-03 0. -1.
    9000002    1    1    2    0    0 -0.25000365636E+00 -0.13391121619E+00  0.67208127906E+00  0.11882639806E+01  0.93800000000E+00 0.  1.
         22    1    1    2    0    0 -0.32172852876E+00  0.47349068378E+00  0.29067992525E+01  0.29626313589E+01  0.00000000000E+00 0. -1.
</event>
<event>
 5    1  0.1173395E+001  0.1463788E+01  0.7818608E-02  0.3515912E+00
         11   -1    0    0    0    0  0.00000000000E+00  0.00000000000E+00  0.39999999674E+01  0.40000000000E+01  0.51100000000E-03 0. -1.
    9000002   -1    0    0    0    0 -0.00000000000E+00 -0.00000000000E+00  0.00000000000E+00  0.93800000000E+00  0.93800000000E+00 0.  1.
         11    1    1    2    0    0 -0.18871543916E+00 -0.35931285555E+00  0.11573409139E+01  0.12264409881E+01  0.51100000000E-03 0. -1.
    9000002    1    1    2    0    0  0.14371273313E+00 -0.72109455095E-01  0.12541289671E+00  0.95990911957E+00  0.93800000000E+00 0.  1.
         22    1    1    2    0    0  0.45002706027E-01  0.43142231064E+00  0.27172461567E+01  0.27516498923E+01  0.00000000000E+00 0. -1.
</event>
<event>
 5    1  0.1173395E+001  0.1514703E+01  0.7818608E-02  0.3451484E+00
         11   -1    0    0    0    0  0.00000000000E+00  0.00000000000E+00  0.39999999674E+01  0.40000000000E+01  0.51100000000E-03 0. -1.
    9000002   -1    0    0    0    0 -0.00000000000E+00 -0.00000000000E+00  0.00000000000E+00  0.93800000000E+00  0.93800000000E+00 0.  1.
         11    1    1    2    0    0 -0.14480507473E+00 -0.19726486919E+00  0.56686749994E+00  0.61743093694E+00  0.51100000000E-03 0. -1.
    9000002    1    1    2    0    0  0.10408204534E+00 -0.11484999074E+00  0.81519031684E-01  0.95420801981E+00  0.93800000000E+00 0.  1.
         22    1    1    2    0    0  0.40723029392E-01  0.31211485993E+00  0.33516134357E+01  0.33663610432E+01  0.00000000000E+00 0. -1.
</event>
<event>
 5    1  0.1173395E+001  0.1445127E+01  0.7818608E-02  0.3540761E+00
         11   -1    0    0    0    0  0.00000000000E+00  0.00000000000E+00  0.39999999674E+01  0.40000000000E+01  0.51100000000E-03 0.  1.
    9000002   -1    0    0    0    0 -0.00000000000E+00 -0.00000000000E+00  0.00000000000E+00  0.93800000000E+00  0.93800000000E+00 0.  1.
         11    1    1    2    0    0  0.36259510998E+00 -0.46933619323E+00  0.12602776112E+01  0.13928573490E+01  0.51100000000E-03 0.  1.
    9000002    1    1    2    0    0 -0.58602392987E-01  0.49057145574E+00  0.32155806887E+00  0.11078529619E+01  0.93800000000E+00 0.  1.
         22    1    1    2    0    0 -0.30399271700E+00 -0.21235262512E-01  0.24181642873E+01  0.24372896891E+01  0.00000000000E+00 0.  1.
</event>
<event>
 5    1  0.1173395E+001  0.1586508E+01  0.7818608E-02  0.3368138E+00
         11   -1    0    0    0    0  0.00000000000E+00  0.00000000000E+00  0.39999999674E+01  0.40000000000E+01  0.51100000000E-03 0. -1.
    9000002   -1    0    0    0    0 -0.00000000000E+00 -0.00000000000E+00  0.00000000000E+00  0.93800000000E+00  0.93800000000E+00 0. -1.
         11    1    1    2    0    0  0.23984972225E-01  0.66567849134E-01  0.11571996732E+01  0.11593609887E+01  0.51100000000E-03 0. -1.
    9000002    1    1    2    0    0  0.32579583964E-01  0.18655148094E+00  0.33625295733E-01  0.95751634182E+00  0.93800000000E+00 0. -1.
         22    1    1    2    0    0 -0.56564556189E-01 -0.25311933008E+00  0.28091749985E+01  0.28211226695E+01  0.00000000000E+00 0. -1.
</event>
<event>
 5    1  0.1173395E+001  0.1544079E+01  0.7818608E-02  0.3416388E+00
         11   -1    0    0    0    0  0.00000000000E+00  0.00000000000E+00  0.39999999674E+01  0.40000000000E+01  0.51100000000E-03 0.  1.
    9000002   -1    0    0    0    0 -0.00000000000E+00 -0.00000000000E+00  0.00000000000E+00  0.93800000000E+00  0.93800000000E+00 0.  1.
         11    1    1    2    0    0  0.21185272321E+00 -0.98528342141E-01  0.10896128904E+01  0.11143814080E+01  0.51100000000E-03 0.  1.
    9000002    1    1    2    0    0 -0.88905615847E-01 -0.26667204671E+00  0.97048205320E-01  0.98401247105E+00  0.93800000000E+00 0.  1.
         22    1    1    2    0    0 -0.12294710736E+00  0.36520038885E+00  0.28133388717E+01  0.28396061209E+01  0.00000000000E+00 0.  1.
</event>
<event>
 5    1  0.1173395E+001  0.1580649E+01  0.7818608E-02  0.3374638E+00
         11   -1    0    0    0    0  0.00000000000E+00  0.00000000000E+00  0.39999999674E+01  0.40000000000E+01  0.51100000000E-03 0. -1.
    9000002   -1    0    0    0    0 -0.00000000000E+00 -0.00000000000E+00  0.00000000000E+00  0.93800000000E+00  0.93800000000E+00 0.  1.
         11    1    1    2    0    0  0.13640710349E+00 -0.24433349380E-01  0.11818406288E+01  0.11899375695E+01  0.51100000000E-03 0. -1.
    9000002    1    1    2    0    0  0.24703403922E-01  0.24657614526E+00  0.55458425880E-01  0.97176627364E+00  0.93800000000E+00 0.  1.
         22    1    1    2    0    0 -0.16111050742E+00 -0.22214279588E+00  0.27627009127E+01  0.27762961569E+01  0.00000000000E+00 0. -1.
</event>
<event>
 5    1  0.1173395E+001  0.1540217E+01  0.7818608E-02  0.3420920E+00
         11   -1    0    0    0    0  0.00000000000E+00  0.00000000000E+00  0.39999999674E+01  0.40000000000E+01  0.51100000000E-03 0.  1.
    9000002   -1    0    0    0    0 -0.00000000000E+00 -0.00000000000E+00  0.00000000000E+00  0.93800000000E+00  0.93800000000E+00 0.  1.
         11    1    1    2    0    0  0.10270883543E+00 -0.21783480338E+00  0.91804184750E+00  0.94910600110E+00  0.51100000000E-03 0.  1.
    9000002    1    1    2    0    0  0.10191383886E+00  0.15490923672E-01  0.51764268594E-01  0.94506610286E+00  0.93800000000E+00 0.  1.
         22    1    1    2    0    0 -0.20462267429E+00  0.20234387971E+00  0.30301938513E+01  0.30438278960E+01  0.00000000000E+00 0.  1.
</event>
<event>
 5    1  0.1173395E+001  0.1538387E+01  0.7818608E-02  0.3423076E+00
         11   -1    0    0    0    0  0.00000000000E+00  0.00000000000E+00  0.39999999674E+01  0.40000000000E+01  0.51100000000E-03 0. -1.
    9000002   -1    0    0    0    0 -0.00000000000E+00 -0.00000000000E+00  0.00000000000E+00  0.93800000000E+00  0.93800000000E+00 0.  1.
         11    1    1    2    0    0 -0.62947581411E+00 -0.80789045897E-02  0.13472287917E+01  0.14870543862E+01  0.51100000000E-03 0. -1.
    9000002    1    1    2    0    0  0.82660748623E+00  0.53646634423E-01  0.59924945650E+00  0.13874803814E+01  0.93800000000E+00 0.  1.
         22    1    1    2    0    0 -0.19713167212E+00 -0.45567729834E-01  0.20535217192E+01  0.20634652324E+01  0.00000000000E+00 0. -1.
</event>
<event>
 5    1  0.1173395E+001  0.1563053E+01  0.7818608E-02  0.3394468E+00
         11   -1    0    0    0    0  0.00000000000E+00  0.00000000000E+00  0.39999999674E+01  0.40000000000E+01  0.51100000000E-03 0.  1.
    9000002   -1    0    0    0    0 -0.00000000000E+00 -0.00000000000E+00  0.00000000000E+00  0.93800000000E+00  0.93800000000E+00 0. -1.
         11    1    1    2    0    0  0.17262918764E+00  0.10953608859E+00  0.14103596429E+01  0.14251012507E+01  0.51100000000E-03 0.  1.
    9000002    1    1    2    0    0  0.15181931609E-01  0.57724217949E-01  0.29421682056E-01  0.94035749147E+00  0.93800000000E+00 0. -1.
         22    1    1    2    0    0 -0.18781111924E+00 -0.16726030654E+00  0.25602186424E+01  0.25725412579E+01  0.00000000000E+00 0.  1.
</event>
<event>
 5    1  0.1173395E+001  0.1503914E+01  0.7818608E-02  0.3464744E+00
         11   -1    0    0    0    0  0.00000000000E+00  0.00000000000E+00  0.39999999674E+01  0.40000000000E+01  0.51100000000E-03 0. -1.
    9000002   -1    0    0    0    0 -0.00000000000E+00 -0.00000000000E+00  0.00000000000E+00  0.93800000000E+00  0.93800000000E+00 0. -1.
         11    1    1    2    0    0 -0.13752639712E+00 -0.22249286621E+00  0.52215030387E+00  0.58400152943E+00  0.51100000000E-03 0. -1.
    9000002    1    1    2    0    0  0.19940241396E+00 -0.86461102130E-01  0.10736507416E+00  0.96881789002E+00  0.93800000000E+00 0. -1.
         22    1    1    2    0    0 -0.61876016835E-01  0.30895396834E+00  0.33704845893E+01  0.33851805806E+01  0.00000000000E+00 0. -1.
</event>
<event>
 5    1  0.1173395E+001  0.1503812E+01  0.7818608E-02  0.3464870E+00
         11   -1    0    0    0    0  0.00000000000E+00  0.00000000000E+00  0.39999999674E+01  0.40000000000E+01  0.51100000000E-03 0.  1.
    9000002   -1    0    0    0    0 -0.00000000000E+00 -0.00000000000E+00  0.00000000000E+00  0.93800000000E+00  0.93800000000E+00 0. -1.
         11    1    1    2    0    0 -0.60721699263E-01 -0.17662297753E+00  0.21407265968E+00  0.28409534613E+00  0.51100000000E-03 0.  1.
    9000002    1    1    2    0    0 -0.34115469189E+00  0.20456744142E+00  0.19116461634E+00  0.10366398953E+01  0.93800000000E+00 0. -1.
         22    1    1    2    0    0  0.40187639116E+00 -0.27944463893E-01  0.35947626913E+01  0.36172647586E+01  0.00000000000E+00 0.  1.
</event>
<event>
 5    1  0.1173395E+001  0.1525507E+01  0.7818608E-02  0.3438408E+00
         11   -1    0    0    0    0  0.00000000000E+00  0.00000000000E+00  0.39999999674E+01  0.40000000000E+01  0.51100000000E-03 0.  1.
    9000002   -1    0    0    0    0 -0.00000000000E+00 -0.00000000000E+00  0.00000000000E+00  0.93800000000E+00  0.93800000000E+00 0. -1.
         11    1    1    2    0    0 -0.22358454996E+00  0.42266328634E-01  0.63833872371E+00  0.67768213849E+00  0.51100000000E-03 0.  1.
    9000002    1    1    2    0    0 -0.99363138668E-01  0.20715964311E-02  0.62744685504E-01  0.94533497788E+00  0.93800000000E+00 0. -1.
         22    1    1    2    0    0  0.32294768863E+00 -0.44337925065E-01  0.32989165581E+01  0.33149828836E+01  0.00000000000E+00 0.  1.
</event>
<event>
 5    1  0.1173395E+001  0.1504247E+01  0.7818608E-02  0.3464332E+00
         11   -1    0    0    0    0  0.00000000000E+00  0.00000000000E+00  0.39999999674E+01  0.40000000000E+01  0.51100000000E-03 0.  1.
    9000002   -1    0    0    0    0 -0.00000000000E+00 -0.00000000000E+00  0.00000000000E+00  0.93800000000E+00  0.93800000000E+00 0.  1.
         11    1    1    2    0    0  0.37735908380E+00  0.10927053050E+00  0.12722050906E+01  0.13314826249E+01  0.51100000000E-03 0.  1.
    9000002    1    1    2    0    0 -0.95315763423E-01 -0.17284088947E+00  0.10098777436E+00  0.96384728998E+00  0.93800000000E+00 0.  1.
         22    1    1    2    0    0 -0.28204332037E+00  0.63570358970E-01  0.26268071025E+01  0.26426700851E+01  0.00000000000E+00 0.  1.
</event>
<event>
 5    1  0.1173395E+001  0.1496666E+01  0.7818608E-02  0.3473767E+00
         11   -1    0    0    0    0  0.00000000000E+00  0.00000000000E+00  0.39999999674E+01  0.40000000000E+01  0.51100000000E-03 0.  1.
    9000002   -1    0    0    0    0 -0.00000000000E+00 -0.00000000000E+00  0.00000000000E+00  0.93800000000E+00  0.93800000000E+00 0.  1.
         11    1    1    2    0    0  0.18883932674E+00  0.35153553655E+00  0.12630228513E+01  0.13245620064E+01  0.51100000000E-03 0.  1.
    9000002    1    1    2    0    0  0.56470067857E-01 -0.16418810652E+00  0.10079275725E+00  0.95924438117E+00  0.93800000000E+00 0.  1.
         22    1    1    2    0    0 -0.24530939460E+00 -0.18734743003E+00  0.26361843588E+01  0.26541936124E+01  0.00000000000E+00 0.  1.
</event>
<event>
 5    1  0.1173395E+001  0.1522965E+01  0.7818608E-02  0.3441467E+00
         11   -1    0    0    0    0  0.00000000000E+00  0.00000000000E+00  0.39999999674E+01  0.40000000000E+01  0.51100000000E-03 0. -1.
    9000002   -1    0    0    0    0 -0.00000000000E+00 -0.00000000000E+00  0.00000000000E+00  0.93800000000E+00  0.93800000000E+00 0.  1.
         11    1    1    2    0    0  0.34046281480E+00  0.30385421778E-01  0.13900510496E+01  0.14314609264E+01  0.51100000000E-03 0. -1.
    9000002    1    1    2    0    0 -0.68833548824E-01  0.39206243831E-01  0.62184423370E-01  0.94339074063E+00  0.93800000000E+00 0.  1.
         22    1    1    2    0    0 -0.27162926598E+00 -0.69591665610E-01  0.25477644944E+01  0.25631483330E+01  0.00000000000E+00 0. -1.
</event>
<event>
 5    1  0.1173395E+001  0.1592637E+01  0.7818608E-02  0.3361394E+00
         11   -1    0    0    0    0  0.00000000000E+00  0.00000000000E+00  0.39999999674E+01  0.40000000000E+01  0.51100000000E-03 0. -1.
    9000002   -1    0    0    0    0 -0.00000000000E+00 -0.00000000000E+00  0.00000000000E+00  0.93800000000E+00  0.93800000000E+00 0.  1.
         11    1    1    2    0    0 -0.37570234404E-01 -0.17555549110E+00  0.91459620272E+00  0.93205028197E+00  0.51100000000E-03 0. -1.
    9000002    1    1    2    0    0  0.31672917584E+00  0.40816186218E+00  0.18970446107E+00  0.10875409230E+01  0.93800000000E+00 0.  1.
         22    1    1    2    0    0 -0.27915894144E+00 -0.23260637108E+00  0.28956993036E+01  0.29184087951E+01  0.00000000000E+00 0. -1.
</event>
<event>
 5    1  0.1173395E+001  0.1547600E+01  0.7818608E-02  0.3412277E+00
         11   -1    0    0    0    0  0.00000000000E+00  0.00000000000E+00  0.39999999674E+01  0.40000000000E+01  0.51100000000E-03 0.  1.
    9000002   -1    0    0    0    0 -0.00000000000E+00 -0.00000000000E+00  0.00000000000E+00  0.93800000000E+00  0.93800000000E+00 0.  1.
         11    1    1    2    0    0  0.33288657950E-01 -0.16639981609E+00  0.55800219570E+00  0.58323558282E+00  0.51100000000E-03 0.  1.
    9000002    1    1    2    0    0  0.48185240533E-01 -0.15376382742E+00  0.56745715918E-01  0.95343023253E+00  0.93800000000E+00 0.  1.
         22    1    1    2    0    0 -0.81473898483E-01  0.32016364351E+00  0.33852520557E+01  0.34013341846E+01  0.00000000000E+00 0.  1.
</event>
<event>
 5    1  0.1173395E+001  0.1571232E+01  0.7818608E-02  0.3385192E+00
         11   -1    0    0    0    0  0.00000000000E+00  0.00000000000E+00  0.39999999674E+01  0.40000000000E+01  0.51100000000E-03 0. -1.
    9000002   -1    0    0    0    0 -0.00000000000E+00 -0.00000000000E+00  0.00000000000E+00  0.93800000000E+00  0.93800000000E+00 0.  1.
         11    1    1    2    0    0  0.12967893163E+00 -0.41677631362E-01  0.83305733658E+00  0.84411991886E+00  0.51100000000E-03 0. -1.
    9000002    1    1    2    0    0  0.89329095694E-01 -0.14983419459E+00  0.41561926661E-01  0.95498762660E+00  0.93800000000E+00 0.  1.
         22    1    1    2    0    0 -0.21900802733E+00  0.19151182595E+00  0.31253807041E+01  0.31388924545E+01  0.00000000000E+00 0. -1.
</event>
<event>
 5    1  0.1173395E+001  0.1580537E+01  0.7818608E-02  0.3374762E+00
         11   -1    0    0    0    0  0.00000000000E+00  0.00000000000E+00  0.39999999674E+01  0.40000000000E+01  0.51100000000E-03 0.  1.
    9000002   -1    0    0    0    0 -0.00000000000E+00 -0.00000000000E+00  0.00000000000E+00  0.93800000000E+00  0.93800000000E+00 0. -1.
         11    1    1    2    0    0 -0.57787420243E-03  0.18558684349E+00  0.13671594645E+01  0.13796985442E+01  0.51100000000E-03 0.  1.
    9000002    1    1    2    0    0 -0.31693129701E+00 -0.20701723967E+00  0.11226625583E+00  0.10177176901E+01  0.93800000000E+00 0. -1.
         22    1    1    2    0    0  0.31750917122E+00  0.21430396176E-01  0.25205742470E+01  0.25405837657E+01  0.00000000000E+00 0.  1.
</event>
<event>
 5    1  0.1173395E+001  0.1566356E+01  0.7818608E-02  0.3390709E+00
         11   -1    0    0    0    0  0.00000000000E+00  0.00000000000E+00  0.39999999674E+01  0.40000000000E+01  0.51100000000E-03 0. -1.
    9000002   -1    0    0    0    0 -0.00000000000E+00 -0.00000000000E+00  0.00000000000E+00  0.93800000000E+00  0.93800000000E+00 0. -1.
         11    1    1    2    0    0 -0.22358256954E+00 -0.26446442467E+00  0.12323327271E+01  0.12800682828E+01  0.51100000000E-03 0. -1.
    9000002    1    1    2    0    0  0.10850192522E+00  0.53664923892E+00  0.23903629228E+00  0.11120914632E+01  0.93800000000E+00 0. -1.
         22    1    1    2    0    0  0.11508064432E+00 -0.27218481425E+00  0.25286309480E+01  0.25458402540E+01  0.00000000000E+00 0. -1.
</event>
<event>
 5    1  0.1173395E+001  0.1583427E+01  0.7818608E-02  0.3371550E+00
         11   -1    0    0    0    0  0.00000000000E+00  0.00000000000E+00  0.39999999674E+01  0.40000000000E+01  0.51100000000E-03 0.  1.
    9000002   -1    0    0    0    0 -0.00000000000E+00 -0.00000000000E+00  0.00000000000E+00  0.93800000000E+00  0.93800000000E+00 0.  1.
         11    1    1    2    0    0 -0.60533846806E-01 -0.82005479967E-01  0.10429385884E+01  0.10479076322E+01  0.51100000000E-03 0.  1.
    9000002    1    1    2    0    0 -0.24637984020E+00  0.12085699604E+00  0.62790144761E-01  0.97933448904E+00  0.93800000000E+00 0.  1.
         22    1    1    2    0    0  0.30691368700E+00 -0.38851516072E-01  0.28942712342E+01  0.29107578787E+01  0.00000000000E+00 0.  1.
</event>
<event>
 5    1  0.1173395E+001  0.1605197E+01  0.7818608E-02  0.3347743E+00
         11   -1    0    0    0    0  0.00000000000E+00  0.00000000000E+00  0.39999999674E+01  0.40000000000E+01  0.51100000000E-03 0.  1.
    9000002   -1    0    0    0    0 -0.00000000000E+00 -0.00000000000E+00  0.00000000000E+00  0.93800000000E+00  0.93800000000E+00 0.  1.
         11    1    1    2    0    0  0.16978328178E+00  0.12206438624E+00 -0.12857606965E-01  0.20950335639E+00  0.51100000000E-03 0.  1.
    9000002    1    1    2    0    0  0.17906459634E-01  0.15937537804E+00  0.29644096018E+00  0.99671580468E+00  0.93800000000E+00 0.  1.
         22    1    1    2    0    0 -0.18768974141E+00 -0.28143976428E+00  0.37164166141E+01  0.37317808389E+01  0.00000000000E+00 0.  1.
</event>
<event>
 5    1  0.1173395E+001  0.1553391E+01  0.7818608E-02  0.3405559E+00
         11   -1    0    0    0    0  0.00000000000E+00  0.00000000000E+00  0.39999999674E+01  0.40000000000E+01  0.51100000000E-03 0.  1.
    9000002   -1    0    0    0    0 -0.00000000000E+00 -0.00000000000E+00  0.00000000000E+00  0.93800000000E+00  0.93800000000E+00 0.  1.
         11    1    1    2    0    0  0.11985853377E+00  0.33337732879E+00  0.11824896972E+01  0.12344183475E+01  0.51100000000E-03 0.  1.
    9000002    1    1    2    0    0 -0.35939820075E+00 -0.29595518948E+00  0.18923481920E+00  0.10641477142E+01  0.93800000000E+00 0.  1.
         22    1    1    2    0    0  0.23953966698E+00 -0.37422139307E-01  0.26282754509E+01  0.26394339383E+01  0.00000000000E+00 0.  1.
</event>
<event>
 5    1  0.1173395E+001  0.1559880E+01  0.7818608E-02  0.3398093E+00
         11   -1    0    0    0    0  0.00000000000E+00  0.00000000000E+00  0.39999999674E+01  0.40000000000E+01  0.51100000000E-03 0. -1.
    9000002   -1    0    0    0    0 -0.00000000000E+00 -0.00000000000E+00  0.00000000000E+00  0.93800000000E+00  0.93800000000E+00 0.  1.
         11    1    1    2    0    0  0.19960607398E+00 -0.38974915232E-02  0.11151260904E+01  0.11328566696E+01  0.51100000000E-03 0. -1.
    9000002    1    1    2    0    0  0.53260898401E-01 -0.75163706288E-01  0.35189303364E-01  0.94316944030E+00  0.93800000000E+00 0.  1.
         22    1    1    2    0    0 -0.25286697238E+00  0.79061197811E-01  0.28496845736E+01  0.28619738901E+01  0.00000000000E+00 0. -1.
</event>
<event>
 5    1  0.1173395E+001  0.1485649E+01  0.7818608E-02  0.3487665E+00
         11   -1    0    0    0    0  0.00000000000E+00  0.00000000000E+00  0.39999999674E+01  0.40000000000E+01  0.51100000000E-03 0. -1.
    9000002   -1    0    0    0    0 -0.00000000000E+00 -0.00000000000E+00  0.00000000000E+00  0.93800000000E+00  0.93800000000E+00 0.  1.
         11    1    1    2    0    0 -0.41895195063E+00 -0.75618279217E-01  0.13477593136E+01  0.14133981356E+01  0.51100000000E-03 0. -1.
    9000002    1    1    2    0    0  0.87272267360E-01  0.21526755743E+00  0.12792752958E+00  0.97476459864E+00  0.93800000000E+00 0.  1.
         22    1    1    2    0    0  0.33167968326E+00 -0.13964927821E+00  0.25243131242E+01  0.25498372658E+01  0.00000000000E+00 0. -1.
</event>
<event>
 5    1  0.1173395E+001  0.1519516E+01  0.7818608E-02  0.3445635E+00
         11   -1    0    0    0    0  0.00000000000E+00  0.00000000000E+00  0.39999999674E+01  0.40000000000E+01  0.51100000000E-03 0. -1.
    9000002   -1    0    0    0    0 -0.00000000000E+00 -0.00000000000E+00  0.00000000000E+00  0.93800000000E+00  0.93800000000E+00 0.  1.
         11    1    1    2    0    0 -0.16660676762E+00 -0.37727480273E+00  0.47435138503E+00  0.62857266039E+00  0.51100000000E-03 0. -1.
    9000002    1    1    2    0    0  0.11584557497E-01  0.11364517546E+00  0.19509335261E+00  0.96486001270E+00  0.93800000000E+00 0.  1.
         22    1    1    2    0    0  0.15502221012E+00  0.26362962727E+00  0.33305552297E+01  0.33445673269E+01  0.00000000000E+00 0. -1.
</event>
<event>
 5    1  0.1173395E+001  0.1507963E+01  0.7818608E-02  0.3459744E+00
         11   -1    0    0    0    0  0.00000000000E+00  0.00000000000E+00  0.39999999674E+01  0.40000000000E+01  0.51100000000E-03 0.  1.
    9000002   -1    0    0    0    0 -0.00000000000E+00 -0.00000000000E+00  0.00000000000E+00  0.93800000000E+00  0.93800000000E+00 0. -1.
         11    1    1    2    0    0  0.14226014749E+00 -0.21291097235E+00  0.67392422293E+00  0.72093214042E+00  0.51100000000E-03 0.  1.
    9000002    1    1    2    0    0  0.11455000127E+00 -0.70562236598E-01  0.82684916390E-01  0.95120004595E+00  0.93800000000E+00 0. -1.
         22    1    1    2    0    0 -0.25681014876E+00  0.28347320895E+00  0.32433908280E+01  0.32658678136E+01  0.00000000000E+00 0.  1.
</event>
<event>
 5    1  0.1173395E+001  0.1494956E+01  0.7818608E-02  0.3475910E+00
         11   -1    0    0    0    0  0.00000000000E+00  0.00000000000E+00  0.39999999674E+01  0.40000000000E+01  0.51100000000E-03 0. -1.
    9000002   -1    0    0    0    0 -0.00000000000E+00 -0.00000000000E+00  0.00000000000E+00  0.93800000000E+00  0.93800000000E+00 0. -1.
         11    1    1    2    0    0 -0.49084338239E-01  0.31107985482E+00  0.29742414195E+00  0.43317586460E+00  0.51100000000E-03 0. -1.
    9000002    1    1    2    0    0 -0.16344769784E+00 -0.48509018848E-01  0.18510866423E+00  0.97117325561E+00  0.93800000000E+00 0. -1.
         22    1    1    2    0    0  0.21253203608E+00 -0.26257083597E+00  0.35174671612E+01  0.35336508798E+01  0.00000000000E+00 0. -1.
</event>
<event>
 5    1  0.1173395E+001  0.1303745E+01  0.7818608E-02  0.3774795E+00
         11   -1    0    0    0    0  0.00000000000E+00  0.00000000000E+00  0.39999999674E+01  0.40000000000E+01  0.51100000000E-03 0.  1.
    9000002   -1    0    0    0    0 -0.00000000000E+00 -0.00000000000E+00  0.00000000000E+00  0.93800000000E+00  0.93800000000E+00 0. -1.
         11    1    1    2    0    0  0.33699177985E+00  0.60292447052E+00  0.98502792145E+00  0.12030634414E+01  0.51100000000E-03 0.  1.
    9000002    1    1    2    0    0 -0.93821078077E-01 -0.32556514979E+00  0.36902085077E+00  0.10633980674E+01  0.93800000000E+00 0. -1.
         22    1    1    2    0    0 -0.24317070177E+00 -0.27735932073E+00  0.26459511951E+01  0.26715384912E+01  0.00000000000E+00 0.  1.
</event>
<event>
 5    1  0.1173395E+001  0.1495639E+01  0.7818608E-02  0.3475053E+00
         11   -1    0    0    0    0  0.00000000000E+00  0.00000000000E+00  0.39999999674E+01  0.40000000000E+01  0.51100000000E-03 0.  1.
    9000002   -1    0    0    0    0 -0.00000000000E+00 -0.00000000000E+00  0.00000000000E+00  0.93800000000E+00  0.93800000000E+00 0.  1.
         11    1    1    2    0    0 -0.30859078000E+00 -0.18301803650E+00  0.11302810797E+01  0.11858581076E+01  0.51100000000E-03 0.  1.
    9000002    1    1    2    0    0  0.14306195694E+00 -0.16979133188E+00  0.11587393345E+00  0.97085868609E+00  0.93800000000E+00 0.  1.
         22    1    1    2    0    0  0.16552882306E+00  0.35280936837E+00  0.27538449542E+01  0.27812832063E+01  0.00000000000E+00 0.  1.
</event>
<event>
 5    1  0.1173395E+001  0.1515266E+01  0.7818608E-02  0.3450798E+00
         11   -1    0    0    0    0  0.00000000000E+00  0.00000000000E+00  0.39999999674E+01  0.40000000000E+01  0.51100000000E-03 0. -1.
    9000002   -1    0    0    0    0 -0.00000000000E+00 -0.00000000000E+00  0.00000000000E+00  0.93800000000E+00  0.93800000000E+00 0. -1.
         11    1    1    2    0    0 -0.82339591060E-01 -0.16721756622E+00  0.23201842027E+00  0.29761440015E+00  0.51100000000E-03 0. -1.
    9000002    1    1    2    0    0  0.40526182131E+00 -0.14022618134E-01  0.18523375311E+00  0.10385515495E+01  0.93800000000E+00 0. -1.
         22    1    1    2    0    0 -0.32292223025E+00  0.18124018435E+00  0.35827477940E+01  0.36018340504E+01  0.00000000000E+00 0. -1.
</event>
<event>
 5    1  0.1173395E+001  0.1530738E+01  0.7818608E-02  0.3432149E+00
         11   -1    0    0    0    0  0.00000000000E+00  0.00000000000E+00  0.39999999674E+01  0.40000000000E+01  0.51100000000E-03 0.  1.
    9000002   -1    0    0    0    0 -0.00000000000E+00 -0.00000000000E+00  0.00000000000E+00  0.93800000000E+00  0.93800000000E+00 0.  1.
         11    1    1    2    0    0  0.95168266932E-01  0.25448384457E+00  0.91424728587E+00  0.95376484891E+00  0.51100000000E-03 0.  1.
    9000002    1    1    2    0    0 -0.24123261212E+00  0.49165176298E-01  0.94834245299E-01  0.97439618318E+00  0.93800000000E+00 0.  1.
         22    1    1    2    0    0  0.14606434518E+00 -0.30364902087E+00  0.29909184362E+01  0.30098389679E+01  0.00000000000E+00 0.  1.
</event>
<event>
 5    1  0.1173395E+001  0.1483714E+01  0.7818608E-02  0.3490128E+00
         11   -1    0    0    0    0  0.00000000000E+00  0.00000000000E+00  0.39999999674E+01  0.40000000000E+01  0.51100000000E-03 0.  1.
    9000002   -1    0    0    0    0 -0.00000000000E+00 -0.00000000000E+00  0.00000000000E+00  0.93800000000E+00  0.93800000000E+00 0.  1.
         11    1    1    2    0    0 -0.26873428404E+00 -0.91666057876E-01  0.50343429334E+00  0.57798540676E+00  0.51100000000E-03 0.  1.
    9000002    1    1    2    0    0  0.73845832309E-01 -0.15483014875E+00  0.11111099426E+00  0.96000793484E+00  0.93800000000E+00 0.  1.
         22    1    1    2    0    0  0.19488845174E+00  0.24649620662E+00  0.33854546798E+01  0.34000066584E+01  0.00000000000E+00 0.  1.
</event>
<event>
 5    1  0.1173395E+001  0.1516670E+01  0.7818608E-02  0.3449089E+00
         11   -1    0    0    0    0  0.00000000000E+00  0.00000000000E+00  0.39999999674E+01  0.40000000000E+01  0.51100000000E-03 0.  1.
    9000002   -1    0    0    0    0 -0.00000000000E+00 -0.00000000000E+00  0.00000000000E+00  0.93800000000E+00  0.93800000000E+00 0.  1.
         11    1    1    2    0    0 -0.28859443619E+00  0.69994545649E-01  0.12307040107E+01  0.12660247265E+01  0.51100000000E-03 0.  1.
    9000002    1    1    2    0    0 -0.10506350045E+00 -0.15781009417E+00  0.88548030526E-01  0.96105521104E+00  0.93800000000E+00 0.  1.
         22    1    1    2    0    0  0.39365793664E+00  0.87815548520E-01  0.26807479261E+01  0.27109200625E+01  0.00000000000E+00 0.  1.
</event>
<event>
 5    1  0.1173395E+001  0.1460239E+01  0.7818608E-02  0.3520585E+00
         11   -1    0    0    0    0  0.00000000000E+00  0.00000000000E+00  0.39999999674E+01  0.40000000000E+01  0.51100000000E-03 0.  1.
    9000002   -1    0    0    0    0 -0.00000000000E+00 -0.00000000000E+00  0.00000000000E+00  0.93800000000E+00  0.93800000000E+00 0. -1.
         11    1    1    2    0    0  0.37190324844E+00 -0.17041745832E+00  0.10903698183E+01  0.11645860801E+01  0.51100000000E-03 0.  1.
    9000002    1    1    2    0    0 -0.42794524189E-01 -0.64132050360E-01  0.11321654256E+00  0.94794845677E+00  0.93800000000E+00 0. -1.
         22    1    1    2    0    0 -0.32910872426E+00  0.23454950868E+00  0.27964136065E+01  0.28254654631E+01  0.00000000000E+00 0.  1.
</event>
<event>
 5    1  0.1173395E+001  0.1537719E+01  0.7818608E-02  0.3423865E+00
         11   -1    0    0    0    0  0.00000000000E+00  0.00000000000E+00  0.39999999674E+01  0.40000000000E+01  0.51100000000E-03 0. -1.
    9000002   -1    0    0    0    0 -0.00000000000E+00 -0.00000000000E+00  0.00000000000E+00  0.93800000000E+00  0.93800000000E+00 0.  1.
         11    1    1    2    0    0 -0.20308232639E+00 -0.15278071903E+00  0.11066668301E+01  0.11354717581E+01  0.51100000000E-03 0. -1.
    9000002    1    1    2    0    0  0.11021265821E+00 -0.19623998587E+00  0.82014060077E-01  0.96810498818E+00  0.93800000000E+00 0.  1.
         22    1    1    2    0    0  0.92869668178E-01  0.34902070490E+00  0.28113190772E+01  0.28344232537E+01  0.00000000000E+00 0. -1.
</event>
<event>
 5    1  0.1173395E+001  0.1553517E+01  0.7818608E-02  0.3405414E+00
         11   -1    0    0    0    0  0.00000000000E+00  0.00000000000E+00  0.39999999674E+01  0.40000000000E+01  0.51100000000E-03 0. -1.
    9000002   -1    0    0    0    0 -0.00000000000E+00 -0.00000000000E+00  0.00000000000E+00  0.93800000000E+00  0.93800000000E+00 0.  1.
         11    1    1    2    0    0 -0.21703070337E+00  0.11669260248E+00  0.13173569962E+01  0.13402049120E+01  0.51100000000E-03 0. -1.
    9000002    1    1    2    0    0 -0.25069266614E-01 -0.70914776067E-01  0.38082069328E-01  0.94178108794E+00  0.93800000000E+00 0.  1.
         22    1    1    2    0    0  0.24209996998E+00 -0.45777826413E-01  0.26445609019E+01  0.26560140001E+01  0.00000000000E+00 0. -1.
</event>
<event>
 5    1  0.1173395E+001  0.1579125E+01  0.7818608E-02  0.3376337E+00
         11   -1    0    0    0    0  0.00000000000E+00  0.00000000000E+00  0.39999999674E+01  0.40000000000E+01  0.51100000000E-03 0. -1.
    9000002   -1    0    0    0    0 -0.00000000000E+00 -0.00000000000E+00  0.00000000000E+00  0.93800000000E+00  0.93800000000E+00 0. -1.
         11    1    1    2    0    0  0.58517392847E-01 -0.68509423967E-01  0.83111526869E+00  0.83598485477E+00  0.51100000000E-03 0. -1.
    9000002    1    1    2    0    0  0.20322226708E+00 -0.13803285885E+00  0.55922729752E-01  0.97124853238E+00  0.93800000000E+00 0. -1.
         22    1    1    2    0    0 -0.26173965992E+00  0.20654228281E+00  0.31129619689E+01  0.31307666128E+01  0.00000000000E+00 0. -1.
</event>
<event>
 5    1  0.1173395E+001  0.1528776E+01  0.7818608E-02  0.3434491E+00
         11   -1    0    0    0    0  0.00000000000E+00  0.00000000000E+00  0.39999999674E+01  0.40000000000E+01  0.51100000000E-03 0. -1.
    9000002   -1    0    0    0    0 -0.00000000000E+00 -0.00000000000E+00  0.00000000000E+00  0.93800000000E+00  0.93800000000E+00 0.  1.
         11    1    1    2    0    0 -0.25568169837E-01 -0.26194248841E+00  0.91336196683E+00  0.95052508758E+00  0.51100000000E-03 0. -1.
    9000002    1    1    2    0    0 -0.39629905532E-01 -0.31400730751E-01  0.54989668740E-01  0.94096992458E+00  0.93800000000E+00 0.  1.
         22    1    1    2    0    0  0.65198075369E-01  0.29334321917E+00  0.30316483318E+01  0.30465049878E+01  0.00000000000E+00 0. -1.
</event>
<event>
 5    1  0.1173395E+001  0.1545085E+01  0.7818608E-02  0.3415212E+00
         11   -1    0    0    0    0  0.00000000000E+00  0.00000000000E+00  0.39999999674E+01  0.40000000000E+01  0.51100000000E-03 0. -1.
    9000002   -1    0    0    0    0 -0.00000000000E+00 -0.00000000000E+00  0.00000000000E+00  0.93800000000E+00  0.93800000000E+00 0.  1.
         11    1    1    2    0    0 -0.26241137535E+00 -0.11993119838E-01  0.12708005970E+01  0.12976663605E+01  0.51100000000E-03 0. -1.
    9000002    1    1    2    0    0 -0.11104768024E-02  0.64283297765E-01  0.43475058996E-01  0.94120542725E+00  0.93800000000E+00 0.  1.
         22    1    1    2    0    0  0.26352185215E+00 -0.52290177927E-01  0.26857243114E+01  0.26991282122E+01  0.00000000000E+00 0. -1.
</event>
<event>
 5    1  0.1173395E+001  0.1512677E+01  0.7818608E-02  0.3453959E+00
         11   -1    0    0    0    0  0.00000000000E+00  0.00000000000E+00  0.39999999674E+01  0.40000000000E+01  0.51100000000E-03 0.  1.
    9000002   -1    0    0    0    0 -0.00000000000E+00 -0.00000000000E+00  0.00000000000E+00  0.93800000000E+00  0.93800000000E+00 0.  1.
         11    1    1    2    0    0 -0.11589728421E+00 -0.23435065399E+00  0.73594453691E+00  0.78100386173E+00  0.51100000000E-03 0.  1.
    9000002    1    1    2    0    0 -0.11992831917E+00 -0.42348444233E-01  0.77480937049E-01  0.94974917114E+00  0.93800000000E+00 0.  1.
         22    1    1    2    0    0  0.23582560338E+00  0.27669909823E+00  0.31865744934E+01  0.32072469671E+01  0.00000000000E+00 0.  1.
</event>
<event>
 5    1  0.1173395E+001  0.1534108E+01  0.7818608E-02  0.3428140E+00
         11   -1    0    0    0    0  0.00000000000E+00  0.00000000000E+00  0.39999999674E+01  0.40000000000E+01  0.51100000000E-03 0. -1.
    9000002   -1    0    0    0    0 -0.00000000000E+00 -0.00000000000E+00  0.00000000000E+00  0.93800000000E+00  0.93800000000E+00 0. -1.
         11    1    1    2    0    0 -0.17322998418E+00 -0.25042275808E+00  0.58130528836E+00  0.65622883553E+00  0.51100000000E-03 0. -1.
    9000002    1    1    2    0    0  0.49686179463E+00  0.25118941042E+00  0.27961604072E+00  0.11260536813E+01  0.93800000000E+00 0. -1.
         22    1    1    2    0    0 -0.32363181046E+00 -0.76665233948E-03  0.31390786383E+01  0.31557174832E+01  0.00000000000E+00 0. -1.
</event>
<event>
 5    1  0.1173395E+001  0.1475919E+01  0.7818608E-02  0.3500126E+00
         11   -1    0    0    0    0  0.00000000000E+00  0.00000000000E+00  0.39999999674E+01  0.40000000000E+01  0.51100000000E-03 0. -1.
    9000002   -1    0    0    0    0 -0.00000000000E+00 -0.00000000000E+00  0.00000000000E+00  0.93800000000E+00  0.93800000000E+00 0.  1.
         11    1    1    2    0    0  0.14360717206E+00  0.39373139788E+00  0.13600586976E+01  0.14231680701E+01  0.51100000000E-03 0. -1.
    9000002    1    1    2    0    0  0.94000106085E-01 -0.84211372714E-01  0.10753706093E+00  0.95254175484E+00  0.93800000000E+00 0.  1.
         22    1    1    2    0    0 -0.23760727814E+00 -0.30952002517E+00  0.25324042088E+01  0.25622901751E+01  0.00000000000E+00 0. -1.
</event>
<event>
 5    1  0.1173395E+001  0.1555123E+01  0.7818608E-02  0.3403560E+00
         11   -1    0    0    0    0  0.00000000000E+00  0.00000000000E+00  0.39999999674E+01  0.40000000000E+01  0.51100000000E-03 0. -1.
    9000002   -1    0    0    0    0 -0.00000000000E+00 -0.00000000000E+00  0.00000000000E+00  0.93800000000E+00  0.93800000000E+00 0.  1.
         11    1    1    2    0    0  0.20134863091E+00 -0.26914028900E-01  0.14449092296E+01  0.14591191106E+01  0.51100000000E-03 0. -1.
    9000002    1    1    2    0    0  0.11625867781E+00  0.20670980857E-01  0.42573752705E-01  0.94636139716E+00  0.93800000000E+00 0.  1.
         22    1    1    2    0    0 -0.31760730872E+00  0.62430480427E-02  0.25125169850E+01  0.25325194922E+01  0.00000000000E+00 0. -1.
</event>
<event>
 5    1  0.1173395E+001  0.1552786E+01  0.7818608E-02  0.3406258E+00
         11   -1    0    0    0    0  0.00000000000E+00  0.00000000000E+00  0.39999999674E+01  0.40000000000E+01  0.51100000000E-03 0.  1.
    9000002   -1    0    0    0    0 -0.00000000000E+00 -0.00000000000E+00  0.00000000000E+00  0.93800000000E+00  0.93800000000E+00 0. -1.
         11    1    1    2    0    0 -0.40401367875E-01 -0.26639745583E+00  0.13182188891E+01  0.13454743311E+01  0.51100000000E-03 0.  1.
    9000002    1    1    2    0    0  0.37756820780E+00  0.10392716978E+00  0.14320016584E+00  0.10265032370E+01  0.93800000000E+00 0. -1.
         22    1    1    2    0    0 -0.33716683993E+00  0.16247028605E+00  0.25385809124E+01  0.25660224319E+01  0.00000000000E+00 0. -1.
</event>
<event>
 5    1  0.1173395E+001  0.1516743E+01  0.7818608E-02  0.3449000E+00
         11   -1    0    0    0    0  0.00000000000E+00  0.00000000000E+00  0.39999999674E+01  0.40000000000E+01  0.51100000000E-03 0.  1.
    9000002   -1    0    0    0    0 -0.00000000000E+00 -0.00000000000E+00  0.00000000000E+00  0.93800000000E+00  0.93800000000E+00 0. -1.
         11    1    1    2    0    0 -0.21754937000E+00  0.27766059281E+00  0.61606910605E+00  0.70990459763E+00  0.51100000000E-03 0.  1.
    9000002    1    1    2    0    0  0.11877588277E+00 -0.56505560629E+00  0.31704839471E+00  0.11461933664E+01  0.93800000000E+00 0. -1.
         22    1    1    2    0    0  0.98773487236E-01  0.28739501349E+00  0.30668824666E+01  0.30819020360E+01  0.00000000000E+00 0.  1.
</event>
<event>
 5    1  0.1173395E+001  0.1571139E+01  0.7818608E-02  0.3385296E+00
         11   -1    0    0    0    0  0.00000000000E+00  0.00000000000E+00  0.39999999674E+01  0.40000000000E+01  0.51100000000E-03 0. -1.
    9000002   -1    0    0    0    0 -0.00000000000E+00 -0.00000000000E+00  0.00000000000E+00  0.93800000000E+00  0.93800000000E+00 0. -1.
         11    1    1    2    0    0  0.13720454156E+00 -0.64270853162E-01  0.11308450110E+01  0.11409498362E+01  0.51100000000E-03 0. -1.
    9000002    1    1    2    0    0  0.11248686984E+00 -0.23465831579E-01  0.29897917417E-01  0.94548496900E+00  0.93800000000E+00 0. -1.
         22    1    1    2    0    0 -0.24969141141E+00  0.87736684740E-01  0.28392570390E+01  0.28515651948E+01  0.00000000000E+00 0. -1.
</event>
<event>
 5    1  0.1173395E+001  0.1489113E+01  0.7818608E-02  0.3483271E+00
         11   -1    0    0    0    0  0.00000000000E+00  0.00000000000E+00  0.39999999674E+01  0.40000000000E+01  0.51100000000E-03 0. -1.
    9000002   -1    0    0    0    0 -0.00000000000E+00 -0.00000000000E+00  0.00000000000E+00  0.93800000000E+00  0.93800000000E+00 0.  1.
         11    1    1    2    0    0  0.26666471093E+00 -0.31104739120E+00  0.12039327709E+01  0.12717369719E+01  0.51100000000E-03 0. -1.
    9000002    1    1    2    0    0 -0.44289831293E-02  0.16224341093E+00  0.10426990113E+00  0.95763184605E+00  0.93800000000E+00 0.  1.
         22    1    1    2    0    0 -0.26223572780E+00  0.14880398027E+00  0.26917972953E+01  0.27086311821E+01  0.00000000000E+00 0. -1.
</event>
<event>
 5    1  0.1173395E+001  0.1581817E+01  0.7818608E-02  0.3373338E+00
         11   -1    0    0    0    0  0.00000000000E+00  0.00000000000E+00  0.39999999674E+01  0.40000000000E+01  0.51100000000E-03 0. -1.
    9000002   -1    0    0    0    0 -0.00000000000E+00 -0.00000000000E+00  0.00000000000E+00  0.93800000000E+00  0.93800000000E+00 0.  1.
         11    1    1    2    0    0  0.54903710762E-01 -0.87700791721E-01  0.12965575107E+01  0.13006796247E+01  0.51100000000E-03 0. -1.
    9000002    1    1    2    0    0  0.27144044234E-01 -0.14997889409E+00  0.28648502110E-01  0.95073403457E+00  0.93800000000E+00 0.  1.
         22    1    1    2    0    0 -0.82047754996E-01  0.23767968581E+00  0.26747939545E+01  0.26865863407E+01  0.00000000000E+00 0. -1.
</event>
<event>
 5    1  0.1173395E+001  0.1516246E+01  0.7818608E-02  0.3449605E+00
         11   -1    0    0    0    0  0.00000000000E+00  0.00000000000E+00  0.39999999674E+01  0.40000000000E+01  0.51100000000E-03 0.  1.
    9000002   -1    0    0    0    0 -0.00000000000E+00 -0.00000000000E+00  0.00000000000E+00  0.93800000000E+00  0.93800000000E+00 0.  1.
         11    1    1    2    0    0 -0.35839215568E+00  0.11546899378E+00  0.13641912491E+01  0.14152017704E+01  0.51100000000E-03 0.  1.
    9000002    1    1    2    0    0  0.11245633018E+00 -0.67676989107E-01  0.75370964588E-01  0.95013229782E+00  0.93800000000E+00 0.  1.
         22    1    1    2    0    0  0.24593582550E+00 -0.47792004675E-01  0.25604377537E+01  0.25726659318E+01  0.00000000000E+00 0.  1.
</event>
<event>
 5    1  0.1173395E+001  0.1553508E+01  0.7818608E-02  0.3405423E+00
         11   -1    0    0    0    0  0.00000000000E+00  0.00000000000E+00  0.39999999674E+01  0.40000000000E+01  0.51100000000E-03 0.  1.
    9000002   -1    0    0    0    0 -0.00000000000E+00 -0.00000000000E+00  0.00000000000E+00  0.93800000000E+00  0.93800000000E+00 0. -1.
         11    1    1    2    0    0  0.17462180814E+00 -0.14428297845E+00  0.11239905656E+01  0.11465885951E+01  0.51100000000E-03 0.  1.
    9000002    1    1    2    0    0 -0.28711477812E-01 -0.68274040050E-01  0.37969948523E-01  0.94168540952E+00  0.93800000000E+00 0. -1.
         22    1    1    2    0    0 -0.14591033033E+00  0.21255701850E+00  0.28380394532E+01  0.28497259954E+01  0.00000000000E+00 0.  1.
</event>
<event>
 5    1  0.1173395E+001  0.1560058E+01  0.7818608E-02  0.3397890E+00
         11   -1    0    0    0    0  0.00000000000E+00  0.00000000000E+00  0.39999999674E+01  0.40000000000E+01  0.51100000000E-03 0.  1.
    9000002   -1    0    0    0    0 -0.00000000000E+00 -0.00000000000E+00  0.00000000000E+00  0.93800000000E+00  0.93800000000E+00 0.  1.
         11    1    1    2    0    0 -0.18366838366E+00 -0.10709773077E+00  0.11358504718E+01  0.11555780174E+01  0.51100000000E-03 0.  1.
    9000002    1    1    2    0    0 -0.97395286294E-01  0.20327179137E+00  0.64283478341E-01  0.96684105651E+00  0.93800000000E+00 0.  1.
         22    1    1    2    0    0  0.28106366995E+00 -0.96174060601E-01  0.27998660173E+01  0.28155809261E+01  0.00000000000E+00 0.  1.
</event>
<event>
 5    1  0.1173395E+001  0.1547196E+01  0.7818608E-02  0.3412748E+00
         11   -1    0    0    0    0  0.00000000000E+00  0.00000000000E+00  0.39999999674E+01  0.40000000000E+01  0.51100000000E-03 0. -1.
    9000002   -1    0    0    0    0 -0.00000000000E+00 -0.00000000000E+00  0.00000000000E+00  0.93800000000E+00  0.93800000000E+00 0. -1.
         11    1    1    2    0    0 -0.22904923346E+00  0.24377167229E+00  0.12057780807E+01  0.12513149966E+01  0.51100000000E-03 0. -1.
    9000002    1    1    2    0    0  0.37922798100E+00 -0.37545791515E-01  0.14216787911E+00  0.10223889934E+01  0.93800000000E+00 0. -1.
         22    1    1    2    0    0 -0.15017874754E+00 -0.20622588077E+00  0.26520540075E+01  0.26642960100E+01  0.00000000000E+00 0. -1.
</event>
<event>
 5    1  0.1173395E+001  0.1571239E+01  0.7818608E-02  0.3385184E+00
         11   -1    0    0    0    0  0.00000000000E+00  0.00000000000E+00  0.39999999674E+01  0.40000000000E+01  0.51100000000E-03 0. -1.
    9000002   -1    0    0    0    0 -0.00000000000E+00 -0.00000000000E+00  0.00000000000E+00  0.93800000000E+00  0.93800000000E+00 0. -1.
         11    1    1    2    0    0 -0.11968249731E+00 -0.88820942744E-01  0.13903489944E+01  0.13983145738E+01  0.51100000000E-03 0. -1.
    9000002    1    1    2    0    0 -0.14120581022E+00 -0.15292806394E-01  0.34562161327E-01  0.94932159660E+00  0.93800000000E+00 0. -1.
         22    1    1    2    0    0  0.26088830754E+00  0.10411374914E+00  0.25750888117E+01  0.25903638296E+01  0.00000000000E+00 0.  1.
</event>
<event>
 5    1  0.1173395E+001  0.1522963E+01  0.7818608E-02  0.3441469E+00
         11   -1    0    0    0    0  0.00000000000E+00  0.00000000000E+00  0.39999999674E+01  0.40000000000E+01  0.51100000000E-03 0.  1.
    9000002   -1    0    0    0    0 -0.00000000000E+00 -0.00000000000E+00  0.00000000000E+00  0.93800000000E+00  0.93800000000E+00 0.  1.
         11    1    1    2    0    0  0.29798365790E+00  0.36167633382E+00  0.10813431403E+01  0.11785191042E+01  0.51100000000E-03 0.  1.
    9000002    1    1    2    0    0 -0.57548232103E+00 -0.26063709666E+00  0.36434105896E+00  0.11881498244E+01  0.93800000000E+00 0.  1.
         22    1    1    2    0    0  0.27749866313E+00 -0.10103923717E+00  0.25543157681E+01  0.25713310714E+01  0.00000000000E+00 0.  1.
</event>
<event>
 5    1  0.1173395E+001  0.1570457E+01  0.7818608E-02  0.3386066E+00
         11   -1    0    0    0    0  0.00000000000E+00  0.00000000000E+00  0.39999999674E+01  0.40000000000E+01  0.51100000000E-03 0. -1.
    9000002   -1    0    0    0    0 -0.00000000000E+00 -0.00000000000E+00  0.00000000000E+00  0.93800000000E+00  0.93800000000E+00 0.  1.
         11    1    1    2    0    0 -0.65889138999E-01  0.14475773819E+00  0.12431899717E+01  0.12533226832E+01  0.51100000000E-03 0. -1.
    9000002    1    1    2    0    0 -0.92294108923E-01  0.66511163029E-01  0.30233593931E-01  0.94535707939E+00  0.93800000000E+00 0.  1.
         22    1    1    2    0    0  0.15818324792E+00 -0.21126890122E+00  0.27265764017E+01  0.27393202374E+01  0.00000000000E+00 0. -1.
</event>
<event>
 5    1  0.1173395E+001  0.1496971E+01  0.7818608E-02  0.3473385E+00
         11   -1    0    0    0    0  0.00000000000E+00  0.00000000000E+00  0.39999999674E+01  0.40000000000E+01  0.51100000000E-03 0.  1.
    9000002   -1    0    0    0    0 -0.00000000000E+00 -0.00000000000E+00  0.00000000000E+00  0.93800000000E+00  0.93800000000E+00 0.  1.
         11    1    1    2    0    0  0.37265068038E+00  0.21113460486E+00  0.12367004691E+01  0.13087683761E+01  0.51100000000E-03 0.  1.
    9000002    1    1    2    0    0 -0.50620474830E+00  0.27916464182E+00  0.33980539314E+00  0.11530341928E+01  0.93800000000E+00 0.  1.
         22    1    1    2    0    0  0.13355406792E+00 -0.49029924667E+00  0.24234941052E+01  0.24761974312E+01  0.00000000000E+00 0.  1.
</event>
<event>
 5    1  0.1173395E+001  0.1583488E+01  0.7818608E-02  0.3371482E+00
         11   -1    0    0    0    0  0.00000000000E+00  0.00000000000E+00  0.39999999674E+01  0.40000000000E+01  0.51100000000E-03 0. -1.
    9000002   -1    0    0    0    0 -0.00000000000E+00 -0.00000000000E+00  0.00000000000E+00  0.93800000000E+00  0.93800000000E+00 0.  1.
         11    1    1    2    0    0 -0.46024563622E+00  0.16300803797E+00  0.13436265537E+01  0.14295909355E+01  0.51100000000E-03 0. -1.
    9000002    1    1    2    0    0  0.92533622963E+00 -0.85982620540E-01  0.69692255162E+00  0.14930456094E+01  0.93800000000E+00 0.  1.
         22    1    1    2    0    0 -0.46509059341E+00 -0.77025417430E-01  0.19594508621E+01  0.20153634550E+01  0.00000000000E+00 0. -1.
</event>
<event>
 5    1  0.1173395E+001  0.1481982E+01  0.7818608E-02  0.3492341E+00
         11   -1    0    0    0    0  0.00000000000E+00  0.00000000000E+00  0.39999999674E+01  0.40000000000E+01  0.51100000000E-03 0. -1.
    9000002   -1    0    0    0    0 -0.00000000000E+00 -0.00000000000E+00  0.00000000000E+00  0.93800000000E+00  0.93800000000E+00 0. -1.
         11    1    1    2    0    0  0.17775666806E+00 -0.32706459050E+00  0.60363959982E+00  0.70918947186E+00  0.51100000000E-03 0. -1.
    9000002    1    1    2    0    0  0.85158298096E-01  0.46867377039E+00  0.26718893345E+00  0.10854220216E+01  0.93800000000E+00 0. -1.
         22    1    1    2    0    0 -0.26291496616E+00 -0.14160917989E+00  0.31291714341E+01  0.31433885066E+01  0.00000000000E+00 0. -1.
</event>
<event>
 5    1  0.1173395E+001  0.1595072E+01  0.7818608E-02  0.3358730E+00
         11   -1    0    0    0    0  0.00000000000E+00  0.00000000000E+00  0.39999999674E+01  0.40000000000E+01  0.51100000000E-03 0.  1.
    9000002   -1    0    0    0    0 -0.00000000000E+00 -0.00000000000E+00  0.00000000000E+00  0.93800000000E+00  0.93800000000E+00 0.  1.
         11    1    1    2    0    0 -0.31372381025E-01  0.11107791263E+00  0.14534189754E+01  0.14579950302E+01  0.51100000000E-03 0.  1.
    9000002    1    1    2    0    0 -0.12753958001E+00 -0.28108781949E+00  0.67242394739E-01  0.98976878431E+00  0.93800000000E+00 0.  1.
         22    1    1    2    0    0  0.15891196104E+00  0.17000990686E+00  0.24793385973E+01  0.24902361855E+01  0.00000000000E+00 0.  1.
</event>
<event>
 5    1  0.1173395E+001  0.1529302E+01  0.7818608E-02  0.3433862E+00
         11   -1    0    0    0    0  0.00000000000E+00  0.00000000000E+00  0.39999999674E+01  0.40000000000E+01  0.51100000000E-03 0.  1.
    9000002   -1    0    0    0    0 -0.00000000000E+00 -0.00000000000E+00  0.00000000000E+00  0.93800000000E+00  0.93800000000E+00 0.  1.
         11    1    1    2    0    0  0.27030211248E+00  0.12112129201E+00  0.10696315159E+01  0.11098853276E+01  0.51100000000E-03 0.  1.
    9000002    1    1    2    0    0  0.53945495158E-01 -0.34058686731E+00  0.13850370200E+00  0.10089285436E+01  0.93800000000E+00 0.  1.
         22    1    1    2    0    0 -0.32424760764E+00  0.21946557529E+00  0.27918647494E+01  0.28191861288E+01  0.00000000000E+00 0.  1.
</event>
<event>
 5    1  0.1173395E+001  0.1512984E+01  0.7818608E-02  0.3453583E+00
         11   -1    0    0    0    0  0.00000000000E+00  0.00000000000E+00  0.39999999674E+01  0.40000000000E+01  0.51100000000E-03 0. -1.
    9000002   -1    0    0    0    0 -0.00000000000E+00 -0.00000000000E+00  0.00000000000E+00  0.93800000000E+00  0.93800000000E+00 0.  1.
         11    1    1    2    0    0 -0.30070274159E+00 -0.17581669589E+00  0.84317827882E+00  0.91229574171E+00  0.51100000000E-03 0. -1.
    9000002    1    1    2    0    0  0.37174613594E+00 -0.12144753356E+00  0.17859465856E+00  0.10318356192E+01  0.93800000000E+00 0.  1.
         22    1    1    2    0    0 -0.71043394354E-01  0.29726422945E+00  0.29782270300E+01  0.29938686391E+01  0.00000000000E+00 0. -1.
</event>
<event>
 5    1  0.1173395E+001  0.1481205E+01  0.7818608E-02  0.3493334E+00
         11   -1    0    0    0    0  0.00000000000E+00  0.00000000000E+00  0.39999999674E+01  0.40000000000E+01  0.51100000000E-03 0.  1.
    9000002   -1    0    0    0    0 -0.00000000000E+00 -0.00000000000E+00  0.00000000000E+00  0.93800000000E+00  0.93800000000E+00 0. -1.
         11    1    1    2    0    0  0.12156338063E+00  0.39252578765E+00  0.13896949216E+01  0.14491743807E+01  0.51100000000E-03 0.  1.
    9000002    1    1    2    0    0  0.11410561092E+00 -0.82287292930E-01  0.10599930427E+00  0.95439569442E+00  0.93800000000E+00 0. -1.
         22    1    1    2    0    0 -0.23566899155E+00 -0.31023849472E+00  0.25043057415E+01  0.25344299249E+01  0.00000000000E+00 0. -1.
</event>
<event>
 5    1  0.1173395E+001  0.1503453E+01  0.7818608E-02  0.3465315E+00
         11   -1    0    0    0    0  0.00000000000E+00  0.00000000000E+00  0.39999999674E+01  0.40000000000E+01  0.51100000000E-03 0.  1.
    9000002   -1    0    0    0    0 -0.00000000000E+00 -0.00000000000E+00  0.00000000000E+00  0.93800000000E+00  0.93800000000E+00 0. -1.
         11    1    1    2    0    0  0.82813746642E-01 -0.29475432735E+00  0.11840938891E+01  0.12230359069E+01  0.51100000000E-03 0.  1.
    9000002    1    1    2    0    0 -0.15282015050E+00 -0.15485901826E+00  0.10782433954E+00  0.96891970882E+00  0.93800000000E+00 0. -1.
         22    1    1    2    0    0  0.70006403859E-01  0.44961334561E+00  0.27080817387E+01  0.27460443843E+01  0.00000000000E+00 0.  1.
</event>
<event>
 5    1  0.1173395E+001  0.1469812E+01  0.7818608E-02  0.3508037E+00
         11   -1    0    0    0    0  0.00000000000E+00  0.00000000000E+00  0.39999999674E+01  0.40000000000E+01  0.51100000000E-03 0.  1.
    9000002   -1    0    0    0    0 -0.00000000000E+00 -0.00000000000E+00  0.00000000000E+00  0.93800000000E+00  0.93800000000E+00 0.  1.
         11    1    1    2    0    0  0.43125415342E+00  0.16906525592E+00  0.12698924423E+01  0.13517360251E+01  0.51100000000E-03 0.  1.
    9000002    1    1    2    0    0 -0.12460303428E+00 -0.13358273647E+00  0.12596503939E+00  0.96388871494E+00  0.93800000000E+00 0.  1.
         22    1    1    2    0    0 -0.30665111914E+00 -0.35482519457E-01  0.26041424857E+01  0.26223752599E+01  0.00000000000E+00 0.  1.
</event>
<event>
 5    1  0.1173395E+001  0.1558245E+01  0.7818608E-02  0.3399968E+00
         11   -1    0    0    0    0  0.00000000000E+00  0.00000000000E+00  0.39999999674E+01  0.40000000000E+01  0.51100000000E-03 0.  1.
    9000002   -1    0    0    0    0 -0.00000000000E+00 -0.00000000000E+00  0.00000000000E+00  0.93800000000E+00  0.93800000000E+00 0.  1.
         11    1    1    2    0    0  0.24632471818E+00 -0.17145765027E+00  0.12706048624E+01  0.13055690599E+01  0.51100000000E-03 0.  1.
    9000002    1    1    2    0    0 -0.44032254531E-01  0.49736356710E+00  0.20895110597E+00  0.10829653374E+01  0.93800000000E+00 0.  1.
         22    1    1    2    0    0 -0.20229246365E+00 -0.32590591683E+00  0.25204439990E+01  0.25494656027E+01  0.00000000000E+00 0.  1.
</event>
<event>
 5    1  0.1173395E+001  0.1472132E+01  0.7818608E-02  0.3505023E+00
         11   -1    0    0    0    0  0.00000000000E+00  0.00000000000E+00  0.39999999674E+01  0.40000000000E+01  0.51100000000E-03 0. -1.
    9000002   -1    0    0    0    0 -0.00000000000E+00 -0.00000000000E+00  0.00000000000E+00  0.93800000000E+00  0.93800000000E+00 0.  1.
         11    1    1    2    0    0  0.26792799412E+00  0.28715282568E+00  0.95911366269E+00  0.10364079479E+01  0.51100000000E-03 0. -1.
    9000002    1    1    2    0    0 -0.82551690746E-01 -0.26987582991E-01  0.10439905805E+00  0.94777965509E+00  0.93800000000E+00 0.  1.
         22    1    1    2    0    0 -0.18537630338E+00 -0.26016524269E+00  0.29364872466E+01  0.29538123970E+01  0.00000000000E+00 0. -1.
</event>
<event>
 5    1  0.1173395E+001  0.1541840E+01  0.7818608E-02  0.3419013E+00
         11   -1    0    0    0    0  0.00000000000E+00  0.00000000000E+00  0.39999999674E+01  0.40000000000E+01  0.51100000000E-03 0.  1.
    9000002   -1    0    0    0    0 -0.00000000000E+00 -0.00000000000E+00  0.00000000000E+00  0.93800000000E+00  0.93800000000E+00 0.  1.
         11    1    1    2    0    0  0.13485135884E+00  0.23864630016E+00  0.10700770886E+01  0.11046276215E+01  0.51100000000E-03 0.  1.
    9000002    1    1    2    0    0 -0.17963778231E+00  0.18725252930E-01  0.65943855885E-01  0.95750350394E+00  0.93800000000E+00 0.  1.
         22    1    1    2    0    0  0.44786423467E-01 -0.25737155309E+00  0.28639790229E+01  0.28758688746E+01  0.00000000000E+00 0.  1.
</event>
<event>
 5    1  0.1173395E+001  0.1463983E+01  0.7818608E-02  0.3515656E+00
         11   -1    0    0    0    0  0.00000000000E+00  0.00000000000E+00  0.39999999674E+01  0.40000000000E+01  0.51100000000E-03 0. -1.
    9000002   -1    0    0    0    0 -0.00000000000E+00 -0.00000000000E+00  0.00000000000E+00  0.93800000000E+00  0.93800000000E+00 0. -1.
         11    1    1    2    0    0  0.30098542848E+00  0.83464864122E-02  0.44476458169E+00  0.53710118809E+00  0.51100000000E-03 0. -1.
    9000002    1    1    2    0    0 -0.73957132438E-01  0.20437412791E+00  0.14170829680E+00  0.97322334691E+00  0.93800000000E+00 0. -1.
         22    1    1    2    0    0 -0.22702829604E+00 -0.21272061432E+00  0.34135270889E+01  0.34276754650E+01  0.00000000000E+00 0. -1.
</event>
<event>
 5    1  0.1173395E+001  0.1514161E+01  0.7818608E-02  0.3452146E+00
         11   -1    0    0    0    0  0.00000000000E+00  0.00000000000E+00  0.39999999674E+01  0.40000000000E+01  0.51100000000E-03 0. -1.
    9000002   -1    0    0    0    0 -0.00000000000E+00 -0.00000000000E+00  0.00000000000E+00  0.93800000000E+00  0.93800000000E+00 0. -1.
         11    1    1    2    0    0  0.12122675694E+00 -0.35652915037E+00  0.13450507420E+01  0.13967715351E+01  0.51100000000E-03 0. -1.
    9000002    1    1    2    0    0  0.17227107356E-01  0.13476632026E+00  0.77935122675E-01  0.95098718059E+00  0.93800000000E+00 0. -1.
         22    1    1    2    0    0 -0.13845386430E+00  0.22176283012E+00  0.25770141027E+01  0.25902412843E+01  0.00000000000E+00 0. -1.
</event>
<event>
 5    1  0.1173395E+001  0.1504713E+01  0.7818608E-02  0.3463756E+00
         11   -1    0    0    0    0  0.00000000000E+00  0.00000000000E+00  0.39999999674E+01  0.40000000000E+01  0.51100000000E-03 0. -1.
    9000002   -1    0    0    0    0 -0.00000000000E+00 -0.00000000000E+00  0.00000000000E+00  0.93800000000E+00  0.93800000000E+00 0. -1.
         11    1    1    2    0    0  0.23024973487E+00  0.16036373407E+00  0.58937158432E+00  0.65275615135E+00  0.51100000000E-03 0. -1.
    9000002    1    1    2    0    0  0.14672394606E+00 -0.37726088759E+00  0.19465386317E+00  0.10399941443E+01  0.93800000000E+00 0. -1.
         22    1    1    2    0    0 -0.37697368093E+00  0.21689715353E+00  0.32159745199E+01  0.32452497044E+01  0.00000000000E+00 0. -1.
</event>
<event>
 5    1  0.1173395E+001  0.1579021E+01  0.7818608E-02  0.3376453E+00
         11   -1    0    0    0    0  0.00000000000E+00  0.00000000000E+00  0.39999999674E+01  0.40000000000E+01  0.51100000000E-03 0. -1.
    9000002   -1    0    0    0    0 -0.00000000000E+00 -0.00000000000E+00  0.00000000000E+00  0.93800000000E+00  0.93800000000E+00 0.  1.
         11    1    1    2    0    0  0.81235903136E-01 -0.14819278368E+00  0.14190575472E+01  0.14290853566E+01  0.51100000000E-03 0. -1.
    9000002    1    1    2    0    0 -0.20178949990E+00 -0.48722053150E-01  0.44227023332E-01  0.96171350741E+00  0.93800000000E+00 0.  1.
         22    1    1    2    0    0  0.12055359676E+00  0.19691483683E+00  0.25367153969E+01  0.25472011360E+01  0.00000000000E+00 0. -1.
</event>
<event>
 5    1  0.1173395E+001  0.1593597E+01  0.7818608E-02  0.3360343E+00
         11   -1    0    0    0    0  0.00000000000E+00  0.00000000000E+00  0.39999999674E+01  0.40000000000E+01  0.51100000000E-03 0.  1.
    9000002   -1    0    0    0    0 -0.00000000000E+00 -0.00000000000E+00  0.00000000000E+00  0.93800000000E+00  0.93800000000E+00 0. -1.
         11    1    1    2    0    0 -0.17810360686E-01 -0.18663320673E+00  0.14341926737E+01  0.14463948456E+01  0.51100000000E-03 0.  1.
    9000002    1    1    2    0    0 -0.17547469293E+00  0.40415552323E+00  0.13690298872E+00  0.10453322358E+01  0.93800000000E+00 0. -1.
         22    1    1    2    0    0  0.19328505361E+00 -0.21752231651E+00  0.24289043049E+01  0.24462729187E+01  0.00000000000E+00 0.  1.
</event>
<event>
 5    1  0.1173395E+001  0.1534939E+01  0.7818608E-02  0.3427154E+00
         11   -1    0    0    0    0  0.00000000000E+00  0.00000000000E+00  0.39999999674E+01  0.40000000000E+01  0.51100000000E-03 0.  1.
    9000002   -1    0    0    0    0 -0.00000000000E+00 -0.00000000000E+00  0.00000000000E+00  0.93800000000E+00  0.93800000000E+00 0. -1.
         11    1    1    2    0    0  0.39454568833E-01 -0.29296256053E+00  0.12611895795E+01  0.12953698860E+01  0.51100000000E-03 0.  1.
    9000002    1    1    2    0    0 -0.68441216780E-01  0.23135656377E-01  0.52069027496E-01  0.94221793783E+00  0.93800000000E+00 0. -1.
         22    1    1    2    0    0  0.28986647947E-01  0.26982690415E+00  0.26867413603E+01  0.27004121762E+01  0.00000000000E+00 0. -1.
</event>
<event>
 5    1  0.1173395E+001  0.1516274E+01  0.7818608E-02  0.3449571E+00
         11   -1    0    0    0    0  0.00000000000E+00  0.00000000000E+00  0.39999999674E+01  0.40000000000E+01  0.51100000000E-03 0.  1.
    9000002   -1    0    0    0    0 -0.00000000000E+00 -0.00000000000E+00  0.00000000000E+00  0.93800000000E+00  0.93800000000E+00 0. -1.
         11    1    1    2    0    0 -0.39988947452E+00 -0.56713666242E+00  0.12483947413E+01  0.14283015357E+01  0.51100000000E-03 0.  1.
    9000002    1    1    2    0    0  0.39324965988E+00  0.81299981531E+00  0.76967725615E+00  0.15125677087E+01  0.93800000000E+00 0. -1.
         22    1    1    2    0    0  0.66398146405E-02 -0.24586315289E+00  0.19819279699E+01  0.19971307556E+01  0.00000000000E+00 0.  1.
</event>
<event>
 5    1  0.1173395E+001  0.1516785E+01  0.7818608E-02  0.3448949E+00
         11   -1    0    0    0    0  0.00000000000E+00  0.00000000000E+00  0.39999999674E+01  0.40000000000E+01  0.51100000000E-03 0. -1.
    9000002   -1    0    0    0    0 -0.00000000000E+00 -0.00000000000E+00  0.00000000000E+00  0.93800000000E+00  0.93800000000E+00 0.  1.
         11    1    1    2    0    0 -0.13259448464E+00 -0.32673201377E+00  0.12028308830E+01  0.12534502385E+01  0.51100000000E-03 0. -1.
    9000002    1    1    2    0    0  0.26639399325E+00  0.29248002024E-01  0.11462238902E+00  0.98224411290E+00  0.93800000000E+00 0.  1.
         22    1    1    2    0    0 -0.13379950861E+00  0.29748401175E+00  0.26825466953E+01  0.27023056486E+01  0.00000000000E+00 0. -1.
</event>
<event>
 5    1  0.1173395E+001  0.1484202E+01  0.7818608E-02  0.3489507E+00
         11   -1    0    0    0    0  0.00000000000E+00  0.00000000000E+00  0.39999999674E+01  0.40000000000E+01  0.51100000000E-03 0.  1.
    9000002   -1    0    0    0    0 -0.00000000000E+00 -0.00000000000E+00  0.00000000000E+00  0.93800000000E+00  0.93800000000E+00 0.  1.
         11    1    1    2    0    0 -0.22256784662E+00  0.74726428406E-03  0.64170321993E+00  0.67920563038E+00  0.51100000000E-03 0.  1.
    9000002    1    1    2    0    0 -0.49629430356E+00 -0.17563093044E+00  0.30628921573E+00  0.11183967736E+01  0.93800000000E+00 0.  1.
         22    1    1    2    0    0  0.71886215018E+00  0.17488366615E+00  0.30520075317E+01  0.31403975960E+01  0.00000000000E+00 0.  1.
</event>
<event>
 5    1  0.1173395E+001  0.1630723E+01  0.7818608E-02  0.3320678E+00
         11   -1    0    0    0    0  0.00000000000E+00  0.00000000000E+00  0.39999999674E+01  0.40000000000E+01  0.51100000000E-03 0. -1.
    9000002   -1    0    0    0    0 -0.00000000000E+00 -0.00000000000E+00  0.00000000000E+00  0.93800000000E+00  0.93800000000E+00 0.  1.
         11    1    1    2    0    0 -0.14874937073E+00  0.47544355413E+00  0.53025658292E+00  0.72756116809E+00  0.51100000000E-03 0. -1.
    9000002    1    1    2    0    0 -0.26979047215E+00  0.41657181517E-01  0.37729433782E+00  0.10472426829E+01  0.93800000000E+00 0.  1.
         22    1    1    2    0    0  0.41853984288E+00 -0.51710073564E+00  0.30924490466E+01  0.31631961490E+01  0.00000000000E+00 0.  1.
</event>
<event>
 5    1  0.1173395E+001  0.1449703E+01  0.7818608E-02  0.3534602E+00
         11   -1    0    0    0    0  0.00000000000E+00  0.00000000000E+00  0.39999999674E+01  0.40000000000E+01  0.51100000000E-03 0.  1.
    9000002   -1    0    0    0    0 -0.00000000000E+00 -0.00000000000E+00  0.00000000000E+00  0.93800000000E+00  0.93800000000E+00 0. -1.
         11    1    1    2    0    0  0.30644346114E+00 -0.44730678977E+00  0.11893139025E+01  0.13070802496E+01  0.51100000000E-03 0.  1.
    9000002    1    1    2    0    0 -0.89649203448E-01  0.34090714478E+00  0.21605580454E+00  0.10250750078E+01  0.93800000000E+00 0. -1.
         22    1    1    2    0    0 -0.21679425770E+00  0.10639964499E+00  0.25946302603E+01  0.26058447425E+01  0.00000000000E+00 0.  1.
</event>
<event>
 5    1  0.1173395E+001  0.1524611E+01  0.7818608E-02  0.3439485E+00
         11   -1    0    0    0    0  0.00000000000E+00  0.00000000000E+00  0.39999999674E+01  0.40000000000E+01  0.51100000000E-03 0.  1.
    9000002   -1    0    0    0    0 -0.00000000000E+00 -0.00000000000E+00  0.00000000000E+00  0.93800000000E+00  0.93800000000E+00 0.  1.
         11    1    1    2    0    0  0.16680977395E+00 -0.17107597484E+00  0.65524705481E+00  0.69745354957E+00  0.51100000000E-03 0.  1.
    9000002    1    1    2    0    0 -0.85610051408E-02 -0.80327310169E-01  0.61066690637E-01  0.94345053303E+00  0.93800000000E+00 0.  1.
         22    1    1    2    0    0 -0.15824876881E+00  0.25140328501E+00  0.32836862219E+01  0.32970959174E+01  0.00000000000E+00 0.  1.
</event>
<event>
 5    1  0.1173395E+001  0.1519553E+01  0.7818608E-02  0.3445590E+00
         11   -1    0    0    0    0  0.00000000000E+00  0.00000000000E+00  0.39999999674E+01  0.40000000000E+01  0.51100000000E-03 0.  1.
    9000002   -1    0    0    0    0 -0.00000000000E+00 -0.00000000000E+00  0.00000000000E+00  0.93800000000E+00  0.93800000000E+00 0. -1.
         11    1    1    2    0    0  0.27325110685E+00 -0.17468589587E+00  0.12362784568E+01  0.12781103291E+01  0.51100000000E-03 0.  1.
    9000002    1    1    2    0    0 -0.61368697681E-01 -0.47997187174E-01  0.64731917782E-01  0.94345326764E+00  0.93800000000E+00 0. -1.
         22    1    1    2    0    0 -0.21188240917E+00  0.22268308304E+00  0.26989895928E+01  0.27164364032E+01  0.00000000000E+00 0.  1.
</event>
<event>
 5    1  0.1173395E+001  0.1528948E+01  0.7818608E-02  0.3434285E+00
         11   -1    0    0    0    0  0.00000000000E+00  0.00000000000E+00  0.39999999674E+01  0.40000000000E+01  0.51100000000E-03 0.  1.
    9000002   -1    0    0    0    0 -0.00000000000E+00 -0.00000000000E+00  0.00000000000E+00  0.93800000000E+00  0.93800000000E+00 0.  1.
         11    1    1    2    0    0  0.23280933817E+00 -0.77481856614E-01  0.68981951181E+00  0.73215766474E+00  0.51100000000E-03 0.  1.
    9000002    1    1    2    0    0  0.47101471196E-01  0.16973938939E+00  0.75081148964E-01  0.95734590814E+00  0.93800000000E+00 0.  1.
         22    1    1    2    0    0 -0.27991080937E+00 -0.92257532773E-01  0.32350993066E+01  0.32484964271E+01  0.00000000000E+00 0.  1.
</event>
<event>
 5    1  0.1173395E+001  0.1568269E+01  0.7818608E-02  0.3388540E+00
         11   -1    0    0    0    0  0.00000000000E+00  0.00000000000E+00  0.39999999674E+01  0.40000000000E+01  0.51100000000E-03 0. -1.
    9000002   -1    0    0    0    0 -0.00000000000E+00 -0.00000000000E+00  0.00000000000E+00  0.93800000000E+00  0.93800000000E+00 0. -1.
         11    1    1    2    0    0  0.17008169401E+00 -0.96477694967E-02  0.92677031406E+00  0.94229737251E+00  0.51100000000E-03 0. -1.
    9000002    1    1    2    0    0  0.84923416521E-02  0.28274369985E+00  0.78079194208E-01  0.98283085027E+00  0.93800000000E+00 0. -1.
         22    1    1    2    0    0 -0.17857403566E+00 -0.27309593035E+00  0.29951504591E+01  0.30128717772E+01  0.00000000000E+00 0. -1.
</event>
<event>
 5    1  0.1173395E+001  0.1495925E+01  0.7818608E-02  0.3474696E+00
         11   -1    0    0    0    0  0.00000000000E+00  0.00000000000E+00  0.39999999674E+01  0.40000000000E+01  0.51100000000E-03 0. -1.
    9000002   -1    0    0    0    0 -0.00000000000E+00 -0.00000000000E+00  0.00000000000E+00  0.93800000000E+00  0.93800000000E+00 0. -1.
         11    1    1    2    0    0 -0.48192779846E+00 -0.83950791236E-02  0.74516420577E+00  0.88746539931E+00  0.51100000000E-03 0. -1.
    9000002    1    1    2    0    0  0.21032653559E+00 -0.17999591358E+00  0.22607143604E+00  0.10037868672E+01  0.93800000000E+00 0. -1.
         22    1    1    2    0    0  0.27160126287E+00  0.18839099271E+00  0.30287643255E+01  0.30467477335E+01  0.00000000000E+00 0. -1.
</event>
<event>
 5    1  0.1173395E+001  0.1586521E+01  0.7818608E-02  0.3368124E+00
         11   -1    0    0    0    0  0.00000000000E+00  0.00000000000E+00  0.39999999674E+01  0.40000000000E+01  0.51100000000E-03 0. -1.
    9000002   -1    0    0    0    0 -0.00000000000E+00 -0.00000000000E+00  0.00000000000E+00  0.93800000000E+00  0.93800000000E+00 0.  1.
         11    1    1    2    0    0 -0.90840534695E-01  0.53352602624E-01  0.14657176642E+01  0.14694989062E+01  0.51100000000E-03 0. -1.
    9000002    1    1    2    0    0  0.13934064184E+00  0.19981946942E+00  0.49496573357E-01  0.97038010367E+00  0.93800000000E+00 0.  1.
         22    1    1    2    0    0 -0.48500107149E-01 -0.25317207205E+00  0.24847857298E+01  0.24981209902E+01  0.00000000000E+00 0.  1.
</event>
<event>
 5    1  0.1173395E+001  0.1476827E+01  0.7818608E-02  0.3498955E+00
         11   -1    0    0    0    0  0.00000000000E+00  0.00000000000E+00  0.39999999674E+01  0.40000000000E+01  0.51100000000E-03 0. -1.
    9000002   -1    0    0    0    0 -0.00000000000E+00 -0.00000000000E+00  0.00000000000E+00  0.93800000000E+00  0.93800000000E+00 0. -1.
         11    1    1    2    0    0 -0.13229147569E+00  0.33807954631E+00  0.85976207094E+00  0.93326839329E+00  0.51100000000E-03 0. -1.
    9000002    1    1    2    0    0 -0.27311730624E+00  0.20669067917E+00  0.24129645769E+00  0.10273179062E+01  0.93800000000E+00 0. -1.
         22    1    1    2    0    0  0.40540878193E+00 -0.54477022547E+00  0.28989414387E+01  0.29774137006E+01  0.00000000000E+00 0. -1.
</event>
<event>
 5    1  0.1173395E+001  0.1572299E+01  0.7818608E-02  0.3383990E+00
         11   -1    0    0    0    0  0.00000000000E+00  0.00000000000E+00  0.39999999674E+01  0.40000000000E+01  0.51100000000E-03 0. -1.
    9000002   -1    0    0    0    0 -0.00000000000E+00 -0.00000000000E+00  0.00000000000E+00  0.93800000000E+00  0.93800000000E+00 0. -1.
         11    1    1    2    0    0 -0.10240336441E+00 -0.18376642525E+00  0.14301035146E+01  0.14454939888E+01  0.51100000000E-03 0. -1.
    9000002    1    1    2    0    0 -0.16408204141E+00  0.22408761080E+00  0.72857624958E-01  0.98096401929E+00  0.93800000000E+00 0. -1.
         22    1    1    2    0    0  0.26648540582E+00 -0.40321185548E-01  0.24970388278E+01  0.25115419919E+01  0.00000000000E+00 0. -1.
</event>
<event>
 5    1  0.1173395E+001  0.1562596E+01  0.7818608E-02  0.3394988E+00
         11   -1    0    0    0    0  0.00000000000E+00  0.00000000000E+00  0.39999999674E+01  0.40000000000E+01  0.51100000000E-03 0. -1.
    9000002   -1    0    0    0    0 -0.00000000000E+00 -0.00000000000E+00  0.00000000000E+00  0.93800000000E+00  0.93800000000E+00 0. -1.
         11    1    1    2    0    0  0.19002203984E+00 -0.92763170206E-01  0.14446420538E+01  0.14600357208E+01  0.51100000000E-03 0. -1.
    9000002    1    1    2    0    0  0.55006376288E-01  0.48875589352E-01  0.31030867740E-01  0.94139335000E+00  0.93800000000E+00 0. -1.
         22    1    1    2    0    0 -0.24502841613E+00  0.43887580853E-01  0.25243270458E+01  0.25365709292E+01  0.00000000000E+00 0. -1.
</event>
<event>
 5    1  0.1173395E+001  0.1476515E+01  0.7818608E-02  0.3499357E+00
         11   -1    0    0    0    0  0.00000000000E+00  0.00000000000E+00  0.39999999674E+01  0.40000000000E+01  0.51100000000E-03 0. -1.
    9000002   -1    0    0    0    0 -0.00000000000E+00 -0.00000000000E+00  0.00000000000E+00  0.93800000000E+00  0.93800000000E+00 0.  1.
         11    1    1    2    0    0  0.46414440230E+00 -0.23420233662E+00  0.10943895147E+01  0.12115978837E+01  0.51100000000E-03 0. -1.
    9000002    1    1    2    0    0 -0.39140885684E-01  0.36027194282E+00  0.25287280930E+00  0.10368782664E+01  0.93800000000E+00 0.  1.
         22    1    1    2    0    0 -0.42500351662E+00 -0.12606960620E+00  0.26527376434E+01  0.26895238499E+01  0.00000000000E+00 0.  1.
</event>
<event>
 5    1  0.1173395E+001  0.1546720E+01  0.7818608E-02  0.3413303E+00
         11   -1    0    0    0    0  0.00000000000E+00  0.00000000000E+00  0.39999999674E+01  0.40000000000E+01  0.51100000000E-03 0. -1.
    9000002   -1    0    0    0    0 -0.00000000000E+00 -0.00000000000E+00  0.00000000000E+00  0.93800000000E+00  0.93800000000E+00 0.  1.
         11    1    1    2    0    0  0.23050524319E+00  0.77269362202E-01  0.11625685227E+01  0.11877158972E+01  0.51100000000E-03 0. -1.
    9000002    1    1    2    0    0  0.66295525064E-01 -0.13571520060E+00  0.55231051558E-01  0.95168701860E+00  0.93800000000E+00 0.  1.
         22    1    1    2    0    0 -0.29680076825E+00  0.58445838403E-01  0.27822003931E+01  0.27985970842E+01  0.00000000000E+00 0. -1.
</event>
<event>
 5    1  0.1173395E+001  0.1462463E+01  0.7818608E-02  0.3517654E+00
         11   -1    0    0    0    0  0.00000000000E+00  0.00000000000E+00  0.39999999674E+01  0.40000000000E+01  0.51100000000E-03 0.  1.
    9000002   -1    0    0    0    0 -0.00000000000E+00 -0.00000000000E+00  0.00000000000E+00  0.93800000000E+00  0.93800000000E+00 0.  1.
         11    1    1    2    0    0 -0.19886298572E-01 -0.54347566945E+00  0.11919285698E+01  0.13101355826E+01  0.51100000000E-03 0.  1.
    9000002    1    1    2    0    0 -0.70082480909E-01  0.26662982765E+00  0.19287626648E+00  0.99651807474E+00  0.93800000000E+00 0.  1.
         22    1    1    2    0    0  0.89968779480E-01  0.27684584180E+00  0.26151951311E+01  0.26313463427E+01  0.00000000000E+00 0. -1.
</event>
<event>
 5    1  0.1173395E+001  0.1597454E+01  0.7818608E-02  0.3356132E+00
         11   -1    0    0    0    0  0.00000000000E+00  0.00000000000E+00  0.39999999674E+01  0.40000000000E+01  0.51100000000E-03 0. -1.
    9000002   -1    0    0    0    0 -0.00000000000E+00 -0.00000000000E+00  0.00000000000E+00  0.93800000000E+00  0.93800000000E+00 0.  1.
         11    1    1    2    0    0 -0.11668077935E+00  0.14343728027E+00  0.14564173702E+01  0.14681077873E+01  0.51100000000E-03 0. -1.
    9000002    1    1    2    0    0  0.16555476831E+00 -0.36678151181E+00  0.11111886166E+00  0.10267075826E+01  0.93800000000E+00 0.  1.
         22    1    1    2    0    0 -0.48873988968E-01  0.22334423154E+00  0.24324637355E+01  0.24431846302E+01  0.00000000000E+00 0. -1.
</event>
<event>
 5    1  0.1173395E+001  0.1560452E+01  0.7818608E-02  0.3397439E+00
         11   -1    0    0    0    0  0.00000000000E+00  0.00000000000E+00  0.39999999674E+01  0.40000000000E+01  0.51100000000E-03 0.  1.
    9000002   -1    0    0    0    0 -0.00000000000E+00 -0.00000000000E+00  0.00000000000E+00  0.93800000000E+00  0.93800000000E+00 0.  1.
         11    1    1    2    0    0 -0.16370848118E-01 -0.16810043835E+00  0.13762731516E+01  0.13865979269E+01  0.51100000000E-03 0.  1.
    9000002    1    1    2    0    0 -0.20738477734E+00 -0.11745169599E+00  0.68146892151E-01  0.97020170360E+00  0.93800000000E+00 0.  1.
         22    1    1    2    0    0  0.22375562546E+00  0.28555213435E+00  0.25555799236E+01  0.25812003695E+01  0.00000000000E+00 0.  1.
</event>
<event>
 5    1  0.1173395E+001  0.1537156E+01  0.7818608E-02  0.3424530E+00
         11   -1    0    0    0    0  0.00000000000E+00  0.00000000000E+00  0.39999999674E+01  0.40000000000E+01  0.51100000000E-03 0. -1.
    9000002   -1    0    0    0    0 -0.00000000000E+00 -0.00000000000E+00  0.00000000000E+00  0.93800000000E+00  0.93800000000E+00 0.  1.
         11    1    1    2    0    0  0.18991435056E+00  0.80687352328E-01  0.87644633467E+00  0.90040898932E+00  0.51100000000E-03 0. -1.
    9000002    1    1    2    0    0  0.26919353013E+00 -0.47795398415E+00  0.26932022970E+00  0.11195010289E+01  0.93800000000E+00 0.  1.
         22    1    1    2    0    0 -0.45910788070E+00  0.39726663182E+00  0.28542334030E+01  0.29180899818E+01  0.00000000000E+00 0. -1.
</event>
<event>
 5    1  0.1173395E+001  0.1556723E+01  0.7818608E-02  0.3401718E+00
         11   -1    0    0    0    0  0.00000000000E+00  0.00000000000E+00  0.39999999674E+01  0.40000000000E+01  0.51100000000E-03 0.  1.
    9000002   -1    0    0    0    0 -0.00000000000E+00 -0.00000000000E+00  0.00000000000E+00  0.93800000000E+00  0.93800000000E+00 0. -1.
         11    1    1    2    0    0  0.33398243190E-01  0.22409582022E+00  0.10325926592E+01  0.10571576232E+01  0.51100000000E-03 0.  1.
    9000002    1    1    2    0    0  0.18986067154E+00 -0.78501366450E-01  0.60927924483E-01  0.96216721577E+00  0.93800000000E+00 0. -1.
         22    1    1    2    0    0 -0.22325891473E+00 -0.14559445377E+00  0.29064793837E+01  0.29186751610E+01  0.00000000000E+00 0.  1.
</event>
<event>
 5    1  0.1173395E+001  0.1582596E+01  0.7818608E-02  0.3372472E+00
         11   -1    0    0    0    0  0.00000000000E+00  0.00000000000E+00  0.39999999674E+01  0.40000000000E+01  0.51100000000E-03 0. -1.
    9000002   -1    0    0    0    0 -0.00000000000E+00 -0.00000000000E+00  0.00000000000E+00  0.93800000000E+00  0.93800000000E+00 0.  1.
         11    1    1    2    0    0  0.19875514554E-01 -0.90551145920E-01  0.87092975235E+00  0.87585012460E+00  0.51100000000E-03 0. -1.
    9000002    1    1    2    0    0  0.18268206548E+00 -0.11394002937E+00  0.43700969565E-01  0.96338405741E+00  0.93800000000E+00 0.  1.
         22    1    1    2    0    0 -0.20255758003E+00  0.20449117529E+00  0.30853692454E+01  0.30987658180E+01  0.00000000000E+00 0. -1.
</event>
<event>
 5    1  0.1173395E+001  0.1550092E+01  0.7818608E-02  0.3409380E+00
         11   -1    0    0    0    0  0.00000000000E+00  0.00000000000E+00  0.39999999674E+01  0.40000000000E+01  0.51100000000E-03 0.  1.
    9000002   -1    0    0    0    0 -0.00000000000E+00 -0.00000000000E+00  0.00000000000E+00  0.93800000000E+00  0.93800000000E+00 0. -1.
         11    1    1    2    0    0  0.89468586928E-01  0.25891125382E+00  0.14609741927E+01  0.14864338257E+01  0.51100000000E-03 0.  1.
    9000002    1    1    2    0    0  0.60145566880E-01 -0.68735787184E-01  0.42555524811E-01  0.94339656049E+00  0.93800000000E+00 0. -1.
         22    1    1    2    0    0 -0.14961415381E+00 -0.19017546663E+00  0.24964702499E+01  0.25081696138E+01  0.00000000000E+00 0. -1.
</event>
<event>
 5    1  0.1173395E+001  0.1584462E+01  0.7818608E-02  0.3370402E+00
         11   -1    0    0    0    0  0.00000000000E+00  0.00000000000E+00  0.39999999674E+01  0.40000000000E+01  0.51100000000E-03 0. -1.
    9000002   -1    0    0    0    0 -0.00000000000E+00 -0.00000000000E+00  0.00000000000E+00  0.93800000000E+00  0.93800000000E+00 0. -1.
         11    1    1    2    0    0 -0.32259966369E-01  0.11632304525E+00  0.12945641925E+01  0.13001801667E+01  0.51100000000E-03 0. -1.
    9000002    1    1    2    0    0  0.33253138863E+00 -0.64462096373E+00  0.39651330711E+00  0.12502720160E+01  0.93800000000E+00 0. -1.
         22    1    1    2    0    0 -0.30027142226E+00  0.52829791848E+00  0.23089224678E+01  0.23875478173E+01  0.00000000000E+00 0. -1.
</event>
<event>
 5    1  0.1173395E+001  0.1586876E+01  0.7818608E-02  0.3367732E+00
         11   -1    0    0    0    0  0.00000000000E+00  0.00000000000E+00  0.39999999674E+01  0.40000000000E+01  0.51100000000E-03 0. -1.
    9000002   -1    0    0    0    0 -0.00000000000E+00 -0.00000000000E+00  0.00000000000E+00  0.93800000000E+00  0.93800000000E+00 0.  1.
         11    1    1    2    0    0 -0.48545982102E-02  0.52708530357E-01  0.10871507777E+01  0.10884387125E+01  0.51100000000E-03 0. -1.
    9000002    1    1    2    0    0 -0.18628984378E+00  0.20034020235E+00  0.59763981033E-01  0.97890542751E+00  0.93800000000E+00 0.  1.
         22    1    1    2    0    0  0.19114444199E+00 -0.25304873270E+00  0.28530852087E+01  0.28706558600E+01  0.00000000000E+00 0. -1.
</event>
<event>
 5    1  0.1173395E+001  0.1538321E+01  0.7818608E-02  0.3423154E+00
         11   -1    0    0    0    0  0.00000000000E+00  0.00000000000E+00  0.39999999674E+01  0.40000000000E+01  0.51100000000E-03 0.  1.
    9000002   -1    0    0    0    0 -0.00000000000E+00 -0.00000000000E+00  0.00000000000E+00  0.93800000000E+00  0.93800000000E+00 0. -1.
         11    1    1    2    0    0 -0.22304901256E+00  0.13688657537E+00  0.14140412602E+01  0.14380548471E+01  0.51100000000E-03 0.  1.
    9000002    1    1    2    0    0  0.84242426543E-02  0.12765390668E+00  0.57270865024E-01  0.94841469819E+00  0.93800000000E+00 0. -1.
         22    1    1    2    0    0  0.21462476991E+00 -0.26454048205E+00  0.25286878421E+01  0.25515304547E+01  0.00000000000E+00 0.  1.
</event>
<event>
 5    1  0.1173395E+001  0.1563441E+01  0.7818608E-02  0.3394025E+00
         11   -1    0    0    0    0  0.00000000000E+00  0.00000000000E+00  0.39999999674E+01  0.40000000000E+01  0.51100000000E-03 0. -1.
    9000002   -1    0    0    0    0 -0.00000000000E+00 -0.00000000000E+00  0.00000000000E+00  0.93800000000E+00  0.93800000000E+00 0.  1.
         11    1    1    2    0    0  0.18693136495E+00  0.81606978239E-01  0.10213721712E+01  0.10415394411E+01  0.51100000000E-03 0. -1.
    9000002    1    1    2    0    0 -0.12963462135E+00  0.18720081997E+00  0.62343986214E-01  0.96725387291E+00  0.93800000000E+00 0.  1.
         22    1    1    2    0    0 -0.57296743597E-01 -0.26880779821E+00  0.29162838099E+01  0.29292066860E+01  0.00000000000E+00 0. -1.
</event>
<event>
 5    1  0.1173395E+001  0.1560630E+01  0.7818608E-02  0.3397235E+00
         11   -1    0    0    0    0  0.00000000000E+00  0.00000000000E+00  0.39999999674E+01  0.40000000000E+01  0.51100000000E-03 0.  1.
    9000002   -1    0    0    0    0 -0.00000000000E+00 -0.00000000000E+00  0.00000000000E+00  0.93800000000E+00  0.93800000000E+00 0.  1.
         11    1    1    2    0    0 -0.48239590332E+00 -0.14203609612E-01  0.11663478490E+01  0.12622500212E+01  0.51100000000E-03 0.  1.
    9000002    1    1    2    0    0  0.75990093001E+00  0.73246128291E-01  0.47379595893E+00  0.12988999305E+01  0.93800000000E+00 0.  1.
         22    1    1    2    0    0 -0.27750502669E+00 -0.59042518679E-01  0.23598561595E+01  0.23768500483E+01  0.00000000000E+00 0.  1.
</event>
<event>
 5    1  0.1173395E+001  0.1582116E+01  0.7818608E-02  0.3373006E+00
         11   -1    0    0    0    0  0.00000000000E+00  0.00000000000E+00  0.39999999674E+01  0.40000000000E+01  0.51100000000E-03 0. -1.
    9000002   -1    0    0    0    0 -0.00000000000E+00 -0.00000000000E+00  0.00000000000E+00  0.93800000000E+00  0.93800000000E+00 0.  1.
         11    1    1    2    0    0 -0.21742918504E+00  0.47438052983E-01  0.11069440568E+01  0.11290930986E+01  0.51100000000E-03 0. -1.
    9000002    1    1    2    0    0  0.37803652541E+00  0.16524061789E+00  0.12989628980E+00  0.10329245483E+01  0.93800000000E+00 0.  1.
         22    1    1    2    0    0 -0.16060734037E+00 -0.21267867087E+00  0.27631596208E+01  0.27759823531E+01  0.00000000000E+00 0. -1.
</event>
<event>
 5    1  0.1173395E+001  0.1593122E+01  0.7818608E-02  0.3360863E+00
         11   -1    0    0    0    0  0.00000000000E+00  0.00000000000E+00  0.39999999674E+01  0.40000000000E+01  0.51100000000E-03 0.  1.
    9000002   -1    0    0    0    0 -0.00000000000E+00 -0.00000000000E+00  0.00000000000E+00  0.93800000000E+00  0.93800000000E+00 0. -1.
         11    1    1    2    0    0 -0.12364988338E+00 -0.90496257588E-01  0.12415482840E+01  0.12509681326E+01  0.51100000000E-03 0.  1.
    9000002    1    1    2    0    0  0.35476942986E+00  0.13447021973E-02  0.89749752205E-01  0.10068575741E+01  0.93800000000E+00 0. -1.
         22    1    1    2    0    0 -0.23111954648E+00  0.89151555391E-01  0.26687019312E+01  0.26801742932E+01  0.00000000000E+00 0.  1.
</event>
<event>
 5    1  0.1173395E+001  0.1522724E+01  0.7818608E-02  0.3441758E+00
         11   -1    0    0    0    0  0.00000000000E+00  0.00000000000E+00  0.39999999674E+01  0.40000000000E+01  0.51100000000E-03 0.  1.
    9000002   -1    0    0    0    0 -0.00000000000E+00 -0.00000000000E+00  0.00000000000E+00  0.93800000000E+00  0.93800000000E+00 0. -1.
         11    1    1    2    0    0 -0.24143506359E+00 -0.14534481332E+00  0.99652421172E+00  0.10356045434E+01  0.51100000000E-03 0.  1.
    9000002    1    1    2    0    0 -0.39400595483E-01 -0.65147646700E-02  0.59043150481E-01  0.94070449276E+00  0.93800000000E+00 0. -1.
         22    1    1    2    0    0  0.28083565907E+00  0.15185957799E+00  0.29444326052E+01  0.29616909638E+01  0.00000000000E+00 0.  1.
</event>
<event>
 5    1  0.1173395E+001  0.1458921E+01  0.7818608E-02  0.3522326E+00
         11   -1    0    0    0    0  0.00000000000E+00  0.00000000000E+00  0.39999999674E+01  0.40000000000E+01  0.51100000000E-03 0. -1.
    9000002   -1    0    0    0    0 -0.00000000000E+00 -0.00000000000E+00  0.00000000000E+00  0.93800000000E+00  0.93800000000E+00 0.  1.
         11    1    1    2    0    0 -0.45239824184E+00  0.22050256124E+00  0.12345019799E+01  0.13331470092E+01  0.51100000000E-03 0. -1.
    9000002    1    1    2    0    0  0.23035362156E+00 -0.76409636145E-01  0.15528607830E+00  0.98125378449E+00  0.93800000000E+00 0.  1.
         22    1    1    2    0    0  0.22204462028E+00 -0.14409292509E+00  0.26102119092E+01  0.26235992063E+01  0.00000000000E+00 0. -1.
</event>
<event>
 5    1  0.1173395E+001  0.1501165E+01  0.7818608E-02  0.3468156E+00
         11   -1    0    0    0    0  0.00000000000E+00  0.00000000000E+00  0.39999999674E+01  0.40000000000E+01  0.51100000000E-03 0. -1.
    9000002   -1    0    0    0    0 -0.00000000000E+00 -0.00000000000E+00  0.00000000000E+00  0.93800000000E+00  0.93800000000E+00 0. -1.
         11    1    1    2    0    0 -0.29057453718E+00 -0.18781579043E+00  0.10476161706E+01  0.11032716052E+01  0.51100000000E-03 0. -1.
    9000002    1    1    2    0    0  0.56198054332E-01 -0.17498788140E-01  0.77528732965E-01  0.94303718555E+00  0.93800000000E+00 0. -1.
         22    1    1    2    0    0  0.23437648285E+00  0.20531457857E+00  0.28748550637E+01  0.28916912092E+01  0.00000000000E+00 0. -1.
</event>
<event>
 5    1  0.1173395E+001  0.1568389E+01  0.7818608E-02  0.3388404E+00
         11   -1    0    0    0    0  0.00000000000E+00  0.00000000000E+00  0.39999999674E+01  0.40000000000E+01  0.51100000000E-03 0.  1.
    9000002   -1    0    0    0    0 -0.00000000000E+00 -0.00000000000E+00  0.00000000000E+00  0.93800000000E+00  0.93800000000E+00 0. -1.
         11    1    1    2    0    0 -0.15413514803E+00 -0.10855821895E+00  0.14352182399E+01  0.14475476462E+01  0.51100000000E-03 0.  1.
    9000002    1    1    2    0    0 -0.72797410339E-01  0.34020390286E-01  0.27380853637E-01  0.94183361644E+00  0.93800000000E+00 0. -1.
         22    1    1    2    0    0  0.22693255837E+00  0.74537828666E-01  0.25374008738E+01  0.25486187374E+01  0.00000000000E+00 0.  1.
</event>
<event>
 5    1  0.1173395E+001  0.1512188E+01  0.7818608E-02  0.3454558E+00
         11   -1    0    0    0    0  0.00000000000E+00  0.00000000000E+00  0.39999999674E+01  0.40000000000E+01  0.51100000000E-03 0. -1.
    9000002   -1    0    0    0    0 -0.00000000000E+00 -0.00000000000E+00  0.00000000000E+00  0.93800000000E+00  0.93800000000E+00 0.  1.
         11    1    1    2    0    0 -0.36321481084E+00 -0.28330321352E+00  0.10531782421E+01  0.11495087561E+01  0.51100000000E-03 0. -1.
    9000002    1    1    2    0    0  0.54444694778E+00  0.10569073940E+00  0.30096508986E+00  0.11304941383E+01  0.93800000000E+00 0.  1.
         22    1    1    2    0    0 -0.18123213695E+00  0.17761247412E+00  0.26458566354E+01  0.26579971056E+01  0.00000000000E+00 0. -1.
</event>
<event>
 5    1  0.1173395E+001  0.1457180E+01  0.7818608E-02  0.3524632E+00
         11   -1    0    0    0    0  0.00000000000E+00  0.00000000000E+00  0.39999999674E+01  0.40000000000E+01  0.51100000000E-03 0.  1.
    9000002   -1    0    0    0    0 -0.00000000000E+00 -0.00000000000E+00  0.00000000000E+00  0.93800000000E+00  0.93800000000E+00 0.  1.
         11    1    1    2    0    0 -0.41275206508E+00 -0.25716939209E+00  0.12689940180E+01  0.13589872855E+01  0.51100000000E-03 0.  1.
    9000002    1    1    2    0    0  0.60351538572E-01  0.24506878315E+00  0.16061840333E+00  0.98455232881E+00  0.93800000000E+00 0.  1.
         22    1    1    2    0    0  0.35240052651E+00  0.12100608939E-01  0.25703875461E+01  0.25944603857E+01  0.00000000000E+00 0.  1.
</event>
<event>
 5    1  0.1173395E+001  0.1558883E+01  0.7818608E-02  0.3399236E+00
         11   -1    0    0    0    0  0.00000000000E+00  0.00000000000E+00  0.39999999674E+01  0.40000000000E+01  0.51100000000E-03 0. -1.
    9000002   -1    0    0    0    0 -0.00000000000E+00 -0.00000000000E+00  0.00000000000E+00  0.93800000000E+00  0.93800000000E+00 0.  1.
         11    1    1    2    0    0 -0.10908082618E+00 -0.16986238634E+00  0.13272236840E+01  0.13424882962E+01  0.51100000000E-03 0. -1.
    9000002    1    1    2    0    0 -0.42231667697E-01 -0.70666966085E-01  0.34773124770E-01  0.94224758108E+00  0.93800000000E+00 0.  1.
         22    1    1    2    0    0  0.15131249388E+00  0.24052935242E+00  0.26380031586E+01  0.26532641228E+01  0.00000000000E+00 0. -1.
</event>
<event>
 5    1  0.1173395E+001  0.1599416E+01  0.7818608E-02  0.3353998E+00
         11   -1    0    0    0    0  0.00000000000E+00  0.00000000000E+00  0.39999999674E+01  0.40000000000E+01  0.51100000000E-03 0.  1.
    9000002   -1    0    0    0    0 -0.00000000000E+00 -0.00000000000E+00  0.00000000000E+00  0.93800000000E+00  0.93800000000E+00 0.  1.
         11    1    1    2    0    0 -0.36067464515E-01  0.23195500886E+00  0.12336468502E+01  0.12557821468E+01  0.51100000000E-03 0.  1.
    9000002    1    1    2    0    0  0.13007414023E+00 -0.64374397945E+00  0.30513899427E+00  0.11850229529E+01  0.93800000000E+00 0.  1.
         22    1    1    2    0    0 -0.94006675710E-01  0.41178897059E+00  0.24612141229E+01  0.24971949003E+01  0.00000000000E+00 0.  1.
</event>
<event>
 5    1  0.1173395E+001  0.1574143E+01  0.7818608E-02  0.3381915E+00
         11   -1    0    0    0    0  0.00000000000E+00  0.00000000000E+00  0.39999999674E+01  0.40000000000E+01  0.51100000000E-03 0. -1.
    9000002   -1    0    0    0    0 -0.00000000000E+00 -0.00000000000E+00  0.00000000000E+00  0.93800000000E+00  0.93800000000E+00 0.  1.
         11    1    1    2    0    0 -0.28760169829E-01 -0.13177917880E+00  0.13552741635E+01  0.13619696101E+01  0.51100000000E-03 0. -1.
    9000002    1    1    2    0    0  0.21058913584E+00 -0.13257574248E+00  0.60896428853E-01  0.97235615218E+00  0.93800000000E+00 0.  1.
         22    1    1    2    0    0 -0.18182896601E+00  0.26435492128E+00  0.25838293750E+01  0.26036742378E+01  0.00000000000E+00 0. -1.
</event>
<event>
 5    1  0.1173395E+001  0.1550708E+01  0.7818608E-02  0.3408665E+00
         11   -1    0    0    0    0  0.00000000000E+00  0.00000000000E+00  0.39999999674E+01  0.40000000000E+01  0.51100000000E-03 0.  1.
    9000002   -1    0    0    0    0 -0.00000000000E+00 -0.00000000000E+00  0.00000000000E+00  0.93800000000E+00  0.93800000000E+00 0. -1.
         11    1    1    2    0    0 -0.19446752005E+00  0.10272739141E+00  0.97934139855E+00  0.10037332162E+01  0.51100000000E-03 0.  1.
    9000002    1    1    2    0    0 -0.10062016950E+00 -0.12952674532E+00  0.54974305754E-01  0.95381747235E+00  0.93800000000E+00 0. -1.
         22    1    1    2    0    0  0.29508768955E+00  0.26799353916E-01  0.29656842631E+01  0.29804493114E+01  0.00000000000E+00 0.  1.
</event>
<event>
 5    1  0.1173395E+001  0.1551809E+01  0.7818608E-02  0.3407389E+00
         11   -1    0    0    0    0  0.00000000000E+00  0.00000000000E+00  0.39999999674E+01  0.40000000000E+01  0.51100000000E-03 0.  1.
    9000002   -1    0    0    0    0 -0.00000000000E+00 -0.00000000000E+00  0.00000000000E+00  0.93800000000E+00  0.93800000000E+00 0.  1.
         11    1    1    2    0    0 -0.69513425568E-01  0.22956007767E+00  0.70184447353E+00  0.74169796530E+00  0.51100000000E-03 0.  1.
    9000002    1    1    2    0    0 -0.21239597905E+00 -0.30401445685E+00  0.13258273172E+00  0.10173293580E+01  0.93800000000E+00 0.  1.
         22    1    1    2    0    0  0.28190940462E+00  0.74454379175E-01  0.31655727621E+01  0.31789726767E+01  0.00000000000E+00 0.  1.
</event>
<event>
 5    1  0.1173395E+001  0.1518209E+01  0.7818608E-02  0.3447219E+00
         11   -1    0    0    0    0  0.00000000000E+00  0.00000000000E+00  0.39999999674E+01  0.40000000000E+01  0.51100000000E-03 0. -1.
    9000002   -1    0    0    0    0 -0.00000000000E+00 -0.00000000000E+00  0.00000000000E+00  0.93800000000E+00  0.93800000000E+00 0. -1.
         11    1    1    2    0    0  0.18774255885E+00 -0.74527629052E-01  0.10460877799E+01  0.10654114418E+01  0.51100000000E-03 0. -1.
    9000002    1    1    2    0    0  0.43048296099E+00  0.30438437786E+00  0.27076207280E+00  0.11095591599E+01  0.93800000000E+00 0. -1.
         22    1    1    2    0    0 -0.61822551984E+00 -0.22985674881E+00  0.26831501147E+01  0.27630293984E+01  0.00000000000E+00 0. -1.
</event>
<event>
 5    1  0.1173395E+001  0.1520137E+01  0.7818608E-02  0.3444883E+00
         11   -1    0    0    0    0  0.00000000000E+00  0.00000000000E+00  0.39999999674E+01  0.40000000000E+01  0.51100000000E-03 0. -1.
    9000002   -1    0    0    0    0 -0.00000000000E+00 -0.00000000000E+00  0.00000000000E+00  0.93800000000E+00  0.93800000000E+00 0. -1.
         11    1    1    2    0    0 -0.20421916798E+00  0.21300603848E+00  0.13287979703E+01  0.13611691107E+01  0.51100000000E-03 0. -1.
    9000002    1    1    2    0    0 -0.10171785561E+00  0.62487703803E-02  0.67355354458E-01  0.94592088097E+00  0.93800000000E+00 0. -1.
         22    1    1    2    0    0  0.30593702358E+00 -0.21925480886E+00  0.26038466426E+01  0.26309100083E+01  0.00000000000E+00 0. -1.
</event>
<event>
 5    1  0.1173395E+001  0.1498749E+01  0.7818608E-02  0.3471165E+00
         11   -1    0    0    0    0  0.00000000000E+00  0.00000000000E+00  0.39999999674E+01  0.40000000000E+01  0.51100000000E-03 0.  1.
    9000002   -1    0    0    0    0 -0.00000000000E+00 -0.00000000000E+00  0.00000000000E+00  0.93800000000E+00  0.93800000000E+00 0.  1.
         11    1    1    2    0    0  0.90611509016E-01  0.23785717229E+00  0.54008218387E+00  0.59705569793E+00  0.51100000000E-03 0.  1.
    9000002    1    1    2    0    0  0.54533305484E-01  0.81262415367E-01  0.83947794677E-01  0.94682030702E+00  0.93800000000E+00 0.  1.
         22    1    1    2    0    0 -0.14514481450E+00 -0.31911958765E+00  0.33759699888E+01  0.33941239951E+01  0.00000000000E+00 0.  1.
</event>
<event>
 5    1  0.1173395E+001  0.1492505E+01  0.7818608E-02  0.3478991E+00
         11   -1    0    0    0    0  0.00000000000E+00  0.00000000000E+00  0.39999999674E+01  0.40000000000E+01  0.51100000000E-03 0. -1.
    9000002   -1    0    0    0    0 -0.00000000000E+00 -0.00000000000E+00  0.00000000000E+00  0.93800000000E+00  0.93800000000E+00 0. -1.
         11    1    1    2    0    0  0.28260896744E+00 -0.19052988409E+00  0.94904698080E+00  0.10083947134E+01  0.51100000000E-03 0. -1.
    9000002    1    1    2    0    0 -0.14938660220E+00 -0.18559892569E+00  0.12413654179E+00  0.97571368707E+00  0.93800000000E+00 0. -1.
         22    1    1    2    0    0 -0.13322236523E+00  0.37612880978E+00  0.29268164448E+01  0.29538915995E+01  0.00000000000E+00 0. -1.
</event>
<event>
 5    1  0.1173395E+001  0.1560485E+01  0.7818608E-02  0.3397401E+00
         11   -1    0    0    0    0  0.00000000000E+00  0.00000000000E+00  0.39999999674E+01  0.40000000000E+01  0.51100000000E-03 0. -1.
    9000002   -1    0    0    0    0 -0.00000000000E+00 -0.00000000000E+00  0.00000000000E+00  0.93800000000E+00  0.93800000000E+00 0. -1.
         11    1    1    2    0    0 -0.21794713365E+00  0.31321051736E+00  0.10057929065E+01  0.10757422615E+01  0.51100000000E-03 0. -1.
    9000002    1    1    2    0    0  0.24420812487E+00 -0.57527469527E+00  0.31525224958E+00  0.11703873565E+01  0.93800000000E+00 0. -1.
         22    1    1    2    0    0 -0.26260991221E-01  0.26206417792E+00  0.26789548113E+01  0.26918703821E+01  0.00000000000E+00 0. -1.
</event>
<event>
 5    1  0.1173395E+001  0.1572605E+01  0.7818608E-02  0.3383644E+00
         11   -1    0    0    0    0  0.00000000000E+00  0.00000000000E+00  0.39999999674E+01  0.40000000000E+01  0.51100000000E-03 0.  1.
    9000002   -1    0    0    0    0 -0.00000000000E+00 -0.00000000000E+00  0.00000000000E+00  0.93800000000E+00  0.93800000000E+00 0. -1.
         11    1    1    2    0    0 -0.13742556959E+00  0.55529111497E-01  0.88859047283E+00  0.90086767004E+00  0.51100000000E-03 0.  1.
    9000002    1    1    2    0    0  0.28705645873E-01  0.20254770973E+00  0.48315654611E-01  0.96126374700E+00  0.93800000000E+00 0. -1.
         22    1    1    2    0    0  0.10871992371E+00 -0.25807682123E+00  0.30630938399E+01  0.30758685830E+01  0.00000000000E+00 0.  1.
</event>
<event>
 5    1  0.1173395E+001  0.1508724E+01  0.7818608E-02  0.3458807E+00
         11   -1    0    0    0    0  0.00000000000E+00  0.00000000000E+00  0.39999999674E+01  0.40000000000E+01  0.51100000000E-03 0.  1.
    9000002   -1    0    0    0    0 -0.00000000000E+00 -0.00000000000E+00  0.00000000000E+00  0.93800000000E+00  0.93800000000E+00 0.  1.
         11    1    1    2    0    0  0.32219697033E+00 -0.85193239444E-01  0.99711288851E+00  0.10513339856E+01  0.51100000000E-03 0.  1.
    9000002    1    1    2    0    0 -0.61185843456E-01  0.36963026969E-02  0.71676824148E-01  0.94272951434E+00  0.93800000000E+00 0.  1.
         22    1    1    2    0    0 -0.26101112688E+00  0.81496936747E-01  0.29312102547E+01  0.29439365001E+01  0.00000000000E+00 0.  1.
</event>
<event>
 5    1  0.1173395E+001  0.1587939E+01  0.7818608E-02  0.3366559E+00
         11   -1    0    0    0    0  0.00000000000E+00  0.00000000000E+00  0.39999999674E+01  0.40000000000E+01  0.51100000000E-03 0. -1.
    9000002   -1    0    0    0    0 -0.00000000000E+00 -0.00000000000E+00  0.00000000000E+00  0.93800000000E+00  0.93800000000E+00 0.  1.
         11    1    1    2    0    0  0.13751924589E+00  0.11677960117E+00  0.14509082250E+01  0.14620820623E+01  0.51100000000E-03 0. -1.
    9000002    1    1    2    0    0 -0.31689153280E-01 -0.33258593800E+00  0.84134680311E-01  0.99926985996E+00  0.93800000000E+00 0.  1.
         22    1    1    2    0    0 -0.10583009261E+00  0.21580633683E+00  0.24649570620E+01  0.24766480778E+01  0.00000000000E+00 0. -1.
</event>
<event>
 5    1  0.1173395E+001  0.1500548E+01  0.7818608E-02  0.3468923E+00
         11   -1    0    0    0    0  0.00000000000E+00  0.00000000000E+00  0.39999999674E+01  0.40000000000E+01  0.51100000000E-03 0.  1.
    9000002   -1    0    0    0    0 -0.00000000000E+00 -0.00000000000E+00  0.00000000000E+00  0.93800000000E+00  0.93800000000E+00 0. -1.
         11    1    1    2    0    0 -0.16874708849E+00 -0.32934889616E+00  0.10716881783E+01  0.11337822048E+01  0.51100000000E-03 0.  1.
    9000002    1    1    2    0    0 -0.17456816637E-01  0.13293235516E+00  0.88632488622E-01  0.95166983221E+00  0.93800000000E+00 0. -1.
         22    1    1    2    0    0  0.18620390513E+00  0.19641654100E+00  0.28396793005E+01  0.28525479630E+01  0.00000000000E+00 0.  1.
</event>
<event>
 5    1  0.1173395E+001  0.1467945E+01  0.7818608E-02  0.3510470E+00
         11   -1    0    0    0    0  0.00000000000E+00  0.00000000000E+00  0.39999999674E+01  0.40000000000E+01  0.51100000000E-03 0. -1.
    9000002   -1    0    0    0    0 -0.00000000000E+00 -0.00000000000E+00  0.00000000000E+00  0.93800000000E+00  0.93800000000E+00 0.  1.
         11    1    1    2    0    0 -0.41566270889E+00 -0.31360731641E+00  0.13890991603E+01  0.14834829877E+01  0.51100000000E-03 0. -1.
    9000002    1    1    2    0    0 -0.12985192955E-01  0.21273578746E+00  0.17322017648E+00  0.97738137901E+00  0.93800000000E+00 0.  1.
         22    1    1    2    0    0  0.42864790184E+00  0.10087152895E+00  0.24376806305E+01  0.24771356333E+01  0.00000000000E+00 0. -1.
</event>
<event>
 5    1  0.1173395E+001  0.1594021E+01  0.7818608E-02  0.3359879E+00
         11   -1    0    0    0    0  0.00000000000E+00  0.00000000000E+00  0.39999999674E+01  0.40000000000E+01  0.51100000000E-03 0.  1.
    9000002   -1    0    0    0    0 -0.00000000000E+00 -0.00000000000E+00  0.00000000000E+00  0.93800000000E+00  0.93800000000E+00 0.  1.
         11    1    1    2    0    0  0.57759157073E-01 -0.66645802342E-01  0.11592229379E+01  0.11625729500E+01  0.51100000000E-03 0.  1.
    9000002    1    1    2    0    0  0.81732314982E-02  0.41408030694E+00  0.12068415901E+00  0.10324427193E+01  0.93800000000E+00 0.  1.
         22    1    1    2    0    0 -0.65932388571E-01 -0.34743450460E+00  0.27200928705E+01  0.27429843308E+01  0.00000000000E+00 0.  1.
</event>
<event>
 5    1  0.1173395E+001  0.1387270E+01  0.7818608E-02  0.3627497E+00
         11   -1    0    0    0    0  0.00000000000E+00  0.00000000000E+00  0.39999999674E+01  0.40000000000E+01  0.51100000000E-03 0. -1.
    9000002   -1    0    0    0    0 -0.00000000000E+00 -0.00000000000E+00  0.00000000000E+00  0.93800000000E+00  0.93800000000E+00 0.  1.
         11    1    1    2    0    0  0.56013411723E+00  0.29890978235E+00  0.12883292960E+01  0.14362764091E+01  0.51100000000E-03 0. -1.
    9000002    1    1    2    0    0 -0.43087963881E+00  0.13893427003E+00  0.35368803305E+00  0.10999541896E+01  0.93800000000E+00 0.  1.
         22    1    1    2    0    0 -0.12925447842E+00 -0.43784405238E+00  0.23579826383E+01  0.24017694013E+01  0.00000000000E+00 0. -1.
</event>
<event>
 5    1  0.1173395E+001  0.1580756E+01  0.7818608E-02  0.3374519E+00
         11   -1    0    0    0    0  0.00000000000E+00  0.00000000000E+00  0.39999999674E+01  0.40000000000E+01  0.51100000000E-03 0.  1.
    9000002   -1    0    0    0    0 -0.00000000000E+00 -0.00000000000E+00  0.00000000000E+00  0.93800000000E+00  0.93800000000E+00 0.  1.
         11    1    1    2    0    0 -0.18970475389E+00 -0.93942240409E-02  0.96946512017E+00  0.98789626249E+00  0.51100000000E-03 0.  1.
    9000002    1    1    2    0    0  0.28211645392E+00 -0.28356933660E+00  0.12383903989E+00  0.10272202150E+01  0.93800000000E+00 0.  1.
         22    1    1    2    0    0 -0.92411700028E-01  0.29296356064E+00  0.29066958073E+01  0.29228835225E+01  0.00000000000E+00 0.  1.
</event>
<event>
 5    1  0.1173395E+001  0.1596294E+01  0.7818608E-02  0.3357396E+00
         11   -1    0    0    0    0  0.00000000000E+00  0.00000000000E+00  0.39999999674E+01  0.40000000000E+01  0.51100000000E-03 0. -1.
    9000002   -1    0    0    0    0 -0.00000000000E+00 -0.00000000000E+00  0.00000000000E+00  0.93800000000E+00  0.93800000000E+00 0.  1.
         11    1    1    2    0    0  0.12383075257E+00 -0.53953721652E-01  0.67101270233E+00  0.68447305803E+00  0.51100000000E-03 0. -1.
    9000002    1    1    2    0    0 -0.43335414764E+00  0.17422588921E+00  0.15151491523E+00  0.10587498511E+01  0.93800000000E+00 0.  1.
         22    1    1    2    0    0  0.30952339507E+00 -0.12027216756E+00  0.31774723498E+01  0.31947770908E+01  0.00000000000E+00 0. -1.
</event>
<event>
 5    1  0.1173395E+001  0.1587998E+01  0.7818608E-02  0.3366494E+00
         11   -1    0    0    0    0  0.00000000000E+00  0.00000000000E+00  0.39999999674E+01  0.40000000000E+01  0.51100000000E-03 0. -1.
    9000002   -1    0    0    0    0 -0.00000000000E+00 -0.00000000000E+00  0.00000000000E+00  0.93800000000E+00  0.93800000000E+00 0. -1.
         11    1    1    2    0    0 -0.45795729311E-01 -0.21508823351E-01  0.14538249413E+01  0.14547051589E+01  0.51100000000E-03 0. -1.
    9000002    1    1    2    0    0 -0.80729228885E-01 -0.21424492000E+00  0.43667004083E-01  0.96652413389E+00  0.93800000000E+00 0. -1.
         22    1    1    2    0    0  0.12652495820E+00  0.23575374335E+00  0.25025080220E+01  0.25167707072E+01  0.00000000000E+00 0.  1.
</event>
<event>
 5    1  0.1173395E+001  0.1474294E+01  0.7818608E-02  0.3502224E+00
         11   -1    0    0    0    0  0.00000000000E+00  0.00000000000E+00  0.39999999674E+01  0.40000000000E+01  0.51100000000E-03 0. -1.
    9000002   -1    0    0    0    0 -0.00000000000E+00 -0.00000000000E+00  0.00000000000E+00  0.93800000000E+00  0.93800000000E+00 0.  1.
         11    1    1    2    0    0  0.31968943955E+00 -0.25291779763E-01  0.45367977410E+00  0.55557772673E+00  0.51100000000E-03 0. -1.
    9000002    1    1    2    0    0 -0.23807334542E+00  0.40596129508E+00  0.27076100516E+00  0.10838076457E+01  0.93800000000E+00 0.  1.
         22    1    1    2    0    0 -0.81616094132E-01 -0.38066951531E+00  0.32755591881E+01  0.32986146276E+01  0.00000000000E+00 0. -1.
</event>
<event>
 5    1  0.1173395E+001  0.1513499E+01  0.7818608E-02  0.3452954E+00
         11   -1    0    0    0    0  0.00000000000E+00  0.00000000000E+00  0.39999999674E+01  0.40000000000E+01  0.51100000000E-03 0. -1.
    9000002   -1    0    0    0    0 -0.00000000000E+00 -0.00000000000E+00  0.00000000000E+00  0.93800000000E+00  0.93800000000E+00 0.  1.
         11    1    1    2    0    0 -0.22393684816E+00  0.30819197668E-01  0.52440448365E+00  0.57104978636E+00  0.51100000000E-03 0. -1.
    9000002    1    1    2    0    0 -0.13380765784E+00 -0.23570412357E-01  0.78469520863E-01  0.95103181826E+00  0.93800000000E+00 0.  1.
         22    1    1    2    0    0  0.35774450600E+00 -0.72487853111E-02  0.33971259628E+01  0.34159183954E+01  0.00000000000E+00 0. -1.
</event>
<event>
 5    1  0.1173395E+001  0.1598211E+01  0.7818608E-02  0.3355307E+00
         11   -1    0    0    0    0  0.00000000000E+00  0.00000000000E+00  0.39999999674E+01  0.40000000000E+01  0.51100000000E-03 0. -1.
    9000002   -1    0    0    0    0 -0.00000000000E+00 -0.00000000000E+00  0.00000000000E+00  0.93800000000E+00  0.93800000000E+00 0. -1.
         11    1    1    2    0    0 -0.59278221337E-01 -0.41379822542E-01  0.71425257820E+00  0.71790194583E+00  0.51100000000E-03 0. -1.
    9000002    1    1    2    0    0  0.36666949710E+00  0.36258931865E-01  0.92414970616E-01  0.10120008681E+01  0.93800000000E+00 0. -1.
         22    1    1    2    0    0 -0.30739127577E+00  0.51208906760E-02  0.31933324185E+01  0.32080971861E+01  0.00000000000E+00 0. -1.
</event>
<event>
 5    1  0.1173395E+001  0.1546821E+01  0.7818608E-02  0.3413185E+00
         11   -1    0    0    0    0  0.00000000000E+00  0.00000000000E+00  0.39999999674E+01  0.40000000000E+01  0.51100000000E-03 0. -1.
    9000002   -1    0    0    0    0 -0.00000000000E+00 -0.00000000000E+00  0.00000000000E+00  0.93800000000E+00  0.93800000000E+00 0. -1.
         11    1    1    2    0    0 -0.15012960563E+00  0.17194833971E+00  0.62572361636E+00  0.66605963337E+00  0.51100000000E-03 0. -1.
    9000002    1    1    2    0    0 -0.15991467735E+00 -0.39182974629E+00  0.16735414087E+00  0.10425711787E+01  0.93800000000E+00 0. -1.
         22    1    1    2    0    0  0.31004428298E+00  0.21988140658E+00  0.32069222101E+01  0.32293691880E+01  0.00000000000E+00 0. -1.
</event>
<event>
 5    1  0.1173395E+001  0.1543089E+01  0.7818608E-02  0.3417547E+00
         11   -1    0    0    0    0  0.00000000000E+00  0.00000000000E+00  0.39999999674E+01  0.40000000000E+01  0.51100000000E-03 0. -1.
    9000002   -1    0    0    0    0 -0.00000000000E+00 -0.00000000000E+00  0.00000000000E+00  0.93800000000E+00  0.93800000000E+00 0.  1.
         11    1    1    2    0    0  0.12988193535E-01 -0.34778013544E+00  0.55688039376E+00  0.65668542686E+00  0.51100000000E-03 0. -1.
    9000002    1    1    2    0    0  0.30833538282E+00  0.79635361915E+00  0.63325072610E+00  0.14177800525E+01  0.93800000000E+00 0.  1.
         22    1    1    2    0    0 -0.32132357635E+00 -0.44857348371E+00  0.28098688475E+01  0.28635345207E+01  0.00000000000E+00 0.  1.
</event>
<event>
 5    1  0.1173395E+001  0.1596603E+01  0.7818608E-02  0.3357059E+00
         11   -1    0    0    0    0  0.00000000000E+00  0.00000000000E+00  0.39999999674E+01  0.40000000000E+01  0.51100000000E-03 0.  1.
    9000002   -1    0    0    0    0 -0.00000000000E+00 -0.00000000000E+00  0.00000000000E+00  0.93800000000E+00  0.93800000000E+00 0.  1.
         11    1    1    2    0    0 -0.63551805222E-02 -0.64687825724E-01  0.61753972069E+00  0.62095126287E+00  0.51100000000E-03 0.  1.
    9000002    1    1    2    0    0  0.27517823292E+00  0.21039486678E+00  0.82896013807E-01  0.10033468039E+01  0.93800000000E+00 0.  1.
         22    1    1    2    0    0 -0.26882305239E+00 -0.14570704105E+00  0.32995642329E+01  0.33137019332E+01  0.00000000000E+00 0.  1.
</event>
<event>
 5    1  0.1173395E+001  0.1566330E+01  0.7818608E-02  0.3390739E+00
         11   -1    0    0    0    0  0.00000000000E+00  0.00000000000E+00  0.39999999674E+01  0.40000000000E+01  0.51100000000E-03 0.  1.
    9000002   -1    0    0    0    0 -0.00000000000E+00 -0.00000000000E+00  0.00000000000E+00  0.93800000000E+00  0.93800000000E+00 0. -1.
         11    1    1    2    0    0 -0.20670378418E+00 -0.18374613233E+00  0.13420117989E+01  0.13702134962E+01  0.51100000000E-03 0.  1.
    9000002    1    1    2    0    0  0.33968055841E+00 -0.15712522836E-01  0.10463625618E+00  0.10032061160E+01  0.93800000000E+00 0. -1.
         22    1    1    2    0    0 -0.13297677423E+00  0.19945865516E+00  0.25533519122E+01  0.25645803878E+01  0.00000000000E+00 0.  1.
</event>
<event>
 5    1  0.1173395E+001  0.1582992E+01  0.7818608E-02  0.3372033E+00
         11   -1    0    0    0    0  0.00000000000E+00  0.00000000000E+00  0.39999999674E+01  0.40000000000E+01  0.51100000000E-03 0. -1.
    9000002   -1    0    0    0    0 -0.00000000000E+00 -0.00000000000E+00  0.00000000000E+00  0.93800000000E+00  0.93800000000E+00 0.  1.
         11    1    1    2    0    0 -0.44651215820E-01  0.44359403221E-01  0.77868918653E+00  0.78122890248E+00  0.51100000000E-03 0. -1.
    9000002    1    1    2    0    0 -0.30117128847E+00  0.11322375060E+00  0.82540983829E-01  0.99507827667E+00  0.93800000000E+00 0.  1.
         22    1    1    2    0    0  0.34582250429E+00 -0.15758315382E+00  0.31387697970E+01  0.31616928208E+01  0.00000000000E+00 0. -1.
</event>
<event>
 5    1  0.1173395E+001  0.1585536E+01  0.7818608E-02  0.3369213E+00
         11   -1    0    0    0    0  0.00000000000E+00  0.00000000000E+00  0.39999999674E+01  0.40000000000E+01  0.51100000000E-03 0. -1.
    9000002   -1    0    0    0    0 -0.00000000000E+00 -0.00000000000E+00  0.00000000000E+00  0.93800000000E+00  0.93800000000E+00 0. -1.
         11    1    1    2    0    0  0.65218897319E-02  0.38737112248E-01  0.11269165913E+01  0.11276011546E+01  0.51100000000E-03 0. -1.
    9000002    1    1    2    0    0 -0.33904356717E+00  0.18444158240E+00  0.11205152544E+00  0.10204747827E+01  0.93800000000E+00 0. -1.
         22    1    1    2    0    0  0.33252167744E+00 -0.22317869465E+00  0.27610318506E+01  0.27899240627E+01  0.00000000000E+00 0. -1.
</event>
<event>
 5    1  0.1173395E+001  0.1517056E+01  0.7818608E-02  0.3448620E+00
         11   -1    0    0    0    0  0.00000000000E+00  0.00000000000E+00  0.39999999674E+01  0.40000000000E+01  0.51100000000E-03 0. -1.
    9000002   -1    0    0    0    0 -0.00000000000E+00 -0.00000000000E+00  0.00000000000E+00  0.93800000000E+00  0.93800000000E+00 0.  1.
         11    1    1    2    0    0  0.11883509859E+00  0.32749991311E+00  0.11797601981E+01  0.12301269690E+01  0.51100000000E-03 0. -1.
    9000002    1    1    2    0    0 -0.43368536232E-01 -0.89826612761E-01  0.69491669701E-01  0.94584498860E+00  0.93800000000E+00 0.  1.
         22    1    1    2    0    0 -0.75466562353E-01 -0.23767330035E+00  0.27507480996E+01  0.27620280424E+01  0.00000000000E+00 0. -1.
</event>
<event>
 5    1  0.1173395E+001  0.1458308E+01  0.7818608E-02  0.3523138E+00
         11   -1    0    0    0    0  0.00000000000E+00  0.00000000000E+00  0.39999999674E+01  0.40000000000E+01  0.51100000000E-03 0. -1.
    9000002   -1    0    0    0    0 -0.00000000000E+00 -0.00000000000E+00  0.00000000000E+00  0.93800000000E+00  0.93800000000E+00 0. -1.
         11    1    1    2    0    0  0.29994033027E+00 -0.32691666193E+00  0.12390087702E+01  0.13160477573E+01  0.51100000000E-03 0. -1.
    9000002    1    1    2    0    0 -0.95047426053E-03  0.84597764296E-01  0.11578746951E+00  0.94889853157E+00  0.93800000000E+00 0. -1.
         22    1    1    2    0    0 -0.29898985601E+00  0.24231889764E+00  0.26452037276E+01  0.26730537112E+01  0.00000000000E+00 0. -1.
</event>
<event>
 5    1  0.1173395E+001  0.1491896E+01  0.7818608E-02  0.3479757E+00
         11   -1    0    0    0    0  0.00000000000E+00  0.00000000000E+00  0.39999999674E+01  0.40000000000E+01  0.51100000000E-03 0.  1.
    9000002   -1    0    0    0    0 -0.00000000000E+00 -0.00000000000E+00  0.00000000000E+00  0.93800000000E+00  0.93800000000E+00 0.  1.
         11    1    1    2    0    0  0.33420480808E+00  0.86759366823E-01  0.91119053922E+00  0.97441700588E+00  0.51100000000E-03 0.  1.
    9000002    1    1    2    0    0 -0.62511939516E-02 -0.13989255384E+00  0.96953974989E-01  0.95333786105E+00  0.93800000000E+00 0.  1.
         22    1    1    2    0    0 -0.32795361413E+00  0.53133187018E-01  0.29918554532E+01  0.30102451331E+01  0.00000000000E+00 0.  1.
</event>
<event>
 5    1  0.1173395E+001  0.1593517E+01  0.7818608E-02  0.3360430E+00
         11   -1    0    0    0    0  0.00000000000E+00  0.00000000000E+00  0.39999999674E+01  0.40000000000E+01  0.51100000000E-03 0.  1.
    9000002   -1    0    0    0    0 -0.00000000000E+00 -0.00000000000E+00  0.00000000000E+00  0.93800000000E+00  0.93800000000E+00 0.  1.
         11    1    1    2    0    0  0.82754444049E-01  0.44484579946E-01  0.14534476599E+01  0.14564812175E+01  0.51100000000E-03 0.  1.
    9000002    1    1    2    0    0 -0.31637984351E+00  0.10798644019E+00  0.79737613573E-01  0.99897916077E+00  0.93800000000E+00 0.  1.
         22    1    1    2    0    0  0.23362539946E+00 -0.15247102014E+00  0.24668146939E+01  0.24825396217E+01  0.00000000000E+00 0.  1.
</event>
<event>
 5    1  0.1173395E+001  0.1521470E+01  0.7818608E-02  0.3443271E+00
         11   -1    0    0    0    0  0.00000000000E+00  0.00000000000E+00  0.39999999674E+01  0.40000000000E+01  0.51100000000E-03 0. -1.
    9000002   -1    0    0    0    0 -0.00000000000E+00 -0.00000000000E+00  0.00000000000E+00  0.93800000000E+00  0.93800000000E+00 0. -1.
         11    1    1    2    0    0 -0.15275283897E+00 -0.30522588090E+00  0.12284602565E+01  0.12749945612E+01  0.51100000000E-03 0. -1.
    9000002    1    1    2    0    0 -0.77596601602E-02  0.10632435055E+00  0.66997636276E-01  0.94641310384E+00  0.93800000000E+00 0. -1.
         22    1    1    2    0    0  0.16051249913E+00  0.19890153036E+00  0.27045420746E+01  0.27165923349E+01  0.00000000000E+00 0. -1.
</event>
<event>
 5    1  0.1173395E+001  0.1493374E+01  0.7818608E-02  0.3477896E+00
         11   -1    0    0    0    0  0.00000000000E+00  0.00000000000E+00  0.39999999674E+01  0.40000000000E+01  0.51100000000E-03 0. -1.
    9000002   -1    0    0    0    0 -0.00000000000E+00 -0.00000000000E+00  0.00000000000E+00  0.93800000000E+00  0.93800000000E+00 0.  1.
         11    1    1    2    0    0  0.12606065056E+00 -0.48971053883E+00  0.97572705662E+00  0.10989773654E+01  0.51100000000E-03 0. -1.
    9000002    1    1    2    0    0 -0.36504704814E+00  0.48999428052E+00  0.37737732552E+00  0.11813599740E+01  0.93800000000E+00 0.  1.
         22    1    1    2    0    0  0.23898639758E+00 -0.28374169395E-03  0.26468955852E+01  0.26576626606E+01  0.00000000000E+00 0. -1.
</event>
<event>
 5    1  0.1173395E+001  0.1514652E+01  0.7818608E-02  0.3451547E+00
         11   -1    0    0    0    0  0.00000000000E+00  0.00000000000E+00  0.39999999674E+01  0.40000000000E+01  0.51100000000E-03 0.  1.
    9000002   -1    0    0    0    0 -0.00000000000E+00 -0.00000000000E+00  0.00000000000E+00  0.93800000000E+00  0.93800000000E+00 0. -1.
         11    1    1    2    0    0  0.17377773538E+00 -0.22231096595E+00  0.87488504158E+00  0.91926327241E+00  0.51100000000E-03 0.  1.
    9000002    1    1    2    0    0 -0.94896713729E-01 -0.12852462914E+00  0.82645689897E-01  0.95509071644E+00  0.93800000000E+00 0. -1.
         22    1    1    2    0    0 -0.78881021649E-01  0.35083559509E+00  0.30424692359E+01  0.30636460112E+01  0.00000000000E+00 0.  1.
</event>
<event>
 5    1  0.1173395E+001  0.1531185E+01  0.7818608E-02  0.3431615E+00
         11   -1    0    0    0    0  0.00000000000E+00  0.00000000000E+00  0.39999999674E+01  0.40000000000E+01  0.51100000000E-03 0.  1.
    9000002   -1    0    0    0    0 -0.00000000000E+00 -0.00000000000E+00  0.00000000000E+00  0.93800000000E+00  0.93800000000E+00 0.  1.
         11    1    1    2    0    0 -0.23571844479E+00  0.20241883210E+00  0.11829976831E+01  0.12231191063E+01  0.51100000000E-03 0.  1.
    9000002    1    1    2    0    0 -0.65067790581E-02 -0.12211159482E+00  0.61873329965E-01  0.94795880117E+00  0.93800000000E+00 0.  1.
         22    1    1    2    0    0  0.24222522385E+00 -0.80307237279E-01  0.27551289543E+01  0.27669220925E+01  0.00000000000E+00 0. -1.
</event>
<event>
 5    1  0.1173395E+001  0.1587783E+01  0.7818608E-02  0.3366731E+00
         11   -1    0    0    0    0  0.00000000000E+00  0.00000000000E+00  0.39999999674E+01  0.40000000000E+01  0.51100000000E-03 0.  1.
    9000002   -1    0    0    0    0 -0.00000000000E+00 -0.00000000000E+00  0.00000000000E+00  0.93800000000E+00  0.93800000000E+00 0.  1.
         11    1    1    2    0    0 -0.45504004302E-01 -0.13075141616E+00  0.10282279486E+01  0.10375063964E+01  0.51100000000E-03 0.  1.
    9000002    1    1    2    0    0 -0.22824409013E+00  0.31724956818E+00  0.11280833731E+00  0.10224051908E+01  0.93800000000E+00 0.  1.
         22    1    1    2    0    0  0.27374809443E+00 -0.18649815202E+00  0.28589636815E+01  0.28780884128E+01  0.00000000000E+00 0.  1.
</event>
<event>
 5    1  0.1173395E+001  0.1586668E+01  0.7818608E-02  0.3367962E+00
         11   -1    0    0    0    0  0.00000000000E+00  0.00000000000E+00  0.39999999674E+01  0.40000000000E+01  0.51100000000E-03 0.  1.
    9000002   -1    0    0    0    0 -0.00000000000E+00 -0.00000000000E+00  0.00000000000E+00  0.93800000000E+00  0.93800000000E+00 0. -1.
         11    1    1    2    0    0 -0.27926333744E+00 -0.11543200854E+00  0.11118567383E+01  0.11521884516E+01  0.51100000000E-03 0.  1.
    9000002    1    1    2    0    0  0.57291920172E+00  0.16454157702E+00  0.26068606481E+00  0.11415391218E+01  0.93800000000E+00 0. -1.
         22    1    1    2    0    0 -0.29365586428E+00 -0.49109568486E-01  0.26274571642E+01  0.26442724266E+01  0.00000000000E+00 0.  1.
</event>
<event>
 5    1  0.1173395E+001  0.1526137E+01  0.7818608E-02  0.3437652E+00
         11   -1    0    0    0    0  0.00000000000E+00  0.00000000000E+00  0.39999999674E+01  0.40000000000E+01  0.51100000000E-03 0. -1.
    9000002   -1    0    0    0    0 -0.00000000000E+00 -0.00000000000E+00  0.00000000000E+00  0.93800000000E+00  0.93800000000E+00 0.  1.
         11    1    1    2    0    0  0.26147040942E+00  0.13392904830E+00  0.67373108937E+00  0.73499497065E+00  0.51100000000E-03 0. -1.
    9000002    1    1    2    0    0 -0.94026790877E-01 -0.39593456470E+00  0.17609835832E+00  0.10375258304E+01  0.93800000000E+00 0.  1.
         22    1    1    2    0    0 -0.16744361855E+00  0.26200551640E+00  0.31501705197E+01  0.31654791990E+01  0.00000000000E+00 0. -1.
</event>
<event>
 5    1  0.1173395E+001  0.1261850E+01  0.7818608E-02  0.3857633E+00
         11   -1    0    0    0    0  0.00000000000E+00  0.00000000000E+00  0.39999999674E+01  0.40000000000E+01  0.51100000000E-03 0. -1.
    9000002   -1    0    0    0    0 -0.00000000000E+00 -0.00000000000E+00  0.00000000000E+00  0.93800000000E+00  0.93800000000E+00 0.  1.
         11    1    1    2    0    0  0.87529584589E+00  0.87863427199E-02  0.83845193657E+00  0.12121146516E+01  0.51100000000E-03 0. -1.
    9000002    1    1    2    0    0 -0.68760507228E+00  0.31056977065E+00  0.10979111577E+01  0.16292658556E+01  0.93800000000E+00 0.  1.
         22    1    1    2    0    0 -0.18769077361E+00 -0.31935611337E+00  0.20636368731E+01  0.20966194928E+01  0.00000000000E+00 0. -1.
</event>
<event>
 5    1  0.1173395E+001  0.1518281E+01  0.7818608E-02  0.3447132E+00
         11   -1    0    0    0    0  0.00000000000E+00  0.00000000000E+00  0.39999999674E+01  0.40000000000E+01  0.51100000000E-03 0.  1.
    9000002   -1    0    0    0    0 -0.00000000000E+00 -0.00000000000E+00  0.00000000000E+00  0.93800000000E+00  0.93800000000E+00 0. -1.
         11    1    1    2    0    0 -0.20066078513E+00  0.20958861881E+00  0.10435304611E+01  0.10831196721E+01  0.51100000000E-03 0.  1.
    9000002    1    1    2    0    0  0.14403542551E+00  0.18093315224E+00  0.99962726118E-01  0.97124639304E+00  0.93800000000E+00 0. -1.
         22    1    1    2    0    0  0.56625359615E-01 -0.39052177105E+00  0.28565067801E+01  0.28836339348E+01  0.00000000000E+00 0.  1.
</event>
<event>
 5    1  0.1173395E+001  0.1512748E+01  0.7818608E-02  0.3453872E+00
         11   -1    0    0    0    0  0.00000000000E+00  0.00000000000E+00  0.39999999674E+01  0.40000000000E+01  0.51100000000E-03 0. -1.
    9000002   -1    0    0    0    0 -0.00000000000E+00 -0.00000000000E+00  0.00000000000E+00  0.93800000000E+00  0.93800000000E+00 0.  1.
         11    1    1    2    0    0  0.29933407353E+00 -0.58212916589E-01  0.12587791258E+01  0.12951890904E+01  0.51100000000E-03 0. -1.
    9000002    1    1    2    0    0  0.83125547556E-01 -0.56329288266E-02  0.70761828309E-01  0.94434782940E+00  0.93800000000E+00 0.  1.
         22    1    1    2    0    0 -0.38245962108E+00  0.63845845415E-01  0.26704590132E+01  0.26984630802E+01  0.00000000000E+00 0. -1.
</event>
<event>
 5    1  0.1173395E+001  0.1561846E+01  0.7818608E-02  0.3395845E+00
         11   -1    0    0    0    0  0.00000000000E+00  0.00000000000E+00  0.39999999674E+01  0.40000000000E+01  0.51100000000E-03 0.  1.
    9000002   -1    0    0    0    0 -0.00000000000E+00 -0.00000000000E+00  0.00000000000E+00  0.93800000000E+00  0.93800000000E+00 0.  1.
         11    1    1    2    0    0 -0.52795228324E-01  0.15302265892E+00  0.11221014015E+01  0.11337173751E+01  0.51100000000E-03 0.  1.
    9000002    1    1    2    0    0  0.15018850005E+00  0.20369154851E+00  0.72087861738E-01  0.97421121544E+00  0.93800000000E+00 0.  1.
         22    1    1    2    0    0 -0.97393271725E-01 -0.35671420743E+00  0.28058107041E+01  0.28300714095E+01  0.00000000000E+00 0.  1.
</event>
<event>
 5    1  0.1173395E+001  0.1532768E+01  0.7818608E-02  0.3429731E+00
         11   -1    0    0    0    0  0.00000000000E+00  0.00000000000E+00  0.39999999674E+01  0.40000000000E+01  0.51100000000E-03 0. -1.
    9000002   -1    0    0    0    0 -0.00000000000E+00 -0.00000000000E+00  0.00000000000E+00  0.93800000000E+00  0.93800000000E+00 0.  1.
         11    1    1    2    0    0  0.61509867810E-01 -0.19821559408E+00  0.55398590540E+00  0.59158560672E+00  0.51100000000E-03 0. -1.
    9000002    1    1    2    0    0 -0.13257123986E+00 -0.11552788716E+00  0.71949142521E-01  0.95704885218E+00  0.93800000000E+00 0.  1.
         22    1    1    2    0    0  0.71061372053E-01  0.31374348124E+00  0.33740649194E+01  0.33893655411E+01  0.00000000000E+00 0. -1.
</event>
<event>
 5    1  0.1173395E+001  0.1587817E+01  0.7818608E-02  0.3366694E+00
         11   -1    0    0    0    0  0.00000000000E+00  0.00000000000E+00  0.39999999674E+01  0.40000000000E+01  0.51100000000E-03 0. -1.
    9000002   -1    0    0    0    0 -0.00000000000E+00 -0.00000000000E+00  0.00000000000E+00  0.93800000000E+00  0.93800000000E+00 0. -1.
         11    1    1    2    0    0 -0.18872916476E+00 -0.19455094037E-01  0.88601242413E+00  0.90609904268E+00  0.51100000000E-03 0. -1.
    9000002    1    1    2    0    0  0.40003143841E+00  0.32755470600E+00  0.19445883150E+00  0.10885657878E+01  0.93800000000E+00 0. -1.
         22    1    1    2    0    0 -0.21130227365E+00 -0.30809961196E+00  0.29195287117E+01  0.29433351696E+01  0.00000000000E+00 0. -1.
</event>
<event>
 5    1  0.1173395E+001  0.1518436E+01  0.7818608E-02  0.3446944E+00
         11   -1    0    0    0    0  0.00000000000E+00  0.00000000000E+00  0.39999999674E+01  0.40000000000E+01  0.51100000000E-03 0.  1.
    9000002   -1    0    0    0    0 -0.00000000000E+00 -0.00000000000E+00  0.00000000000E+00  0.93800000000E+00  0.93800000000E+00 0.  1.
         11    1    1    2    0    0 -0.28173059854E+00 -0.81985304540E-01  0.95307532525E+00  0.99721941268E+00  0.51100000000E-03 0.  1.
    9000002    1    1    2    0    0  0.22724300479E-01 -0.93724717962E-01  0.67928718409E-01  0.94538829450E+00  0.93800000000E+00 0.  1.
         22    1    1    2    0    0  0.25900629806E+00  0.17571002250E+00  0.29789959237E+01  0.29953922928E+01  0.00000000000E+00 0.  1.
</event>
<event>
 5    1  0.1173395E+001  0.1551912E+01  0.7818608E-02  0.3407269E+00
         11   -1    0    0    0    0  0.00000000000E+00  0.00000000000E+00  0.39999999674E+01  0.40000000000E+01  0.51100000000E-03 0. -1.
    9000002   -1    0    0    0    0 -0.00000000000E+00 -0.00000000000E+00  0.00000000000E+00  0.93800000000E+00  0.93800000000E+00 0. -1.
         11    1    1    2    0    0  0.16049054478E+00  0.13493499774E+00  0.90976127100E+00  0.93361153587E+00  0.51100000000E-03 0. -1.
    9000002    1    1    2    0    0  0.13977423160E+00 -0.10674806974E+00  0.56842546386E-01  0.95603716523E+00  0.93800000000E+00 0. -1.
         22    1    1    2    0    0 -0.30026477639E+00 -0.28186928003E-01  0.30333961500E+01  0.30483512989E+01  0.00000000000E+00 0. -1.
</event>
<event>
 5    1  0.1173395E+001  0.1448187E+01  0.7818608E-02  0.3536638E+00
         11   -1    0    0    0    0  0.00000000000E+00  0.00000000000E+00  0.39999999674E+01  0.40000000000E+01  0.51100000000E-03 0. -1.
    9000002   -1    0    0    0    0 -0.00000000000E+00 -0.00000000000E+00  0.00000000000E+00  0.93800000000E+00  0.93800000000E+00 0. -1.
         11    1    1    2    0    0  0.32561513073E+00 -0.39878994869E-01  0.56021414634E+00  0.64919619413E+00  0.51100000000E-03 0. -1.
    9000002    1    1    2    0    0  0.78415267591E-01  0.13014388115E+00  0.13685720301E+00  0.96003139428E+00  0.93800000000E+00 0. -1.
         22    1    1    2    0    0 -0.40403039832E+00 -0.90264886279E-01  0.33029286180E+01  0.33287724116E+01  0.00000000000E+00 0. -1.
</event>
<event>
 5    1  0.1173395E+001  0.1539154E+01  0.7818608E-02  0.3422172E+00
         11   -1    0    0    0    0  0.00000000000E+00  0.00000000000E+00  0.39999999674E+01  0.40000000000E+01  0.51100000000E-03 0.  1.
    9000002   -1    0    0    0    0 -0.00000000000E+00 -0.00000000000E+00  0.00000000000E+00  0.93800000000E+00  0.93800000000E+00 0.  1.
         11    1    1    2    0    0  0.14545166008E+00 -0.15348925136E+00  0.57890552021E+00  0.61631728691E+00  0.51100000000E-03 0.  1.
    9000002    1    1    2    0    0 -0.22222793170E+00 -0.18118280334E+00  0.10341422412E+00  0.98628138156E+00  0.93800000000E+00 0.  1.
         22    1    1    2    0    0  0.76776271618E-01  0.33467205470E+00  0.33176802230E+01  0.33354013315E+01  0.00000000000E+00 0.  1.
</event>
<event>
 5    1  0.1173395E+001  0.1533432E+01  0.7818608E-02  0.3428942E+00
         11   -1    0    0    0    0  0.00000000000E+00  0.00000000000E+00  0.39999999674E+01  0.40000000000E+01  0.51100000000E-03 0.  1.
    9000002   -1    0    0    0    0 -0.00000000000E+00 -0.00000000000E+00  0.00000000000E+00  0.93800000000E+00  0.93800000000E+00 0.  1.
         11    1    1    2    0    0 -0.10488452700E+00 -0.20851409273E+00  0.10693744868E+01  0.10945505676E+01  0.51100000000E-03 0.  1.
    9000002    1    1    2    0    0 -0.96789935562E-02 -0.16733276759E+00  0.69411692777E-01  0.95538260457E+00  0.93800000000E+00 0.  1.
         22    1    1    2    0    0  0.11456352056E+00  0.37584686033E+00  0.28612137878E+01  0.28880668278E+01  0.00000000000E+00 0.  1.
</event>
<event>
 5    1  0.1173395E+001  0.1496121E+01  0.7818608E-02  0.3474449E+00
         11   -1    0    0    0    0  0.00000000000E+00  0.00000000000E+00  0.39999999674E+01  0.40000000000E+01  0.51100000000E-03 0.  1.
    9000002   -1    0    0    0    0 -0.00000000000E+00 -0.00000000000E+00  0.00000000000E+00  0.93800000000E+00  0.93800000000E+00 0. -1.
         11    1    1    2    0    0  0.11353043212E+00  0.28214977429E+00  0.79903737367E+00  0.85496119198E+00  0.51100000000E-03 0.  1.
    9000002    1    1    2    0    0  0.16661976280E+00 -0.18794393767E-01  0.99743981263E-01  0.95807527700E+00  0.93800000000E+00 0. -1.
         22    1    1    2    0    0 -0.28015019492E+00 -0.26335538053E+00  0.31012186124E+01  0.31249635310E+01  0.00000000000E+00 0.  1.
</event>
<event>
 5    1  0.1173395E+001  0.1553958E+01  0.7818608E-02  0.3404904E+00
         11   -1    0    0    0    0  0.00000000000E+00  0.00000000000E+00  0.39999999674E+01  0.40000000000E+01  0.51100000000E-03 0. -1.
    9000002   -1    0    0    0    0 -0.00000000000E+00 -0.00000000000E+00  0.00000000000E+00  0.93800000000E+00  0.93800000000E+00 0. -1.
         11    1    1    2    0    0  0.24705041177E+00  0.25178843969E-01  0.82407313367E+00  0.86067686788E+00  0.51100000000E-03 0. -1.
    9000002    1    1    2    0    0 -0.18579805746E+00 -0.32930047291E+00  0.13464681762E+00  0.10202614788E+01  0.93800000000E+00 0. -1.
         22    1    1    2    0    0 -0.61252354314E-01  0.30412162894E+00  0.30412800161E+01  0.30570616533E+01  0.00000000000E+00 0. -1.
</event>
<event>
 5    1  0.1173395E+001  0.1514458E+01  0.7818608E-02  0.3451784E+00
         11   -1    0    0    0    0  0.00000000000E+00  0.00000000000E+00  0.39999999674E+01  0.40000000000E+01  0.51100000000E-03 0. -1.
    9000002   -1    0    0    0    0 -0.00000000000E+00 -0.00000000000E+00  0.00000000000E+00  0.93800000000E+00  0.93800000000E+00 0. -1.
         11    1    1    2    0    0  0.22947261244E+00  0.95348532257E-01  0.63171977575E+00  0.67883662147E+00  0.51100000000E-03 0. -1.
    9000002    1    1    2    0    0 -0.23563056817E-01  0.22511671475E+00  0.10149620011E+00  0.97024647979E+00  0.93800000000E+00 0. -1.
         22    1    1    2    0    0 -0.20590955562E+00 -0.32046524701E+00  0.32667839915E+01  0.32889168987E+01  0.00000000000E+00 0. -1.
</event>
<event>
 5    1  0.1173395E+001  0.1485766E+01  0.7818608E-02  0.3487515E+00
         11   -1    0    0    0    0  0.00000000000E+00  0.00000000000E+00  0.39999999674E+01  0.40000000000E+01  0.51100000000E-03 0.  1.
    9000002   -1    0    0    0    0 -0.00000000000E+00 -0.00000000000E+00  0.00000000000E+00  0.93800000000E+00  0.93800000000E+00 0.  1.
         11    1    1    2    0    0 -0.11235531277E+00 -0.29665439970E+00  0.69143654401E+00  0.76073142743E+00  0.51100000000E-03 0.  1.
    9000002    1    1    2    0    0 -0.62764820253E-01  0.40816618187E-01  0.91634489336E-01  0.94543444967E+00  0.93800000000E+00 0.  1.
         22    1    1    2    0    0  0.17512013302E+00  0.25583778152E+00  0.32169289340E+01  0.32318341229E+01  0.00000000000E+00 0.  1.
</event>
<event>
 5    1  0.1173395E+001  0.1551323E+01  0.7818608E-02  0.3407952E+00
         11   -1    0    0    0    0  0.00000000000E+00  0.00000000000E+00  0.39999999674E+01  0.40000000000E+01  0.51100000000E-03 0. -1.
    9000002   -1    0    0    0    0 -0.00000000000E+00 -0.00000000000E+00  0.00000000000E+00  0.93800000000E+00  0.93800000000E+00 0.  1.
         11    1    1    2    0    0  0.19340143616E+00  0.78383039595E-01  0.11734769311E+01  0.11918877403E+01  0.51100000000E-03 0. -1.
    9000002    1    1    2    0    0  0.14915759154E+00 -0.11145377634E+00  0.59910958898E-01  0.95817704751E+00  0.93800000000E+00 0.  1.
         22    1    1    2    0    0 -0.34255902770E+00  0.33070736741E-01  0.27666120773E+01  0.27879352122E+01  0.00000000000E+00 0. -1.
</event>
<event>
 5    1  0.1173395E+001  0.1490742E+01  0.7818608E-02  0.3481213E+00
         11   -1    0    0    0    0  0.00000000000E+00  0.00000000000E+00  0.39999999674E+01  0.40000000000E+01  0.51100000000E-03 0. -1.
    9000002   -1    0    0    0    0 -0.00000000000E+00 -0.00000000000E+00  0.00000000000E+00  0.93800000000E+00  0.93800000000E+00 0.  1.
         11    1    1    2    0    0 -0.36572658030E+00 -0.27108083347E+00  0.83497526672E+00  0.95101246415E+00  0.51100000000E-03 0. -1.
    9000002    1    1    2    0    0  0.61756662735E-01 -0.13961865852E-01  0.16054072004E+00  0.95374322639E+00  0.93800000000E+00 0.  1.
         22    1    1    2    0    0  0.30396991756E+00  0.28504269933E+00  0.30044839806E+01  0.30332443095E+01  0.00000000000E+00 0. -1.
</event>
<event>
 5    1  0.1173395E+001  0.1499206E+01  0.7818608E-02  0.3470595E+00
         11   -1    0    0    0    0  0.00000000000E+00  0.00000000000E+00  0.39999999674E+01  0.40000000000E+01  0.51100000000E-03 0.  1.
    9000002   -1    0    0    0    0 -0.00000000000E+00 -0.00000000000E+00  0.00000000000E+00  0.93800000000E+00  0.93800000000E+00 0. -1.
         11    1    1    2    0    0 -0.24068700451E+00 -0.99733294777E-01  0.58736235948E+00  0.64255098372E+00  0.51100000000E-03 0.  1.
    9000002    1    1    2    0    0 -0.70333191232E-01 -0.95890337934E-01  0.86918618695E-01  0.94949489781E+00  0.93800000000E+00 0. -1.
         22    1    1    2    0    0  0.31102019575E+00  0.19562363271E+00  0.33257189892E+01  0.33459541185E+01  0.00000000000E+00 0.  1.
</event>
<event>
 5    1  0.1173395E+001  0.1501835E+01  0.7818608E-02  0.3467323E+00
         11   -1    0    0    0    0  0.00000000000E+00  0.00000000000E+00  0.39999999674E+01  0.40000000000E+01  0.51100000000E-03 0.  1.
    9000002   -1    0    0    0    0 -0.00000000000E+00 -0.00000000000E+00  0.00000000000E+00  0.93800000000E+00  0.93800000000E+00 0. -1.
         11    1    1    2    0    0 -0.52229234085E+00 -0.16900034919E+00  0.94227011531E+00  0.10905153088E+01  0.51100000000E-03 0.  1.
    9000002    1    1    2    0    0  0.21405089696E+00  0.17807697262E+00  0.23279294573E+00  0.10057662503E+01  0.93800000000E+00 0. -1.
         22    1    1    2    0    0  0.30824144389E+00 -0.90766234301E-02  0.28249369063E+01  0.28417184409E+01  0.00000000000E+00 0.  1.
</event>
<event>
 5    1  0.1173395E+001  0.1483882E+01  0.7818608E-02  0.3489914E+00
         11   -1    0    0    0    0  0.00000000000E+00  0.00000000000E+00  0.39999999674E+01  0.40000000000E+01  0.51100000000E-03 0.  1.
    9000002   -1    0    0    0    0 -0.00000000000E+00 -0.00000000000E+00  0.00000000000E+00  0.93800000000E+00  0.93800000000E+00 0.  1.
         11    1    1    2    0    0  0.26067285889E+00  0.77072404238E-01  0.48828442062E+00  0.55884920273E+00  0.51100000000E-03 0.  1.
    9000002    1    1    2    0    0  0.78024911582E-01 -0.11609235308E+00  0.10358792715E+00  0.95401246319E+00  0.93800000000E+00 0.  1.
         22    1    1    2    0    0 -0.33869777047E+00  0.39019948838E-01  0.34081276196E+01  0.34251383341E+01  0.00000000000E+00 0.  1.
</event>
<event>
 5    1  0.1173395E+001  0.1542540E+01  0.7818608E-02  0.3418191E+00
         11   -1    0    0    0    0  0.00000000000E+00  0.00000000000E+00  0.39999999674E+01  0.40000000000E+01  0.51100000000E-03 0.  1.
    9000002   -1    0    0    0    0 -0.00000000000E+00 -0.00000000000E+00  0.00000000000E+00  0.93800000000E+00  0.93800000000E+00 0.  1.
         11    1    1    2    0    0  0.21337861964E+00 -0.16948421234E+00  0.13695866334E+01  0.13964322902E+01  0.51100000000E-03 0.  1.
    9000002    1    1    2    0    0  0.12278088900E+00  0.20399417567E+00  0.82404786153E-01  0.97124833034E+00  0.93800000000E+00 0.  1.
         22    1    1    2    0    0 -0.33615950864E+00 -0.34509963321E-01  0.25480085478E+01  0.25703193795E+01  0.00000000000E+00 0.  1.
</event>
<event>
 5    1  0.1173395E+001  0.1524428E+01  0.7818608E-02  0.3439705E+00
         11   -1    0    0    0    0  0.00000000000E+00  0.00000000000E+00  0.39999999674E+01  0.40000000000E+01  0.51100000000E-03 0.  1.
    9000002   -1    0    0    0    0 -0.00000000000E+00 -0.00000000000E+00  0.00000000000E+00  0.93800000000E+00  0.93800000000E+00 0.  1.
         11    1    1    2    0    0  0.29365557883E-01 -0.31984405284E+00  0.12836298018E+01  0.13232037951E+01  0.51100000000E-03 0.  1.
    9000002    1    1    2    0    0 -0.17792508225E+00  0.32833060530E-01  0.79937010746E-01  0.95862884916E+00  0.93800000000E+00 0.  1.
         22    1    1    2    0    0  0.14855952437E+00  0.28701099231E+00  0.26364331548E+01  0.26561673557E+01  0.00000000000E+00 0.  1.
</event>
<event>
 5    1  0.1173395E+001  0.1538858E+01  0.7818608E-02  0.3422521E+00
         11   -1    0    0    0    0  0.00000000000E+00  0.00000000000E+00  0.39999999674E+01  0.40000000000E+01  0.51100000000E-03 0. -1.
    9000002   -1    0    0    0    0 -0.00000000000E+00 -0.00000000000E+00  0.00000000000E+00  0.93800000000E+00  0.93800000000E+00 0. -1.
         11    1    1    2    0    0  0.92958469638E-01  0.17489894053E+00  0.68434248352E+00  0.71242951395E+00  0.51100000000E-03 0. -1.
    9000002    1    1    2    0    0 -0.13449326751E+00  0.23174875302E+00  0.96183308986E-01  0.98025055596E+00  0.93800000000E+00 0. -1.
         22    1    1    2    0    0  0.41534797869E-01 -0.40664769355E+00  0.32194741749E+01  0.32453199301E+01  0.00000000000E+00 0. -1.
</event>
<event>
 5    1  0.1173395E+001  0.1535568E+01  0.7818608E-02  0.3426408E+00
         11   -1    0    0    0    0  0.00000000000E+00  0.00000000000E+00  0.39999999674E+01  0.40000000000E+01  0.51100000000E-03 0.  1.
    9000002   -1    0    0    0    0 -0.00000000000E+00 -0.00000000000E+00  0.00000000000E+00  0.93800000000E+00  0.93800000000E+00 0. -1.
         11    1    1    2    0    0  0.26134906546E+00  0.11420826332E+00  0.12833050327E+01  0.13146174080E+01  0.51100000000E-03 0.  1.
    9000002    1    1    2    0    0 -0.23836799431E-01  0.54166609007E-01  0.50374204693E-01  0.94121399003E+00  0.93800000000E+00 0. -1.
         22    1    1    2    0    0 -0.23751226603E+00 -0.16837487233E+00  0.26663207300E+01  0.26821686019E+01  0.00000000000E+00 0.  1.
</event>
<event>
 5    1  0.1173395E+001  0.1496945E+01  0.7818608E-02  0.3473418E+00
         11   -1    0    0    0    0  0.00000000000E+00  0.00000000000E+00  0.39999999674E+01  0.40000000000E+01  0.51100000000E-03 0.  1.
    9000002   -1    0    0    0    0 -0.00000000000E+00 -0.00000000000E+00  0.00000000000E+00  0.93800000000E+00  0.93800000000E+00 0.  1.
         11    1    1    2    0    0 -0.26886674062E+00  0.17839704079E+00  0.31057249262E+00  0.44785082635E+00  0.51100000000E-03 0.  1.
    9000002    1    1    2    0    0 -0.74515836777E-01 -0.16615333243E+00  0.19040748136E+00  0.97429900378E+00  0.93800000000E+00 0.  1.
         22    1    1    2    0    0  0.34338257739E+00 -0.12243708358E-01  0.34990199934E+01  0.35158501699E+01  0.00000000000E+00 0.  1.
</event>
<event>
 5    1  0.1173395E+001  0.1455087E+01  0.7818608E-02  0.3527412E+00
         11   -1    0    0    0    0  0.00000000000E+00  0.00000000000E+00  0.39999999674E+01  0.40000000000E+01  0.51100000000E-03 0.  1.
    9000002   -1    0    0    0    0 -0.00000000000E+00 -0.00000000000E+00  0.00000000000E+00  0.93800000000E+00  0.93800000000E+00 0.  1.
         11    1    1    2    0    0  0.22120076826E+00  0.69129381892E-01  0.24357508256E+00  0.33621084647E+00  0.51100000000E-03 0.  1.
    9000002    1    1    2    0    0  0.95810030123E-01  0.27325757318E-01  0.12066760429E+00  0.95096315891E+00  0.93800000000E+00 0.  1.
         22    1    1    2    0    0 -0.31701079838E+00 -0.96455139211E-01  0.36357572805E+01  0.36508259946E+01  0.00000000000E+00 0.  1.
</event>
<event>
 5    1  0.1173395E+001  0.1201718E+01  0.7818608E-02  0.3989150E+00
         11   -1    0    0    0    0  0.00000000000E+00  0.00000000000E+00  0.39999999674E+01  0.40000000000E+01  0.51100000000E-03 0. -1.
    9000002   -1    0    0    0    0 -0.00000000000E+00 -0.00000000000E+00  0.00000000000E+00  0.93800000000E+00  0.93800000000E+00 0. -1.
         11    1    1    2    0    0 -0.94508973631E+00 -0.40778742146E+00  0.79217420771E+00  0.12988554297E+01  0.51100000000E-03 0. -1.
    9000002    1    1    2    0    0  0.50228858912E+00  0.54806996586E+00  0.18438616722E+01  0.21982593979E+01  0.93800000000E+00 0. -1.
         22    1    1    2    0    0  0.44280114719E+00 -0.14028254440E+00  0.13639640874E+01  0.14408851724E+01  0.00000000000E+00 0. -1.
</event>
<event>
 5    1  0.1173395E+001  0.1541899E+01  0.7818608E-02  0.3418944E+00
         11   -1    0    0    0    0  0.00000000000E+00  0.00000000000E+00  0.39999999674E+01  0.40000000000E+01  0.51100000000E-03 0.  1.
    9000002   -1    0    0    0    0 -0.00000000000E+00 -0.00000000000E+00  0.00000000000E+00  0.93800000000E+00  0.93800000000E+00 0. -1.
         11    1    1    2    0    0 -0.13357220923E+00 -0.18408938460E+00  0.88571686738E+00  0.91445342522E+00  0.51100000000E-03 0.  1.
    9000002    1    1    2    0    0 -0.11189133935E+00  0.59065726665E-02  0.51808748409E-01  0.94608810680E+00  0.93800000000E+00 0. -1.
         22    1    1    2    0    0  0.24546354858E+00  0.17818281193E+00  0.30624743516E+01  0.30774584680E+01  0.00000000000E+00 0. -1.
</event>
<event>
 5    1  0.1173395E+001  0.1555738E+01  0.7818608E-02  0.3402851E+00
         11   -1    0    0    0    0  0.00000000000E+00  0.00000000000E+00  0.39999999674E+01  0.40000000000E+01  0.51100000000E-03 0. -1.
    9000002   -1    0    0    0    0 -0.00000000000E+00 -0.00000000000E+00  0.00000000000E+00  0.93800000000E+00  0.93800000000E+00 0.  1.
         11    1    1    2    0    0 -0.70429369261E-01  0.21589848495E+00  0.11972560818E+01  0.12186036428E+01  0.51100000000E-03 0. -1.
    9000002    1    1    2    0    0 -0.16519138973E+00 -0.57751929449E-01  0.53645924502E-01  0.95569104098E+00  0.93800000000E+00 0.  1.
         22    1    1    2    0    0  0.23562075899E+00 -0.15814655550E+00  0.27490979611E+01  0.27637053162E+01  0.00000000000E+00 0. -1.
</event>
<event>
 5    1  0.1173395E+001  0.1560062E+01  0.7818608E-02  0.3397885E+00
         11   -1    0    0    0    0  0.00000000000E+00  0.00000000000E+00  0.39999999674E+01  0.40000000000E+01  0.51100000000E-03 0. -1.
    9000002   -1    0    0    0    0 -0.00000000000E+00 -0.00000000000E+00  0.00000000000E+00  0.93800000000E+00  0.93800000000E+00 0. -1.
         11    1    1    2    0    0  0.39814682275E-02 -0.20793769658E+00  0.14521139243E+01  0.14669318485E+01  0.51100000000E-03 0. -1.
    9000002    1    1    2    0    0  0.35538447319E-01 -0.60641130212E-01  0.32620513591E-01  0.94119521132E+00  0.93800000000E+00 0. -1.
         22    1    1    2    0    0 -0.39519915546E-01  0.26857882679E+00  0.25152655294E+01  0.25298729402E+01  0.00000000000E+00 0. -1.
</event>
<event>
 5    1  0.1173395E+001  0.1488070E+01  0.7818608E-02  0.3484592E+00
         11   -1    0    0    0    0  0.00000000000E+00  0.00000000000E+00  0.39999999674E+01  0.40000000000E+01  0.51100000000E-03 0. -1.
    9000002   -1    0    0    0    0 -0.00000000000E+00 -0.00000000000E+00  0.00000000000E+00  0.93800000000E+00  0.93800000000E+00 0.  1.
         11    1    1    2    0    0  0.33670135939E+00  0.28029226076E-01  0.81542301364E+00  0.88264851171E+00  0.51100000000E-03 0. -1.
    9000002    1    1    2    0    0 -0.72271928739E-01  0.25203500636E+00  0.13701527991E+00  0.98354565885E+00  0.93800000000E+00 0.  1.
         22    1    1    2    0    0 -0.26442943065E+00 -0.28006423243E+00  0.30475616738E+01  0.30718058294E+01  0.00000000000E+00 0. -1.
</event>
<event>
 5    1  0.1173395E+001  0.1536850E+01  0.7818608E-02  0.3424892E+00
         11   -1    0    0    0    0  0.00000000000E+00  0.00000000000E+00  0.39999999674E+01  0.40000000000E+01  0.51100000000E-03 0. -1.
    9000002   -1    0    0    0    0 -0.00000000000E+00 -0.00000000000E+00  0.00000000000E+00  0.93800000000E+00  0.93800000000E+00 0.  1.
         11    1    1    2    0    0 -0.17915948657E+00 -0.10367412577E+00  0.65854320217E+00  0.69030852249E+00  0.51100000000E-03 0. -1.
    9000002    1    1    2    0    0 -0.77910900588E-01 -0.94138115948E-01  0.57412251644E-01  0.94766674519E+00  0.93800000000E+00 0.  1.
         22    1    1    2    0    0  0.25707038716E+00  0.19781224172E+00  0.32840445135E+01  0.33000247323E+01  0.00000000000E+00 0. -1.
</event>
<event>
 5    1  0.1173395E+001  0.1511246E+01  0.7818608E-02  0.3455711E+00
         11   -1    0    0    0    0  0.00000000000E+00  0.00000000000E+00  0.39999999674E+01  0.40000000000E+01  0.51100000000E-03 0.  1.
    9000002   -1    0    0    0    0 -0.00000000000E+00 -0.00000000000E+00  0.00000000000E+00  0.93800000000E+00  0.93800000000E+00 0. -1.
         11    1    1    2    0    0 -0.33831238825E+00  0.12798204098E+00  0.12413646102E+01  0.12929891845E+01  0.51100000000E-03 0.  1.
    9000002    1    1    2    0    0  0.85370831807E-01 -0.20942560235E-01  0.72527417831E-01  0.94489734685E+00  0.93800000000E+00 0. -1.
         22    1    1    2    0    0  0.25294155644E+00 -0.10703948075E+00  0.26861079394E+01  0.27001134686E+01  0.00000000000E+00 0.  1.
</event>
<event>
 5    1  0.1173395E+001  0.1537334E+01  0.7818608E-02  0.3424319E+00
         11   -1    0    0    0    0  0.00000000000E+00  0.00000000000E+00  0.39999999674E+01  0.40000000000E+01  0.51100000000E-03 0. -1.
    9000002   -1    0    0    0    0 -0.00000000000E+00 -0.00000000000E+00  0.00000000000E+00  0.93800000000E+00  0.93800000000E+00 0.  1.
         11    1    1    2    0    0  0.11822128259E+00 -0.30322648056E+00  0.14361936192E+01  0.14726082110E+01  0.51100000000E-03 0. -1.
    9000002    1    1    2    0    0  0.30061676583E+00  0.33522131243E+00  0.19370236571E+00  0.10583517254E+01  0.93800000000E+00 0.  1.
         22    1    1    2    0    0 -0.41883804842E+00 -0.31994831875E-01  0.23701039824E+01  0.24070400636E+01  0.00000000000E+00 0.  1.
</event>
<event>
 5    1  0.1173395E+001  0.1511845E+01  0.7818608E-02  0.3454977E+00
         11   -1    0    0    0    0  0.00000000000E+00  0.00000000000E+00  0.39999999674E+01  0.40000000000E+01  0.51100000000E-03 0. -1.
    9000002   -1    0    0    0    0 -0.00000000000E+00 -0.00000000000E+00  0.00000000000E+00  0.93800000000E+00  0.93800000000E+00 0. -1.
         11    1    1    2    0    0 -0.13999124241E-01 -0.29404113250E+00  0.10506753969E+01  0.10911348285E+01  0.51100000000E-03 0. -1.
    9000002    1    1    2    0    0 -0.89092002089E-01 -0.75840686663E-01  0.76353241679E-01  0.94834751653E+00  0.93800000000E+00 0. -1.
         22    1    1    2    0    0  0.10309112633E+00  0.36988181917E+00  0.28729713288E+01  0.28985176550E+01  0.00000000000E+00 0. -1.
</event>
<event>
 5    1  0.1173395E+001  0.1540053E+01  0.7818608E-02  0.3421114E+00
         11   -1    0    0    0    0  0.00000000000E+00  0.00000000000E+00  0.39999999674E+01  0.40000000000E+01  0.51100000000E-03 0.  1.
    9000002   -1    0    0    0    0 -0.00000000000E+00 -0.00000000000E+00  0.00000000000E+00  0.93800000000E+00  0.93800000000E+00 0.  1.
         11    1    1    2    0    0 -0.57041782388E-01 -0.28741153732E+00  0.13620359040E+01  0.13931981990E+01  0.51100000000E-03 0.  1.
    9000002    1    1    2    0    0  0.33288570392E-01  0.33260414489E-01  0.46006815805E-01  0.94030580727E+00  0.93800000000E+00 0.  1.
         22    1    1    2    0    0  0.23753211995E-01  0.25415112283E+00  0.25919572475E+01  0.26044959937E+01  0.00000000000E+00 0.  1.
</event>
<event>
 5    1  0.1173395E+001  0.1532246E+01  0.7818608E-02  0.3430352E+00
         11   -1    0    0    0    0  0.00000000000E+00  0.00000000000E+00  0.39999999674E+01  0.40000000000E+01  0.51100000000E-03 0. -1.
    9000002   -1    0    0    0    0 -0.00000000000E+00 -0.00000000000E+00  0.00000000000E+00  0.93800000000E+00  0.93800000000E+00 0.  1.
         11    1    1    2    0    0 -0.15229765760E+00  0.31959531874E+00  0.14356441733E+01  0.14786514795E+01  0.51100000000E-03 0. -1.
    9000002    1    1    2    0    0 -0.37196125757E-01 -0.18420253360E+00  0.75492995241E-01  0.95961310823E+00  0.93800000000E+00 0.  1.
         22    1    1    2    0    0  0.18949378336E+00 -0.13539278514E+00  0.24888627988E+01  0.24997354123E+01  0.00000000000E+00 0. -1.
</event>
<event>
 5    1  0.1173395E+001  0.1485105E+01  0.7818608E-02  0.3488357E+00
         11   -1    0    0    0    0  0.00000000000E+00  0.00000000000E+00  0.39999999674E+01  0.40000000000E+01  0.51100000000E-03 0.  1.
    9000002   -1    0    0    0    0 -0.00000000000E+00 -0.00000000000E+00  0.00000000000E+00  0.93800000000E+00  0.93800000000E+00 0. -1.
         11    1    1    2    0    0 -0.17424765836E+00 -0.15988198270E+00  0.42501714815E+00  0.48637879496E+00  0.51100000000E-03 0.  1.
    9000002    1    1    2    0    0 -0.11304182207E+00 -0.18811020310E+00  0.12402294391E+00  0.97128244742E+00  0.93800000000E+00 0. -1.
         22    1    1    2    0    0  0.28728948044E+00  0.34799218580E+00  0.34509598753E+01  0.34803387576E+01  0.00000000000E+00 0.  1.
</event>
<event>
 5    1  0.1173395E+001  0.1574121E+01  0.7818608E-02  0.3381940E+00
         11   -1    0    0    0    0  0.00000000000E+00  0.00000000000E+00  0.39999999674E+01  0.40000000000E+01  0.51100000000E-03 0.  1.
    9000002   -1    0    0    0    0 -0.00000000000E+00 -0.00000000000E+00  0.00000000000E+00  0.93800000000E+00  0.93800000000E+00 0.  1.
         11    1    1    2    0    0 -0.15073293901E+00  0.69944051961E-01  0.14833517958E+01  0.14926303630E+01  0.51100000000E-03 0.  1.
    9000002    1    1    2    0    0 -0.87494926213E-01 -0.10278480602E+00  0.31055844761E-01  0.94817115752E+00  0.93800000000E+00 0.  1.
         22    1    1    2    0    0  0.23822786523E+00  0.32840754064E-01  0.24855923268E+01  0.24971984795E+01  0.00000000000E+00 0.  1.
</event>
<event>
 5    1  0.1173395E+001  0.1505293E+01  0.7818608E-02  0.3463038E+00
         11   -1    0    0    0    0  0.00000000000E+00  0.00000000000E+00  0.39999999674E+01  0.40000000000E+01  0.51100000000E-03 0. -1.
    9000002   -1    0    0    0    0 -0.00000000000E+00 -0.00000000000E+00  0.00000000000E+00  0.93800000000E+00  0.93800000000E+00 0.  1.
         11    1    1    2    0    0 -0.33482421608E+00 -0.26544878068E+00  0.56129810991E+00  0.70542621170E+00  0.51100000000E-03 0. -1.
    9000002    1    1    2    0    0  0.18889026984E-01  0.18184590486E+00  0.19864676807E+00  0.97607851473E+00  0.93800000000E+00 0.  1.
         22    1    1    2    0    0  0.31593518910E+00  0.83602875824E-01  0.32400550894E+01  0.32564952736E+01  0.00000000000E+00 0. -1.
</event>
<event>
 5    1  0.1173395E+001  0.1535817E+01  0.7818608E-02  0.3426114E+00
         11   -1    0    0    0    0  0.00000000000E+00  0.00000000000E+00  0.39999999674E+01  0.40000000000E+01  0.51100000000E-03 0.  1.
    9000002   -1    0    0    0    0 -0.00000000000E+00 -0.00000000000E+00  0.00000000000E+00  0.93800000000E+00  0.93800000000E+00 0. -1.
         11    1    1    2    0    0  0.23607744350E+00 -0.18780759885E+00  0.62268288754E+00  0.69190930986E+00  0.51100000000E-03 0.  1.
    9000002    1    1    2    0    0 -0.18223110830E+00  0.47838066078E+00  0.24042628769E+00  0.10953104735E+01  0.93800000000E+00 0. -1.
         22    1    1    2    0    0 -0.53846335192E-01 -0.29057306193E+00  0.31368907921E+01  0.31507802167E+01  0.00000000000E+00 0.  1.
</event>
<event>
 5    1  0.1173395E+001  0.1523116E+01  0.7818608E-02  0.3441285E+00
         11   -1    0    0    0    0  0.00000000000E+00  0.00000000000E+00  0.39999999674E+01  0.40000000000E+01  0.51100000000E-03 0.  1.
    9000002   -1    0    0    0    0 -0.00000000000E+00 -0.00000000000E+00  0.00000000000E+00  0.93800000000E+00  0.93800000000E+00 0. -1.
         11    1    1    2    0    0 -0.27635068330E+00  0.18010520864E+00  0.14572076660E+01  0.14940756437E+01  0.51100000000E-03 0.  1.
    9000002    1    1    2    0    0  0.70182440912E-01  0.60010999863E-01  0.63669561675E-01  0.94468233190E+00  0.93800000000E+00 0. -1.
         22    1    1    2    0    0  0.20616824239E+00 -0.24011620850E+00  0.24791227397E+01  0.24992420244E+01  0.00000000000E+00 0.  1.
</event>
<event>
 5    1  0.1173395E+001  0.1558514E+01  0.7818608E-02  0.3399659E+00
         11   -1    0    0    0    0  0.00000000000E+00  0.00000000000E+00  0.39999999674E+01  0.40000000000E+01  0.51100000000E-03 0.  1.
    9000002   -1    0    0    0    0 -0.00000000000E+00 -0.00000000000E+00  0.00000000000E+00  0.93800000000E+00  0.93800000000E+00 0.  1.
         11    1    1    2    0    0  0.98769965543E-01  0.18436864858E+00  0.11357260156E+01  0.11548251592E+01  0.51100000000E-03 0.  1.
    9000002    1    1    2    0    0 -0.22037553783E+00  0.11881236112E+00  0.73791820272E-01  0.97363801670E+00  0.93800000000E+00 0.  1.
         22    1    1    2    0    0  0.12160557229E+00 -0.30318100970E+00  0.27904821314E+01  0.28095368241E+01  0.00000000000E+00 0.  1.
</event>
<event>
 5    1  0.1173395E+001  0.1470850E+01  0.7818608E-02  0.3506688E+00
         11   -1    0    0    0    0  0.00000000000E+00  0.00000000000E+00  0.39999999674E+01  0.40000000000E+01  0.51100000000E-03 0.  1.
    9000002   -1    0    0    0    0 -0.00000000000E+00 -0.00000000000E+00  0.00000000000E+00  0.93800000000E+00  0.93800000000E+00 0.  1.
         11    1    1    2    0    0  0.12033939938E+00 -0.38767926765E+00  0.10154017370E+01  0.10935345145E+01  0.51100000000E-03 0.  1.
    9000002    1    1    2    0    0 -0.44372601683E-02  0.91130431504E-01  0.10606449248E+00  0.94837657151E+00  0.93800000000E+00 0.  1.
         22    1    1    2    0    0 -0.11590213921E+00  0.29654883614E+00  0.28785337378E+01  0.28960889140E+01  0.00000000000E+00 0.  1.
</event>
<event>
 5    1  0.1173395E+001  0.1480040E+01  0.7818608E-02  0.3494826E+00
         11   -1    0    0    0    0  0.00000000000E+00  0.00000000000E+00  0.39999999674E+01  0.40000000000E+01  0.51100000000E-03 0. -1.
    9000002   -1    0    0    0    0 -0.00000000000E+00 -0.00000000000E+00  0.00000000000E+00  0.93800000000E+00  0.93800000000E+00 0.  1.
         11    1    1    2    0    0 -0.60180134875E-01 -0.33586309600E+00  0.72351306386E+00  0.79993567404E+00  0.51100000000E-03 0. -1.
    9000002    1    1    2    0    0 -0.14237339574E+00  0.97093878216E-01  0.11442584260E+00  0.96053874386E+00  0.93800000000E+00 0.  1.
         22    1    1    2    0    0  0.20255353061E+00  0.23876921779E+00  0.31620610609E+01  0.31775255821E+01  0.00000000000E+00 0. -1.
</event>
<event>
 5    1  0.1173395E+001  0.1458799E+01  0.7818608E-02  0.3522488E+00
         11   -1    0    0    0    0  0.00000000000E+00  0.00000000000E+00  0.39999999674E+01  0.40000000000E+01  0.51100000000E-03 0. -1.
    9000002   -1    0    0    0    0 -0.00000000000E+00 -0.00000000000E+00  0.00000000000E+00  0.93800000000E+00  0.93800000000E+00 0.  1.
         11    1    1    2    0    0  0.29875779016E+00  0.16125011757E+00  0.61939273953E+00  0.70633238953E+00  0.51100000000E-03 0. -1.
    9000002    1    1    2    0    0 -0.10827527759E+00  0.17042505021E+00  0.14127189045E+00  0.96982987194E+00  0.93800000000E+00 0.  1.
         22    1    1    2    0    0 -0.19048251257E+00 -0.33167516778E+00  0.32393353374E+01  0.32618377385E+01  0.00000000000E+00 0.  1.
</event>
<event>
 5    1  0.1173395E+001  0.1449616E+01  0.7818608E-02  0.3534720E+00
         11   -1    0    0    0    0  0.00000000000E+00  0.00000000000E+00  0.39999999674E+01  0.40000000000E+01  0.51100000000E-03 0.  1.
    9000002   -1    0    0    0    0 -0.00000000000E+00 -0.00000000000E+00  0.00000000000E+00  0.93800000000E+00  0.93800000000E+00 0.  1.
         11    1    1    2    0    0  0.51619792080E+00  0.65268612991E-01  0.98150641611E+00  0.11108894595E+01  0.51100000000E-03 0.  1.
    9000002    1    1    2    0    0 -0.34435727111E+00 -0.25306125811E+00  0.26822476536E+00  0.10650870646E+01  0.93800000000E+00 0.  1.
         22    1    1    2    0    0 -0.17184064969E+00  0.18779264512E+00  0.27502687859E+01  0.27620234758E+01  0.00000000000E+00 0.  1.
</event>
<event>
 5    1  0.1173395E+001  0.1467515E+01  0.7818608E-02  0.3511032E+00
         11   -1    0    0    0    0  0.00000000000E+00  0.00000000000E+00  0.39999999674E+01  0.40000000000E+01  0.51100000000E-03 0.  1.
    9000002   -1    0    0    0    0 -0.00000000000E+00 -0.00000000000E+00  0.00000000000E+00  0.93800000000E+00  0.93800000000E+00 0. -1.
         11    1    1    2    0    0  0.17081652881E+00  0.50567866358E+00  0.10607516964E+01  0.11874694185E+01  0.51100000000E-03 0.  1.
    9000002    1    1    2    0    0 -0.19897524933E+00 -0.22967223704E+00  0.21113509934E+00  0.10083464268E+01  0.93800000000E+00 0. -1.
         22    1    1    2    0    0  0.28158720519E-01 -0.27600642654E+00  0.27281131716E+01  0.27421841547E+01  0.00000000000E+00 0.  1.
</event>
<event>
 5    1  0.1173395E+001  0.1579019E+01  0.7818608E-02  0.3376455E+00
         11   -1    0    0    0    0  0.00000000000E+00  0.00000000000E+00  0.39999999674E+01  0.40000000000E+01  0.51100000000E-03 0. -1.
    9000002   -1    0    0    0    0 -0.00000000000E+00 -0.00000000000E+00  0.00000000000E+00  0.93800000000E+00  0.93800000000E+00 0.  1.
         11    1    1    2    0    0  0.13941081349E+00  0.49029794356E-01  0.14087289568E+01  0.14164592583E+01  0.51100000000E-03 0. -1.
    9000002    1    1    2    0    0 -0.33157434833E-01  0.15870345230E+00  0.32822477774E-01  0.95247441766E+00  0.93800000000E+00 0.  1.
         22    1    1    2    0    0 -0.10625337865E+00 -0.20773324666E+00  0.25584485328E+01  0.25690663241E+01  0.00000000000E+00 0. -1.
</event>
<event>
 5    1  0.1173395E+001  0.1542119E+01  0.7818608E-02  0.3418685E+00
         11   -1    0    0    0    0  0.00000000000E+00  0.00000000000E+00  0.39999999674E+01  0.40000000000E+01  0.51100000000E-03 0. -1.
    9000002   -1    0    0    0    0 -0.00000000000E+00 -0.00000000000E+00  0.00000000000E+00  0.93800000000E+00  0.93800000000E+00 0.  1.
         11    1    1    2    0    0 -0.58679651277E-01 -0.23663462186E+00  0.10639665250E+01  0.10915421536E+01  0.51100000000E-03 0. -1.
    9000002    1    1    2    0    0  0.16448198322E-01 -0.52387881214E-01  0.44975100356E-01  0.94068155769E+00  0.93800000000E+00 0.  1.
         22    1    1    2    0    0  0.42231452956E-01  0.28902250308E+00  0.28910583420E+01  0.29057762887E+01  0.00000000000E+00 0. -1.
</event>
<event>
 5    1  0.1173395E+001  0.1539950E+01  0.7818608E-02  0.3421235E+00
         11   -1    0    0    0    0  0.00000000000E+00  0.00000000000E+00  0.39999999674E+01  0.40000000000E+01  0.51100000000E-03 0. -1.
    9000002   -1    0    0    0    0 -0.00000000000E+00 -0.00000000000E+00  0.00000000000E+00  0.93800000000E+00  0.93800000000E+00 0.  1.
         11    1    1    2    0    0  0.16129901242E+00  0.15152215329E+00  0.11318567276E+01  0.11532893163E+01  0.51100000000E-03 0. -1.
    9000002    1    1    2    0    0 -0.29718631703E-01  0.23217114791E+00  0.83149015953E-01  0.97033210698E+00  0.93800000000E+00 0.  1.
         22    1    1    2    0    0 -0.13158038072E+00 -0.38369330120E+00  0.27849942238E+01  0.28143785767E+01  0.00000000000E+00 0. -1.
</event>
<event>
 5    1  0.1173395E+001  0.1524255E+01  0.7818608E-02  0.3439913E+00
         11   -1    0    0    0    0  0.00000000000E+00  0.00000000000E+00  0.39999999674E+01  0.40000000000E+01  0.51100000000E-03 0.  1.
    9000002   -1    0    0    0    0 -0.00000000000E+00 -0.00000000000E+00  0.00000000000E+00  0.93800000000E+00  0.93800000000E+00 0.  1.
         11    1    1    2    0    0  0.24731851620E+00  0.14570064758E+00  0.12593018188E+01  0.12916022837E+01  0.51100000000E-03 0.  1.
    9000002    1    1    2    0    0 -0.48617414332E-01  0.18242488200E+00  0.82164595983E-01  0.96033197978E+00  0.93800000000E+00 0.  1.
         22    1    1    2    0    0 -0.19870110187E+00 -0.32812552958E+00  0.26585335526E+01  0.26860657366E+01  0.00000000000E+00 0.  1.
</event>
<event>
 5    1  0.1173395E+001  0.1556776E+01  0.7818608E-02  0.3401656E+00
         11   -1    0    0    0    0  0.00000000000E+00  0.00000000000E+00  0.39999999674E+01  0.40000000000E+01  0.51100000000E-03 0.  1.
    9000002   -1    0    0    0    0 -0.00000000000E+00 -0.00000000000E+00  0.00000000000E+00  0.93800000000E+00  0.93800000000E+00 0. -1.
         11    1    1    2    0    0  0.54668769314E-01  0.19322230796E+00  0.12254597609E+01  0.12418032942E+01  0.51100000000E-03 0.  1.
    9000002    1    1    2    0    0 -0.10747570926E+00  0.11741016271E+00  0.49176996187E-01  0.95267966880E+00  0.93800000000E+00 0. -1.
         22    1    1    2    0    0  0.52806939943E-01 -0.31063247067E+00  0.27253632102E+01  0.27435170370E+01  0.00000000000E+00 0.  1.
</event>
<event>
 5    1  0.1173395E+001  0.1168110E+01  0.7818608E-02  0.4070159E+00
         11   -1    0    0    0    0  0.00000000000E+00  0.00000000000E+00  0.39999999674E+01  0.40000000000E+01  0.51100000000E-03 0. -1.
    9000002   -1    0    0    0    0 -0.00000000000E+00 -0.00000000000E+00  0.00000000000E+00  0.93800000000E+00  0.93800000000E+00 0. -1.
         11    1    1    2    0    0 -0.10378657159E+00  0.76609284036E+00  0.63864705102E+00  0.10027662786E+01  0.51100000000E-03 0. -1.
    9000002    1    1    2    0    0 -0.14262824397E-01 -0.44449156126E+00  0.70028777398E+00  0.12522073081E+01  0.93800000000E+00 0. -1.
         22    1    1    2    0    0  0.11804939599E+00 -0.32160127911E+00  0.26610651424E+01  0.26830264133E+01  0.00000000000E+00 0. -1.
</event>
<event>
 5    1  0.1173395E+001  0.1554795E+01  0.7818608E-02  0.3403938E+00
         11   -1    0    0    0    0  0.00000000000E+00  0.00000000000E+00  0.39999999674E+01  0.40000000000E+01  0.51100000000E-03 0.  1.
    9000002   -1    0    0    0    0 -0.00000000000E+00 -0.00000000000E+00  0.00000000000E+00  0.93800000000E+00  0.93800000000E+00 0.  1.
         11    1    1    2    0    0 -0.35708621973E-01 -0.14524108323E+00  0.10379212348E+01  0.10486423741E+01  0.51100000000E-03 0.  1.
    9000002    1    1    2    0    0 -0.24043141745E-01 -0.28596722694E+00  0.90628108806E-01  0.98509531603E+00  0.93800000000E+00 0.  1.
         22    1    1    2    0    0  0.59751763718E-01  0.43120831017E+00  0.28714506237E+01  0.29042623099E+01  0.00000000000E+00 0.  1.
</event>
<event>
 5    1  0.1173395E+001  0.1558882E+01  0.7818608E-02  0.3399238E+00
         11   -1    0    0    0    0  0.00000000000E+00  0.00000000000E+00  0.39999999674E+01  0.40000000000E+01  0.51100000000E-03 0.  1.
    9000002   -1    0    0    0    0 -0.00000000000E+00 -0.00000000000E+00  0.00000000000E+00  0.93800000000E+00  0.93800000000E+00 0.  1.
         11    1    1    2    0    0  0.30550389868E+00  0.37849467472E-01  0.78320686829E+00  0.84153340632E+00  0.51100000000E-03 0.  1.
    9000002    1    1    2    0    0 -0.54116978185E+00  0.11773059998E+00  0.25175499938E+00  0.11180115414E+01  0.93800000000E+00 0.  1.
         22    1    1    2    0    0  0.23566588318E+00 -0.15558006746E+00  0.29650380997E+01  0.29784550523E+01  0.00000000000E+00 0.  1.
</event>
<event>
 5    1  0.1173395E+001  0.1593525E+01  0.7818608E-02  0.3360422E+00
         11   -1    0    0    0    0  0.00000000000E+00  0.00000000000E+00  0.39999999674E+01  0.40000000000E+01  0.51100000000E-03 0.  1.
    9000002   -1    0    0    0    0 -0.00000000000E+00 -0.00000000000E+00  0.00000000000E+00  0.93800000000E+00  0.93800000000E+00 0.  1.
         11    1    1    2    0    0 -0.30565918140E-01 -0.66118761470E-01  0.50624937437E+00  0.51146325004E+00  0.51100000000E-03 0.  1.
    9000002    1    1    2    0    0 -0.24778524817E+00  0.54784805039E+00  0.25846126003E+00  0.11437575086E+01  0.93800000000E+00 0.  1.
         22    1    1    2    0    0  0.27835116631E+00 -0.48172928892E+00  0.32352893330E+01  0.32827792414E+01  0.00000000000E+00 0.  1.
</event>
<event>
 5    1  0.1173395E+001  0.1530500E+01  0.7818608E-02  0.3432432E+00
         11   -1    0    0    0    0  0.00000000000E+00  0.00000000000E+00  0.39999999674E+01  0.40000000000E+01  0.51100000000E-03 0. -1.
    9000002   -1    0    0    0    0 -0.00000000000E+00 -0.00000000000E+00  0.00000000000E+00  0.93800000000E+00  0.93800000000E+00 0.  1.
         11    1    1    2    0    0  0.21983608299E+00 -0.20194394626E+00  0.12587756316E+01  0.12936868294E+01  0.51100000000E-03 0. -1.
    9000002    1    1    2    0    0  0.39309609831E-01  0.60221975190E-01  0.55492117313E-01  0.94238808715E+00  0.93800000000E+00 0.  1.
         22    1    1    2    0    0 -0.25914569282E+00  0.14172197107E+00  0.26857322185E+01  0.27019250834E+01  0.00000000000E+00 0. -1.
</event>
<event>
 5    1  0.1173395E+001  0.1524900E+01  0.7818608E-02  0.3439138E+00
         11   -1    0    0    0    0  0.00000000000E+00  0.00000000000E+00  0.39999999674E+01  0.40000000000E+01  0.51100000000E-03 0. -1.
    9000002   -1    0    0    0    0 -0.00000000000E+00 -0.00000000000E+00  0.00000000000E+00  0.93800000000E+00  0.93800000000E+00 0. -1.
         11    1    1    2    0    0  0.14242294826E+00 -0.33405121396E+00  0.13905421796E+01  0.14371785985E+01  0.51100000000E-03 0. -1.
    9000002    1    1    2    0    0  0.18673718716E+00  0.26920883369E+00  0.13380766045E+00  0.10025430979E+01  0.93800000000E+00 0. -1.
         22    1    1    2    0    0 -0.32916013542E+00  0.64842380271E-01  0.24756501273E+01  0.24982783035E+01  0.00000000000E+00 0. -1.
</event>
<event>
 5    1  0.1173395E+001  0.1470565E+01  0.7818608E-02  0.3507058E+00
         11   -1    0    0    0    0  0.00000000000E+00  0.00000000000E+00  0.39999999674E+01  0.40000000000E+01  0.51100000000E-03 0. -1.
    9000002   -1    0    0    0    0 -0.00000000000E+00 -0.00000000000E+00  0.00000000000E+00  0.93800000000E+00  0.93800000000E+00 0.  1.
         11    1    1    2    0    0  0.52670654193E+00  0.64269911672E-01  0.13705076668E+01  0.14696400677E+01  0.51100000000E-03 0. -1.
    9000002    1    1    2    0    0 -0.29941219986E+00 -0.15793708260E+00  0.18831958757E+00  0.10148399157E+01  0.93800000000E+00 0.  1.
         22    1    1    2    0    0 -0.22729434207E+00  0.93667170931E-01  0.24411727130E+01  0.24535200165E+01  0.00000000000E+00 0. -1.
</event>
<event>
 5    1  0.1173395E+001  0.1479082E+01  0.7818608E-02  0.3496055E+00
         11   -1    0    0    0    0  0.00000000000E+00  0.00000000000E+00  0.39999999674E+01  0.40000000000E+01  0.51100000000E-03 0. -1.
    9000002   -1    0    0    0    0 -0.00000000000E+00 -0.00000000000E+00  0.00000000000E+00  0.93800000000E+00  0.93800000000E+00 0. -1.
         11    1    1    2    0    0 -0.45733366766E+00  0.14463322124E+00  0.12802000969E+01  0.13671084088E+01  0.51100000000E-03 0. -1.
    9000002    1    1    2    0    0 -0.52110042553E-01 -0.10328384914E+00  0.15753637127E+00  0.95814650148E+00  0.93800000000E+00 0. -1.
         22    1    1    2    0    0  0.50944371021E+00 -0.41349372103E-01  0.25622634992E+01  0.26127450897E+01  0.00000000000E+00 0.  1.
</event>
<event>
 5    1  0.1173395E+001  0.1562327E+01  0.7818608E-02  0.3395296E+00
         11   -1    0    0    0    0  0.00000000000E+00  0.00000000000E+00  0.39999999674E+01  0.40000000000E+01  0.51100000000E-03 0. -1.
    9000002   -1    0    0    0    0 -0.00000000000E+00 -0.00000000000E+00  0.00000000000E+00  0.93800000000E+00  0.93800000000E+00 0.  1.
         11    1    1    2    0    0 -0.15851457516E-01 -0.20142480413E+00  0.13394632697E+01  0.13546163045E+01  0.51100000000E-03 0. -1.
    9000002    1    1    2    0    0  0.11535572188E+00 -0.51545915884E-01  0.38458657484E-01  0.94725233827E+00  0.93800000000E+00 0.  1.
         22    1    1    2    0    0 -0.99504264368E-01  0.25297072002E+00  0.26220780402E+01  0.26361313572E+01  0.00000000000E+00 0. -1.
</event>
<event>
 5    1  0.1173395E+001  0.1572453E+01  0.7818608E-02  0.3383815E+00
         11   -1    0    0    0    0  0.00000000000E+00  0.00000000000E+00  0.39999999674E+01  0.40000000000E+01  0.51100000000E-03 0. -1.
    9000002   -1    0    0    0    0 -0.00000000000E+00 -0.00000000000E+00  0.00000000000E+00  0.93800000000E+00  0.93800000000E+00 0. -1.
         11    1    1    2    0    0  0.84503119376E-01  0.14584843396E+00  0.70692489779E+00  0.72674315621E+00  0.51100000000E-03 0. -1.
    9000002    1    1    2    0    0  0.19422318321E+00 -0.27435033449E+00  0.97715505184E-01  0.10011908264E+01  0.93800000000E+00 0. -1.
         22    1    1    2    0    0 -0.27872630258E+00  0.12850190053E+00  0.31953595644E+01  0.32100660174E+01  0.00000000000E+00 0. -1.
</event>
<event>
 5    1  0.1173395E+001  0.1015430E+01  0.7818608E-02  0.4529926E+00
         11   -1    0    0    0    0  0.00000000000E+00  0.00000000000E+00  0.39999999674E+01  0.40000000000E+01  0.51100000000E-03 0. -1.
    9000002   -1    0    0    0    0 -0.00000000000E+00 -0.00000000000E+00  0.00000000000E+00  0.93800000000E+00  0.93800000000E+00 0.  1.
         11    1    1    2    0    0  0.98086229551E+00  0.58296324755E-01  0.96595026078E+00  0.13778786128E+01  0.51100000000E-03 0. -1.
    9000002    1    1    2    0    0 -0.13982019827E+00 -0.28715898422E+00  0.16216690449E+01  0.19004379657E+01  0.93800000000E+00 0.  1.
         22    1    1    2    0    0 -0.84104209725E+00  0.22886265947E+00  0.14123806616E+01  0.16596834215E+01  0.00000000000E+00 0.  1.
</event>
<event>
 5    1  0.1173395E+001  0.1595304E+01  0.7818608E-02  0.3358477E+00
         11   -1    0    0    0    0  0.00000000000E+00  0.00000000000E+00  0.39999999674E+01  0.40000000000E+01  0.51100000000E-03 0.  1.
    9000002   -1    0    0    0    0 -0.00000000000E+00 -0.00000000000E+00  0.00000000000E+00  0.93800000000E+00  0.93800000000E+00 0. -1.
         11    1    1    2    0    0  0.91578245334E-03  0.11581658001E+00  0.14822714093E+01  0.14867895315E+01  0.51100000000E-03 0.  1.
    9000002    1    1    2    0    0  0.15198389572E+00 -0.43164249553E+00  0.14620240276E+00  0.10538659740E+01  0.93800000000E+00 0. -1.
         22    1    1    2    0    0 -0.15289967817E+00  0.31582591552E+00  0.23715261553E+01  0.23973444946E+01  0.00000000000E+00 0.  1.
</event>
<event>
 5    1  0.1173395E+001  0.1448420E+01  0.7818608E-02  0.3536325E+00
         11   -1    0    0    0    0  0.00000000000E+00  0.00000000000E+00  0.39999999674E+01  0.40000000000E+01  0.51100000000E-03 0. -1.
    9000002   -1    0    0    0    0 -0.00000000000E+00 -0.00000000000E+00  0.00000000000E+00  0.93800000000E+00  0.93800000000E+00 0. -1.
         11    1    1    2    0    0  0.44087384439E-01 -0.28428231952E+00  0.37764602894E+00  0.47473879023E+00  0.51100000000E-03 0. -1.
    9000002    1    1    2    0    0 -0.86838566516E-01 -0.42862621367E-01  0.12598970794E+00  0.95136509682E+00  0.93800000000E+00 0. -1.
         22    1    1    2    0    0  0.42751182077E-01  0.32714494089E+00  0.34963642305E+01  0.35118961129E+01  0.00000000000E+00 0. -1.
</event>
<event>
 5    1  0.1173395E+001  0.1564079E+01  0.7818608E-02  0.3393298E+00
         11   -1    0    0    0    0  0.00000000000E+00  0.00000000000E+00  0.39999999674E+01  0.40000000000E+01  0.51100000000E-03 0.  1.
    9000002   -1    0    0    0    0 -0.00000000000E+00 -0.00000000000E+00  0.00000000000E+00  0.93800000000E+00  0.93800000000E+00 0.  1.
         11    1    1    2    0    0 -0.70588119377E-01 -0.44222432641E+00  0.12685589556E+01  0.13452832870E+01  0.51100000000E-03 0.  1.
    9000002    1    1    2    0    0 -0.48918182475E-01  0.68380976166E+00  0.37490015408E+00  0.12208123952E+01  0.93800000000E+00 0.  1.
         22    1    1    2    0    0  0.11950630185E+00 -0.24158543525E+00  0.23565408577E+01  0.23719043178E+01  0.00000000000E+00 0.  1.
</event>
<event>
 5    1  0.1173395E+001  0.1509034E+01  0.7818608E-02  0.3458426E+00
         11   -1    0    0    0    0  0.00000000000E+00  0.00000000000E+00  0.39999999674E+01  0.40000000000E+01  0.51100000000E-03 0. -1.
    9000002   -1    0    0    0    0 -0.00000000000E+00 -0.00000000000E+00  0.00000000000E+00  0.93800000000E+00  0.93800000000E+00 0.  1.
         11    1    1    2    0    0  0.19440722551E+00  0.26914629264E+00  0.11554651665E+01  0.12022204076E+01  0.51100000000E-03 0. -1.
    9000002    1    1    2    0    0 -0.54823227345E-01  0.34066150498E-01  0.71724634554E-01  0.94294989902E+00  0.93800000000E+00 0.  1.
         22    1    1    2    0    0 -0.13958399817E+00 -0.30321244314E+00  0.27728101663E+01  0.27928296934E+01  0.00000000000E+00 0. -1.
</event>
<event>
 5    1  0.1173395E+001  0.1538795E+01  0.7818608E-02  0.3422596E+00
         11   -1    0    0    0    0  0.00000000000E+00  0.00000000000E+00  0.39999999674E+01  0.40000000000E+01  0.51100000000E-03 0. -1.
    9000002   -1    0    0    0    0 -0.00000000000E+00 -0.00000000000E+00  0.00000000000E+00  0.93800000000E+00  0.93800000000E+00 0. -1.
         11    1    1    2    0    0 -0.30802080006E-01 -0.26730240931E+00  0.11373883106E+01  0.11687821766E+01  0.51100000000E-03 0. -1.
    9000002    1    1    2    0    0 -0.64868770759E-01  0.83963031573E-02  0.48421148745E-01  0.94152379841E+00  0.93800000000E+00 0. -1.
         22    1    1    2    0    0  0.95670850765E-01  0.25890610615E+00  0.28141905080E+01  0.28276940250E+01  0.00000000000E+00 0. -1.
</event>
<event>
 5    1  0.1173395E+001  0.1523027E+01  0.7818608E-02  0.3441392E+00
         11   -1    0    0    0    0  0.00000000000E+00  0.00000000000E+00  0.39999999674E+01  0.40000000000E+01  0.51100000000E-03 0.  1.
    9000002   -1    0    0    0    0 -0.00000000000E+00 -0.00000000000E+00  0.00000000000E+00  0.93800000000E+00  0.93800000000E+00 0. -1.
         11    1    1    2    0    0  0.10260985061E+00 -0.32788444908E+00  0.13609689175E+01  0.14036643647E+01  0.51100000000E-03 0.  1.
    9000002    1    1    2    0    0  0.84630213480E-01  0.11183958221E+00  0.71698007311E-01  0.95113351820E+00  0.93800000000E+00 0. -1.
         22    1    1    2    0    0 -0.18724006409E+00  0.21604486687E+00  0.25673330426E+01  0.25832021171E+01  0.00000000000E+00 0.  1.
</event>
<event>
 5    1  0.1173395E+001  0.1432079E+01  0.7818608E-02  0.3558555E+00
         11   -1    0    0    0    0  0.00000000000E+00  0.00000000000E+00  0.39999999674E+01  0.40000000000E+01  0.51100000000E-03 0. -1.
    9000002   -1    0    0    0    0 -0.00000000000E+00 -0.00000000000E+00  0.00000000000E+00  0.93800000000E+00  0.93800000000E+00 0. -1.
         11    1    1    2    0    0 -0.63498867061E+00  0.21475286121E+00  0.11844217622E+01  0.13609498798E+01  0.51100000000E-03 0. -1.
    9000002    1    1    2    0    0  0.62564285001E+00  0.18260991340E-01  0.47291127209E+00  0.12228047722E+01  0.93800000000E+00 0. -1.
         22    1    1    2    0    0  0.93458205961E-02 -0.23301385255E+00  0.23426669330E+01  0.23542453481E+01  0.00000000000E+00 0. -1.
</event>
<event>
 5    1  0.1173395E+001  0.1573183E+01  0.7818608E-02  0.3382994E+00
         11   -1    0    0    0    0  0.00000000000E+00  0.00000000000E+00  0.39999999674E+01  0.40000000000E+01  0.51100000000E-03 0.  1.
    9000002   -1    0    0    0    0 -0.00000000000E+00 -0.00000000000E+00  0.00000000000E+00  0.93800000000E+00  0.93800000000E+00 0. -1.
         11    1    1    2    0    0  0.18628574254E+00  0.60887880607E-02  0.13042635543E+01  0.13175139966E+01  0.51100000000E-03 0.  1.
    9000002    1    1    2    0    0 -0.13648464181E+00  0.34034440022E+00  0.11220916434E+00  0.10133593957E+01  0.93800000000E+00 0. -1.
         22    1    1    2    0    0 -0.49801100736E-01 -0.34643318828E+00  0.25835272487E+01  0.26071266077E+01  0.00000000000E+00 0.  1.
</event>
<event>
 5    1  0.1173395E+001  0.1506335E+01  0.7818608E-02  0.3461751E+00
         11   -1    0    0    0    0  0.00000000000E+00  0.00000000000E+00  0.39999999674E+01  0.40000000000E+01  0.51100000000E-03 0. -1.
    9000002   -1    0    0    0    0 -0.00000000000E+00 -0.00000000000E+00  0.00000000000E+00  0.93800000000E+00  0.93800000000E+00 0. -1.
         11    1    1    2    0    0  0.29380688224E+00 -0.14154862218E+00  0.10561705985E+01  0.11053755429E+01  0.51100000000E-03 0. -1.
    9000002    1    1    2    0    0 -0.32294460194E-01 -0.72816348047E-01  0.75463593383E-01  0.94439605390E+00  0.93800000000E+00 0. -1.
         22    1    1    2    0    0 -0.26151242205E+00  0.21436497022E+00  0.28683657755E+01  0.28882284032E+01  0.00000000000E+00 0. -1.
</event>
<event>
 5    1  0.1173395E+001  0.1650808E+01  0.7818608E-02  0.3300000E+00
         11   -1    0    0    0    0  0.00000000000E+00  0.00000000000E+00  0.39999999674E+01  0.40000000000E+01  0.51100000000E-03 0.  1.
    9000002   -1    0    0    0    0 -0.00000000000E+00 -0.00000000000E+00  0.00000000000E+00  0.93800000000E+00  0.93800000000E+00 0.  1.
         11    1    1    2    0    0  0.29557091895E+00 -0.24637671769E+00  0.18378872549E+00  0.42642960953E+00  0.51100000000E-03 0.  1.
    9000002    1    1    2    0    0  0.18210542614E+00  0.10295372169E+00  0.37055873884E+00  0.10300095310E+01  0.93800000000E+00 0.  1.
         22    1    1    2    0    0 -0.47767634510E+00  0.14342299600E+00  0.34456525030E+01  0.34815608595E+01  0.00000000000E+00 0.  1.
</event>
<event>
 5    1  0.1173395E+001  0.1469679E+01  0.7818608E-02  0.3508211E+00
         11   -1    0    0    0    0  0.00000000000E+00  0.00000000000E+00  0.39999999674E+01  0.40000000000E+01  0.51100000000E-03 0.  1.
    9000002   -1    0    0    0    0 -0.00000000000E+00 -0.00000000000E+00  0.00000000000E+00  0.93800000000E+00  0.93800000000E+00 0. -1.
         11    1    1    2    0    0 -0.41462631681E+00  0.44141643346E+00  0.98458834692E+00  0.11559316262E+01  0.51100000000E-03 0.  1.
    9000002    1    1    2    0    0  0.54795709377E+00 -0.21218433466E+00  0.43690637936E+00  0.11899623325E+01  0.93800000000E+00 0. -1.
         22    1    1    2    0    0 -0.13333077696E+00 -0.22923209880E+00  0.25785052411E+01  0.25921060413E+01  0.00000000000E+00 0.  1.
</event>
<event>
 5    1  0.1173395E+001  0.1466653E+01  0.7818608E-02  0.3512158E+00
         11   -1    0    0    0    0  0.00000000000E+00  0.00000000000E+00  0.39999999674E+01  0.40000000000E+01  0.51100000000E-03 0.  1.
    9000002   -1    0    0    0    0 -0.00000000000E+00 -0.00000000000E+00  0.00000000000E+00  0.93800000000E+00  0.93800000000E+00 0.  1.
         11    1    1    2    0    0  0.34338853938E+00 -0.34411993078E+00  0.96873940308E+00  0.10838775336E+01  0.51100000000E-03 0.  1.
    9000002    1    1    2    0    0 -0.36073547633E+00 -0.78482824349E-01  0.24691426080E+00  0.10378344231E+01  0.93800000000E+00 0.  1.
         22    1    1    2    0    0  0.17346936947E-01  0.42260275513E+00  0.27843463035E+01  0.28162880432E+01  0.00000000000E+00 0.  1.
</event>
<event>
 5    1  0.1173395E+001  0.1374722E+01  0.7818608E-02  0.3648268E+00
         11   -1    0    0    0    0  0.00000000000E+00  0.00000000000E+00  0.39999999674E+01  0.40000000000E+01  0.51100000000E-03 0.  1.
    9000002   -1    0    0    0    0 -0.00000000000E+00 -0.00000000000E+00  0.00000000000E+00  0.93800000000E+00  0.93800000000E+00 0. -1.
         11    1    1    2    0    0 -0.64305677451E+00  0.16762009041E+00  0.11441400043E+01  0.13231308025E+01  0.51100000000E-03 0.  1.
    9000002    1    1    2    0    0  0.35524987466E+00 -0.20874377491E+00  0.33586424343E+00  0.10781582569E+01  0.93800000000E+00 0. -1.
         22    1    1    2    0    0  0.28780689985E+00  0.41123684495E-01  0.25199957196E+01  0.25367109405E+01  0.00000000000E+00 0.  1.
</event>
<event>
 5    1  0.1173395E+001  0.1542618E+01  0.7818608E-02  0.3418100E+00
         11   -1    0    0    0    0  0.00000000000E+00  0.00000000000E+00  0.39999999674E+01  0.40000000000E+01  0.51100000000E-03 0.  1.
    9000002   -1    0    0    0    0 -0.00000000000E+00 -0.00000000000E+00  0.00000000000E+00  0.93800000000E+00  0.93800000000E+00 0. -1.
         11    1    1    2    0    0 -0.21123290879E+00  0.13695683604E+00  0.13164019425E+01  0.13402577558E+01  0.51100000000E-03 0.  1.
    9000002    1    1    2    0    0 -0.11419159267E-01  0.84438270515E-01  0.47551941400E-01  0.94306171901E+00  0.93800000000E+00 0. -1.
         22    1    1    2    0    0  0.22265206806E+00 -0.22139510655E+00  0.26360460835E+01  0.26546805252E+01  0.00000000000E+00 0.  1.
</event>
<event>
 5    1  0.1173395E+001  0.1584805E+01  0.7818608E-02  0.3370022E+00
         11   -1    0    0    0    0  0.00000000000E+00  0.00000000000E+00  0.39999999674E+01  0.40000000000E+01  0.51100000000E-03 0. -1.
    9000002   -1    0    0    0    0 -0.00000000000E+00 -0.00000000000E+00  0.00000000000E+00  0.93800000000E+00  0.93800000000E+00 0. -1.
         11    1    1    2    0    0  0.11690999944E+00 -0.37855092475E-02  0.14728533045E+01  0.14774909123E+01  0.51100000000E-03 0. -1.
    9000002    1    1    2    0    0 -0.33158493058E-01  0.26733744346E+00  0.59835628021E-01  0.97774899474E+00  0.93800000000E+00 0. -1.
         22    1    1    2    0    0 -0.83751506382E-01 -0.26355193422E+00  0.24673110348E+01  0.24827600930E+01  0.00000000000E+00 0. -1.
</event>
<event>
 5    1  0.1173395E+001  0.1560678E+01  0.7818608E-02  0.3397180E+00
         11   -1    0    0    0    0  0.00000000000E+00  0.00000000000E+00  0.39999999674E+01  0.40000000000E+01  0.51100000000E-03 0.  1.
    9000002   -1    0    0    0    0 -0.00000000000E+00 -0.00000000000E+00  0.00000000000E+00  0.93800000000E+00  0.93800000000E+00 0. -1.
         11    1    1    2    0    0  0.13913951961E+00 -0.14640237108E+00  0.12126658071E+01  0.12293706036E+01  0.51100000000E-03 0.  1.
    9000002    1    1    2    0    0 -0.38520922652E-01 -0.10432433954E+00  0.37246535006E-01  0.94530351405E+00  0.93800000000E+00 0. -1.
         22    1    1    2    0    0 -0.10061859696E+00  0.25072671063E+00  0.27500876252E+01  0.27633258823E+01  0.00000000000E+00 0.  1.
</event>
<event>
 5    1  0.1173395E+001  0.1551056E+01  0.7818608E-02  0.3408261E+00
         11   -1    0    0    0    0  0.00000000000E+00  0.00000000000E+00  0.39999999674E+01  0.40000000000E+01  0.51100000000E-03 0. -1.
    9000002   -1    0    0    0    0 -0.00000000000E+00 -0.00000000000E+00  0.00000000000E+00  0.93800000000E+00  0.93800000000E+00 0. -1.
         11    1    1    2    0    0  0.67351040929E-01  0.21044352887E+00  0.97409406897E+00  0.99884040661E+00  0.51100000000E-03 0. -1.
    9000002    1    1    2    0    0 -0.21307809760E+00  0.75347341597E-01  0.71610309332E-01  0.96749756277E+00  0.93800000000E+00 0. -1.
         22    1    1    2    0    0  0.14572705667E+00 -0.28579087047E+00  0.29542955891E+01  0.29716620306E+01  0.00000000000E+00 0. -1.
</event>
<event>
 5    1  0.1173395E+001  0.1503573E+01  0.7818608E-02  0.3465167E+00
         11   -1    0    0    0    0  0.00000000000E+00  0.00000000000E+00  0.39999999674E+01  0.40000000000E+01  0.51100000000E-03 0.  1.
    9000002   -1    0    0    0    0 -0.00000000000E+00 -0.00000000000E+00  0.00000000000E+00  0.93800000000E+00  0.93800000000E+00 0.  1.
         11    1    1    2    0    0  0.31024576502E+00  0.14082010698E+00  0.78618581541E+00  0.85683786956E+00  0.51100000000E-03 0.  1.
    9000002    1    1    2    0    0 -0.32619291488E+00  0.22122399322E+00  0.18916019770E+00  0.10348755738E+01  0.93800000000E+00 0.  1.
         22    1    1    2    0    0  0.15947149857E-01 -0.36204410020E+00  0.30246539543E+01  0.30462865566E+01  0.00000000000E+00 0.  1.
</event>
<event>
 5    1  0.1173395E+001  0.1479826E+01  0.7818608E-02  0.3495101E+00
         11   -1    0    0    0    0  0.00000000000E+00  0.00000000000E+00  0.39999999674E+01  0.40000000000E+01  0.51100000000E-03 0.  1.
    9000002   -1    0    0    0    0 -0.00000000000E+00 -0.00000000000E+00  0.00000000000E+00  0.93800000000E+00  0.93800000000E+00 0. -1.
         11    1    1    2    0    0  0.44415023848E-01 -0.41432663822E+00  0.12034856368E+01  0.12735843893E+01  0.51100000000E-03 0.  1.
    9000002    1    1    2    0    0  0.13145944742E+00  0.11723588054E+00  0.11560921356E+00  0.96137158698E+00  0.93800000000E+00 0. -1.
         22    1    1    2    0    0 -0.17587447127E+00  0.29709075768E+00  0.26809051170E+01  0.27030440238E+01  0.00000000000E+00 0.  1.
</event>
<event>
 5    1  0.1173395E+001  0.1485674E+01  0.7818608E-02  0.3487633E+00
         11   -1    0    0    0    0  0.00000000000E+00  0.00000000000E+00  0.39999999674E+01  0.40000000000E+01  0.51100000000E-03 0.  1.
    9000002   -1    0    0    0    0 -0.00000000000E+00 -0.00000000000E+00  0.00000000000E+00  0.93800000000E+00  0.93800000000E+00 0.  1.
         11    1    1    2    0    0 -0.30606695196E+00 -0.23829756576E+00  0.12074659997E+01  0.12682417397E+01  0.51100000000E-03 0.  1.
    9000002    1    1    2    0    0 -0.74504641176E-01  0.17247292618E+00  0.11385838891E+00  0.96338236674E+00  0.93800000000E+00 0.  1.
         22    1    1    2    0    0  0.38057159314E+00  0.65824639580E-01  0.26786755788E+01  0.27063758935E+01  0.00000000000E+00 0.  1.
</event>
<event>
 5    1  0.1173395E+001  0.1466624E+01  0.7818608E-02  0.3512197E+00
         11   -1    0    0    0    0  0.00000000000E+00  0.00000000000E+00  0.39999999674E+01  0.40000000000E+01  0.51100000000E-03 0.  1.
    9000002   -1    0    0    0    0 -0.00000000000E+00 -0.00000000000E+00  0.00000000000E+00  0.93800000000E+00  0.93800000000E+00 0.  1.
         11    1    1    2    0    0  0.26027348498E+00  0.36991665827E+00  0.81182523694E+00  0.92932292424E+00  0.51100000000E-03 0.  1.
    9000002    1    1    2    0    0 -0.23936214584E+00 -0.45967066654E-01  0.18331653919E+00  0.98633471075E+00  0.93800000000E+00 0.  1.
         22    1    1    2    0    0 -0.20911339141E-01 -0.32394959162E+00  0.30048581912E+01  0.30223423650E+01  0.00000000000E+00 0.  1.
</event>
<event>
 5    1  0.1173395E+001  0.1535323E+01  0.7818608E-02  0.3426699E+00
         11   -1    0    0    0    0  0.00000000000E+00  0.00000000000E+00  0.39999999674E+01  0.40000000000E+01  0.51100000000E-03 0. -1.
    9000002   -1    0    0    0    0 -0.00000000000E+00 -0.00000000000E+00  0.00000000000E+00  0.93800000000E+00  0.93800000000E+00 0. -1.
         11    1    1    2    0    0  0.46232285661E-01  0.22403885617E+00  0.74333093558E+00  0.77773515687E+00  0.51100000000E-03 0. -1.
    9000002    1    1    2    0    0 -0.11704986401E+00  0.79172820505E-01  0.62162559469E-01  0.95061937176E+00  0.93800000000E+00 0. -1.
         22    1    1    2    0    0  0.70817578351E-01 -0.30321167667E+00  0.31945064723E+01  0.32096454714E+01  0.00000000000E+00 0. -1.
</event>
<event>
 5    1  0.1173395E+001  0.1490856E+01  0.7818608E-02  0.3481069E+00
         11   -1    0    0    0    0  0.00000000000E+00  0.00000000000E+00  0.39999999674E+01  0.40000000000E+01  0.51100000000E-03 0.  1.
    9000002   -1    0    0    0    0 -0.00000000000E+00 -0.00000000000E+00  0.00000000000E+00  0.93800000000E+00  0.93800000000E+00 0.  1.
         11    1    1    2    0    0 -0.39864841685E+00  0.33846246224E-01  0.84827520903E+00  0.93788976965E+00  0.51100000000E-03 0.  1.
    9000002    1    1    2    0    0 -0.20983858347E+00 -0.60108603987E-01  0.19666369361E+00  0.98293737531E+00  0.93800000000E+00 0.  1.
         22    1    1    2    0    0  0.60848700032E+00  0.26262357762E-01  0.29550610647E+01  0.30171728550E+01  0.00000000000E+00 0.  1.
</event>
<event>
 5    1  0.1173395E+001  0.1514482E+01  0.7818608E-02  0.3451755E+00
         11   -1    0    0    0    0  0.00000000000E+00  0.00000000000E+00  0.39999999674E+01  0.40000000000E+01  0.51100000000E-03 0.  1.
    9000002   -1    0    0    0    0 -0.00000000000E+00 -0.00000000000E+00  0.00000000000E+00  0.93800000000E+00  0.93800000000E+00 0.  1.
         11    1    1    2    0    0  0.10274276658E+00 -0.27426893812E+00  0.13284313360E+01  0.13603343714E+01  0.51100000000E-03 0.  1.
    9000002    1    1    2    0    0  0.21269192768E+00 -0.26087402740E-01  0.97597865580E-01  0.96710276189E+00  0.93800000000E+00 0.  1.
         22    1    1    2    0    0 -0.31543469425E+00  0.30035634086E+00  0.25739707658E+01  0.26105628667E+01  0.00000000000E+00 0.  1.
</event>
<event>
 5    1  0.1173395E+001  0.1557723E+01  0.7818608E-02  0.3400568E+00
         11   -1    0    0    0    0  0.00000000000E+00  0.00000000000E+00  0.39999999674E+01  0.40000000000E+01  0.51100000000E-03 0. -1.
    9000002   -1    0    0    0    0 -0.00000000000E+00 -0.00000000000E+00  0.00000000000E+00  0.93800000000E+00  0.93800000000E+00 0. -1.
         11    1    1    2    0    0 -0.11253372664E+00 -0.16935776512E+00  0.13840553145E+01  0.13989121728E+01  0.51100000000E-03 0. -1.
    9000002    1    1    2    0    0 -0.26664571486E-01 -0.90494107183E-01  0.37113243220E-01  0.94346254596E+00  0.93800000000E+00 0. -1.
         22    1    1    2    0    0  0.13919829813E+00  0.25985187230E+00  0.25788314096E+01  0.25956252813E+01  0.00000000000E+00 0. -1.
</event>
<event>
 5    1  0.1173395E+001  0.1456099E+01  0.7818608E-02  0.3526067E+00
         11   -1    0    0    0    0  0.00000000000E+00  0.00000000000E+00  0.39999999674E+01  0.40000000000E+01  0.51100000000E-03 0.  1.
    9000002   -1    0    0    0    0 -0.00000000000E+00 -0.00000000000E+00  0.00000000000E+00  0.93800000000E+00  0.93800000000E+00 0. -1.
         11    1    1    2    0    0 -0.24574784870E+00 -0.46103042388E+00  0.13117180355E+01  0.14119297159E+01  0.51100000000E-03 0.  1.
    9000002    1    1    2    0    0  0.26231999295E+00  0.78572605155E-01  0.18602987074E+00  0.99470425041E+00  0.93800000000E+00 0. -1.
         22    1    1    2    0    0 -0.16572144253E-01  0.38245781873E+00  0.25022520611E+01  0.25313660337E+01  0.00000000000E+00 0.  1.
</event>
<event>
 5    1  0.1173395E+001  0.1549264E+01  0.7818608E-02  0.3410341E+00
         11   -1    0    0    0    0  0.00000000000E+00  0.00000000000E+00  0.39999999674E+01  0.40000000000E+01  0.51100000000E-03 0.  1.
    9000002   -1    0    0    0    0 -0.00000000000E+00 -0.00000000000E+00  0.00000000000E+00  0.93800000000E+00  0.93800000000E+00 0.  1.
         11    1    1    2    0    0 -0.18929914312E+00 -0.88035003202E-01  0.83625126779E+00  0.86191691675E+00  0.51100000000E-03 0.  1.
    9000002    1    1    2    0    0  0.18449196903E-01 -0.15648966701E+00  0.54655008210E-01  0.95271221188E+00  0.93800000000E+00 0.  1.
         22    1    1    2    0    0  0.17084994622E+00  0.24452467022E+00  0.31090936914E+01  0.31233708714E+01  0.00000000000E+00 0.  1.
</event>
<event>
 5    1  0.1173395E+001  0.1571493E+01  0.7818608E-02  0.3384897E+00
         11   -1    0    0    0    0  0.00000000000E+00  0.00000000000E+00  0.39999999674E+01  0.40000000000E+01  0.51100000000E-03 0.  1.
    9000002   -1    0    0    0    0 -0.00000000000E+00 -0.00000000000E+00  0.00000000000E+00  0.93800000000E+00  0.93800000000E+00 0.  1.
         11    1    1    2    0    0  0.37617300259E+00  0.45190479156E-01  0.12892531424E+01  0.13437716449E+01  0.51100000000E-03 0.  1.
    9000002    1    1    2    0    0 -0.58208041012E+00  0.11697984018E+00  0.27399933891E+00  0.11434253472E+01  0.93800000000E+00 0.  1.
         22    1    1    2    0    0  0.20590740753E+00 -0.16217031933E+00  0.24367474860E+01  0.24508030079E+01  0.00000000000E+00 0. -1.
</event>
<event>
 5    1  0.1173395E+001  0.1529644E+01  0.7818608E-02  0.3433453E+00
         11   -1    0    0    0    0  0.00000000000E+00  0.00000000000E+00  0.39999999674E+01  0.40000000000E+01  0.51100000000E-03 0.  1.
    9000002   -1    0    0    0    0 -0.00000000000E+00 -0.00000000000E+00  0.00000000000E+00  0.93800000000E+00  0.93800000000E+00 0. -1.
         11    1    1    2    0    0  0.37613176896E-01 -0.33515799296E+00  0.13822522628E+01  0.14228025901E+01  0.51100000000E-03 0.  1.
    9000002    1    1    2    0    0  0.73965078768E-01  0.10561101623E+00  0.64273312864E-01  0.94899925099E+00  0.93800000000E+00 0. -1.
         22    1    1    2    0    0 -0.11157825566E+00  0.22954697673E+00  0.25534743917E+01  0.25661981589E+01  0.00000000000E+00 0.  1.
</event>
<event>
 5    1  0.1173395E+001  0.1523669E+01  0.7818608E-02  0.3440619E+00
         11   -1    0    0    0    0  0.00000000000E+00  0.00000000000E+00  0.39999999674E+01  0.40000000000E+01  0.51100000000E-03 0. -1.
    9000002   -1    0    0    0    0 -0.00000000000E+00 -0.00000000000E+00  0.00000000000E+00  0.93800000000E+00  0.93800000000E+00 0.  1.
         11    1    1    2    0    0  0.14463015043E+00  0.19387507534E+00  0.59527423952E+00  0.64253957591E+00  0.51100000000E-03 0. -1.
    9000002    1    1    2    0    0  0.15200795495E+00 -0.13453538616E+00  0.86643983273E-01  0.96361681613E+00  0.93800000000E+00 0.  1.
         22    1    1    2    0    0 -0.29663810538E+00 -0.59339689171E-01  0.33180817446E+01  0.33318436080E+01  0.00000000000E+00 0. -1.
</event>
<event>
 5    1  0.1173395E+001  0.1552376E+01  0.7818608E-02  0.3406732E+00
         11   -1    0    0    0    0  0.00000000000E+00  0.00000000000E+00  0.39999999674E+01  0.40000000000E+01  0.51100000000E-03 0.  1.
    9000002   -1    0    0    0    0 -0.00000000000E+00 -0.00000000000E+00  0.00000000000E+00  0.93800000000E+00  0.93800000000E+00 0. -1.
         11    1    1    2    0    0 -0.16785191349E+00  0.14213219106E+00  0.14444302143E+01  0.14610799875E+01  0.51100000000E-03 0.  1.
    9000002    1    1    2    0    0 -0.11217260977E+00 -0.28521623686E-02  0.43745292810E-01  0.94569999464E+00  0.93800000000E+00 0. -1.
         22    1    1    2    0    0  0.28002452326E+00 -0.13928002870E+00  0.25118244602E+01  0.25312200179E+01  0.00000000000E+00 0.  1.
</event>
<event>
 5    1  0.1173395E+001  0.1560459E+01  0.7818608E-02  0.3397431E+00
         11   -1    0    0    0    0  0.00000000000E+00  0.00000000000E+00  0.39999999674E+01  0.40000000000E+01  0.51100000000E-03 0.  1.
    9000002   -1    0    0    0    0 -0.00000000000E+00 -0.00000000000E+00  0.00000000000E+00  0.93800000000E+00  0.93800000000E+00 0.  1.
         11    1    1    2    0    0 -0.75441399310E-01 -0.46065431696E-01  0.17499133812E+00  0.19605014222E+00  0.51100000000E-03 0.  1.
    9000002    1    1    2    0    0 -0.27005078470E+00 -0.67359383354E-01  0.82584274634E-01  0.98190064429E+00  0.93800000000E+00 0.  1.
         22    1    1    2    0    0  0.34549218401E+00  0.11342481505E+00  0.37424243546E+01  0.37600492135E+01  0.00000000000E+00 0.  1.
</event>
<event>
 5    1  0.1173395E+001  0.1497896E+01  0.7818608E-02  0.3472230E+00
         11   -1    0    0    0    0  0.00000000000E+00  0.00000000000E+00  0.39999999674E+01  0.40000000000E+01  0.51100000000E-03 0. -1.
    9000002   -1    0    0    0    0 -0.00000000000E+00 -0.00000000000E+00  0.00000000000E+00  0.93800000000E+00  0.93800000000E+00 0.  1.
         11    1    1    2    0    0  0.80918526814E-01  0.19496646949E+00  0.28571577226E+00  0.35523723882E+00  0.51100000000E-03 0. -1.
    9000002    1    1    2    0    0  0.28978414483E+00 -0.14213906858E+00  0.15521356447E+00  0.10040486124E+01  0.93800000000E+00 0.  1.
         22    1    1    2    0    0 -0.37070267164E+00 -0.52827400908E-01  0.35590706306E+01  0.35787141488E+01  0.00000000000E+00 0. -1.
</event>
<event>
 5    1  0.1173395E+001  0.1560954E+01  0.7818608E-02  0.3396864E+00
         11   -1    0    0    0    0  0.00000000000E+00  0.00000000000E+00  0.39999999674E+01  0.40000000000E+01  0.51100000000E-03 0. -1.
    9000002   -1    0    0    0    0 -0.00000000000E+00 -0.00000000000E+00  0.00000000000E+00  0.93800000000E+00  0.93800000000E+00 0.  1.
         11    1    1    2    0    0  0.15914112208E+00 -0.13855713474E-01  0.54512028433E+00  0.56804424391E+00  0.51100000000E-03 0. -1.
    9000002    1    1    2    0    0 -0.11681702128E+00 -0.50946060807E+00  0.22427724208E+00  0.10969688277E+01  0.93800000000E+00 0.  1.
         22    1    1    2    0    0 -0.42324100800E-01  0.52331632155E+00  0.32306024410E+01  0.32729869284E+01  0.00000000000E+00 0. -1.
</event>
<event>
 5    1  0.1173395E+001  0.1498370E+01  0.7818608E-02  0.3471638E+00
         11   -1    0    0    0    0  0.00000000000E+00  0.00000000000E+00  0.39999999674E+01  0.40000000000E+01  0.51100000000E-03 0. -1.
    9000002   -1    0    0    0    0 -0.00000000000E+00 -0.00000000000E+00  0.00000000000E+00  0.93800000000E+00  0.93800000000E+00 0. -1.
         11    1    1    2    0    0 -0.42392903211E+00  0.11487225106E+00  0.13569961196E+01  0.14263064846E+01  0.51100000000E-03 0. -1.
    9000002    1    1    2    0    0  0.22682858850E+00  0.35804752350E-01  0.11611688389E+00  0.97265632141E+00  0.93800000000E+00 0. -1.
         22    1    1    2    0    0  0.19710044362E+00 -0.15067700341E+00  0.25268869639E+01  0.25390371940E+01  0.00000000000E+00 0.  1.
</event>
<event>
 5    1  0.1173395E+001  0.1558368E+01  0.7818608E-02  0.3399827E+00
         11   -1    0    0    0    0  0.00000000000E+00  0.00000000000E+00  0.39999999674E+01  0.40000000000E+01  0.51100000000E-03 0. -1.
    9000002   -1    0    0    0    0 -0.00000000000E+00 -0.00000000000E+00  0.00000000000E+00  0.93800000000E+00  0.93800000000E+00 0. -1.
         11    1    1    2    0    0  0.19469353152E+00 -0.34645739205E-01  0.13874886974E+01  0.14015102729E+01  0.51100000000E-03 0. -1.
    9000002    1    1    2    0    0  0.96223088191E-01  0.23551529975E+00  0.75338899580E-01  0.97480576984E+00  0.93800000000E+00 0. -1.
         22    1    1    2    0    0 -0.29091661971E+00 -0.20086956054E+00  0.25371723704E+01  0.25616839573E+01  0.00000000000E+00 0. -1.
</event>
<event>
 5    1  0.1173395E+001  0.1290585E+01  0.7818608E-02  0.3800107E+00
         11   -1    0    0    0    0  0.00000000000E+00  0.00000000000E+00  0.39999999674E+01  0.40000000000E+01  0.51100000000E-03 0. -1.
    9000002   -1    0    0    0    0 -0.00000000000E+00 -0.00000000000E+00  0.00000000000E+00  0.93800000000E+00  0.93800000000E+00 0.  1.
         11    1    1    2    0    0 -0.44860286062E+00  0.63925217386E+00  0.96437829077E+00  0.12409325595E+01  0.51100000000E-03 0. -1.
    9000002    1    1    2    0    0  0.22388588956E+00 -0.48811745613E+00  0.58014330049E+00  0.12267003675E+01  0.93800000000E+00 0.  1.
         22    1    1    2    0    0  0.22471697106E+00 -0.15113471773E+00  0.24554783761E+01  0.24703670730E+01  0.00000000000E+00 0.  1.
</event>
<event>
 5    1  0.1173395E+001  0.1534120E+01  0.7818608E-02  0.3428125E+00
         11   -1    0    0    0    0  0.00000000000E+00  0.00000000000E+00  0.39999999674E+01  0.40000000000E+01  0.51100000000E-03 0.  1.
    9000002   -1    0    0    0    0 -0.00000000000E+00 -0.00000000000E+00  0.00000000000E+00  0.93800000000E+00  0.93800000000E+00 0. -1.
         11    1    1    2    0    0  0.24627475874E+00  0.18901049226E+00  0.13024840171E+01  0.13389701636E+01  0.51100000000E-03 0.  1.
    9000002    1    1    2    0    0 -0.18992058779E-01 -0.77069329155E-01  0.53466187482E-01  0.94286956309E+00  0.93800000000E+00 0. -1.
         22    1    1    2    0    0 -0.22728269996E+00 -0.11194116310E+00  0.26440497628E+01  0.26561602734E+01  0.00000000000E+00 0.  1.
</event>
<event>
 5    1  0.1173395E+001  0.1517806E+01  0.7818608E-02  0.3447709E+00
         11   -1    0    0    0    0  0.00000000000E+00  0.00000000000E+00  0.39999999674E+01  0.40000000000E+01  0.51100000000E-03 0.  1.
    9000002   -1    0    0    0    0 -0.00000000000E+00 -0.00000000000E+00  0.00000000000E+00  0.93800000000E+00  0.93800000000E+00 0. -1.
         11    1    1    2    0    0  0.31006460574E+00  0.16331361889E+00  0.11761917670E+01  0.12272891801E+01  0.51100000000E-03 0.  1.
    9000002    1    1    2    0    0 -0.13774999283E+00  0.16559532339E-01  0.75575074284E-01  0.95121231620E+00  0.93800000000E+00 0. -1.
         22    1    1    2    0    0 -0.17231461291E+00 -0.17987315123E+00  0.27482331261E+01  0.27594985037E+01  0.00000000000E+00 0.  1.
</event>
<event>
 5    1  0.1173395E+001  0.1452593E+01  0.7818608E-02  0.3530736E+00
         11   -1    0    0    0    0  0.00000000000E+00  0.00000000000E+00  0.39999999674E+01  0.40000000000E+01  0.51100000000E-03 0. -1.
    9000002   -1    0    0    0    0 -0.00000000000E+00 -0.00000000000E+00  0.00000000000E+00  0.93800000000E+00  0.93800000000E+00 0.  1.
         11    1    1    2    0    0  0.25641456449E+00  0.84711905152E-01  0.34399624851E+00  0.43733078541E+00  0.51100000000E-03 0. -1.
    9000002    1    1    2    0    0  0.39791152012E-03  0.19118522110E+00  0.14347855438E+00  0.96797832758E+00  0.93800000000E+00 0.  1.
         22    1    1    2    0    0 -0.25681247601E+00 -0.27589712626E+00  0.35125251645E+01  0.35326908870E+01  0.00000000000E+00 0. -1.
</event>
<event>
 5    1  0.1173395E+001  0.1588694E+01  0.7818608E-02  0.3365727E+00
         11   -1    0    0    0    0  0.00000000000E+00  0.00000000000E+00  0.39999999674E+01  0.40000000000E+01  0.51100000000E-03 0.  1.
    9000002   -1    0    0    0    0 -0.00000000000E+00 -0.00000000000E+00  0.00000000000E+00  0.93800000000E+00  0.93800000000E+00 0. -1.
         11    1    1    2    0    0  0.27378973200E-01 -0.27802117888E+00  0.14411488585E+01  0.14679767292E+01  0.51100000000E-03 0.  1.
    9000002    1    1    2    0    0  0.99919701388E-01  0.46273068962E+00  0.16248313726E+00  0.10631784459E+01  0.93800000000E+00 0. -1.
         22    1    1    2    0    0 -0.12729867459E+00 -0.18470951074E+00  0.23963679716E+01  0.24068448250E+01  0.00000000000E+00 0.  1.
</event>
<event>
 5    1  0.1173395E+001  0.1532402E+01  0.7818608E-02  0.3430167E+00
         11   -1    0    0    0    0  0.00000000000E+00  0.00000000000E+00  0.39999999674E+01  0.40000000000E+01  0.51100000000E-03 0. -1.
    9000002   -1    0    0    0    0 -0.00000000000E+00 -0.00000000000E+00  0.00000000000E+00  0.93800000000E+00  0.93800000000E+00 0.  1.
         11    1    1    2    0    0  0.21095369994E+00  0.15246100751E-01  0.10389596017E+01  0.10602694102E+01  0.51100000000E-03 0. -1.
    9000002    1    1    2    0    0  0.23860702411E+00  0.48301748564E-01  0.92501039724E-01  0.97348179912E+00  0.93800000000E+00 0.  1.
         22    1    1    2    0    0 -0.44956072405E+00 -0.63547849315E-01  0.28685393259E+01  0.29042487907E+01  0.00000000000E+00 0. -1.
</event>
<event>
 5    1  0.1173395E+001  0.1566444E+01  0.7818608E-02  0.3390609E+00
         11   -1    0    0    0    0  0.00000000000E+00  0.00000000000E+00  0.39999999674E+01  0.40000000000E+01  0.51100000000E-03 0. -1.
    9000002   -1    0    0    0    0 -0.00000000000E+00 -0.00000000000E+00  0.00000000000E+00  0.93800000000E+00  0.93800000000E+00 0.  1.
         11    1    1    2    0    0 -0.11900668476E+00  0.11361940912E+00  0.11200387659E+01  0.11320596536E+01  0.51100000000E-03 0. -1.
    9000002    1    1    2    0    0 -0.15621647863E+00 -0.75755815935E-02  0.41140807871E-01  0.95183903245E+00  0.93800000000E+00 0.  1.
         22    1    1    2    0    0  0.27522316338E+00 -0.10604382753E+00  0.28388203936E+01  0.28541013139E+01  0.00000000000E+00 0. -1.
</event>
<event>
 5    1  0.1173395E+001  0.1531569E+01  0.7818608E-02  0.3431159E+00
         11   -1    0    0    0    0  0.00000000000E+00  0.00000000000E+00  0.39999999674E+01  0.40000000000E+01  0.51100000000E-03 0. -1.
    9000002   -1    0    0    0    0 -0.00000000000E+00 -0.00000000000E+00  0.00000000000E+00  0.93800000000E+00  0.93800000000E+00 0. -1.
         11    1    1    2    0    0  0.34223540080E+00 -0.25005944214E-01  0.13234891985E+01  0.13672506305E+01  0.51100000000E-03 0. -1.
    9000002    1    1    2    0    0 -0.14530994054E+00  0.24269165397E+00  0.10815717055E+00  0.98567549998E+00  0.93800000000E+00 0. -1.
         22    1    1    2    0    0 -0.19692546026E+00 -0.21768570976E+00  0.25683535983E+01  0.25850738696E+01  0.00000000000E+00 0. -1.
</event>
<event>
 5    1  0.1173395E+001  0.1512065E+01  0.7818608E-02  0.3454708E+00
         11   -1    0    0    0    0  0.00000000000E+00  0.00000000000E+00  0.39999999674E+01  0.40000000000E+01  0.51100000000E-03 0. -1.
    9000002   -1    0    0    0    0 -0.00000000000E+00 -0.00000000000E+00  0.00000000000E+00  0.93800000000E+00  0.93800000000E+00 0.  1.
         11    1    1    2    0    0  0.20939269511E+00 -0.30697018210E+00  0.13182652126E+01  0.13696347781E+01  0.51100000000E-03 0. -1.
    9000002    1    1    2    0    0  0.43883203828E-01  0.16090114488E+00  0.86408439628E-01  0.95662183356E+00  0.93800000000E+00 0.  1.
         22    1    1    2    0    0 -0.25327589894E+00  0.14606903722E+00  0.25953263151E+01  0.26117433883E+01  0.00000000000E+00 0. -1.
</event>
<event>
 5    1  0.1173395E+001  0.1554316E+01  0.7818608E-02  0.3404491E+00
         11   -1    0    0    0    0  0.00000000000E+00  0.00000000000E+00  0.39999999674E+01  0.40000000000E+01  0.51100000000E-03 0. -1.
    9000002   -1    0    0    0    0 -0.00000000000E+00 -0.00000000000E+00  0.00000000000E+00  0.93800000000E+00  0.93800000000E+00 0. -1.
         11    1    1    2    0    0  0.19376410910E+00  0.62566305915E-01  0.12955463983E+01  0.13114495049E+01  0.51100000000E-03 0. -1.
    9000002    1    1    2    0    0  0.41588715458E-01  0.18156775882E+00  0.57585309084E-01  0.95804829738E+00  0.93800000000E+00 0. -1.
         22    1    1    2    0    0 -0.23535282456E+00 -0.24413406474E+00  0.26468682600E+01  0.26685021978E+01  0.00000000000E+00 0. -1.
</event>
<event>
 5    1  0.1173395E+001  0.1478781E+01  0.7818608E-02  0.3496442E+00
         11   -1    0    0    0    0  0.00000000000E+00  0.00000000000E+00  0.39999999674E+01  0.40000000000E+01  0.51100000000E-03 0. -1.
    9000002   -1    0    0    0    0 -0.00000000000E+00 -0.00000000000E+00  0.00000000000E+00  0.93800000000E+00  0.93800000000E+00 0.  1.
         11    1    1    2    0    0  0.39675488578E+00  0.22825323006E+00  0.11087808421E+01  0.11995454112E+01  0.51100000000E-03 0. -1.
    9000002    1    1    2    0    0 -0.14689574814E+00 -0.27441615652E+00  0.16687142191E+00  0.10022837219E+01  0.93800000000E+00 0.  1.
         22    1    1    2    0    0 -0.24985913764E+00  0.46162926459E-01  0.27243477033E+01  0.27361708669E+01  0.00000000000E+00 0. -1.
</event>
<event>
 5    1  0.1173395E+001  0.1575056E+01  0.7818608E-02  0.3380890E+00
         11   -1    0    0    0    0  0.00000000000E+00  0.00000000000E+00  0.39999999674E+01  0.40000000000E+01  0.51100000000E-03 0. -1.
    9000002   -1    0    0    0    0 -0.00000000000E+00 -0.00000000000E+00  0.00000000000E+00  0.93800000000E+00  0.93800000000E+00 0. -1.
         11    1    1    2    0    0 -0.19680172275E+00 -0.12394548648E+00  0.79973210559E+00  0.83286559752E+00  0.51100000000E-03 0. -1.
    9000002    1    1    2    0    0  0.51020286751E+00 -0.15726887391E-01  0.20142281811E+00  0.10867241843E+01  0.93800000000E+00 0. -1.
         22    1    1    2    0    0 -0.31340114476E+00  0.13967237387E+00  0.29988450437E+01  0.30184102182E+01  0.00000000000E+00 0. -1.
</event>
<event>
 5    1  0.1173395E+001  0.1562149E+01  0.7818608E-02  0.3395499E+00
         11   -1    0    0    0    0  0.00000000000E+00  0.00000000000E+00  0.39999999674E+01  0.40000000000E+01  0.51100000000E-03 0.  1.
    9000002   -1    0    0    0    0 -0.00000000000E+00 -0.00000000000E+00  0.00000000000E+00  0.93800000000E+00  0.93800000000E+00 0.  1.
         11    1    1    2    0    0  0.91832387740E-02 -0.22697695240E+00  0.10848571612E+01  0.11083853979E+01  0.51100000000E-03 0.  1.
    9000002    1    1    2    0    0 -0.28576936514E+00  0.10787404134E+00  0.92339101930E-01  0.99079334303E+00  0.93800000000E+00 0.  1.
         22    1    1    2    0    0  0.27658612637E+00  0.11910291106E+00  0.28228037042E+01  0.28388212591E+01  0.00000000000E+00 0. -1.
</event>
<event>
 5    1  0.1173395E+001  0.1480059E+01  0.7818608E-02  0.3494802E+00
         11   -1    0    0    0    0  0.00000000000E+00  0.00000000000E+00  0.39999999674E+01  0.40000000000E+01  0.51100000000E-03 0. -1.
    9000002   -1    0    0    0    0 -0.00000000000E+00 -0.00000000000E+00  0.00000000000E+00  0.93800000000E+00  0.93800000000E+00 0. -1.
         11    1    1    2    0    0  0.16980235694E+00  0.39715985625E+00  0.10251185614E+01  0.11124015093E+01  0.51100000000E-03 0. -1.
    9000002    1    1    2    0    0 -0.26330219392E+00 -0.14075799820E+00  0.15972593055E+00  0.99724482063E+00  0.93800000000E+00 0. -1.
         22    1    1    2    0    0  0.93499836979E-01 -0.25640185805E+00  0.28151554754E+01  0.28283536700E+01  0.00000000000E+00 0. -1.
</event>
<event>
 5    1  0.1233311E+001  0.1591543E+01  0.7818608E-02  0.3362594E+00
         11   -1    0    0    0    0  0.00000000000E+00  0.00000000000E+00  0.39999999674E+01  0.40000000000E+01  0.51100000000E-03 0. -1.
    9000002   -1    0    0    0    0 -0.00000000000E+00 -0.00000000000E+00  0.00000000000E+00  0.93800000000E+00  0.93800000000E+00 0. -1.
         11    1    1    2    0    0 -0.16107136725E-01 -0.27126938640E-01  0.82989393749E+00  0.83049353957E+00  0.51100000000E-03 0. -1.
    9000002    1    1    2    0    0 -0.32976105751E+00  0.23308493030E-01  0.79628021697E-01  0.99773256073E+00  0.93800000000E+00 0. -1.
         22    1    1    2    0    0  0.34586819423E+00  0.38184456103E-02  0.30904780082E+01  0.31097738997E+01  0.00000000000E+00 0. -1.
</event>
<event>
 5    1  0.1173395E+001  0.1467877E+01  0.7818608E-02  0.3510559E+00
         11   -1    0    0    0    0  0.00000000000E+00  0.00000000000E+00  0.39999999674E+01  0.40000000000E+01  0.51100000000E-03 0.  1.
    9000002   -1    0    0    0    0 -0.00000000000E+00 -0.00000000000E+00  0.00000000000E+00  0.93800000000E+00  0.93800000000E+00 0.  1.
         11    1    1    2    0    0  0.23968930489E+00 -0.21256284848E+00  0.39645304275E+00  0.50971482582E+00  0.51100000000E-03 0.  1.
    9000002    1    1    2    0    0  0.16561646740E+00  0.20137410608E+00  0.19148266038E+00  0.99221467138E+00  0.93800000000E+00 0.  1.
         22    1    1    2    0    0 -0.40530577229E+00  0.11188742401E-01  0.34120642642E+01  0.34360705028E+01  0.00000000000E+00 0.  1.
</event>
<event>
 5    1  0.1173395E+001  0.1524895E+01  0.7818608E-02  0.3439143E+00
         11   -1    0    0    0    0  0.00000000000E+00  0.00000000000E+00  0.39999999674E+01  0.40000000000E+01  0.51100000000E-03 0. -1.
    9000002   -1    0    0    0    0 -0.00000000000E+00 -0.00000000000E+00  0.00000000000E+00  0.93800000000E+00  0.93800000000E+00 0.  1.
         11    1    1    2    0    0 -0.40439653254E+00 -0.88539988655E-01  0.45951996427E+00  0.61849393191E+00  0.51100000000E-03 0. -1.
    9000002    1    1    2    0    0  0.14632222119E+00 -0.14546787186E+00  0.22585373146E+00  0.98662302942E+00  0.93800000000E+00 0.  1.
         22    1    1    2    0    0  0.25807431134E+00  0.23400786051E+00  0.33146262716E+01  0.33328830387E+01  0.00000000000E+00 0. -1.
</event>
<event>
 5    1  0.1173395E+001  0.1565947E+01  0.7818608E-02  0.3391173E+00
         11   -1    0    0    0    0  0.00000000000E+00  0.00000000000E+00  0.39999999674E+01  0.40000000000E+01  0.51100000000E-03 0. -1.
    9000002   -1    0    0    0    0 -0.00000000000E+00 -0.00000000000E+00  0.00000000000E+00  0.93800000000E+00  0.93800000000E+00 0.  1.
         11    1    1    2    0    0  0.13802537749E+00 -0.13146737165E+00  0.12990804790E+01  0.13129908708E+01  0.51100000000E-03 0. -1.
    9000002    1    1    2    0    0  0.11668128069E+00  0.66951675464E-01  0.37163708618E-01  0.94832599318E+00  0.93800000000E+00 0.  1.
         22    1    1    2    0    0 -0.25470665818E+00  0.64515696189E-01  0.26637557797E+01  0.26766831361E+01  0.00000000000E+00 0. -1.
</event>
<event>
 5    1  0.1173395E+001  0.1558966E+01  0.7818608E-02  0.3399141E+00
         11   -1    0    0    0    0  0.00000000000E+00  0.00000000000E+00  0.39999999674E+01  0.40000000000E+01  0.51100000000E-03 0. -1.
    9000002   -1    0    0    0    0 -0.00000000000E+00 -0.00000000000E+00  0.00000000000E+00  0.93800000000E+00  0.93800000000E+00 0. -1.
         11    1    1    2    0    0  0.13313958089E+00 -0.12851481634E+00  0.10691543291E+01  0.10850499742E+01  0.51100000000E-03 0. -1.
    9000002    1    1    2    0    0  0.14602873821E+00 -0.34579667083E-02  0.44725854213E-01  0.95035822296E+00  0.93800000000E+00 0. -1.
         22    1    1    2    0    0 -0.27916831911E+00  0.13197278305E+00  0.28861197841E+01  0.29025918028E+01  0.00000000000E+00 0. -1.
</event>
<event>
 5    1  0.1173395E+001  0.1593357E+01  0.7818608E-02  0.3360606E+00
         11   -1    0    0    0    0  0.00000000000E+00  0.00000000000E+00  0.39999999674E+01  0.40000000000E+01  0.51100000000E-03 0.  1.
    9000002   -1    0    0    0    0 -0.00000000000E+00 -0.00000000000E+00  0.00000000000E+00  0.93800000000E+00  0.93800000000E+00 0.  1.
         11    1    1    2    0    0 -0.18703036104E+00  0.12316069976E+00  0.14385916664E+01  0.14559172908E+01  0.51100000000E-03 0.  1.
    9000002    1    1    2    0    0  0.63806546427E+00 -0.13528337666E+00  0.30706620349E+00  0.11830311839E+01  0.93800000000E+00 0.  1.
         22    1    1    2    0    0 -0.45103510323E+00  0.12122676904E-01  0.22543420975E+01  0.22990515253E+01  0.00000000000E+00 0.  1.
</event>
<event>
 5    1  0.1173395E+001  0.1541438E+01  0.7818608E-02  0.3419485E+00
         11   -1    0    0    0    0  0.00000000000E+00  0.00000000000E+00  0.39999999674E+01  0.40000000000E+01  0.51100000000E-03 0. -1.
    9000002   -1    0    0    0    0 -0.00000000000E+00 -0.00000000000E+00  0.00000000000E+00  0.93800000000E+00  0.93800000000E+00 0.  1.
         11    1    1    2    0    0 -0.43064287506E+00  0.10742415190E+00  0.51158029928E+00  0.67727977822E+00  0.51100000000E-03 0. -1.
    9000002    1    1    2    0    0  0.53528493258E-01 -0.16307356787E+00  0.23110880891E+00  0.98117968267E+00  0.93800000000E+00 0.  1.
         22    1    1    2    0    0  0.37711438180E+00  0.55649415971E-01  0.32573108592E+01  0.32795405391E+01  0.00000000000E+00 0. -1.
</event>
<event>
 5    1  0.1173395E+001  0.1498285E+01  0.7818608E-02  0.3471744E+00
         11   -1    0    0    0    0  0.00000000000E+00  0.00000000000E+00  0.39999999674E+01  0.40000000000E+01  0.51100000000E-03 0.  1.
    9000002   -1    0    0    0    0 -0.00000000000E+00 -0.00000000000E+00  0.00000000000E+00  0.93800000000E+00  0.93800000000E+00 0. -1.
         11    1    1    2    0    0 -0.18390425963E-01  0.37477432312E+00  0.98993197130E+00  0.10586593267E+01  0.51100000000E-03 0.  1.
    9000002    1    1    2    0    0  0.18574036724E+00 -0.15127235383E+00  0.11965277041E+00  0.97547096037E+00  0.93800000000E+00 0. -1.
         22    1    1    2    0    0 -0.16734994128E+00 -0.22350196928E+00  0.28904152257E+01  0.29038697130E+01  0.00000000000E+00 0.  1.
</event>
<event>
 5    1  0.1173395E+001  0.1516343E+01  0.7818608E-02  0.3449487E+00
         11   -1    0    0    0    0  0.00000000000E+00  0.00000000000E+00  0.39999999674E+01  0.40000000000E+01  0.51100000000E-03 0.  1.
    9000002   -1    0    0    0    0 -0.00000000000E+00 -0.00000000000E+00  0.00000000000E+00  0.93800000000E+00  0.93800000000E+00 0.  1.
         11    1    1    2    0    0 -0.34578901183E+00  0.16526224764E+00  0.12924091896E+01  0.13480368784E+01  0.51100000000E-03 0.  1.
    9000002    1    1    2    0    0  0.29070847245E+00  0.15181269219E+00  0.14142365896E+00  0.10036947548E+01  0.93800000000E+00 0.  1.
         22    1    1    2    0    0  0.55080539380E-01 -0.31707493983E+00  0.25661671188E+01  0.25862683668E+01  0.00000000000E+00 0. -1.
</event>
<event>
 5    1  0.1173395E+001  0.1601000E+01  0.7818608E-02  0.3352279E+00
         11   -1    0    0    0    0  0.00000000000E+00  0.00000000000E+00  0.39999999674E+01  0.40000000000E+01  0.51100000000E-03 0. -1.
    9000002   -1    0    0    0    0 -0.00000000000E+00 -0.00000000000E+00  0.00000000000E+00  0.93800000000E+00  0.93800000000E+00 0.  1.
         11    1    1    2    0    0  0.22168346977E+00  0.48110653643E+00  0.47976348759E+00  0.71468897103E+00  0.51100000000E-03 0. -1.
    9000002    1    1    2    0    0  0.21418567338E+00 -0.38505653718E+00  0.46539621607E+00  0.11360377095E+01  0.93800000000E+00 0.  1.
         22    1    1    2    0    0 -0.43586914315E+00 -0.96049999247E-01  0.30548402637E+01  0.30872733195E+01  0.00000000000E+00 0. -1.
</event>
<event>
 5    1  0.1173395E+001  0.1542285E+01  0.7818608E-02  0.3418490E+00
         11   -1    0    0    0    0  0.00000000000E+00  0.00000000000E+00  0.39999999674E+01  0.40000000000E+01  0.51100000000E-03 0.  1.
    9000002   -1    0    0    0    0 -0.00000000000E+00 -0.00000000000E+00  0.00000000000E+00  0.93800000000E+00  0.93800000000E+00 0. -1.
         11    1    1    2    0    0  0.17121459609E+00  0.20429612831E+00  0.99206652655E+00  0.10272524520E+01  0.51100000000E-03 0.  1.
    9000002    1    1    2    0    0 -0.24749993750E+00  0.90880460441E-01  0.91739317257E-01  0.97866009395E+00  0.93800000000E+00 0. -1.
         22    1    1    2    0    0  0.76285341401E-01 -0.29517658876E+00  0.29161941236E+01  0.29320874540E+01  0.00000000000E+00 0.  1.
</event>
<event>
 5    1  0.1173395E+001  0.1535998E+01  0.7818608E-02  0.3425900E+00
         11   -1    0    0    0    0  0.00000000000E+00  0.00000000000E+00  0.39999999674E+01  0.40000000000E+01  0.51100000000E-03 0.  1.
    9000002   -1    0    0    0    0 -0.00000000000E+00 -0.00000000000E+00  0.00000000000E+00  0.93800000000E+00  0.93800000000E+00 0.  1.
         11    1    1    2    0    0 -0.89128797481E-02 -0.29065581162E+00  0.12108845995E+01  0.12453120150E+01  0.51100000000E-03 0.  1.
    9000002    1    1    2    0    0  0.94565105792E-01  0.34545222486E-01  0.54702530796E-01  0.94497211520E+00  0.93800000000E+00 0.  1.
         22    1    1    2    0    0 -0.85652226044E-01  0.25611058914E+00  0.27344128371E+01  0.27477158698E+01  0.00000000000E+00 0.  1.
</event>
<event>
 5    1  0.1173395E+001  0.1474665E+01  0.7818608E-02  0.3501744E+00
         11   -1    0    0    0    0  0.00000000000E+00  0.00000000000E+00  0.39999999674E+01  0.40000000000E+01  0.51100000000E-03 0. -1.
    9000002   -1    0    0    0    0 -0.00000000000E+00 -0.00000000000E+00  0.00000000000E+00  0.93800000000E+00  0.93800000000E+00 0. -1.
         11    1    1    2    0    0 -0.24728250548E+00  0.25517586425E+00  0.55245088635E+00  0.65686041300E+00  0.51100000000E-03 0. -1.
    9000002    1    1    2    0    0  0.19913001084E-02 -0.42377088998E+00  0.23621740745E+00  0.10560437472E+01  0.93800000000E+00 0. -1.
         22    1    1    2    0    0  0.24529120538E+00  0.16859502573E+00  0.32113316736E+01  0.32250958398E+01  0.00000000000E+00 0. -1.
</event>
<event>
 5    1  0.1173395E+001  0.1548133E+01  0.7818608E-02  0.3411656E+00
         11   -1    0    0    0    0  0.00000000000E+00  0.00000000000E+00  0.39999999674E+01  0.40000000000E+01  0.51100000000E-03 0.  1.
    9000002   -1    0    0    0    0 -0.00000000000E+00 -0.00000000000E+00  0.00000000000E+00  0.93800000000E+00  0.93800000000E+00 0.  1.
         11    1    1    2    0    0  0.22726836653E+00  0.51774145980E-01  0.13905643863E+01  0.14099649096E+01  0.51100000000E-03 0.  1.
    9000002    1    1    2    0    0  0.95605384356E-01 -0.12672600154E+00  0.55794812552E-01  0.95297268066E+00  0.93800000000E+00 0.  1.
         22    1    1    2    0    0 -0.32287375089E+00  0.74951855562E-01  0.25536407685E+01  0.25750624097E+01  0.00000000000E+00 0.  1.
</event>
<event>
 5    1  0.1173395E+001  0.1508702E+01  0.7818608E-02  0.3458835E+00
         11   -1    0    0    0    0  0.00000000000E+00  0.00000000000E+00  0.39999999674E+01  0.40000000000E+01  0.51100000000E-03 0. -1.
    9000002   -1    0    0    0    0 -0.00000000000E+00 -0.00000000000E+00  0.00000000000E+00  0.93800000000E+00  0.93800000000E+00 0. -1.
         11    1    1    2    0    0 -0.14209456584E+00 -0.33185489508E+00  0.12839652504E+01  0.13337486878E+01  0.51100000000E-03 0. -1.
    9000002    1    1    2    0    0 -0.29142177912E-01  0.78594653161E-01  0.74058052383E-01  0.94464542616E+00  0.93800000000E+00 0. -1.
         22    1    1    2    0    0  0.17123674375E+00  0.25326024192E+00  0.26419766646E+01  0.26596058860E+01  0.00000000000E+00 0. -1.
</event>
<event>
 5    1  0.1173395E+001  0.1569799E+01  0.7818608E-02  0.3386810E+00
         11   -1    0    0    0    0  0.00000000000E+00  0.00000000000E+00  0.39999999674E+01  0.40000000000E+01  0.51100000000E-03 0.  1.
    9000002   -1    0    0    0    0 -0.00000000000E+00 -0.00000000000E+00  0.00000000000E+00  0.93800000000E+00  0.93800000000E+00 0.  1.
         11    1    1    2    0    0  0.12433938706E+00  0.11345173249E+00  0.96489572488E+00  0.97946699781E+00  0.51100000000E-03 0.  1.
    9000002    1    1    2    0    0 -0.18699380075E+00  0.19407724035E+00  0.71725607784E-01  0.97858122788E+00  0.93800000000E+00 0.  1.
         22    1    1    2    0    0  0.62654413697E-01 -0.30752897283E+00  0.29633786347E+01  0.29799517743E+01  0.00000000000E+00 0.  1.
</event>
<event>
 5    1  0.1173395E+001  0.1477605E+01  0.7818608E-02  0.3497954E+00
         11   -1    0    0    0    0  0.00000000000E+00  0.00000000000E+00  0.39999999674E+01  0.40000000000E+01  0.51100000000E-03 0. -1.
    9000002   -1    0    0    0    0 -0.00000000000E+00 -0.00000000000E+00  0.00000000000E+00  0.93800000000E+00  0.93800000000E+00 0.  1.
         11    1    1    2    0    0  0.39756966172E-01 -0.29480438852E+00  0.11504468184E+01  0.11882837990E+01  0.51100000000E-03 0. -1.
    9000002    1    1    2    0    0 -0.30803494692E+00 -0.29017823469E+00  0.23288517304E+00  0.10550679790E+01  0.93800000000E+00 0.  1.
         22    1    1    2    0    0  0.26827798075E+00  0.58498262320E+00  0.26166679759E+01  0.26946482220E+01  0.00000000000E+00 0. -1.
</event>
<event>
 5    1  0.1173395E+001  0.1476995E+01  0.7818608E-02  0.3498739E+00
         11   -1    0    0    0    0  0.00000000000E+00  0.00000000000E+00  0.39999999674E+01  0.40000000000E+01  0.51100000000E-03 0.  1.
    9000002   -1    0    0    0    0 -0.00000000000E+00 -0.00000000000E+00  0.00000000000E+00  0.93800000000E+00  0.93800000000E+00 0. -1.
         11    1    1    2    0    0 -0.10195500783E+00 -0.37723485178E+00  0.13596710016E+01  0.14147107304E+01  0.51100000000E-03 0.  1.
    9000002    1    1    2    0    0 -0.59132961063E-01 -0.17036420919E-01  0.97523906475E-01  0.94506182817E+00  0.93800000000E+00 0. -1.
         22    1    1    2    0    0  0.16108796889E+00  0.39427127270E+00  0.25428050593E+01  0.25782274414E+01  0.00000000000E+00 0.  1.
</event>
<event>
 5    1  0.1173395E+001  0.1529071E+01  0.7818608E-02  0.3434139E+00
         11   -1    0    0    0    0  0.00000000000E+00  0.00000000000E+00  0.39999999674E+01  0.40000000000E+01  0.51100000000E-03 0.  1.
    9000002   -1    0    0    0    0 -0.00000000000E+00 -0.00000000000E+00  0.00000000000E+00  0.93800000000E+00  0.93800000000E+00 0. -1.
         11    1    1    2    0    0 -0.27645129992E+00 -0.21304777692E+00  0.13353683576E+01  0.13802259192E+01  0.51100000000E-03 0.  1.
    9000002    1    1    2    0    0  0.20678581180E+00 -0.31717219103E-01  0.84094273911E-01  0.96471871592E+00  0.93800000000E+00 0. -1.
         22    1    1    2    0    0  0.69665488128E-01  0.24476499602E+00  0.25805373359E+01  0.25930553649E+01  0.00000000000E+00 0.  1.
</event>
<event>
 5    1  0.1173395E+001  0.1525368E+01  0.7818608E-02  0.3438575E+00
         11   -1    0    0    0    0  0.00000000000E+00  0.00000000000E+00  0.39999999674E+01  0.40000000000E+01  0.51100000000E-03 0. -1.
    9000002   -1    0    0    0    0 -0.00000000000E+00 -0.00000000000E+00  0.00000000000E+00  0.93800000000E+00  0.93800000000E+00 0. -1.
         11    1    1    2    0    0 -0.22549074461E-01  0.33287496571E+00  0.14447107195E+01  0.14827351509E+01  0.51100000000E-03 0. -1.
    9000002    1    1    2    0    0 -0.40086793962E-01 -0.50371410194E-01  0.58780288414E-01  0.94204211812E+00  0.93800000000E+00 0. -1.
         22    1    1    2    0    0  0.62635868423E-01 -0.28250355552E+00  0.24965089594E+01  0.25132227309E+01  0.00000000000E+00 0. -1.
</event>
<event>
 5    1  0.1173395E+001  0.1510742E+01  0.7818608E-02  0.3456329E+00
         11   -1    0    0    0    0  0.00000000000E+00  0.00000000000E+00  0.39999999674E+01  0.40000000000E+01  0.51100000000E-03 0.  1.
    9000002   -1    0    0    0    0 -0.00000000000E+00 -0.00000000000E+00  0.00000000000E+00  0.93800000000E+00  0.93800000000E+00 0.  1.
         11    1    1    2    0    0 -0.35427564514E+00  0.29323098777E+00  0.71958316424E+00  0.85398819448E+00  0.51100000000E-03 0.  1.
    9000002    1    1    2    0    0 -0.14991188916E+00 -0.28435495197E+00  0.26449357023E+00  0.10262222771E+01  0.93800000000E+00 0.  1.
         22    1    1    2    0    0  0.50418753430E+00 -0.88760358004E-02  0.30159232329E+01  0.30577895285E+01  0.00000000000E+00 0.  1.
</event>
<event>
 5    1  0.1173395E+001  0.1555804E+01  0.7818608E-02  0.3402775E+00
         11   -1    0    0    0    0  0.00000000000E+00  0.00000000000E+00  0.39999999674E+01  0.40000000000E+01  0.51100000000E-03 0. -1.
    9000002   -1    0    0    0    0 -0.00000000000E+00 -0.00000000000E+00  0.00000000000E+00  0.93800000000E+00  0.93800000000E+00 0. -1.
         11    1    1    2    0    0  0.20110222094E+00  0.12515324811E+00  0.14735450872E+01  0.14924613308E+01  0.51100000000E-03 0. -1.
    9000002    1    1    2    0    0 -0.19613638079E-01  0.60667991829E-01  0.35245685566E-01  0.94082493503E+00  0.93800000000E+00 0. -1.
         22    1    1    2    0    0 -0.18148858286E+00 -0.18582123994E+00  0.24912091946E+01  0.25047137342E+01  0.00000000000E+00 0. -1.
</event>
<event>
 5    1  0.1173395E+001  0.1482473E+01  0.7818608E-02  0.3491713E+00
         11   -1    0    0    0    0  0.00000000000E+00  0.00000000000E+00  0.39999999674E+01  0.40000000000E+01  0.51100000000E-03 0. -1.
    9000002   -1    0    0    0    0 -0.00000000000E+00 -0.00000000000E+00  0.00000000000E+00  0.93800000000E+00  0.93800000000E+00 0. -1.
         11    1    1    2    0    0  0.39354406818E-01 -0.39775815127E+00  0.60341888576E+00  0.72379204820E+00  0.51100000000E-03 0. -1.
    9000002    1    1    2    0    0 -0.37978691004E+00  0.46098461671E+00  0.37603222271E+00  0.11738778243E+01  0.93800000000E+00 0. -1.
         22    1    1    2    0    0  0.34043250322E+00 -0.63226465437E-01  0.30205488589E+01  0.30403301275E+01  0.00000000000E+00 0. -1.
</event>
<event>
 5    1  0.1173395E+001  0.1589860E+01  0.7818608E-02  0.3364443E+00
         11   -1    0    0    0    0  0.00000000000E+00  0.00000000000E+00  0.39999999674E+01  0.40000000000E+01  0.51100000000E-03 0. -1.
    9000002   -1    0    0    0    0 -0.00000000000E+00 -0.00000000000E+00  0.00000000000E+00  0.93800000000E+00  0.93800000000E+00 0.  1.
         11    1    1    2    0    0 -0.85828300769E-01  0.14645951631E-01  0.11965688449E+01  0.11997325797E+01  0.51100000000E-03 0. -1.
    9000002    1    1    2    0    0 -0.18093424506E-01 -0.24833346835E+00  0.48717413888E-01  0.97170688478E+00  0.93800000000E+00 0.  1.
         22    1    1    2    0    0  0.10392172527E+00  0.23368751671E+00  0.27547137086E+01  0.27665605355E+01  0.00000000000E+00 0. -1.
</event>
<event>
 5    1  0.1173395E+001  0.1558918E+01  0.7818608E-02  0.3399196E+00
         11   -1    0    0    0    0  0.00000000000E+00  0.00000000000E+00  0.39999999674E+01  0.40000000000E+01  0.51100000000E-03 0.  1.
    9000002   -1    0    0    0    0 -0.00000000000E+00 -0.00000000000E+00  0.00000000000E+00  0.93800000000E+00  0.93800000000E+00 0.  1.
         11    1    1    2    0    0  0.30294371476E+00 -0.18705972884E+00  0.76905167638E+00  0.84747093078E+00  0.51100000000E-03 0.  1.
    9000002    1    1    2    0    0 -0.59182470129E+00  0.37022376582E+00  0.39522191617E+00  0.12342473321E+01  0.93800000000E+00 0.  1.
         22    1    1    2    0    0  0.28888098653E+00 -0.18316403699E+00  0.28357263748E+01  0.28562817371E+01  0.00000000000E+00 0.  1.
</event>
<event>
 5    1  0.1173395E+001  0.1577803E+01  0.7818608E-02  0.3377814E+00
         11   -1    0    0    0    0  0.00000000000E+00  0.00000000000E+00  0.39999999674E+01  0.40000000000E+01  0.51100000000E-03 0.  1.
    9000002   -1    0    0    0    0 -0.00000000000E+00 -0.00000000000E+00  0.00000000000E+00  0.93800000000E+00  0.93800000000E+00 0. -1.
         11    1    1    2    0    0  0.22041661972E-01  0.95630598292E-01  0.98197791103E+00  0.98686976094E+00  0.51100000000E-03 0.  1.
    9000002    1    1    2    0    0  0.13175388282E+00  0.19349210575E+00  0.53151949300E-01  0.96822900718E+00  0.93800000000E+00 0. -1.
         22    1    1    2    0    0 -0.15379554479E+00 -0.28912270404E+00  0.29648701070E+01  0.29829012319E+01  0.00000000000E+00 0.  1.
</event>
<event>
 5    1  0.1173395E+001  0.1536293E+01  0.7818608E-02  0.3425550E+00
         11   -1    0    0    0    0  0.00000000000E+00  0.00000000000E+00  0.39999999674E+01  0.40000000000E+01  0.51100000000E-03 0.  1.
    9000002   -1    0    0    0    0 -0.00000000000E+00 -0.00000000000E+00  0.00000000000E+00  0.93800000000E+00  0.93800000000E+00 0.  1.
         11    1    1    2    0    0  0.18172638550E+00  0.12972668516E+00  0.76388949567E+00  0.79585231968E+00  0.51100000000E-03 0.  1.
    9000002    1    1    2    0    0  0.11348420268E+00 -0.96930920056E-02  0.56468385869E-01  0.94657556428E+00  0.93800000000E+00 0.  1.
         22    1    1    2    0    0 -0.29521058818E+00 -0.12003359316E+00  0.31796420858E+01  0.31955721160E+01  0.00000000000E+00 0.  1.
</event>
<event>
 5    1  0.1173395E+001  0.1236793E+01  0.7818608E-02  0.3910498E+00
         11   -1    0    0    0    0  0.00000000000E+00  0.00000000000E+00  0.39999999674E+01  0.40000000000E+01  0.51100000000E-03 0. -1.
    9000002   -1    0    0    0    0 -0.00000000000E+00 -0.00000000000E+00  0.00000000000E+00  0.93800000000E+00  0.93800000000E+00 0. -1.
         11    1    1    2    0    0  0.11958047985E+00  0.65306892014E+00  0.60198211676E+00  0.89620379135E+00  0.51100000000E-03 0. -1.
    9000002    1    1    2    0    0  0.21005867874E-01 -0.39252055108E+00  0.50835332645E+00  0.11370051601E+01  0.93800000000E+00 0. -1.
         22    1    1    2    0    0 -0.14058634772E+00 -0.26054836906E+00  0.28896645241E+01  0.29047910486E+01  0.00000000000E+00 0.  1.
</event>
<event>
 5    1  0.1173395E+001  0.1483444E+01  0.7818608E-02  0.3490473E+00
         11   -1    0    0    0    0  0.00000000000E+00  0.00000000000E+00  0.39999999674E+01  0.40000000000E+01  0.51100000000E-03 0.  1.
    9000002   -1    0    0    0    0 -0.00000000000E+00 -0.00000000000E+00  0.00000000000E+00  0.93800000000E+00  0.93800000000E+00 0. -1.
         11    1    1    2    0    0  0.30230963009E+00  0.27837211896E+00  0.76413000041E+00  0.86762726312E+00  0.51100000000E-03 0.  1.
    9000002    1    1    2    0    0 -0.11749782098E+00  0.20587083409E+00  0.19664742221E+00  0.98727035149E+00  0.93800000000E+00 0. -1.
         22    1    1    2    0    0 -0.18481180912E+00 -0.48424295305E+00  0.30392225447E+01  0.30831023854E+01  0.00000000000E+00 0.  1.
</event>
<event>
 5    1  0.1173395E+001  0.1506121E+01  0.7818608E-02  0.3462015E+00
         11   -1    0    0    0    0  0.00000000000E+00  0.00000000000E+00  0.39999999674E+01  0.40000000000E+01  0.51100000000E-03 0.  1.
    9000002   -1    0    0    0    0 -0.00000000000E+00 -0.00000000000E+00  0.00000000000E+00  0.93800000000E+00  0.93800000000E+00 0. -1.
         11    1    1    2    0    0  0.32580621140E+00  0.46980544759E-01  0.93828192443E+00  0.99434907845E+00  0.51100000000E-03 0.  1.
    9000002    1    1    2    0    0 -0.54448900192E-01  0.19700281029E-02  0.73187819017E-01  0.94242719644E+00  0.93800000000E+00 0. -1.
         22    1    1    2    0    0 -0.27135731121E+00 -0.48950572862E-01  0.29885302239E+01  0.30012237251E+01  0.00000000000E+00 0. -1.
</event>
<event>
 5    1  0.1173395E+001  0.1522599E+01  0.7818608E-02  0.3441908E+00
         11   -1    0    0    0    0  0.00000000000E+00  0.00000000000E+00  0.39999999674E+01  0.40000000000E+01  0.51100000000E-03 0. -1.
    9000002   -1    0    0    0    0 -0.00000000000E+00 -0.00000000000E+00  0.00000000000E+00  0.93800000000E+00  0.93800000000E+00 0.  1.
         11    1    1    2    0    0  0.26261082203E+00 -0.90136572103E-01  0.94214553457E+00  0.98220543417E+00  0.51100000000E-03 0. -1.
    9000002    1    1    2    0    0  0.11665223511E-01 -0.71433590611E-01  0.61734755641E-01  0.94281176030E+00  0.93800000000E+00 0.  1.
         22    1    1    2    0    0 -0.27427604554E+00  0.16157016271E+00  0.29961196771E+01  0.30129828055E+01  0.00000000000E+00 0. -1.
</event>
<event>
 5    1  0.1173395E+001  0.1480632E+01  0.7818608E-02  0.3494067E+00
         11   -1    0    0    0    0  0.00000000000E+00  0.00000000000E+00  0.39999999674E+01  0.40000000000E+01  0.51100000000E-03 0.  1.
    9000002   -1    0    0    0    0 -0.00000000000E+00 -0.00000000000E+00  0.00000000000E+00  0.93800000000E+00  0.93800000000E+00 0. -1.
         11    1    1    2    0    0 -0.37405548397E+00 -0.79382371711E-01  0.55393733187E+00  0.67310169721E+00  0.51100000000E-03 0.  1.
    9000002    1    1    2    0    0  0.20243541201E-01  0.10390159696E+00  0.15718302399E+00  0.95695132888E+00  0.93800000000E+00 0. -1.
         22    1    1    2    0    0  0.35381194277E+00 -0.24519225250E-01  0.32888796115E+01  0.33079469739E+01  0.00000000000E+00 0.  1.
</event>
<event>
 5    1  0.1173395E+001  0.1575300E+01  0.7818608E-02  0.3380617E+00
         11   -1    0    0    0    0  0.00000000000E+00  0.00000000000E+00  0.39999999674E+01  0.40000000000E+01  0.51100000000E-03 0. -1.
    9000002   -1    0    0    0    0 -0.00000000000E+00 -0.00000000000E+00  0.00000000000E+00  0.93800000000E+00  0.93800000000E+00 0.  1.
         11    1    1    2    0    0 -0.16075325764E+00 -0.17582309732E-01  0.66771057738E+00  0.68701413648E+00  0.51100000000E-03 0. -1.
    9000002    1    1    2    0    0  0.14032363342E+00  0.33260093832E+00  0.10751891651E+00  0.10108008823E+01  0.93800000000E+00 0.  1.
         22    1    1    2    0    0  0.20429624224E-01 -0.31501862858E+00  0.32247704735E+01  0.32401849812E+01  0.00000000000E+00 0. -1.
</event>
<event>
 5    1  0.1173395E+001  0.1508109E+01  0.7818608E-02  0.3459565E+00
         11   -1    0    0    0    0  0.00000000000E+00  0.00000000000E+00  0.39999999674E+01  0.40000000000E+01  0.51100000000E-03 0. -1.
    9000002   -1    0    0    0    0 -0.00000000000E+00 -0.00000000000E+00  0.00000000000E+00  0.93800000000E+00  0.93800000000E+00 0.  1.
         11    1    1    2    0    0  0.15156944393E+00 -0.31428953486E+00  0.11926376198E+01  0.12426326736E+01  0.51100000000E-03 0. -1.
    9000002    1    1    2    0    0  0.50993697865E-01  0.74155398401E-01  0.75310505435E-01  0.94531214557E+00  0.93800000000E+00 0.  1.
         22    1    1    2    0    0 -0.20256314179E+00  0.24013413646E+00  0.27320518421E+01  0.27500551809E+01  0.00000000000E+00 0. -1.
</event>
<event>
 5    1  0.1173395E+001  0.1264454E+01  0.7818608E-02  0.3852288E+00
         11   -1    0    0    0    0  0.00000000000E+00  0.00000000000E+00  0.39999999674E+01  0.40000000000E+01  0.51100000000E-03 0.  1.
    9000002   -1    0    0    0    0 -0.00000000000E+00 -0.00000000000E+00  0.00000000000E+00  0.93800000000E+00  0.93800000000E+00 0.  1.
         11    1    1    2    0    0 -0.86432644386E+00 -0.42163456421E+00  0.86881819492E+00  0.12960251634E+01  0.51100000000E-03 0.  1.
    9000002    1    1    2    0    0  0.75070930000E+00  0.27381597156E+00  0.12630466003E+01  0.17645595354E+01  0.93800000000E+00 0.  1.
         22    1    1    2    0    0  0.11361714385E+00  0.14781859265E+00  0.18681351722E+01  0.18774153012E+01  0.00000000000E+00 0.  1.
</event>
<event>
 5    1  0.1173395E+001  0.1544266E+01  0.7818608E-02  0.3416169E+00
         11   -1    0    0    0    0  0.00000000000E+00  0.00000000000E+00  0.39999999674E+01  0.40000000000E+01  0.51100000000E-03 0. -1.
    9000002   -1    0    0    0    0 -0.00000000000E+00 -0.00000000000E+00  0.00000000000E+00  0.93800000000E+00  0.93800000000E+00 0. -1.
         11    1    1    2    0    0  0.24614445435E+00  0.10906243818E+00  0.13541035555E+01  0.13806079849E+01  0.51100000000E-03 0. -1.
    9000002    1    1    2    0    0 -0.52740576901E-01  0.98751691159E-01  0.49958363812E-01  0.94597743264E+00  0.93800000000E+00 0. -1.
         22    1    1    2    0    0 -0.19340387745E+00 -0.20781412934E+00  0.25959380480E+01  0.26114145824E+01  0.00000000000E+00 0.  1.
</event>
<event>
 5    1  0.1173395E+001  0.1475718E+01  0.7818608E-02  0.3500385E+00
         11   -1    0    0    0    0  0.00000000000E+00  0.00000000000E+00  0.39999999674E+01  0.40000000000E+01  0.51100000000E-03 0.  1.
    9000002   -1    0    0    0    0 -0.00000000000E+00 -0.00000000000E+00  0.00000000000E+00  0.93800000000E+00  0.93800000000E+00 0. -1.
         11    1    1    2    0    0  0.60848539727E-01 -0.43642592937E+00  0.13311981981E+01  0.14022335898E+01  0.51100000000E-03 0.  1.
    9000002    1    1    2    0    0 -0.15514571361E-01  0.10678903112E+00  0.10448315274E+00  0.94995017148E+00  0.93800000000E+00 0. -1.
         22    1    1    2    0    0 -0.45333968366E-01  0.32963689825E+00  0.25643186165E+01  0.25858162387E+01  0.00000000000E+00 0.  1.
</event>
<event>
 5    1  0.1173395E+001  0.1594778E+01  0.7818608E-02  0.3359050E+00
         11   -1    0    0    0    0  0.00000000000E+00  0.00000000000E+00  0.39999999674E+01  0.40000000000E+01  0.51100000000E-03 0. -1.
    9000002   -1    0    0    0    0 -0.00000000000E+00 -0.00000000000E+00  0.00000000000E+00  0.93800000000E+00  0.93800000000E+00 0.  1.
         11    1    1    2    0    0  0.64354869137E-01  0.23147332919E+00  0.14179955300E+01  0.14382047961E+01  0.51100000000E-03 0. -1.
    9000002    1    1    2    0    0 -0.19645135474E+00 -0.40828503420E+00  0.14374671783E+00  0.10515687913E+01  0.93800000000E+00 0.  1.
         22    1    1    2    0    0  0.13209648560E+00  0.17681170501E+00  0.24382577196E+01  0.24482264127E+01  0.00000000000E+00 0. -1.
</event>
<event>
 5    1  0.1173395E+001  0.1541756E+01  0.7818608E-02  0.3419111E+00
         11   -1    0    0    0    0  0.00000000000E+00  0.00000000000E+00  0.39999999674E+01  0.40000000000E+01  0.51100000000E-03 0. -1.
    9000002   -1    0    0    0    0 -0.00000000000E+00 -0.00000000000E+00  0.00000000000E+00  0.93800000000E+00  0.93800000000E+00 0. -1.
         11    1    1    2    0    0  0.24586986677E+00 -0.41023870812E-01  0.10710124149E+01  0.10996375782E+01  0.51100000000E-03 0. -1.
    9000002    1    1    2    0    0  0.38860911828E-01  0.47383583250E-01  0.45770568267E-01  0.94111334033E+00  0.93800000000E+00 0. -1.
         22    1    1    2    0    0 -0.28473077860E+00 -0.63597124373E-02  0.28832169842E+01  0.28972490815E+01  0.00000000000E+00 0. -1.
</event>
<event>
 5    1  0.1173395E+001  0.1570725E+01  0.7818608E-02  0.3385764E+00
         11   -1    0    0    0    0  0.00000000000E+00  0.00000000000E+00  0.39999999674E+01  0.40000000000E+01  0.51100000000E-03 0.  1.
    9000002   -1    0    0    0    0 -0.00000000000E+00 -0.00000000000E+00  0.00000000000E+00  0.93800000000E+00  0.93800000000E+00 0. -1.
         11    1    1    2    0    0 -0.15874851108E+00 -0.13983605929E+00  0.14697793744E+01  0.14849265583E+01  0.51100000000E-03 0.  1.
    9000002    1    1    2    0    0 -0.79071578685E-01  0.20995347968E+00  0.55594922330E-01  0.96605774857E+00  0.93800000000E+00 0. -1.
         22    1    1    2    0    0  0.23782008976E+00 -0.70117420391E-01  0.24746256707E+01  0.24870156931E+01  0.00000000000E+00 0.  1.
</event>
<event>
 5    1  0.1173395E+001  0.1597087E+01  0.7818608E-02  0.3356532E+00
         11   -1    0    0    0    0  0.00000000000E+00  0.00000000000E+00  0.39999999674E+01  0.40000000000E+01  0.51100000000E-03 0.  1.
    9000002   -1    0    0    0    0 -0.00000000000E+00 -0.00000000000E+00  0.00000000000E+00  0.93800000000E+00  0.93800000000E+00 0.  1.
         11    1    1    2    0    0 -0.46352086973E-03  0.15203299079E-01  0.46516974739E+00  0.46541863968E+00  0.51100000000E-03 0.  1.
    9000002    1    1    2    0    0 -0.30274992898E+00 -0.25704387011E+00  0.10850668113E+00  0.10243762837E+01  0.93800000000E+00 0.  1.
         22    1    1    2    0    0  0.30321344985E+00  0.24184057103E+00  0.34263235388E+01  0.34482050767E+01  0.00000000000E+00 0.  1.
</event>
<event>
 5    1  0.1173395E+001  0.1563769E+01  0.7818608E-02  0.3393651E+00
         11   -1    0    0    0    0  0.00000000000E+00  0.00000000000E+00  0.39999999674E+01  0.40000000000E+01  0.51100000000E-03 0. -1.
    9000002   -1    0    0    0    0 -0.00000000000E+00 -0.00000000000E+00  0.00000000000E+00  0.93800000000E+00  0.93800000000E+00 0.  1.
         11    1    1    2    0    0  0.15974801366E-01  0.38137408334E+00  0.14091936040E+01  0.14599754314E+01  0.51100000000E-03 0. -1.
    9000002    1    1    2    0    0 -0.22315617876E+00 -0.45599165381E+00  0.20998876080E+00  0.10870447774E+01  0.93800000000E+00 0.  1.
         22    1    1    2    0    0  0.20718137739E+00  0.74617570465E-01  0.23808176026E+01  0.23909797911E+01  0.00000000000E+00 0. -1.
</event>
<event>
 5    1  0.1173395E+001  0.1569266E+01  0.7818608E-02  0.3387411E+00
         11   -1    0    0    0    0  0.00000000000E+00  0.00000000000E+00  0.39999999674E+01  0.40000000000E+01  0.51100000000E-03 0. -1.
    9000002   -1    0    0    0    0 -0.00000000000E+00 -0.00000000000E+00  0.00000000000E+00  0.93800000000E+00  0.93800000000E+00 0.  1.
         11    1    1    2    0    0 -0.35591354505E+00  0.32125914838E-01  0.10962871480E+01  0.11530621397E+01  0.51100000000E-03 0. -1.
    9000002    1    1    2    0    0  0.64740197817E+00  0.26396936752E+00  0.38415782811E+00  0.12313530709E+01  0.93800000000E+00 0.  1.
         22    1    1    2    0    0 -0.29148843312E+00 -0.29609528236E+00  0.25195549912E+01  0.25535847894E+01  0.00000000000E+00 0. -1.
</event>
<event>
 5    1  0.1173395E+001  0.1543943E+01  0.7818608E-02  0.3416547E+00
         11   -1    0    0    0    0  0.00000000000E+00  0.00000000000E+00  0.39999999674E+01  0.40000000000E+01  0.51100000000E-03 0. -1.
    9000002   -1    0    0    0    0 -0.00000000000E+00 -0.00000000000E+00  0.00000000000E+00  0.93800000000E+00  0.93800000000E+00 0.  1.
         11    1    1    2    0    0 -0.22757280161E+00  0.84361857992E-01  0.14076394670E+01  0.14284101069E+01  0.51100000000E-03 0. -1.
    9000002    1    1    2    0    0 -0.84041107842E-01  0.10022425691E-01  0.46462290865E-01  0.94295604420E+00  0.93800000000E+00 0.  1.
         22    1    1    2    0    0  0.31161390945E+00 -0.94384283683E-01  0.25458982095E+01  0.25666338489E+01  0.00000000000E+00 0. -1.
</event>
<event>
 5    1  0.6912157E+001  0.1440946E+01  0.7818608E-02  0.3546424E+00
         11   -1    0    0    0    0  0.00000000000E+00  0.00000000000E+00  0.39999999674E+01  0.40000000000E+01  0.51100000000E-03 0. -1.
    9000002   -1    0    0    0    0 -0.00000000000E+00 -0.00000000000E+00  0.00000000000E+00  0.93800000000E+00  0.93800000000E+00 0. -1.
         11    1    1    2    0    0  0.76767054620E+00  0.59352913563E+00  0.10758438827E+01  0.14488047568E+01  0.51100000000E-03 0. -1.
    9000002    1    1    2    0    0 -0.76550300734E+00 -0.72805483825E+00  0.15069748617E+01  0.20656417733E+01  0.93800000000E+00 0. -1.
         22    1    1    2    0    0 -0.21675388570E-02  0.13452570262E+00  0.14171812230E+01  0.14235534699E+01  0.00000000000E+00 0. -1.
</event>
<event>
 5    1  0.1173395E+001  0.1472946E+01  0.7818608E-02  0.3503969E+00
         11   -1    0    0    0    0  0.00000000000E+00  0.00000000000E+00  0.39999999674E+01  0.40000000000E+01  0.51100000000E-03 0.  1.
    9000002   -1    0    0    0    0 -0.00000000000E+00 -0.00000000000E+00  0.00000000000E+00  0.93800000000E+00  0.93800000000E+00 0.  1.
         11    1    1    2    0    0  0.17885435045E+00 -0.44769041990E+00  0.11439774254E+01  0.12414105694E+01  0.51100000000E-03 0.  1.
    9000002    1    1    2    0    0 -0.38895633513E+00 -0.59272934344E-01  0.26919482026E+00  0.10521930254E+01  0.93800000000E+00 0.  1.
         22    1    1    2    0    0  0.21010198469E+00  0.50696335424E+00  0.25868277217E+01  0.26443964052E+01  0.00000000000E+00 0.  1.
</event>
<event>
 5    1  0.1173395E+001  0.1571027E+01  0.7818608E-02  0.3385422E+00
         11   -1    0    0    0    0  0.00000000000E+00  0.00000000000E+00  0.39999999674E+01  0.40000000000E+01  0.51100000000E-03 0. -1.
    9000002   -1    0    0    0    0 -0.00000000000E+00 -0.00000000000E+00  0.00000000000E+00  0.93800000000E+00  0.93800000000E+00 0. -1.
         11    1    1    2    0    0 -0.55050807678E-01 -0.16262303424E+00  0.13890336264E+01  0.13996040580E+01  0.51100000000E-03 0. -1.
    9000002    1    1    2    0    0 -0.54849710360E-01 -0.48269456208E-01  0.24644692128E-01  0.94116406220E+00  0.93800000000E+00 0. -1.
         22    1    1    2    0    0  0.10990051804E+00  0.21089249045E+00  0.25863216488E+01  0.25972318798E+01  0.00000000000E+00 0. -1.
</event>
<event>
 5    1  0.1173395E+001  0.1556851E+01  0.7818608E-02  0.3401570E+00
         11   -1    0    0    0    0  0.00000000000E+00  0.00000000000E+00  0.39999999674E+01  0.40000000000E+01  0.51100000000E-03 0.  1.
    9000002   -1    0    0    0    0 -0.00000000000E+00 -0.00000000000E+00  0.00000000000E+00  0.93800000000E+00  0.93800000000E+00 0. -1.
         11    1    1    2    0    0 -0.13323980338E+00  0.21062411726E+00  0.13108404591E+01  0.13343231747E+01  0.51100000000E-03 0.  1.
    9000002    1    1    2    0    0 -0.92763285977E-01 -0.12844734901E+00  0.48958371905E-01  0.95254641403E+00  0.93800000000E+00 0. -1.
         22    1    1    2    0    0  0.22600308936E+00 -0.82176768248E-01  0.26402011363E+01  0.26511304113E+01  0.00000000000E+00 0.  1.
</event>
<event>
 5    1  0.1173395E+001  0.1510607E+01  0.7818608E-02  0.3456494E+00
         11   -1    0    0    0    0  0.00000000000E+00  0.00000000000E+00  0.39999999674E+01  0.40000000000E+01  0.51100000000E-03 0. -1.
    9000002   -1    0    0    0    0 -0.00000000000E+00 -0.00000000000E+00  0.00000000000E+00  0.93800000000E+00  0.93800000000E+00 0. -1.
         11    1    1    2    0    0 -0.62819240061E-01  0.36735718357E+00  0.13190729803E+01  0.13707119850E+01  0.51100000000E-03 0. -1.
    9000002    1    1    2    0    0  0.37279306028E-01 -0.91036419390E-01  0.74447385102E-01  0.94607810960E+00  0.93800000000E+00 0. -1.
         22    1    1    2    0    0  0.25539934033E-01 -0.27632076418E+00  0.26064796019E+01  0.26212099054E+01  0.00000000000E+00 0.  1.
</event>
<event>
 5    1  0.1173395E+001  0.1574199E+01  0.7818608E-02  0.3381852E+00
         11   -1    0    0    0    0  0.00000000000E+00  0.00000000000E+00  0.39999999674E+01  0.40000000000E+01  0.51100000000E-03 0.  1.
    9000002   -1    0    0    0    0 -0.00000000000E+00 -0.00000000000E+00  0.00000000000E+00  0.93800000000E+00  0.93800000000E+00 0. -1.
         11    1    1    2    0    0  0.59973765175E-01 -0.12630293817E+00  0.10515653187E+01  0.10608200438E+01  0.51100000000E-03 0.  1.
    9000002    1    1    2    0    0  0.31488128100E+00  0.13533499268E+00  0.99413494753E-01  0.10035899682E+01  0.93800000000E+00 0. -1.
         22    1    1    2    0    0 -0.37485504618E+00 -0.90320545089E-02  0.28490211539E+01  0.28735899880E+01  0.00000000000E+00 0.  1.
</event>
<event>
 5    1  0.1173395E+001  0.1505778E+01  0.7818608E-02  0.3462438E+00
         11   -1    0    0    0    0  0.00000000000E+00  0.00000000000E+00  0.39999999674E+01  0.40000000000E+01  0.51100000000E-03 0. -1.
    9000002   -1    0    0    0    0 -0.00000000000E+00 -0.00000000000E+00  0.00000000000E+00  0.93800000000E+00  0.93800000000E+00 0. -1.
         11    1    1    2    0    0  0.30019091480E+00 -0.11492929021E+00  0.11311851645E+01  0.11759691598E+01  0.51100000000E-03 0. -1.
    9000002    1    1    2    0    0  0.86849805652E-01  0.11839973425E+00  0.86981645278E-01  0.95339980723E+00  0.93800000000E+00 0. -1.
         22    1    1    2    0    0 -0.38704072045E+00 -0.34704440411E-02  0.27818331575E+01  0.28086310330E+01  0.00000000000E+00 0. -1.
</event>
<event>
 5    1  0.1173395E+001  0.1563264E+01  0.7818608E-02  0.3394226E+00
         11   -1    0    0    0    0  0.00000000000E+00  0.00000000000E+00  0.39999999674E+01  0.40000000000E+01  0.51100000000E-03 0. -1.
    9000002   -1    0    0    0    0 -0.00000000000E+00 -0.00000000000E+00  0.00000000000E+00  0.93800000000E+00  0.93800000000E+00 0.  1.
         11    1    1    2    0    0 -0.60787659422E-01  0.16124096731E+00  0.12063443485E+01  0.12185896509E+01  0.51100000000E-03 0. -1.
    9000002    1    1    2    0    0 -0.58111235917E-03  0.13507865222E+00  0.39309843867E-01  0.94849135146E+00  0.93800000000E+00 0.  1.
         22    1    1    2    0    0  0.61368771782E-01 -0.29631961953E+00  0.27543457750E+01  0.27709189976E+01  0.00000000000E+00 0. -1.
</event>
<event>
 5    1  0.1173395E+001  0.1526907E+01  0.7818608E-02  0.3436729E+00
         11   -1    0    0    0    0  0.00000000000E+00  0.00000000000E+00  0.39999999674E+01  0.40000000000E+01  0.51100000000E-03 0. -1.
    9000002   -1    0    0    0    0 -0.00000000000E+00 -0.00000000000E+00  0.00000000000E+00  0.93800000000E+00  0.93800000000E+00 0.  1.
         11    1    1    2    0    0 -0.15030677358E+00  0.24338875915E+00  0.13538012983E+01  0.13836937633E+01  0.51100000000E-03 0. -1.
    9000002    1    1    2    0    0 -0.10528150819E-01  0.69693876724E-01  0.58158292030E-01  0.94244069593E+00  0.93800000000E+00 0.  1.
         22    1    1    2    0    0  0.16083492440E+00 -0.31308263587E+00  0.25880403770E+01  0.26118655407E+01  0.00000000000E+00 0.  1.
</event>
<event>
 5    1  0.1173395E+001  0.1478709E+01  0.7818608E-02  0.3496534E+00
         11   -1    0    0    0    0  0.00000000000E+00  0.00000000000E+00  0.39999999674E+01  0.40000000000E+01  0.51100000000E-03 0.  1.
    9000002   -1    0    0    0    0 -0.00000000000E+00 -0.00000000000E+00  0.00000000000E+00  0.93800000000E+00  0.93800000000E+00 0.  1.
         11    1    1    2    0    0 -0.13796936071E+00 -0.55703410817E+00  0.11978176280E+01  0.13281904506E+01  0.51100000000E-03 0.  1.
    9000002    1    1    2    0    0  0.34284455146E+00  0.47172307753E+00  0.36602549974E+00  0.11635650883E+01  0.93800000000E+00 0.  1.
         22    1    1    2    0    0 -0.20487519075E+00  0.85311030633E-01  0.24361568397E+01  0.24462444610E+01  0.00000000000E+00 0.  1.
</event>
<event>
 5    1  0.1173395E+001  0.1593070E+01  0.7818608E-02  0.3360920E+00
         11   -1    0    0    0    0  0.00000000000E+00  0.00000000000E+00  0.39999999674E+01  0.40000000000E+01  0.51100000000E-03 0.  1.
    9000002   -1    0    0    0    0 -0.00000000000E+00 -0.00000000000E+00  0.00000000000E+00  0.93800000000E+00  0.93800000000E+00 0.  1.
         11    1    1    2    0    0  0.46449402948E-01 -0.30042524825E-02  0.13199453608E+01  0.13207659101E+01  0.51100000000E-03 0.  1.
    9000002    1    1    2    0    0 -0.19811645648E+00 -0.25961856910E+00  0.76599121636E-01  0.99617436083E+00  0.93800000000E+00 0.  1.
         22    1    1    2    0    0  0.15166705353E+00  0.26262282158E+00  0.26034554849E+01  0.26210597291E+01  0.00000000000E+00 0. -1.
</event>
<event>
 5    1  0.1173395E+001  0.1555560E+01  0.7818608E-02  0.3403056E+00
         11   -1    0    0    0    0  0.00000000000E+00  0.00000000000E+00  0.39999999674E+01  0.40000000000E+01  0.51100000000E-03 0.  1.
    9000002   -1    0    0    0    0 -0.00000000000E+00 -0.00000000000E+00  0.00000000000E+00  0.93800000000E+00  0.93800000000E+00 0. -1.
         11    1    1    2    0    0 -0.59229624228E-01 -0.22995821782E+00  0.14753223172E+01  0.14943109219E+01  0.51100000000E-03 0.  1.
    9000002    1    1    2    0    0 -0.80144317322E-01  0.62565279095E-02  0.37080755603E-01  0.94216837040E+00  0.93800000000E+00 0. -1.
         22    1    1    2    0    0  0.13937394155E+00  0.22370168991E+00  0.24875968945E+01  0.25015207078E+01  0.00000000000E+00 0.  1.
</event>
<event>
 5    1  0.1173395E+001  0.1323970E+01  0.7818608E-02  0.3737077E+00
         11   -1    0    0    0    0  0.00000000000E+00  0.00000000000E+00  0.39999999674E+01  0.40000000000E+01  0.51100000000E-03 0. -1.
    9000002   -1    0    0    0    0 -0.00000000000E+00 -0.00000000000E+00  0.00000000000E+00  0.93800000000E+00  0.93800000000E+00 0.  1.
         11    1    1    2    0    0 -0.35048157070E+00  0.59487024205E+00  0.11392024084E+01  0.13320999680E+01  0.51100000000E-03 0. -1.
    9000002    1    1    2    0    0  0.31244674009E-01 -0.33320180413E+00  0.34123762256E+00  0.10527520064E+01  0.93800000000E+00 0.  1.
         22    1    1    2    0    0  0.31923689670E+00 -0.26166843791E+00  0.25195599364E+01  0.25531480256E+01  0.00000000000E+00 0. -1.
</event>
<event>
 5    1  0.1173395E+001  0.1502491E+01  0.7818608E-02  0.3466509E+00
         11   -1    0    0    0    0  0.00000000000E+00  0.00000000000E+00  0.39999999674E+01  0.40000000000E+01  0.51100000000E-03 0. -1.
    9000002   -1    0    0    0    0 -0.00000000000E+00 -0.00000000000E+00  0.00000000000E+00  0.93800000000E+00  0.93800000000E+00 0. -1.
         11    1    1    2    0    0  0.19944107477E+00 -0.25138109097E+00  0.95321323509E+00  0.10057757841E+01  0.51100000000E-03 0. -1.
    9000002    1    1    2    0    0 -0.13541212326E+00 -0.10952755431E+00  0.96101969295E-01  0.95885990467E+00  0.93800000000E+00 0. -1.
         22    1    1    2    0    0 -0.64028951516E-01  0.36090864528E+00  0.29506847630E+01  0.29733643112E+01  0.00000000000E+00 0. -1.
</event>
<event>
 5    1  0.1173395E+001  0.1365070E+01  0.7818608E-02  0.3664551E+00
         11   -1    0    0    0    0  0.00000000000E+00  0.00000000000E+00  0.39999999674E+01  0.40000000000E+01  0.51100000000E-03 0.  1.
    9000002   -1    0    0    0    0 -0.00000000000E+00 -0.00000000000E+00  0.00000000000E+00  0.93800000000E+00  0.93800000000E+00 0.  1.
         11    1    1    2    0    0  0.72285142842E+00 -0.24849558566E+00  0.99647598038E+00  0.12558777346E+01  0.51100000000E-03 0.  1.
    9000002    1    1    2    0    0 -0.56848517569E+00  0.42443874743E+00  0.70393880587E+00  0.13706558604E+01  0.93800000000E+00 0.  1.
         22    1    1    2    0    0 -0.15436625273E+00 -0.17594316177E+00  0.22995851811E+01  0.23114664050E+01  0.00000000000E+00 0.  1.
</event>
<event>
 5    1  0.1173395E+001  0.1574098E+01  0.7818608E-02  0.3381965E+00
         11   -1    0    0    0    0  0.00000000000E+00  0.00000000000E+00  0.39999999674E+01  0.40000000000E+01  0.51100000000E-03 0.  1.
    9000002   -1    0    0    0    0 -0.00000000000E+00 -0.00000000000E+00  0.00000000000E+00  0.93800000000E+00  0.93800000000E+00 0. -1.
         11    1    1    2    0    0  0.80128662508E-01  0.11911923630E+00  0.11030519752E+01  0.11123551214E+01  0.51100000000E-03 0.  1.
    9000002    1    1    2    0    0  0.19294326534E+00 -0.36664512533E-01  0.44924732019E-01  0.95939231895E+00  0.93800000000E+00 0. -1.
         22    1    1    2    0    0 -0.27307192785E+00 -0.82454723765E-01  0.28520232601E+01  0.28662525596E+01  0.00000000000E+00 0.  1.
</event>
<event>
 5    1  0.1173395E+001  0.1552287E+01  0.7818608E-02  0.3406835E+00
         11   -1    0    0    0    0  0.00000000000E+00  0.00000000000E+00  0.39999999674E+01  0.40000000000E+01  0.51100000000E-03 0.  1.
    9000002   -1    0    0    0    0 -0.00000000000E+00 -0.00000000000E+00  0.00000000000E+00  0.93800000000E+00  0.93800000000E+00 0.  1.
         11    1    1    2    0    0  0.16536004151E+00  0.46478384353E-01  0.10455464899E+01  0.10595621299E+01  0.51100000000E-03 0.  1.
    9000002    1    1    2    0    0  0.14300607802E+00  0.24114000633E+00  0.90018479750E-01  0.98313100231E+00  0.93800000000E+00 0.  1.
         22    1    1    2    0    0 -0.30836611953E+00 -0.28761839069E+00  0.28644349977E+01  0.28953068678E+01  0.00000000000E+00 0.  1.
</event>
<event>
 5    1  0.1173395E+001  0.1514783E+01  0.7818608E-02  0.3451387E+00
         11   -1    0    0    0    0  0.00000000000E+00  0.00000000000E+00  0.39999999674E+01  0.40000000000E+01  0.51100000000E-03 0.  1.
    9000002   -1    0    0    0    0 -0.00000000000E+00 -0.00000000000E+00  0.00000000000E+00  0.93800000000E+00  0.93800000000E+00 0. -1.
         11    1    1    2    0    0 -0.18579143589E+00  0.10204368975E+00  0.42087034108E+00  0.47123611639E+00  0.51100000000E-03 0.  1.
    9000002    1    1    2    0    0 -0.13785644000E+00 -0.77833567481E-01  0.82205493310E-01  0.95481108362E+00  0.93800000000E+00 0. -1.
         22    1    1    2    0    0  0.32364787589E+00 -0.24210122271E-01  0.34969241330E+01  0.35119528000E+01  0.00000000000E+00 0.  1.
</event>
<event>
 5    1  0.1173395E+001  0.1522859E+01  0.7818608E-02  0.3441594E+00
         11   -1    0    0    0    0  0.00000000000E+00  0.00000000000E+00  0.39999999674E+01  0.40000000000E+01  0.51100000000E-03 0. -1.
    9000002   -1    0    0    0    0 -0.00000000000E+00 -0.00000000000E+00  0.00000000000E+00  0.93800000000E+00  0.93800000000E+00 0.  1.
         11    1    1    2    0    0  0.35225231544E+00 -0.35675777945E-01  0.10980809935E+01  0.11537489260E+01  0.51100000000E-03 0. -1.
    9000002    1    1    2    0    0 -0.25118185609E+00 -0.27958268949E+00  0.16079795319E+00  0.10232100404E+01  0.93800000000E+00 0.  1.
         22    1    1    2    0    0 -0.10107045934E+00  0.31525846743E+00  0.27411210207E+01  0.27610410336E+01  0.00000000000E+00 0. -1.
</event>
<event>
 5    1  0.1173395E+001  0.1568709E+01  0.7818608E-02  0.3388042E+00
         11   -1    0    0    0    0  0.00000000000E+00  0.00000000000E+00  0.39999999674E+01  0.40000000000E+01  0.51100000000E-03 0.  1.
    9000002   -1    0    0    0    0 -0.00000000000E+00 -0.00000000000E+00  0.00000000000E+00  0.93800000000E+00  0.93800000000E+00 0. -1.
         11    1    1    2    0    0  0.63528460314E-01  0.13661829240E+00  0.91097752664E+00  0.92335298681E+00  0.51100000000E-03 0.  1.
    9000002    1    1    2    0    0  0.11109951742E+00  0.77553480692E-01  0.35243284938E-01  0.94839007495E+00  0.93800000000E+00 0. -1.
         22    1    1    2    0    0 -0.17462797773E+00 -0.21417177309E+00  0.30537791558E+01  0.30662569382E+01  0.00000000000E+00 0.  1.
</event>
<event>
 5    1  0.1173395E+001  0.1597252E+01  0.7818608E-02  0.3356351E+00
         11   -1    0    0    0    0  0.00000000000E+00  0.00000000000E+00  0.39999999674E+01  0.40000000000E+01  0.51100000000E-03 0. -1.
    9000002   -1    0    0    0    0 -0.00000000000E+00 -0.00000000000E+00  0.00000000000E+00  0.93800000000E+00  0.93800000000E+00 0. -1.
         11    1    1    2    0    0 -0.14723270934E+00  0.94170384036E-01  0.11891477384E+01  0.12019226834E+01  0.51100000000E-03 0. -1.
    9000002    1    1    2    0    0  0.54282065597E+00 -0.14121349029E+00  0.22006404056E+00  0.11148397626E+01  0.93800000000E+00 0. -1.
         22    1    1    2    0    0 -0.39558794664E+00  0.47043106251E-01  0.25907881884E+01  0.26212375540E+01  0.00000000000E+00 0. -1.
</event>
<event>
 5    1  0.1173395E+001  0.1516048E+01  0.7818608E-02  0.3449846E+00
         11   -1    0    0    0    0  0.00000000000E+00  0.00000000000E+00  0.39999999674E+01  0.40000000000E+01  0.51100000000E-03 0. -1.
    9000002   -1    0    0    0    0 -0.00000000000E+00 -0.00000000000E+00  0.00000000000E+00  0.93800000000E+00  0.93800000000E+00 0. -1.
         11    1    1    2    0    0  0.83886835073E-01  0.29461959417E+00  0.10974756990E+01  0.11394256787E+01  0.51100000000E-03 0. -1.
    9000002    1    1    2    0    0  0.17116878397E+00 -0.36498674494E-01  0.85208621307E-01  0.95798508078E+00  0.93800000000E+00 0. -1.
         22    1    1    2    0    0 -0.25505561904E+00 -0.25812091968E+00  0.28173156471E+01  0.28405892405E+01  0.00000000000E+00 0. -1.
</event>
<event>
 5    1  0.1173395E+001  0.1568443E+01  0.7818608E-02  0.3388343E+00
         11   -1    0    0    0    0  0.00000000000E+00  0.00000000000E+00  0.39999999674E+01  0.40000000000E+01  0.51100000000E-03 0. -1.
    9000002   -1    0    0    0    0 -0.00000000000E+00 -0.00000000000E+00  0.00000000000E+00  0.93800000000E+00  0.93800000000E+00 0. -1.
         11    1    1    2    0    0  0.97300245371E-01 -0.10426541185E+00  0.11574645547E+01  0.11662174198E+01  0.51100000000E-03 0. -1.
    9000002    1    1    2    0    0  0.72254910537E-01 -0.16658285806E+00  0.45439380088E-01  0.95649326080E+00  0.93800000000E+00 0. -1.
         22    1    1    2    0    0 -0.16955515591E+00  0.27084826990E+00  0.27970960326E+01  0.28152893194E+01  0.00000000000E+00 0. -1.
</event>
<event>
 5    1  0.1173395E+001  0.1539844E+01  0.7818608E-02  0.3421360E+00
         11   -1    0    0    0    0  0.00000000000E+00  0.00000000000E+00  0.39999999674E+01  0.40000000000E+01  0.51100000000E-03 0. -1.
    9000002   -1    0    0    0    0 -0.00000000000E+00 -0.00000000000E+00  0.00000000000E+00  0.93800000000E+00  0.93800000000E+00 0.  1.
         11    1    1    2    0    0  0.25478497313E+00 -0.12798891714E+00  0.12539281035E+01  0.12859364274E+01  0.51100000000E-03 0. -1.
    9000002    1    1    2    0    0 -0.15914112286E+00 -0.17722288195E+00  0.84620648444E-01  0.97146204301E+00  0.93800000000E+00 0.  1.
         22    1    1    2    0    0 -0.95643850268E-01  0.30521179909E+00  0.26614512154E+01  0.26806015296E+01  0.00000000000E+00 0.  1.
</event>
<event>
 5    1  0.1173395E+001  0.1277325E+01  0.7818608E-02  0.3826260E+00
         11   -1    0    0    0    0  0.00000000000E+00  0.00000000000E+00  0.39999999674E+01  0.40000000000E+01  0.51100000000E-03 0.  1.
    9000002   -1    0    0    0    0 -0.00000000000E+00 -0.00000000000E+00  0.00000000000E+00  0.93800000000E+00  0.93800000000E+00 0. -1.
         11    1    1    2    0    0  0.26792773619E+00 -0.81740361545E+00  0.12073152068E+01  0.14824116203E+01  0.51100000000E-03 0.  1.
    9000002    1    1    2    0    0 -0.38108119560E+00  0.42741128450E+00  0.65433672397E+00  0.12790245627E+01  0.93800000000E+00 0. -1.
         22    1    1    2    0    0  0.11315345941E+00  0.38999233095E+00  0.21383480366E+01  0.21765638170E+01  0.00000000000E+00 0.  1.
</event>
<event>
 5    1  0.1173395E+001  0.1517588E+01  0.7818608E-02  0.3447973E+00
         11   -1    0    0    0    0  0.00000000000E+00  0.00000000000E+00  0.39999999674E+01  0.40000000000E+01  0.51100000000E-03 0. -1.
    9000002   -1    0    0    0    0 -0.00000000000E+00 -0.00000000000E+00  0.00000000000E+00  0.93800000000E+00  0.93800000000E+00 0. -1.
         11    1    1    2    0    0  0.27443831477E-01  0.35354465400E+00  0.13483227392E+01  0.13941741126E+01  0.51100000000E-03 0. -1.
    9000002    1    1    2    0    0  0.43959295959E-01 -0.81887692640E-01  0.68127423243E-01  0.94505204074E+00  0.93800000000E+00 0. -1.
         22    1    1    2    0    0 -0.71403127437E-01 -0.27165696136E+00  0.25835498049E+01  0.25987738466E+01  0.00000000000E+00 0. -1.
</event>
<event>
 5    1  0.1173395E+001  0.1589423E+01  0.7818608E-02  0.3364924E+00
         11   -1    0    0    0    0  0.00000000000E+00  0.00000000000E+00  0.39999999674E+01  0.40000000000E+01  0.51100000000E-03 0.  1.
    9000002   -1    0    0    0    0 -0.00000000000E+00 -0.00000000000E+00  0.00000000000E+00  0.93800000000E+00  0.93800000000E+00 0.  1.
         11    1    1    2    0    0 -0.16570642982E+00 -0.35858910526E-01  0.94958399134E+00  0.96460069463E+00  0.51100000000E-03 0.  1.
    9000002    1    1    2    0    0  0.27598165394E+00  0.29973965981E+00  0.12071245409E+00  0.10297695051E+01  0.93800000000E+00 0.  1.
         22    1    1    2    0    0 -0.11027522411E+00 -0.26388074928E+00  0.29297035219E+01  0.29436298003E+01  0.00000000000E+00 0.  1.
</event>
<event>
 5    1  0.1173395E+001  0.1526391E+01  0.7818608E-02  0.3437348E+00
         11   -1    0    0    0    0  0.00000000000E+00  0.00000000000E+00  0.39999999674E+01  0.40000000000E+01  0.51100000000E-03 0.  1.
    9000002   -1    0    0    0    0 -0.00000000000E+00 -0.00000000000E+00  0.00000000000E+00  0.93800000000E+00  0.93800000000E+00 0.  1.
         11    1    1    2    0    0  0.24659398224E+00  0.12333567969E+00  0.96288253114E+00  0.10015804071E+01  0.51100000000E-03 0.  1.
    9000002    1    1    2    0    0 -0.36532261426E-01  0.11014973023E+00  0.64600782392E-01  0.94735675977E+00  0.93800000000E+00 0.  1.
         22    1    1    2    0    0 -0.21006172082E+00 -0.23348540992E+00  0.29725166538E+01  0.29890628331E+01  0.00000000000E+00 0.  1.
</event>
<event>
 5    1  0.1173395E+001  0.1449033E+01  0.7818608E-02  0.3535502E+00
         11   -1    0    0    0    0  0.00000000000E+00  0.00000000000E+00  0.39999999674E+01  0.40000000000E+01  0.51100000000E-03 0. -1.
    9000002   -1    0    0    0    0 -0.00000000000E+00 -0.00000000000E+00  0.00000000000E+00  0.93800000000E+00  0.93800000000E+00 0. -1.
         11    1    1    2    0    0  0.34367352481E+00 -0.10594521159E+00  0.55329097201E+00  0.65989926530E+00  0.51100000000E-03 0. -1.
    9000002    1    1    2    0    0 -0.19174879645E+00 -0.19332987287E+00  0.17874139414E+00  0.99294336529E+00  0.93800000000E+00 0. -1.
         22    1    1    2    0    0 -0.15192472836E+00  0.29927508447E+00  0.32679676012E+01  0.32851573694E+01  0.00000000000E+00 0. -1.
</event>
<event>
 5    1  0.1173395E+001  0.1555807E+01  0.7818608E-02  0.3402771E+00
         11   -1    0    0    0    0  0.00000000000E+00  0.00000000000E+00  0.39999999674E+01  0.40000000000E+01  0.51100000000E-03 0.  1.
    9000002   -1    0    0    0    0 -0.00000000000E+00 -0.00000000000E+00  0.00000000000E+00  0.93800000000E+00  0.93800000000E+00 0.  1.
         11    1    1    2    0    0  0.11071547831E+00 -0.14815892337E+00  0.50560377596E+00  0.53837201181E+00  0.51100000000E-03 0.  1.
    9000002    1    1    2    0    0 -0.33681088345E+00 -0.76455294765E-01  0.11604668969E+00  0.10062791946E+01  0.93800000000E+00 0.  1.
         22    1    1    2    0    0  0.22609540514E+00  0.22461421813E+00  0.33783495017E+01  0.33933487936E+01  0.00000000000E+00 0.  1.
</event>
<event>
 5    1  0.1173395E+001  0.1563215E+01  0.7818608E-02  0.3394283E+00
         11   -1    0    0    0    0  0.00000000000E+00  0.00000000000E+00  0.39999999674E+01  0.40000000000E+01  0.51100000000E-03 0. -1.
    9000002   -1    0    0    0    0 -0.00000000000E+00 -0.00000000000E+00  0.00000000000E+00  0.93800000000E+00  0.93800000000E+00 0. -1.
         11    1    1    2    0    0  0.25653563034E-01  0.13725384194E+00  0.11097377378E+01  0.11184877426E+01  0.51100000000E-03 0. -1.
    9000002    1    1    2    0    0 -0.20075233763E+00  0.23795435541E+00  0.94016648163E-01  0.99277737004E+00  0.93800000000E+00 0. -1.
         22    1    1    2    0    0  0.17509877460E+00 -0.37520819735E+00  0.27962455814E+01  0.28267348874E+01  0.00000000000E+00 0. -1.
</event>
<event>
 5    1  0.1173395E+001  0.1508402E+01  0.7818608E-02  0.3459203E+00
         11   -1    0    0    0    0  0.00000000000E+00  0.00000000000E+00  0.39999999674E+01  0.40000000000E+01  0.51100000000E-03 0.  1.
    9000002   -1    0    0    0    0 -0.00000000000E+00 -0.00000000000E+00  0.00000000000E+00  0.93800000000E+00  0.93800000000E+00 0. -1.
         11    1    1    2    0    0 -0.21148313844E+00  0.23409179863E+00  0.90560610760E+00  0.95898215378E+00  0.51100000000E-03 0.  1.
    9000002    1    1    2    0    0 -0.11141569748E-01 -0.51579962243E-01  0.71230954202E-01  0.94217964100E+00  0.93800000000E+00 0. -1.
         22    1    1    2    0    0  0.22262470819E+00 -0.18251183639E+00  0.30231629056E+01  0.30368382052E+01  0.00000000000E+00 0.  1.
</event>
<event>
 5    1  0.1173395E+001  0.1553083E+01  0.7818608E-02  0.3405914E+00
         11   -1    0    0    0    0  0.00000000000E+00  0.00000000000E+00  0.39999999674E+01  0.40000000000E+01  0.51100000000E-03 0. -1.
    9000002   -1    0    0    0    0 -0.00000000000E+00 -0.00000000000E+00  0.00000000000E+00  0.93800000000E+00  0.93800000000E+00 0.  1.
         11    1    1    2    0    0  0.25414245955E+00 -0.62992932277E-01  0.14116030372E+01  0.14356809865E+01  0.51100000000E-03 0. -1.
    9000002    1    1    2    0    0 -0.61209770242E-01 -0.75213548013E-01  0.40999423513E-01  0.94389017714E+00  0.93800000000E+00 0.  1.
         22    1    1    2    0    0 -0.19293268931E+00  0.13820648029E+00  0.25473975067E+01  0.25584288364E+01  0.00000000000E+00 0. -1.
</event>
<event>
 5    1  0.1173395E+001  0.1528732E+01  0.7818608E-02  0.3434543E+00
         11   -1    0    0    0    0  0.00000000000E+00  0.00000000000E+00  0.39999999674E+01  0.40000000000E+01  0.51100000000E-03 0. -1.
    9000002   -1    0    0    0    0 -0.00000000000E+00 -0.00000000000E+00  0.00000000000E+00  0.93800000000E+00  0.93800000000E+00 0. -1.
         11    1    1    2    0    0  0.11700961830E+00 -0.29315145881E+00  0.10563355547E+01  0.11024854166E+01  0.51100000000E-03 0. -1.
    9000002    1    1    2    0    0 -0.29823825075E+00  0.31985300692E-01  0.11778266800E+00  0.99180939225E+00  0.93800000000E+00 0. -1.
         22    1    1    2    0    0  0.18122863244E+00  0.26116615811E+00  0.28258817446E+01  0.28437051911E+01  0.00000000000E+00 0. -1.
</event>
<event>
 5    1  0.1173395E+001  0.1565801E+01  0.7818608E-02  0.3391340E+00
         11   -1    0    0    0    0  0.00000000000E+00  0.00000000000E+00  0.39999999674E+01  0.40000000000E+01  0.51100000000E-03 0. -1.
    9000002   -1    0    0    0    0 -0.00000000000E+00 -0.00000000000E+00  0.00000000000E+00  0.93800000000E+00  0.93800000000E+00 0. -1.
         11    1    1    2    0    0 -0.18301278307E+00 -0.10980045325E+00  0.14500783587E+01  0.14657002851E+01  0.51100000000E-03 0. -1.
    9000002    1    1    2    0    0 -0.83236835179E-01  0.31241963181E+00  0.97250698754E-01  0.99691328383E+00  0.93800000000E+00 0. -1.
         22    1    1    2    0    0  0.26624961824E+00 -0.20261917857E+00  0.24526709099E+01  0.24753864310E+01  0.00000000000E+00 0.  1.
</event>
<event>
 5    1  0.1173395E+001  0.1544902E+01  0.7818608E-02  0.3415426E+00
         11   -1    0    0    0    0  0.00000000000E+00  0.00000000000E+00  0.39999999674E+01  0.40000000000E+01  0.51100000000E-03 0. -1.
    9000002   -1    0    0    0    0 -0.00000000000E+00 -0.00000000000E+00  0.00000000000E+00  0.93800000000E+00  0.93800000000E+00 0. -1.
         11    1    1    2    0    0  0.16413330177E+00 -0.11301405582E+00  0.33909802376E+00  0.39331876182E+00  0.51100000000E-03 0. -1.
    9000002    1    1    2    0    0 -0.95843124318E-01  0.53488796773E+00  0.25703730163E+00  0.11140930019E+01  0.93800000000E+00 0. -1.
         22    1    1    2    0    0 -0.68290177447E-01 -0.42187391191E+00  0.34038646420E+01  0.34305882363E+01  0.00000000000E+00 0. -1.
</event>
<event>
 5    1  0.1173395E+001  0.1566944E+01  0.7818608E-02  0.3390041E+00
         11   -1    0    0    0    0  0.00000000000E+00  0.00000000000E+00  0.39999999674E+01  0.40000000000E+01  0.51100000000E-03 0.  1.
    9000002   -1    0    0    0    0 -0.00000000000E+00 -0.00000000000E+00  0.00000000000E+00  0.93800000000E+00  0.93800000000E+00 0. -1.
         11    1    1    2    0    0 -0.48442355902E-01 -0.17709108701E+00  0.14057008995E+01  0.14176400090E+01  0.51100000000E-03 0.  1.
    9000002    1    1    2    0    0 -0.26635403111E+00  0.72072854765E-01  0.76441224611E-01  0.98072739694E+00  0.93800000000E+00 0. -1.
         22    1    1    2    0    0  0.31479638701E+00  0.10501823224E+00  0.25178578432E+01  0.25396325941E+01  0.00000000000E+00 0.  1.
</event>
<event>
 5    1  0.1173395E+001  0.1591994E+01  0.7818608E-02  0.3362099E+00
         11   -1    0    0    0    0  0.00000000000E+00  0.00000000000E+00  0.39999999674E+01  0.40000000000E+01  0.51100000000E-03 0.  1.
    9000002   -1    0    0    0    0 -0.00000000000E+00 -0.00000000000E+00  0.00000000000E+00  0.93800000000E+00  0.93800000000E+00 0. -1.
         11    1    1    2    0    0 -0.38548700226E-01 -0.55256538475E-01  0.14447744227E+01  0.14463445928E+01  0.51100000000E-03 0.  1.
    9000002    1    1    2    0    0 -0.10414991674E+00  0.33078030455E+00  0.86809396534E-01  0.10038140696E+01  0.93800000000E+00 0. -1.
         22    1    1    2    0    0  0.14269861697E+00 -0.27552376608E+00  0.24684161481E+01  0.24878413376E+01  0.00000000000E+00 0.  1.
</event>
<event>
 5    1  0.1173395E+001  0.1562178E+01  0.7818608E-02  0.3395465E+00
         11   -1    0    0    0    0  0.00000000000E+00  0.00000000000E+00  0.39999999674E+01  0.40000000000E+01  0.51100000000E-03 0.  1.
    9000002   -1    0    0    0    0 -0.00000000000E+00 -0.00000000000E+00  0.00000000000E+00  0.93800000000E+00  0.93800000000E+00 0.  1.
         11    1    1    2    0    0 -0.36748696854E+00 -0.39660383962E+00  0.13566058934E+01  0.14603838841E+01  0.51100000000E-03 0.  1.
    9000002    1    1    2    0    0  0.65554611589E+00  0.48446989928E+00  0.54369523412E+00  0.13564292466E+01  0.93800000000E+00 0.  1.
         22    1    1    2    0    0 -0.28805914735E+00 -0.87866059656E-01  0.20996988398E+01  0.21211868694E+01  0.00000000000E+00 0.  1.
</event>
<event>
 5    1  0.1173395E+001  0.1584765E+01  0.7818608E-02  0.3370067E+00
         11   -1    0    0    0    0  0.00000000000E+00  0.00000000000E+00  0.39999999674E+01  0.40000000000E+01  0.51100000000E-03 0. -1.
    9000002   -1    0    0    0    0 -0.00000000000E+00 -0.00000000000E+00  0.00000000000E+00  0.93800000000E+00  0.93800000000E+00 0. -1.
         11    1    1    2    0    0 -0.26717414560E-01 -0.26343315403E-02  0.96439566320E+00  0.96476941093E+00  0.51100000000E-03 0. -1.
    9000002    1    1    2    0    0 -0.38875882258E+00 -0.11405948650E+00  0.12335053120E+00  0.10291755643E+01  0.93800000000E+00 0. -1.
         22    1    1    2    0    0  0.41547623714E+00  0.11669381804E+00  0.29122537730E+01  0.29440550248E+01  0.00000000000E+00 0. -1.
</event>
<event>
 5    1  0.1173395E+001  0.1330794E+01  0.7818608E-02  0.3724664E+00
         11   -1    0    0    0    0  0.00000000000E+00  0.00000000000E+00  0.39999999674E+01  0.40000000000E+01  0.51100000000E-03 0. -1.
    9000002   -1    0    0    0    0 -0.00000000000E+00 -0.00000000000E+00  0.00000000000E+00  0.93800000000E+00  0.93800000000E+00 0.  1.
         11    1    1    2    0    0 -0.48059042528E+00 -0.23324894507E+00  0.32931666428E+00  0.62755235140E+00  0.51100000000E-03 0. -1.
    9000002    1    1    2    0    0  0.51856543281E+00  0.50952964334E+00  0.81144926833E+00  0.14376454642E+01  0.93800000000E+00 0.  1.
         22    1    1    2    0    0 -0.37975007531E-01 -0.27628069827E+00  0.28592340348E+01  0.28728021844E+01  0.00000000000E+00 0. -1.
</event>
<event>
 5    1  0.1173395E+001  0.1463483E+01  0.7818608E-02  0.3516313E+00
         11   -1    0    0    0    0  0.00000000000E+00  0.00000000000E+00  0.39999999674E+01  0.40000000000E+01  0.51100000000E-03 0. -1.
    9000002   -1    0    0    0    0 -0.00000000000E+00 -0.00000000000E+00  0.00000000000E+00  0.93800000000E+00  0.93800000000E+00 0.  1.
         11    1    1    2    0    0  0.14164450361E+00 -0.25192542093E+00  0.31294380768E+00  0.42598552909E+00  0.51100000000E-03 0. -1.
    9000002    1    1    2    0    0  0.22522770373E+00  0.13655853125E+00  0.18845385646E+00  0.99233794999E+00  0.93800000000E+00 0.  1.
         22    1    1    2    0    0 -0.36687220734E+00  0.11536688968E+00  0.34986023032E+01  0.35196765209E+01  0.00000000000E+00 0. -1.
</event>
<event>
 5    1  0.1173395E+001  0.1506834E+01  0.7818608E-02  0.3461135E+00
         11   -1    0    0    0    0  0.00000000000E+00  0.00000000000E+00  0.39999999674E+01  0.40000000000E+01  0.51100000000E-03 0.  1.
    9000002   -1    0    0    0    0 -0.00000000000E+00 -0.00000000000E+00  0.00000000000E+00  0.93800000000E+00  0.93800000000E+00 0.  1.
         11    1    1    2    0    0  0.24545505018E+00  0.18473798833E+00  0.79181033538E+00  0.84931747558E+00  0.51100000000E-03 0.  1.
    9000002    1    1    2    0    0 -0.16258486393E+00  0.11947949126E+00  0.10012407343E+00  0.96466471735E+00  0.93800000000E+00 0.  1.
         22    1    1    2    0    0 -0.82870186255E-01 -0.30421747960E+00  0.31080655586E+01  0.31240178071E+01  0.00000000000E+00 0.  1.
</event>
<event>
 5    1  0.1173395E+001  0.1537298E+01  0.7818608E-02  0.3424363E+00
         11   -1    0    0    0    0  0.00000000000E+00  0.00000000000E+00  0.39999999674E+01  0.40000000000E+01  0.51100000000E-03 0.  1.
    9000002   -1    0    0    0    0 -0.00000000000E+00 -0.00000000000E+00  0.00000000000E+00  0.93800000000E+00  0.93800000000E+00 0. -1.
         11    1    1    2    0    0 -0.90971305566E-01 -0.20692353560E+00  0.58567786177E+00  0.62778335986E+00  0.51100000000E-03 0.  1.
    9000002    1    1    2    0    0  0.62871554660E+00 -0.93209167690E-01  0.35183461178E+00  0.11864243682E+01  0.93800000000E+00 0. -1.
         22    1    1    2    0    0 -0.53774424103E+00  0.30013270329E+00  0.30624874938E+01  0.31237922719E+01  0.00000000000E+00 0.  1.
</event>
<event>
 5    1  0.1173395E+001  0.1513161E+01  0.7818608E-02  0.3453367E+00
         11   -1    0    0    0    0  0.00000000000E+00  0.00000000000E+00  0.39999999674E+01  0.40000000000E+01  0.51100000000E-03 0. -1.
    9000002   -1    0    0    0    0 -0.00000000000E+00 -0.00000000000E+00  0.00000000000E+00  0.93800000000E+00  0.93800000000E+00 0. -1.
         11    1    1    2    0    0 -0.34734002549E+00  0.10850140432E+00  0.11066346778E+01  0.11649284181E+01  0.51100000000E-03 0. -1.
    9000002    1    1    2    0    0  0.21864901960E+00  0.14235951945E+00  0.11493336869E+00  0.98037100416E+00  0.93800000000E+00 0. -1.
         22    1    1    2    0    0  0.12869100589E+00 -0.25086092377E+00  0.27784319209E+01  0.27927005778E+01  0.00000000000E+00 0. -1.
</event>
<event>
 5    1  0.1173395E+001  0.1512616E+01  0.7818608E-02  0.3454033E+00
         11   -1    0    0    0    0  0.00000000000E+00  0.00000000000E+00  0.39999999674E+01  0.40000000000E+01  0.51100000000E-03 0. -1.
    9000002   -1    0    0    0    0 -0.00000000000E+00 -0.00000000000E+00  0.00000000000E+00  0.93800000000E+00  0.93800000000E+00 0.  1.
         11    1    1    2    0    0 -0.22766547083E+00  0.21620669794E+00  0.94246085113E+00  0.99338291704E+00  0.51100000000E-03 0. -1.
    9000002    1    1    2    0    0 -0.93167611003E-02 -0.64443524754E-01  0.68921758627E-01  0.94277992062E+00  0.93800000000E+00 0.  1.
         22    1    1    2    0    0  0.23698223193E+00 -0.15176317319E+00  0.29886173576E+01  0.30018371623E+01  0.00000000000E+00 0. -1.
</event>
<event>
 5    1  0.1173395E+001  0.1594637E+01  0.7818608E-02  0.3359205E+00
         11   -1    0    0    0    0  0.00000000000E+00  0.00000000000E+00  0.39999999674E+01  0.40000000000E+01  0.51100000000E-03 0.  1.
    9000002   -1    0    0    0    0 -0.00000000000E+00 -0.00000000000E+00  0.00000000000E+00  0.93800000000E+00  0.93800000000E+00 0. -1.
         11    1    1    2    0    0 -0.11967020685E-01  0.22017221829E-01  0.12111954053E+01  0.12114547200E+01  0.51100000000E-03 0.  1.
    9000002    1    1    2    0    0  0.26520829081E+00  0.50377751290E-01  0.52382781116E-01  0.97747701308E+00  0.93800000000E+00 0. -1.
         22    1    1    2    0    0 -0.25324127013E+00 -0.72394973119E-01  0.27364217809E+01  0.27490682669E+01  0.00000000000E+00 0.  1.
</event>
<event>
 5    1  0.1173395E+001  0.1573878E+01  0.7818608E-02  0.3382213E+00
         11   -1    0    0    0    0  0.00000000000E+00  0.00000000000E+00  0.39999999674E+01  0.40000000000E+01  0.51100000000E-03 0. -1.
    9000002   -1    0    0    0    0 -0.00000000000E+00 -0.00000000000E+00  0.00000000000E+00  0.93800000000E+00  0.93800000000E+00 0.  1.
         11    1    1    2    0    0 -0.11518258062E+00 -0.24433718910E+00  0.12223213422E+01  0.12518136497E+01  0.51100000000E-03 0. -1.
    9000002    1    1    2    0    0  0.51108378489E+00  0.21645034639E+00  0.23788133351E+00  0.11155666347E+01  0.93800000000E+00 0.  1.
         22    1    1    2    0    0 -0.39590120428E+00  0.27886842710E-01  0.25397972916E+01  0.25706197156E+01  0.00000000000E+00 0. -1.
</event>
<event>
 5    1  0.1173395E+001  0.1542367E+01  0.7818608E-02  0.3418395E+00
         11   -1    0    0    0    0  0.00000000000E+00  0.00000000000E+00  0.39999999674E+01  0.40000000000E+01  0.51100000000E-03 0. -1.
    9000002   -1    0    0    0    0 -0.00000000000E+00 -0.00000000000E+00  0.00000000000E+00  0.93800000000E+00  0.93800000000E+00 0.  1.
         11    1    1    2    0    0  0.21662763942E+00  0.32851980848E-01  0.14636658018E+01  0.14799745360E+01  0.51100000000E-03 0. -1.
    9000002    1    1    2    0    0  0.13013862827E+00 -0.31465312673E+00  0.12505701506E+00  0.10056967285E+01  0.93800000000E+00 0.  1.
         22    1    1    2    0    0 -0.34676626770E+00  0.28180114588E+00  0.24112771505E+01  0.24523287355E+01  0.00000000000E+00 0. -1.
</event>
<event>
 5    1  0.1173395E+001  0.1494581E+01  0.7818608E-02  0.3476380E+00
         11   -1    0    0    0    0  0.00000000000E+00  0.00000000000E+00  0.39999999674E+01  0.40000000000E+01  0.51100000000E-03 0. -1.
    9000002   -1    0    0    0    0 -0.00000000000E+00 -0.00000000000E+00  0.00000000000E+00  0.93800000000E+00  0.93800000000E+00 0.  1.
         11    1    1    2    0    0 -0.32971016518E+00 -0.21451435600E+00  0.59910943455E+00  0.71669908445E+00  0.51100000000E-03 0. -1.
    9000002    1    1    2    0    0  0.88378409856E-01 -0.21885322931E+00  0.20702568695E+00  0.98914665969E+00  0.93800000000E+00 0.  1.
         22    1    1    2    0    0  0.24133175532E+00  0.43336758532E+00  0.31938648459E+01  0.32321542559E+01  0.00000000000E+00 0. -1.
</event>
<event>
 5    1  0.1173395E+001  0.1565520E+01  0.7818608E-02  0.3391658E+00
         11   -1    0    0    0    0  0.00000000000E+00  0.00000000000E+00  0.39999999674E+01  0.40000000000E+01  0.51100000000E-03 0.  1.
    9000002   -1    0    0    0    0 -0.00000000000E+00 -0.00000000000E+00  0.00000000000E+00  0.93800000000E+00  0.93800000000E+00 0. -1.
         11    1    1    2    0    0  0.12770059606E+00 -0.79745578879E-01  0.10339598017E+01  0.10448635950E+01  0.51100000000E-03 0.  1.
    9000002    1    1    2    0    0  0.17010897318E+00 -0.48926224916E-01  0.46563217095E-01  0.95568978828E+00  0.93800000000E+00 0. -1.
         22    1    1    2    0    0 -0.29780956925E+00  0.12867180379E+00  0.29194769486E+01  0.29374466167E+01  0.00000000000E+00 0.  1.
</event>
<event>
 5    1  0.1173395E+001  0.1589386E+01  0.7818608E-02  0.3364964E+00
         11   -1    0    0    0    0  0.00000000000E+00  0.00000000000E+00  0.39999999674E+01  0.40000000000E+01  0.51100000000E-03 0.  1.
    9000002   -1    0    0    0    0 -0.00000000000E+00 -0.00000000000E+00  0.00000000000E+00  0.93800000000E+00  0.93800000000E+00 0. -1.
         11    1    1    2    0    0  0.53988793935E-01 -0.69717496475E-02  0.14977377653E+01  0.14987268163E+01  0.51100000000E-03 0.  1.
    9000002    1    1    2    0    0  0.15850950103E+00 -0.68203942464E-01  0.27365333205E-01  0.95413306260E+00  0.93800000000E+00 0. -1.
         22    1    1    2    0    0 -0.21249829496E+00  0.75175692112E-01  0.24748968689E+01  0.24851401211E+01  0.00000000000E+00 0.  1.
</event>
<event>
 5    1  0.1173395E+001  0.1502462E+01  0.7818608E-02  0.3466545E+00
         11   -1    0    0    0    0  0.00000000000E+00  0.00000000000E+00  0.39999999674E+01  0.40000000000E+01  0.51100000000E-03 0. -1.
    9000002   -1    0    0    0    0 -0.00000000000E+00 -0.00000000000E+00  0.00000000000E+00  0.93800000000E+00  0.93800000000E+00 0.  1.
         11    1    1    2    0    0 -0.16682057579E+00  0.65395838996E+00  0.11059952476E+01  0.12956528969E+01  0.51100000000E-03 0. -1.
    9000002    1    1    2    0    0 -0.34755491371E-01 -0.92423375324E+00  0.84328309738E+00  0.15640928224E+01  0.93800000000E+00 0.  1.
         22    1    1    2    0    0  0.20157606716E+00  0.27027536328E+00  0.20507216224E+01  0.20782542807E+01  0.00000000000E+00 0. -1.
</event>
<event>
 5    1  0.1173395E+001  0.1498908E+01  0.7818608E-02  0.3470967E+00
         11   -1    0    0    0    0  0.00000000000E+00  0.00000000000E+00  0.39999999674E+01  0.40000000000E+01  0.51100000000E-03 0.  1.
    9000002   -1    0    0    0    0 -0.00000000000E+00 -0.00000000000E+00  0.00000000000E+00  0.93800000000E+00  0.93800000000E+00 0. -1.
         11    1    1    2    0    0  0.18374388294E+00 -0.23349585375E+00  0.70066979034E+00  0.76106540090E+00  0.51100000000E-03 0.  1.
    9000002    1    1    2    0    0 -0.60110108579E-01 -0.40598783928E-01  0.80662211631E-01  0.94425202081E+00  0.93800000000E+00 0. -1.
         22    1    1    2    0    0 -0.12363377437E+00  0.27409463767E+00  0.32186679654E+01  0.32326825783E+01  0.00000000000E+00 0.  1.
</event>
<event>
 5    1  0.1173395E+001  0.1516982E+01  0.7818608E-02  0.3448709E+00
         11   -1    0    0    0    0  0.00000000000E+00  0.00000000000E+00  0.39999999674E+01  0.40000000000E+01  0.51100000000E-03 0. -1.
    9000002   -1    0    0    0    0 -0.00000000000E+00 -0.00000000000E+00  0.00000000000E+00  0.93800000000E+00  0.93800000000E+00 0.  1.
         11    1    1    2    0    0 -0.15352312777E+00 -0.31500664569E+00  0.11986926878E+01  0.12488646679E+01  0.51100000000E-03 0. -1.
    9000002    1    1    2    0    0  0.11582408582E+00  0.56928804107E-01  0.74369493932E-01  0.94975308856E+00  0.93800000000E+00 0.  1.
         22    1    1    2    0    0  0.37699041956E-01  0.25807784158E+00  0.27269377856E+01  0.27393822436E+01  0.00000000000E+00 0. -1.
</event>
<event>
 5    1  0.1173395E+001  0.1571092E+01  0.7818608E-02  0.3385350E+00
         11   -1    0    0    0    0  0.00000000000E+00  0.00000000000E+00  0.39999999674E+01  0.40000000000E+01  0.51100000000E-03 0. -1.
    9000002   -1    0    0    0    0 -0.00000000000E+00 -0.00000000000E+00  0.00000000000E+00  0.93800000000E+00  0.93800000000E+00 0.  1.
         11    1    1    2    0    0  0.13692350993E+00 -0.54233593643E-01  0.10996150930E+01  0.11094336142E+01  0.51100000000E-03 0. -1.
    9000002    1    1    2    0    0  0.12714932422E+00 -0.18843641206E-01  0.32189359136E-01  0.94731314163E+00  0.93800000000E+00 0.  1.
         22    1    1    2    0    0 -0.26407283415E+00  0.73077234849E-01  0.28681955152E+01  0.28812532442E+01  0.00000000000E+00 0. -1.
</event>
<event>
 5    1  0.1173395E+001  0.1474930E+01  0.7818608E-02  0.3501402E+00
         11   -1    0    0    0    0  0.00000000000E+00  0.00000000000E+00  0.39999999674E+01  0.40000000000E+01  0.51100000000E-03 0.  1.
    9000002   -1    0    0    0    0 -0.00000000000E+00 -0.00000000000E+00  0.00000000000E+00  0.93800000000E+00  0.93800000000E+00 0.  1.
         11    1    1    2    0    0 -0.40857458835E+00 -0.12360826624E+00  0.88537281372E+00  0.98290257815E+00  0.51100000000E-03 0.  1.
    9000002    1    1    2    0    0 -0.37272044088E-01  0.22936441719E-01  0.14457962746E+00  0.95008555104E+00  0.93800000000E+00 0.  1.
         22    1    1    2    0    0  0.44584663244E+00  0.10067182452E+00  0.29700475262E+01  0.30050118708E+01  0.00000000000E+00 0.  1.
</event>
<event>
 5    1  0.1173395E+001  0.1533352E+01  0.7818608E-02  0.3429038E+00
         11   -1    0    0    0    0  0.00000000000E+00  0.00000000000E+00  0.39999999674E+01  0.40000000000E+01  0.51100000000E-03 0.  1.
    9000002   -1    0    0    0    0 -0.00000000000E+00 -0.00000000000E+00  0.00000000000E+00  0.93800000000E+00  0.93800000000E+00 0. -1.
         11    1    1    2    0    0 -0.26932473988E+00  0.11422258567E+00  0.12356614557E+01  0.12698197151E+01  0.51100000000E-03 0.  1.
    9000002    1    1    2    0    0 -0.21614720852E-01 -0.10206207518E+00  0.57296263213E-01  0.94552140384E+00  0.93800000000E+00 0. -1.
         22    1    1    2    0    0  0.29093946073E+00 -0.12160510490E-01  0.27070422484E+01  0.27226588810E+01  0.00000000000E+00 0.  1.
</event>
<event>
 5    1  0.1173395E+001  0.1563055E+01  0.7818608E-02  0.3394464E+00
         11   -1    0    0    0    0  0.00000000000E+00  0.00000000000E+00  0.39999999674E+01  0.40000000000E+01  0.51100000000E-03 0.  1.
    9000002   -1    0    0    0    0 -0.00000000000E+00 -0.00000000000E+00  0.00000000000E+00  0.93800000000E+00  0.93800000000E+00 0. -1.
         11    1    1    2    0    0  0.17186398528E+00  0.11498991908E+00  0.13864554190E+01  0.14017912829E+01  0.51100000000E-03 0.  1.
    9000002    1    1    2    0    0  0.71129400780E-01 -0.49494348638E-01  0.32115856424E-01  0.94254151656E+00  0.93800000000E+00 0. -1.
         22    1    1    2    0    0 -0.24299338606E+00 -0.65495570447E-01  0.25814286919E+01  0.25936672005E+01  0.00000000000E+00 0.  1.
</event>
<event>
 5    1  0.1173395E+001  0.1563066E+01  0.7818608E-02  0.3394452E+00
         11   -1    0    0    0    0  0.00000000000E+00  0.00000000000E+00  0.39999999674E+01  0.40000000000E+01  0.51100000000E-03 0. -1.
    9000002   -1    0    0    0    0 -0.00000000000E+00 -0.00000000000E+00  0.00000000000E+00  0.93800000000E+00  0.93800000000E+00 0. -1.
         11    1    1    2    0    0  0.43077574015E+00 -0.74041890018E-01  0.43416314369E+00  0.61607453789E+00  0.51100000000E-03 0. -1.
    9000002    1    1    2    0    0 -0.98569363686E-01 -0.10942544324E+00  0.24650288415E+00  0.98096764421E+00  0.93800000000E+00 0. -1.
         22    1    1    2    0    0 -0.33220637646E+00  0.18346733326E+00  0.33193339395E+01  0.33409578179E+01  0.00000000000E+00 0. -1.
</event>
<event>
 5    1  0.1173395E+001  0.1500718E+01  0.7818608E-02  0.3468712E+00
         11   -1    0    0    0    0  0.00000000000E+00  0.00000000000E+00  0.39999999674E+01  0.40000000000E+01  0.51100000000E-03 0. -1.
    9000002   -1    0    0    0    0 -0.00000000000E+00 -0.00000000000E+00  0.00000000000E+00  0.93800000000E+00  0.93800000000E+00 0. -1.
         11    1    1    2    0    0  0.97515597230E-01 -0.36703191132E+00  0.13790792228E+01  0.14304130451E+01  0.51100000000E-03 0. -1.
    9000002    1    1    2    0    0 -0.15964766010E+00  0.19097011880E-01  0.94272915560E-01  0.95633856654E+00  0.93800000000E+00 0. -1.
         22    1    1    2    0    0  0.62132062865E-01  0.34793489944E+00  0.25266478290E+01  0.25512483884E+01  0.00000000000E+00 0. -1.
</event>
<event>
 5    1  0.1173395E+001  0.1515763E+01  0.7818608E-02  0.3450193E+00
         11   -1    0    0    0    0  0.00000000000E+00  0.00000000000E+00  0.39999999674E+01  0.40000000000E+01  0.51100000000E-03 0. -1.
    9000002   -1    0    0    0    0 -0.00000000000E+00 -0.00000000000E+00  0.00000000000E+00  0.93800000000E+00  0.93800000000E+00 0. -1.
         11    1    1    2    0    0 -0.32938799943E+00  0.65573210502E-01  0.10707646187E+01  0.11222002628E+01  0.51100000000E-03 0. -1.
    9000002    1    1    2    0    0  0.64581724242E-01 -0.15791256362E+00  0.84337294203E-01  0.95711230065E+00  0.93800000000E+00 0. -1.
         22    1    1    2    0    0  0.26480627519E+00  0.92339353118E-01  0.28448980544E+01  0.28586874365E+01  0.00000000000E+00 0. -1.
</event>
<event>
 5    1  0.1173395E+001  0.1493577E+01  0.7818608E-02  0.3477642E+00
         11   -1    0    0    0    0  0.00000000000E+00  0.00000000000E+00  0.39999999674E+01  0.40000000000E+01  0.51100000000E-03 0. -1.
    9000002   -1    0    0    0    0 -0.00000000000E+00 -0.00000000000E+00  0.00000000000E+00  0.93800000000E+00  0.93800000000E+00 0.  1.
         11    1    1    2    0    0 -0.82777629059E-01  0.26191796788E+00  0.57469743827E+00  0.63696983009E+00  0.51100000000E-03 0. -1.
    9000002    1    1    2    0    0  0.11469555758E+00  0.85299418230E-01  0.96172129718E-01  0.95368975050E+00  0.93800000000E+00 0.  1.
         22    1    1    2    0    0 -0.31917928522E-01 -0.34721738611E+00  0.33291303994E+01  0.33473404194E+01  0.00000000000E+00 0. -1.
</event>
<event>
 5    1  0.1173395E+001  0.1448340E+01  0.7818608E-02  0.3536432E+00
         11   -1    0    0    0    0  0.00000000000E+00  0.00000000000E+00  0.39999999674E+01  0.40000000000E+01  0.51100000000E-03 0. -1.
    9000002   -1    0    0    0    0 -0.00000000000E+00 -0.00000000000E+00  0.00000000000E+00  0.93800000000E+00  0.93800000000E+00 0.  1.
         11    1    1    2    0    0 -0.38521344742E+00 -0.20415107156E+00  0.90209068831E+00  0.10019156308E+01  0.51100000000E-03 0. -1.
    9000002    1    1    2    0    0  0.11095635216E-01  0.31044962503E+00  0.19490310620E+00  0.10071411538E+01  0.93800000000E+00 0.  1.
         22    1    1    2    0    0  0.37411781221E+00 -0.10629855347E+00  0.29030061729E+01  0.29289432155E+01  0.00000000000E+00 0. -1.
</event>
<event>
 5    1  0.1173395E+001  0.1450795E+01  0.7818608E-02  0.3533139E+00
         11   -1    0    0    0    0  0.00000000000E+00  0.00000000000E+00  0.39999999674E+01  0.40000000000E+01  0.51100000000E-03 0. -1.
    9000002   -1    0    0    0    0 -0.00000000000E+00 -0.00000000000E+00  0.00000000000E+00  0.93800000000E+00  0.93800000000E+00 0. -1.
         11    1    1    2    0    0  0.45529590101E+00  0.39037183414E-01  0.97301930622E+00  0.10749814373E+01  0.51100000000E-03 0. -1.
    9000002    1    1    2    0    0 -0.27508036895E+00  0.46497871022E+00  0.35684671750E+00  0.11397622516E+01  0.93800000000E+00 0. -1.
         22    1    1    2    0    0 -0.18021553206E+00 -0.50401589363E+00  0.26701339436E+01  0.27232563111E+01  0.00000000000E+00 0. -1.
</event>
<event>
 5    1  0.1173395E+001  0.1556526E+01  0.7818608E-02  0.3401944E+00
         11   -1    0    0    0    0  0.00000000000E+00  0.00000000000E+00  0.39999999674E+01  0.40000000000E+01  0.51100000000E-03 0. -1.
    9000002   -1    0    0    0    0 -0.00000000000E+00 -0.00000000000E+00  0.00000000000E+00  0.93800000000E+00  0.93800000000E+00 0.  1.
         11    1    1    2    0    0 -0.18372192980E+00  0.94731902088E-01  0.11046878739E+01  0.11238609525E+01  0.51100000000E-03 0. -1.
    9000002    1    1    2    0    0 -0.69965621599E-01  0.11422040846E-02  0.35269807711E-01  0.94126747111E+00  0.93800000000E+00 0.  1.
         22    1    1    2    0    0  0.25368755140E+00 -0.95874106172E-01  0.28600422858E+01  0.28728715764E+01  0.00000000000E+00 0. -1.
</event>
<event>
 5    1  0.1173395E+001  0.1566012E+01  0.7818608E-02  0.3391100E+00
         11   -1    0    0    0    0  0.00000000000E+00  0.00000000000E+00  0.39999999674E+01  0.40000000000E+01  0.51100000000E-03 0.  1.
    9000002   -1    0    0    0    0 -0.00000000000E+00 -0.00000000000E+00  0.00000000000E+00  0.93800000000E+00  0.93800000000E+00 0. -1.
         11    1    1    2    0    0 -0.24374214686E-02  0.15805240668E+00  0.75377101606E+00  0.77016719617E+00  0.51100000000E-03 0.  1.
    9000002    1    1    2    0    0 -0.30988511825E+00  0.25567841719E-01  0.91558386999E-01  0.99242603718E+00  0.93800000000E+00 0. -1.
         22    1    1    2    0    0  0.31232253972E+00 -0.18362024840E+00  0.31546705643E+01  0.31754067667E+01  0.00000000000E+00 0.  1.
</event>
<event>
 5    1  0.1173395E+001  0.1585475E+01  0.7818608E-02  0.3369280E+00
         11   -1    0    0    0    0  0.00000000000E+00  0.00000000000E+00  0.39999999674E+01  0.40000000000E+01  0.51100000000E-03 0. -1.
    9000002   -1    0    0    0    0 -0.00000000000E+00 -0.00000000000E+00  0.00000000000E+00  0.93800000000E+00  0.93800000000E+00 0.  1.
         11    1    1    2    0    0  0.17581650721E+00 -0.54399466190E-01  0.89463857016E+00  0.91337242047E+00  0.51100000000E-03 0. -1.
    9000002    1    1    2    0    0 -0.24337816341E+00  0.32340579634E+00  0.12252317671E+00  0.10289218475E+01  0.93800000000E+00 0.  1.
         22    1    1    2    0    0  0.67561656202E-01 -0.26900633015E+00  0.29828382205E+01  0.29957057320E+01  0.00000000000E+00 0.  1.
</event>
<event>
 5    1  0.1173395E+001  0.1456976E+01  0.7818608E-02  0.3524903E+00
         11   -1    0    0    0    0  0.00000000000E+00  0.00000000000E+00  0.39999999674E+01  0.40000000000E+01  0.51100000000E-03 0. -1.
    9000002   -1    0    0    0    0 -0.00000000000E+00 -0.00000000000E+00  0.00000000000E+00  0.93800000000E+00  0.93800000000E+00 0.  1.
         11    1    1    2    0    0 -0.30042963056E+00 -0.31523009961E+00  0.81081512085E+00  0.92035286708E+00  0.51100000000E-03 0. -1.
    9000002    1    1    2    0    0 -0.41419691087E-01  0.26298071355E+00  0.18353845195E+00  0.99217176429E+00  0.93800000000E+00 0.  1.
         22    1    1    2    0    0  0.34184932165E+00  0.52249386068E-01  0.30056463946E+01  0.30254753686E+01  0.00000000000E+00 0. -1.
</event>
<event>
 5    1  0.1173395E+001  0.1511229E+01  0.7818608E-02  0.3455732E+00
         11   -1    0    0    0    0  0.00000000000E+00  0.00000000000E+00  0.39999999674E+01  0.40000000000E+01  0.51100000000E-03 0. -1.
    9000002   -1    0    0    0    0 -0.00000000000E+00 -0.00000000000E+00  0.00000000000E+00  0.93800000000E+00  0.93800000000E+00 0. -1.
         11    1    1    2    0    0 -0.20114363169E+00  0.43778702788E-01  0.46456357972E+00  0.50812883810E+00  0.51100000000E-03 0. -1.
    9000002    1    1    2    0    0 -0.24643954964E+00  0.70552660071E-03  0.11116285035E+00  0.97618345033E+00  0.93800000000E+00 0. -1.
         22    1    1    2    0    0  0.44758318132E+00 -0.44484229389E-01  0.34242735373E+01  0.34536877116E+01  0.00000000000E+00 0. -1.
</event>
<event>
 5    1  0.1173395E+001  0.1597338E+01  0.7818608E-02  0.3356258E+00
         11   -1    0    0    0    0  0.00000000000E+00  0.00000000000E+00  0.39999999674E+01  0.40000000000E+01  0.51100000000E-03 0. -1.
    9000002   -1    0    0    0    0 -0.00000000000E+00 -0.00000000000E+00  0.00000000000E+00  0.93800000000E+00  0.93800000000E+00 0.  1.
         11    1    1    2    0    0  0.54196769104E-01  0.21178606077E+00  0.14123300865E+01  0.14291491034E+01  0.51100000000E-03 0. -1.
    9000002    1    1    2    0    0 -0.13953570089E+00 -0.42499463863E+00  0.13786355967E+00  0.10483038757E+01  0.93800000000E+00 0.  1.
         22    1    1    2    0    0  0.85338931790E-01  0.21320857785E+00  0.24498063211E+01  0.24605470209E+01  0.00000000000E+00 0. -1.
</event>
<event>
 5    1  0.1173395E+001  0.1583291E+01  0.7818608E-02  0.3371701E+00
         11   -1    0    0    0    0  0.00000000000E+00  0.00000000000E+00  0.39999999674E+01  0.40000000000E+01  0.51100000000E-03 0.  1.
    9000002   -1    0    0    0    0 -0.00000000000E+00 -0.00000000000E+00  0.00000000000E+00  0.93800000000E+00  0.93800000000E+00 0.  1.
         11    1    1    2    0    0  0.17379326117E-01 -0.16335052446E+00  0.13093998433E+01  0.13196642170E+01  0.51100000000E-03 0.  1.
    9000002    1    1    2    0    0  0.30381806989E+00  0.23898580377E+00  0.11424978653E+00  0.10209391009E+01  0.93800000000E+00 0.  1.
         22    1    1    2    0    0 -0.32119739601E+00 -0.75635279304E-01  0.25763503375E+01  0.25973966821E+01  0.00000000000E+00 0.  1.
</event>
<event>
 5    1  0.1173395E+001  0.1488939E+01  0.7818608E-02  0.3483492E+00
         11   -1    0    0    0    0  0.00000000000E+00  0.00000000000E+00  0.39999999674E+01  0.40000000000E+01  0.51100000000E-03 0. -1.
    9000002   -1    0    0    0    0 -0.00000000000E+00 -0.00000000000E+00  0.00000000000E+00  0.93800000000E+00  0.93800000000E+00 0.  1.
         11    1    1    2    0    0  0.14517081354E+00  0.37648933095E+00  0.10985955532E+01  0.11703551735E+01  0.51100000000E-03 0. -1.
    9000002    1    1    2    0    0 -0.95348382825E-01 -0.11649260061E+00  0.10167595572E+00  0.95542861590E+00  0.93800000000E+00 0.  1.
         22    1    1    2    0    0 -0.49822430717E-01 -0.25999673034E+00  0.27997284584E+01  0.28122162106E+01  0.00000000000E+00 0. -1.
</event>
<event>
 5    1  0.1173395E+001  0.1595839E+01  0.7818608E-02  0.3357892E+00
         11   -1    0    0    0    0  0.00000000000E+00  0.00000000000E+00  0.39999999674E+01  0.40000000000E+01  0.51100000000E-03 0.  1.
    9000002   -1    0    0    0    0 -0.00000000000E+00 -0.00000000000E+00  0.00000000000E+00  0.93800000000E+00  0.93800000000E+00 0.  1.
         11    1    1    2    0    0 -0.12018131272E+00  0.36069162104E-01  0.13246632113E+01  0.13305928817E+01  0.51100000000E-03 0.  1.
    9000002    1    1    2    0    0  0.31504183564E+00  0.97941687092E-01  0.75884763651E-01  0.99721934880E+00  0.93800000000E+00 0.  1.
         22    1    1    2    0    0 -0.19486052292E+00 -0.13401084920E+00  0.25994519924E+01  0.26101877694E+01  0.00000000000E+00 0.  1.
</event>
<event>
 5    1  0.1173395E+001  0.1577597E+01  0.7818608E-02  0.3378044E+00
         11   -1    0    0    0    0  0.00000000000E+00  0.00000000000E+00  0.39999999674E+01  0.40000000000E+01  0.51100000000E-03 0.  1.
    9000002   -1    0    0    0    0 -0.00000000000E+00 -0.00000000000E+00  0.00000000000E+00  0.93800000000E+00  0.93800000000E+00 0.  1.
         11    1    1    2    0    0 -0.95682084903E-01  0.12675598358E+00  0.13095380289E+01  0.13191331438E+01  0.51100000000E-03 0.  1.
    9000002    1    1    2    0    0 -0.16580978245E+00 -0.15566324493E+00  0.51210296904E-01  0.96653526800E+00  0.93800000000E+00 0.  1.
         22    1    1    2    0    0  0.26149186735E+00  0.28907261357E-01  0.26392516416E+01  0.26523315882E+01  0.00000000000E+00 0.  1.
</event>
<event>
 5    1  0.1173395E+001  0.1506780E+01  0.7818608E-02  0.3461202E+00
         11   -1    0    0    0    0  0.00000000000E+00  0.00000000000E+00  0.39999999674E+01  0.40000000000E+01  0.51100000000E-03 0. -1.
    9000002   -1    0    0    0    0 -0.00000000000E+00 -0.00000000000E+00  0.00000000000E+00  0.93800000000E+00  0.93800000000E+00 0.  1.
         11    1    1    2    0    0 -0.62337280447E-01 -0.32501954652E+00  0.11123921910E+01  0.11605775674E+01  0.51100000000E-03 0. -1.
    9000002    1    1    2    0    0 -0.56529193246E-01  0.94111872344E-02  0.72888910512E-01  0.94257143677E+00  0.93800000000E+00 0.  1.
         22    1    1    2    0    0  0.11886647369E+00  0.31560835928E+00  0.28147188658E+01  0.28348509959E+01  0.00000000000E+00 0. -1.
</event>
<event>
 5    1  0.1173395E+001  0.1523341E+01  0.7818608E-02  0.3441014E+00
         11   -1    0    0    0    0  0.00000000000E+00  0.00000000000E+00  0.39999999674E+01  0.40000000000E+01  0.51100000000E-03 0.  1.
    9000002   -1    0    0    0    0 -0.00000000000E+00 -0.00000000000E+00  0.00000000000E+00  0.93800000000E+00  0.93800000000E+00 0. -1.
         11    1    1    2    0    0 -0.22544008634E+00 -0.11952178927E+00  0.77050162092E+00  0.81165368206E+00  0.51100000000E-03 0.  1.
    9000002    1    1    2    0    0  0.26064163389E-02 -0.11048732282E+00  0.66121075769E-01  0.94679999925E+00  0.93800000000E+00 0. -1.
         22    1    1    2    0    0  0.22283367000E+00  0.23000911209E+00  0.31633772707E+01  0.31795463187E+01  0.00000000000E+00 0.  1.
</event>
<event>
 5    1  0.1173395E+001  0.1563568E+01  0.7818608E-02  0.3393881E+00
         11   -1    0    0    0    0  0.00000000000E+00  0.00000000000E+00  0.39999999674E+01  0.40000000000E+01  0.51100000000E-03 0. -1.
    9000002   -1    0    0    0    0 -0.00000000000E+00 -0.00000000000E+00  0.00000000000E+00  0.93800000000E+00  0.93800000000E+00 0.  1.
         11    1    1    2    0    0 -0.13734848292E+00  0.10272724826E+00  0.13217404937E+01  0.13328224514E+01  0.51100000000E-03 0. -1.
    9000002    1    1    2    0    0 -0.74659512871E-01  0.11773181899E+00  0.39893331538E-01  0.94914187663E+00  0.93800000000E+00 0.  1.
         22    1    1    2    0    0  0.21200799579E+00 -0.22045906725E+00  0.26383661422E+01  0.26560356720E+01  0.00000000000E+00 0. -1.
</event>
<event>
 5    1  0.1173395E+001  0.1579943E+01  0.7818608E-02  0.3375425E+00
         11   -1    0    0    0    0  0.00000000000E+00  0.00000000000E+00  0.39999999674E+01  0.40000000000E+01  0.51100000000E-03 0.  1.
    9000002   -1    0    0    0    0 -0.00000000000E+00 -0.00000000000E+00  0.00000000000E+00  0.93800000000E+00  0.93800000000E+00 0. -1.
         11    1    1    2    0    0 -0.10915743528E+00 -0.19074346105E-01  0.11777613309E+01  0.11829628861E+01  0.51100000000E-03 0.  1.
    9000002    1    1    2    0    0 -0.14989303819E+00  0.11593415957E-01  0.29634795314E-01  0.95043387528E+00  0.93800000000E+00 0. -1.
         22    1    1    2    0    0  0.25905047347E+00  0.74809301481E-02  0.27926038412E+01  0.28046032386E+01  0.00000000000E+00 0. -1.
</event>
<event>
 5    1  0.1173395E+001  0.1590283E+01  0.7818608E-02  0.3363978E+00
         11   -1    0    0    0    0  0.00000000000E+00  0.00000000000E+00  0.39999999674E+01  0.40000000000E+01  0.51100000000E-03 0. -1.
    9000002   -1    0    0    0    0 -0.00000000000E+00 -0.00000000000E+00  0.00000000000E+00  0.93800000000E+00  0.93800000000E+00 0. -1.
         11    1    1    2    0    0 -0.93558637688E-02  0.42691824566E-01  0.10978531126E+01  0.10987228232E+01  0.51100000000E-03 0. -1.
    9000002    1    1    2    0    0 -0.80373607805E-01  0.20505598419E+00  0.39280681628E-01  0.96431055446E+00  0.93800000000E+00 0. -1.
         22    1    1    2    0    0  0.89729471574E-01 -0.24774780876E+00  0.28628661731E+01  0.28749666224E+01  0.00000000000E+00 0. -1.
</event>
<event>
 5    1  0.1173395E+001  0.1302737E+01  0.7818608E-02  0.3776711E+00
         11   -1    0    0    0    0  0.00000000000E+00  0.00000000000E+00  0.39999999674E+01  0.40000000000E+01  0.51100000000E-03 0. -1.
    9000002   -1    0    0    0    0 -0.00000000000E+00 -0.00000000000E+00  0.00000000000E+00  0.93800000000E+00  0.93800000000E+00 0. -1.
         11    1    1    2    0    0 -0.13469235063E+00 -0.61553174761E+00  0.89308933005E+00  0.10929913880E+01  0.51100000000E-03 0. -1.
    9000002    1    1    2    0    0 -0.19973494284E+00  0.25966595361E+00  0.36271372929E+00  0.10576983049E+01  0.93800000000E+00 0. -1.
         22    1    1    2    0    0  0.33442729347E+00  0.35586579400E+00  0.27441969080E+01  0.27873103071E+01  0.00000000000E+00 0. -1.
</event>
<event>
 5    1  0.1173395E+001  0.1594669E+01  0.7818608E-02  0.3359169E+00
         11   -1    0    0    0    0  0.00000000000E+00  0.00000000000E+00  0.39999999674E+01  0.40000000000E+01  0.51100000000E-03 0. -1.
    9000002   -1    0    0    0    0 -0.00000000000E+00 -0.00000000000E+00  0.00000000000E+00  0.93800000000E+00  0.93800000000E+00 0. -1.
         11    1    1    2    0    0 -0.66987051185E-01  0.24530467286E-01  0.14959019189E+01  0.14976020236E+01  0.51100000000E-03 0. -1.
    9000002    1    1    2    0    0  0.29926468900E+00 -0.24080995671E+00  0.10345922109E+00  0.10188702566E+01  0.93800000000E+00 0. -1.
         22    1    1    2    0    0 -0.23227763782E+00  0.21627948943E+00  0.24006388274E+01  0.24215277198E+01  0.00000000000E+00 0. -1.
</event>
<event>
 5    1  0.1173395E+001  0.1380681E+01  0.7818608E-02  0.3638348E+00
         11   -1    0    0    0    0  0.00000000000E+00  0.00000000000E+00  0.39999999674E+01  0.40000000000E+01  0.51100000000E-03 0.  1.
    9000002   -1    0    0    0    0 -0.00000000000E+00 -0.00000000000E+00  0.00000000000E+00  0.93800000000E+00  0.93800000000E+00 0. -1.
         11    1    1    2    0    0  0.54176462151E+00 -0.34752202623E+00  0.11310152171E+01  0.13013362925E+01  0.51100000000E-03 0.  1.
    9000002    1    1    2    0    0 -0.19344715164E+00  0.39221408064E+00  0.34880816820E+00  0.10921377311E+01  0.93800000000E+00 0. -1.
         22    1    1    2    0    0 -0.34831746987E+00 -0.44692054411E-01  0.25201765821E+01  0.25445259764E+01  0.00000000000E+00 0.  1.
</event>
<event>
 5    1  0.1173395E+001  0.1324577E+01  0.7818608E-02  0.3735967E+00
         11   -1    0    0    0    0  0.00000000000E+00  0.00000000000E+00  0.39999999674E+01  0.40000000000E+01  0.51100000000E-03 0.  1.
    9000002   -1    0    0    0    0 -0.00000000000E+00 -0.00000000000E+00  0.00000000000E+00  0.93800000000E+00  0.93800000000E+00 0.  1.
         11    1    1    2    0    0  0.94826271402E-01 -0.91340112411E+00  0.11207994922E+01  0.14489601092E+01  0.51100000000E-03 0.  1.
    9000002    1    1    2    0    0 -0.21382230316E+00  0.74448353811E+00  0.93603703158E+00  0.15349218352E+01  0.93800000000E+00 0.  1.
         22    1    1    2    0    0  0.11899603176E+00  0.16891758600E+00  0.19431634436E+01  0.19541180556E+01  0.00000000000E+00 0.  1.
</event>
<event>
 5    1  0.1173395E+001  0.1586641E+01  0.7818608E-02  0.3367991E+00
         11   -1    0    0    0    0  0.00000000000E+00  0.00000000000E+00  0.39999999674E+01  0.40000000000E+01  0.51100000000E-03 0. -1.
    9000002   -1    0    0    0    0 -0.00000000000E+00 -0.00000000000E+00  0.00000000000E+00  0.93800000000E+00  0.93800000000E+00 0. -1.
         11    1    1    2    0    0  0.15961015251E-01  0.38954405711E-01  0.14156742571E+01  0.14163001317E+01  0.51100000000E-03 0. -1.
    9000002    1    1    2    0    0  0.15154688658E+00  0.20253796197E+00  0.52558347320E-01  0.97293086329E+00  0.93800000000E+00 0. -1.
         22    1    1    2    0    0 -0.16750790183E+00 -0.24149236768E+00  0.25317673629E+01  0.25487690050E+01  0.00000000000E+00 0. -1.
</event>
<event>
 5    1  0.1173395E+001  0.1507429E+01  0.7818608E-02  0.3460401E+00
         11   -1    0    0    0    0  0.00000000000E+00  0.00000000000E+00  0.39999999674E+01  0.40000000000E+01  0.51100000000E-03 0. -1.
    9000002   -1    0    0    0    0 -0.00000000000E+00 -0.00000000000E+00  0.00000000000E+00  0.93800000000E+00  0.93800000000E+00 0. -1.
         11    1    1    2    0    0 -0.12981511202E+00 -0.32183533621E+00  0.10545950256E+01  0.11102255969E+01  0.51100000000E-03 0. -1.
    9000002    1    1    2    0    0  0.16045618243E+00  0.26386597386E-01  0.89194132464E-01  0.95616004532E+00  0.93800000000E+00 0. -1.
         22    1    1    2    0    0 -0.30641070415E-01  0.29544873882E+00  0.28562108093E+01  0.28716143578E+01  0.00000000000E+00 0. -1.
</event>
<event>
 5    1  0.1173395E+001  0.1592439E+01  0.7818608E-02  0.3361611E+00
         11   -1    0    0    0    0  0.00000000000E+00  0.00000000000E+00  0.39999999674E+01  0.40000000000E+01  0.51100000000E-03 0. -1.
    9000002   -1    0    0    0    0 -0.00000000000E+00 -0.00000000000E+00  0.00000000000E+00  0.93800000000E+00  0.93800000000E+00 0.  1.
         11    1    1    2    0    0  0.17938502329E-01  0.13231176290E-01  0.12375878111E+01  0.12377886351E+01  0.51100000000E-03 0. -1.
    9000002    1    1    2    0    0 -0.16960232656E+00 -0.32114448896E+00  0.94470305591E-01  0.10102808375E+01  0.93800000000E+00 0.  1.
         22    1    1    2    0    0  0.15166382423E+00  0.30791331267E+00  0.26679418507E+01  0.26899305274E+01  0.00000000000E+00 0. -1.
</event>
<event>
 5    1  0.1173395E+001  0.1536589E+01  0.7818608E-02  0.3425201E+00
         11   -1    0    0    0    0  0.00000000000E+00  0.00000000000E+00  0.39999999674E+01  0.40000000000E+01  0.51100000000E-03 0. -1.
    9000002   -1    0    0    0    0 -0.00000000000E+00 -0.00000000000E+00  0.00000000000E+00  0.93800000000E+00  0.93800000000E+00 0. -1.
         11    1    1    2    0    0 -0.29132316634E+00 -0.65805471272E-01  0.14100856146E+01  0.14413678396E+01  0.51100000000E-03 0. -1.
    9000002    1    1    2    0    0  0.64455887241E-01 -0.12475131717E+00  0.60989423948E-01  0.95041104916E+00  0.93800000000E+00 0. -1.
         22    1    1    2    0    0  0.22686727910E+00  0.19055678844E+00  0.25289249288E+01  0.25462211112E+01  0.00000000000E+00 0. -1.
</event>
<event>
 5    1  0.1173395E+001  0.1593887E+01  0.7818608E-02  0.3360025E+00
         11   -1    0    0    0    0  0.00000000000E+00  0.00000000000E+00  0.39999999674E+01  0.40000000000E+01  0.51100000000E-03 0. -1.
    9000002   -1    0    0    0    0 -0.00000000000E+00 -0.00000000000E+00  0.00000000000E+00  0.93800000000E+00  0.93800000000E+00 0.  1.
         11    1    1    2    0    0 -0.16968706148E+00 -0.31211901093E+00  0.12628496429E+01  0.13118694514E+01  0.51100000000E-03 0. -1.
    9000002    1    1    2    0    0  0.31865081494E+00  0.68808348519E+00  0.42495724074E+00  0.12788392709E+01  0.93800000000E+00 0.  1.
         22    1    1    2    0    0 -0.14896375346E+00 -0.37596447426E+00  0.23121930838E+01  0.23472912777E+01  0.00000000000E+00 0. -1.
</event>
<event>
 5    1  0.1173395E+001  0.1506435E+01  0.7818608E-02  0.3461628E+00
         11   -1    0    0    0    0  0.00000000000E+00  0.00000000000E+00  0.39999999674E+01  0.40000000000E+01  0.51100000000E-03 0.  1.
    9000002   -1    0    0    0    0 -0.00000000000E+00 -0.00000000000E+00  0.00000000000E+00  0.93800000000E+00  0.93800000000E+00 0. -1.
         11    1    1    2    0    0  0.23207967232E+00 -0.20298653835E+00  0.10823230919E+01  0.11253835104E+01  0.51100000000E-03 0.  1.
    9000002    1    1    2    0    0  0.10152948489E+00  0.35156455138E-02  0.78267856009E-01  0.94672617654E+00  0.93800000000E+00 0. -1.
         22    1    1    2    0    0 -0.33360915721E+00  0.19947089283E+00  0.28394090194E+01  0.28658903130E+01  0.00000000000E+00 0.  1.
</event>
<event>
 5    1  0.1173395E+001  0.1512111E+01  0.7818608E-02  0.3454651E+00
         11   -1    0    0    0    0  0.00000000000E+00  0.00000000000E+00  0.39999999674E+01  0.40000000000E+01  0.51100000000E-03 0.  1.
    9000002   -1    0    0    0    0 -0.00000000000E+00 -0.00000000000E+00  0.00000000000E+00  0.93800000000E+00  0.93800000000E+00 0.  1.
         11    1    1    2    0    0 -0.18405235878E+00 -0.22919793573E+00  0.86517153612E+00  0.91374450069E+00  0.51100000000E-03 0.  1.
    9000002    1    1    2    0    0 -0.83455853061E-01  0.53180400199E-01  0.73326186770E-01  0.94605167092E+00  0.93800000000E+00 0.  1.
         22    1    1    2    0    0  0.26750821184E+00  0.17601753553E+00  0.30615022445E+01  0.30782038284E+01  0.00000000000E+00 0.  1.
</event>
<event>
 5    1  0.1173395E+001  0.1465444E+01  0.7818608E-02  0.3513740E+00
         11   -1    0    0    0    0  0.00000000000E+00  0.00000000000E+00  0.39999999674E+01  0.40000000000E+01  0.51100000000E-03 0.  1.
    9000002   -1    0    0    0    0 -0.00000000000E+00 -0.00000000000E+00  0.00000000000E+00  0.93800000000E+00  0.93800000000E+00 0. -1.
         11    1    1    2    0    0  0.28956594635E+00 -0.25305707210E+00  0.13435511113E+01  0.13975035487E+01  0.51100000000E-03 0.  1.
    9000002    1    1    2    0    0  0.87748378647E-01 -0.54086062577E-01  0.11236853887E+00  0.95031351072E+00  0.93800000000E+00 0. -1.
         22    1    1    2    0    0 -0.37731432499E+00  0.30714313467E+00  0.25440803172E+01  0.25901829405E+01  0.00000000000E+00 0.  1.
</event>
<event>
 5    1  0.1173395E+001  0.1519186E+01  0.7818608E-02  0.3446035E+00
         11   -1    0    0    0    0  0.00000000000E+00  0.00000000000E+00  0.39999999674E+01  0.40000000000E+01  0.51100000000E-03 0.  1.
    9000002   -1    0    0    0    0 -0.00000000000E+00 -0.00000000000E+00  0.00000000000E+00  0.93800000000E+00  0.93800000000E+00 0.  1.
         11    1    1    2    0    0  0.16248871974E+00 -0.23211004137E+00  0.87613118340E+00  0.92080604201E+00  0.51100000000E-03 0.  1.
    9000002    1    1    2    0    0 -0.89551473474E-01 -0.70404227579E-01  0.69966671929E-01  0.94747852580E+00  0.93800000000E+00 0.  1.
         22    1    1    2    0    0 -0.72937246265E-01  0.30251426895E+00  0.30539021120E+01  0.30697154322E+01  0.00000000000E+00 0.  1.
</event>
<event>
 5    1  0.1173395E+001  0.1508392E+01  0.7818608E-02  0.3459216E+00
         11   -1    0    0    0    0  0.00000000000E+00  0.00000000000E+00  0.39999999674E+01  0.40000000000E+01  0.51100000000E-03 0. -1.
    9000002   -1    0    0    0    0 -0.00000000000E+00 -0.00000000000E+00  0.00000000000E+00  0.93800000000E+00  0.93800000000E+00 0.  1.
         11    1    1    2    0    0  0.29588927578E+00  0.15767317870E+00  0.10224857348E+01  0.10760523379E+01  0.51100000000E-03 0. -1.
    9000002    1    1    2    0    0 -0.83143931332E-01  0.36240393700E-01  0.75175363481E-01  0.94536850737E+00  0.93800000000E+00 0.  1.
         22    1    1    2    0    0 -0.21274534444E+00 -0.19391357240E+00  0.29023388690E+01  0.29165791547E+01  0.00000000000E+00 0. -1.
</event>
<event>
 5    1  0.1173395E+001  0.1544207E+01  0.7818608E-02  0.3416238E+00
         11   -1    0    0    0    0  0.00000000000E+00  0.00000000000E+00  0.39999999674E+01  0.40000000000E+01  0.51100000000E-03 0.  1.
    9000002   -1    0    0    0    0 -0.00000000000E+00 -0.00000000000E+00  0.00000000000E+00  0.93800000000E+00  0.93800000000E+00 0.  1.
         11    1    1    2    0    0  0.16090428326E+00 -0.57196107813E-01  0.68965026218E+00  0.71047823920E+00  0.51100000000E-03 0.  1.
    9000002    1    1    2    0    0  0.26598216245E+00 -0.17110747374E-01  0.91252291535E-01  0.97939280635E+00  0.93800000000E+00 0.  1.
         22    1    1    2    0    0 -0.42688644571E+00  0.74306855187E-01  0.32190974136E+01  0.32481289545E+01  0.00000000000E+00 0.  1.
</event>
<event>
 5    1  0.1173395E+001  0.1502223E+01  0.7818608E-02  0.3466840E+00
         11   -1    0    0    0    0  0.00000000000E+00  0.00000000000E+00  0.39999999674E+01  0.40000000000E+01  0.51100000000E-03 0. -1.
    9000002   -1    0    0    0    0 -0.00000000000E+00 -0.00000000000E+00  0.00000000000E+00  0.93800000000E+00  0.93800000000E+00 0.  1.
         11    1    1    2    0    0  0.22631575141E+00  0.43449016200E+00  0.65649179750E+00  0.81913506915E+00  0.51100000000E-03 0. -1.
    9000002    1    1    2    0    0  0.94583531494E-01 -0.39419507814E+00  0.30953730177E+00  0.10677046152E+01  0.93800000000E+00 0.  1.
         22    1    1    2    0    0 -0.32089928290E+00 -0.40295083858E-01  0.30339708681E+01  0.30511603157E+01  0.00000000000E+00 0.  1.
</event>
<event>
 5    1  0.1173395E+001  0.1545089E+01  0.7818608E-02  0.3415206E+00
         11   -1    0    0    0    0  0.00000000000E+00  0.00000000000E+00  0.39999999674E+01  0.40000000000E+01  0.51100000000E-03 0.  1.
    9000002   -1    0    0    0    0 -0.00000000000E+00 -0.00000000000E+00  0.00000000000E+00  0.93800000000E+00  0.93800000000E+00 0. -1.
         11    1    1    2    0    0  0.89689955173E-01  0.18838102320E+00  0.90555069192E+00  0.92927607024E+00  0.51100000000E-03 0.  1.
    9000002    1    1    2    0    0  0.11790767736E-01  0.12929698088E+00  0.52338574837E-01  0.94838813673E+00  0.93800000000E+00 0. -1.
         22    1    1    2    0    0 -0.10148072291E+00 -0.31767800408E+00  0.30421107006E+01  0.30603357930E+01  0.00000000000E+00 0.  1.
</event>
<event>
 5    1  0.1173395E+001  0.1517580E+01  0.7818608E-02  0.3447983E+00
         11   -1    0    0    0    0  0.00000000000E+00  0.00000000000E+00  0.39999999674E+01  0.40000000000E+01  0.51100000000E-03 0. -1.
    9000002   -1    0    0    0    0 -0.00000000000E+00 -0.00000000000E+00  0.00000000000E+00  0.93800000000E+00  0.93800000000E+00 0.  1.
         11    1    1    2    0    0  0.34417684375E+00 -0.62015453983E-01  0.12346632320E+01  0.12832369905E+01  0.51100000000E-03 0. -1.
    9000002    1    1    2    0    0 -0.92634879108E-01 -0.37398016597E-02  0.68103224182E-01  0.94502764832E+00  0.93800000000E+00 0.  1.
         22    1    1    2    0    0 -0.25154196464E+00  0.65755255643E-01  0.26972335112E+01  0.27097353611E+01  0.00000000000E+00 0. -1.
</event>
<event>
 5    1  0.1173395E+001  0.1148357E+01  0.7818608E-02  0.4120627E+00
         11   -1    0    0    0    0  0.00000000000E+00  0.00000000000E+00  0.39999999674E+01  0.40000000000E+01  0.51100000000E-03 0. -1.
    9000002   -1    0    0    0    0 -0.00000000000E+00 -0.00000000000E+00  0.00000000000E+00  0.93800000000E+00  0.93800000000E+00 0. -1.
         11    1    1    2    0    0  0.81450458491E+00 -0.28071088012E+00  0.51229415504E+00  0.10023282294E+01  0.51100000000E-03 0. -1.
    9000002    1    1    2    0    0 -0.55626988532E+00  0.30687258172E+00  0.12661144010E+01  0.16989692885E+01  0.93800000000E+00 0. -1.
         22    1    1    2    0    0 -0.25823469959E+00 -0.26161701604E-01  0.22215914113E+01  0.22367024821E+01  0.00000000000E+00 0. -1.
</event>
<event>
 5    1  0.1173395E+001  0.1568642E+01  0.7818608E-02  0.3388117E+00
         11   -1    0    0    0    0  0.00000000000E+00  0.00000000000E+00  0.39999999674E+01  0.40000000000E+01  0.51100000000E-03 0. -1.
    9000002   -1    0    0    0    0 -0.00000000000E+00 -0.00000000000E+00  0.00000000000E+00  0.93800000000E+00  0.93800000000E+00 0.  1.
         11    1    1    2    0    0 -0.16916333406E+00  0.43564364877E-02  0.13415937015E+01  0.13522237733E+01  0.51100000000E-03 0. -1.
    9000002    1    1    2    0    0 -0.92118884077E-01  0.16236437378E-01  0.28749560834E-01  0.94309068914E+00  0.93800000000E+00 0.  1.
         22    1    1    2    0    0  0.26128221814E+00 -0.20592873866E-01  0.26296567050E+01  0.26426855375E+01  0.00000000000E+00 0. -1.
</event>
<event>
 5    1  0.1173395E+001  0.1505435E+01  0.7818608E-02  0.3462863E+00
         11   -1    0    0    0    0  0.00000000000E+00  0.00000000000E+00  0.39999999674E+01  0.40000000000E+01  0.51100000000E-03 0.  1.
    9000002   -1    0    0    0    0 -0.00000000000E+00 -0.00000000000E+00  0.00000000000E+00  0.93800000000E+00  0.93800000000E+00 0.  1.
         11    1    1    2    0    0 -0.96042407493E-01 -0.20017015064E+00  0.36115833292E+00  0.42394319880E+00  0.51100000000E-03 0.  1.
    9000002    1    1    2    0    0  0.28639491547E+00 -0.11638299814E+00  0.14202912133E+00  0.99778921681E+00  0.93800000000E+00 0.  1.
         22    1    1    2    0    0 -0.19035250798E+00  0.31655314878E+00  0.34968125131E+01  0.35162675844E+01  0.00000000000E+00 0.  1.
</event>
<event>
 5    1  0.1173395E+001  0.1561351E+01  0.7818608E-02  0.3396410E+00
         11   -1    0    0    0    0  0.00000000000E+00  0.00000000000E+00  0.39999999674E+01  0.40000000000E+01  0.51100000000E-03 0.  1.
    9000002   -1    0    0    0    0 -0.00000000000E+00 -0.00000000000E+00  0.00000000000E+00  0.93800000000E+00  0.93800000000E+00 0.  1.
         11    1    1    2    0    0  0.12285142856E+00 -0.16551657660E+00  0.13089947299E+01  0.13251247770E+01  0.51100000000E-03 0.  1.
    9000002    1    1    2    0    0  0.10522888044E+00  0.29228983698E-01  0.36432779869E-01  0.94503904587E+00  0.93800000000E+00 0.  1.
         22    1    1    2    0    0 -0.22808030900E+00  0.13628759291E+00  0.26545724576E+01  0.26678361771E+01  0.00000000000E+00 0.  1.
</event>
<event>
 5    1  0.1173395E+001  0.1454515E+01  0.7818608E-02  0.3528173E+00
         11   -1    0    0    0    0  0.00000000000E+00  0.00000000000E+00  0.39999999674E+01  0.40000000000E+01  0.51100000000E-03 0.  1.
    9000002   -1    0    0    0    0 -0.00000000000E+00 -0.00000000000E+00  0.00000000000E+00  0.93800000000E+00  0.93800000000E+00 0. -1.
         11    1    1    2    0    0  0.16444564311E+00  0.49725371448E+00  0.13292079477E+01  0.14286698903E+01  0.51100000000E-03 0.  1.
    9000002    1    1    2    0    0  0.31764861950E-01 -0.20929223173E+00  0.16040810367E+00  0.97487794336E+00  0.93800000000E+00 0. -1.
         22    1    1    2    0    0 -0.19621050506E+00 -0.28796148276E+00  0.25103839159E+01  0.25344521663E+01  0.00000000000E+00 0.  1.
</event>
<event>
 5    1  0.1173395E+001  0.1572408E+01  0.7818608E-02  0.3383866E+00
         11   -1    0    0    0    0  0.00000000000E+00  0.00000000000E+00  0.39999999674E+01  0.40000000000E+01  0.51100000000E-03 0. -1.
    9000002   -1    0    0    0    0 -0.00000000000E+00 -0.00000000000E+00  0.00000000000E+00  0.93800000000E+00  0.93800000000E+00 0. -1.
         11    1    1    2    0    0  0.74211455862E-01  0.12410020927E+00  0.10961106798E+01  0.11056071118E+01  0.51100000000E-03 0. -1.
    9000002    1    1    2    0    0 -0.59322607607E-01  0.15919364077E+00  0.39592916659E-01  0.95408248390E+00  0.93800000000E+00 0. -1.
         22    1    1    2    0    0 -0.14888848256E-01 -0.28329385004E+00  0.28642963709E+01  0.28783104043E+01  0.00000000000E+00 0. -1.
</event>
<event>
 5    1  0.1173395E+001  0.1593880E+01  0.7818608E-02  0.3360033E+00
         11   -1    0    0    0    0  0.00000000000E+00  0.00000000000E+00  0.39999999674E+01  0.40000000000E+01  0.51100000000E-03 0.  1.
    9000002   -1    0    0    0    0 -0.00000000000E+00 -0.00000000000E+00  0.00000000000E+00  0.93800000000E+00  0.93800000000E+00 0. -1.
         11    1    1    2    0    0  0.36597898470E-01 -0.31648871661E-01  0.59564430752E+00  0.59760644194E+00  0.51100000000E-03 0.  1.
    9000002    1    1    2    0    0 -0.22695840687E+00 -0.22442732326E+00  0.72688085206E-01  0.99348140375E+00  0.93800000000E+00 0. -1.
         22    1    1    2    0    0  0.19036050840E+00  0.25607619492E+00  0.33316675746E+01  0.33469121543E+01  0.00000000000E+00 0.  1.
</event>
<event>
 5    1  0.1173395E+001  0.1493001E+01  0.7818608E-02  0.3478366E+00
         11   -1    0    0    0    0  0.00000000000E+00  0.00000000000E+00  0.39999999674E+01  0.40000000000E+01  0.51100000000E-03 0. -1.
    9000002   -1    0    0    0    0 -0.00000000000E+00 -0.00000000000E+00  0.00000000000E+00  0.93800000000E+00  0.93800000000E+00 0. -1.
         11    1    1    2    0    0  0.48180047124E-01 -0.31086987654E+00  0.87709705330E+00  0.93180518303E+00  0.51100000000E-03 0. -1.
    9000002    1    1    2    0    0 -0.18789805392E+00 -0.86725357277E-01  0.11328565931E+00  0.96721487110E+00  0.93800000000E+00 0. -1.
         22    1    1    2    0    0  0.13971800680E+00  0.39759523382E+00  0.30096172547E+01  0.30389799459E+01  0.00000000000E+00 0. -1.
</event>
<event>
 5    1  0.1173395E+001  0.1520543E+01  0.7818608E-02  0.3444392E+00
         11   -1    0    0    0    0  0.00000000000E+00  0.00000000000E+00  0.39999999674E+01  0.40000000000E+01  0.51100000000E-03 0.  1.
    9000002   -1    0    0    0    0 -0.00000000000E+00 -0.00000000000E+00  0.00000000000E+00  0.93800000000E+00  0.93800000000E+00 0.  1.
         11    1    1    2    0    0 -0.24724069817E+00 -0.22048302425E+00  0.10298614252E+01  0.10818297200E+01  0.51100000000E-03 0.  1.
    9000002    1    1    2    0    0 -0.78587128809E-01  0.31380421533E+00  0.13559827856E+00  0.10014389225E+01  0.93800000000E+00 0.  1.
         22    1    1    2    0    0  0.32582782698E+00 -0.93321191081E-01  0.28345402636E+01  0.28547313575E+01  0.00000000000E+00 0.  1.
</event>
<event>
 5    1  0.1173395E+001  0.1513562E+01  0.7818608E-02  0.3452877E+00
         11   -1    0    0    0    0  0.00000000000E+00  0.00000000000E+00  0.39999999674E+01  0.40000000000E+01  0.51100000000E-03 0.  1.
    9000002   -1    0    0    0    0 -0.00000000000E+00 -0.00000000000E+00  0.00000000000E+00  0.93800000000E+00  0.93800000000E+00 0.  1.
         11    1    1    2    0    0 -0.68156003749E+00 -0.19020911538E+00  0.12773843583E+01  0.14602789638E+01  0.51100000000E-03 0.  1.
    9000002    1    1    2    0    0  0.83318398581E+00  0.30806801969E+00  0.74599987356E+00  0.14917979992E+01  0.93800000000E+00 0.  1.
         22    1    1    2    0    0 -0.15162394832E+00 -0.11785890431E+00  0.19766157355E+01  0.19859230370E+01  0.00000000000E+00 0. -1.
</event>
<event>
 5    1  0.1173395E+001  0.1515239E+01  0.7818608E-02  0.3450831E+00
         11   -1    0    0    0    0  0.00000000000E+00  0.00000000000E+00  0.39999999674E+01  0.40000000000E+01  0.51100000000E-03 0.  1.
    9000002   -1    0    0    0    0 -0.00000000000E+00 -0.00000000000E+00  0.00000000000E+00  0.93800000000E+00  0.93800000000E+00 0.  1.
         11    1    1    2    0    0  0.75528163525E-01  0.27662971518E+00  0.10428974703E+01  0.10816024674E+01  0.51100000000E-03 0.  1.
    9000002    1    1    2    0    0  0.94037317998E-01  0.60992026164E-01  0.72819801406E-01  0.94747547087E+00  0.93800000000E+00 0.  1.
         22    1    1    2    0    0 -0.16956548152E+00 -0.33762174134E+00  0.28842826957E+01  0.29089220617E+01  0.00000000000E+00 0.  1.
</event>
<event>
 5    1  0.1173395E+001  0.1491626E+01  0.7818608E-02  0.3480098E+00
         11   -1    0    0    0    0  0.00000000000E+00  0.00000000000E+00  0.39999999674E+01  0.40000000000E+01  0.51100000000E-03 0. -1.
    9000002   -1    0    0    0    0 -0.00000000000E+00 -0.00000000000E+00  0.00000000000E+00  0.93800000000E+00  0.93800000000E+00 0.  1.
         11    1    1    2    0    0  0.36963052460E+00 -0.37489983308E-01  0.10388134145E+01  0.11032523713E+01  0.51100000000E-03 0. -1.
    9000002    1    1    2    0    0 -0.75986289632E-01 -0.17094649969E-01  0.87172919223E-01  0.94525618809E+00  0.93800000000E+00 0.  1.
         22    1    1    2    0    0 -0.29364423496E+00  0.54584633277E-01  0.28740136336E+01  0.28894914406E+01  0.00000000000E+00 0.  1.
</event>
<event>
 5    1  0.1173395E+001  0.1538482E+01  0.7818608E-02  0.3422965E+00
         11   -1    0    0    0    0  0.00000000000E+00  0.00000000000E+00  0.39999999674E+01  0.40000000000E+01  0.51100000000E-03 0. -1.
    9000002   -1    0    0    0    0 -0.00000000000E+00 -0.00000000000E+00  0.00000000000E+00  0.93800000000E+00  0.93800000000E+00 0. -1.
         11    1    1    2    0    0  0.16309509180E+00  0.17594460808E+00  0.86342940788E+00  0.89614012163E+00  0.51100000000E-03 0. -1.
    9000002    1    1    2    0    0 -0.49272913904E-01  0.85323381716E-01  0.52468536003E-01  0.94461888970E+00  0.93800000000E+00 0. -1.
         22    1    1    2    0    0 -0.11382217790E+00 -0.26126798979E+00  0.30841020235E+01  0.30972409887E+01  0.00000000000E+00 0. -1.
</event>
<event>
 5    1  0.1173395E+001  0.1561843E+01  0.7818608E-02  0.3395849E+00
         11   -1    0    0    0    0  0.00000000000E+00  0.00000000000E+00  0.39999999674E+01  0.40000000000E+01  0.51100000000E-03 0.  1.
    9000002   -1    0    0    0    0 -0.00000000000E+00 -0.00000000000E+00  0.00000000000E+00  0.93800000000E+00  0.93800000000E+00 0.  1.
         11    1    1    2    0    0  0.16765445731E+00 -0.14327975932E+00  0.92672807921E+00  0.95260815680E+00  0.51100000000E-03 0.  1.
    9000002    1    1    2    0    0 -0.27962145098E+00 -0.12177579786E+00  0.92389885380E-01  0.99065503164E+00  0.93800000000E+00 0.  1.
         22    1    1    2    0    0  0.11196699367E+00  0.26505555718E+00  0.29808820028E+01  0.29947368116E+01  0.00000000000E+00 0.  1.
</event>
<event>
 5    1  0.1173395E+001  0.1554639E+01  0.7818608E-02  0.3404118E+00
         11   -1    0    0    0    0  0.00000000000E+00  0.00000000000E+00  0.39999999674E+01  0.40000000000E+01  0.51100000000E-03 0. -1.
    9000002   -1    0    0    0    0 -0.00000000000E+00 -0.00000000000E+00  0.00000000000E+00  0.93800000000E+00  0.93800000000E+00 0. -1.
         11    1    1    2    0    0 -0.79720412794E-02  0.14032998402E+00  0.36016646153E+00  0.38662151904E+00  0.51100000000E-03 0. -1.
    9000002    1    1    2    0    0 -0.24955934991E+00  0.61727401958E-01  0.79288153048E-01  0.97581799148E+00  0.93800000000E+00 0. -1.
         22    1    1    2    0    0  0.25753139118E+00 -0.20205738598E+00  0.35605453528E+01  0.35755604895E+01  0.00000000000E+00 0. -1.
</event>
<event>
 5    1  0.1173395E+001  0.1540077E+01  0.7818608E-02  0.3421085E+00
         11   -1    0    0    0    0  0.00000000000E+00  0.00000000000E+00  0.39999999674E+01  0.40000000000E+01  0.51100000000E-03 0.  1.
    9000002   -1    0    0    0    0 -0.00000000000E+00 -0.00000000000E+00  0.00000000000E+00  0.93800000000E+00  0.93800000000E+00 0. -1.
         11    1    1    2    0    0  0.21715900958E+00 -0.13988379202E+00  0.11156837137E+01  0.11451968918E+01  0.51100000000E-03 0.  1.
    9000002    1    1    2    0    0  0.61695867437E-01  0.58687374289E-01  0.49509734357E-01  0.94315735790E+00  0.93800000000E+00 0. -1.
         22    1    1    2    0    0 -0.27885487702E+00  0.81196417728E-01  0.28348065193E+01  0.28496457504E+01  0.00000000000E+00 0.  1.
</event>
<event>
 5    1  0.1173395E+001  0.1592411E+01  0.7818608E-02  0.3361642E+00
         11   -1    0    0    0    0  0.00000000000E+00  0.00000000000E+00  0.39999999674E+01  0.40000000000E+01  0.51100000000E-03 0. -1.
    9000002   -1    0    0    0    0 -0.00000000000E+00 -0.00000000000E+00  0.00000000000E+00  0.93800000000E+00  0.93800000000E+00 0.  1.
         11    1    1    2    0    0 -0.88401208108E-01 -0.45051083033E-01  0.13131669736E+01  0.13169100711E+01  0.51100000000E-03 0. -1.
    9000002    1    1    2    0    0  0.41525907587E+00 -0.10863783591E+00  0.13096367343E+00  0.10398258331E+01  0.93800000000E+00 0.  1.
         22    1    1    2    0    0 -0.32685786776E+00  0.15368891894E+00  0.25558693203E+01  0.25812640957E+01  0.00000000000E+00 0. -1.
</event>
<event>
 5    1  0.1173395E+001  0.1453755E+01  0.7818608E-02  0.3529185E+00
         11   -1    0    0    0    0  0.00000000000E+00  0.00000000000E+00  0.39999999674E+01  0.40000000000E+01  0.51100000000E-03 0. -1.
    9000002   -1    0    0    0    0 -0.00000000000E+00 -0.00000000000E+00  0.00000000000E+00  0.93800000000E+00  0.93800000000E+00 0. -1.
         11    1    1    2    0    0 -0.90501991614E-02  0.39844986967E+00  0.81711160914E+00  0.90912916995E+00  0.51100000000E-03 0. -1.
    9000002    1    1    2    0    0  0.34425722038E-01 -0.82159017612E-01  0.12027748982E+00  0.94986625852E+00  0.93800000000E+00 0. -1.
         22    1    1    2    0    0 -0.25375522877E-01 -0.31629085205E+00  0.30626108684E+01  0.30790045715E+01  0.00000000000E+00 0. -1.
</event>
<event>
 5    1  0.1173395E+001  0.1568627E+01  0.7818608E-02  0.3388134E+00
         11   -1    0    0    0    0  0.00000000000E+00  0.00000000000E+00  0.39999999674E+01  0.40000000000E+01  0.51100000000E-03 0. -1.
    9000002   -1    0    0    0    0 -0.00000000000E+00 -0.00000000000E+00  0.00000000000E+00  0.93800000000E+00  0.93800000000E+00 0.  1.
         11    1    1    2    0    0  0.43663102247E-01  0.15242066745E+00  0.92199046159E+00  0.93552402361E+00  0.51100000000E-03 0. -1.
    9000002    1    1    2    0    0  0.48309500893E+00 -0.28054249781E+00  0.24610575411E+00  0.11191500895E+01  0.93800000000E+00 0.  1.
         22    1    1    2    0    0 -0.52675811118E+00  0.12812183035E+00  0.28319037517E+01  0.28833258868E+01  0.00000000000E+00 0. -1.
</event>
<event>
 5    1  0.1173395E+001  0.1492329E+01  0.7818608E-02  0.3479211E+00
         11   -1    0    0    0    0  0.00000000000E+00  0.00000000000E+00  0.39999999674E+01  0.40000000000E+01  0.51100000000E-03 0.  1.
    9000002   -1    0    0    0    0 -0.00000000000E+00 -0.00000000000E+00  0.00000000000E+00  0.93800000000E+00  0.93800000000E+00 0. -1.
         11    1    1    2    0    0 -0.40795026845E+00  0.27341946012E-01  0.14420470253E+01  0.14988898851E+01  0.51100000000E-03 0.  1.
    9000002    1    1    2    0    0  0.80952627230E-01 -0.22271940086E+00  0.12383232884E+00  0.97536439603E+00  0.93800000000E+00 0. -1.
         22    1    1    2    0    0  0.32699764122E+00  0.19537745485E+00  0.24341206132E+01  0.24637457188E+01  0.00000000000E+00 0.  1.
</event>
<event>
 5    1  0.1173395E+001  0.1523522E+01  0.7818608E-02  0.3440796E+00
         11   -1    0    0    0    0  0.00000000000E+00  0.00000000000E+00  0.39999999674E+01  0.40000000000E+01  0.51100000000E-03 0.  1.
    9000002   -1    0    0    0    0 -0.00000000000E+00 -0.00000000000E+00  0.00000000000E+00  0.93800000000E+00  0.93800000000E+00 0.  1.
         11    1    1    2    0    0  0.11329851144E+00 -0.34273025888E+00  0.14421203588E+01  0.14866109018E+01  0.51100000000E-03 0.  1.
    9000002    1    1    2    0    0  0.10412840725E+00  0.16217705071E+00  0.83838640571E-01  0.96125804997E+00  0.93800000000E+00 0.  1.
         22    1    1    2    0    0 -0.21742691869E+00  0.18055320817E+00  0.24740409680E+01  0.24901310482E+01  0.00000000000E+00 0.  1.
</event>
<event>
 5    1  0.1173395E+001  0.1595060E+01  0.7818608E-02  0.3358743E+00
         11   -1    0    0    0    0  0.00000000000E+00  0.00000000000E+00  0.39999999674E+01  0.40000000000E+01  0.51100000000E-03 0. -1.
    9000002   -1    0    0    0    0 -0.00000000000E+00 -0.00000000000E+00  0.00000000000E+00  0.93800000000E+00  0.93800000000E+00 0. -1.
         11    1    1    2    0    0  0.18402088186E+00  0.41224785284E-01  0.81853928758E+00  0.83998213928E+00  0.51100000000E-03 0. -1.
    9000002    1    1    2    0    0 -0.54070610333E+00 -0.12742539258E+00  0.21776986190E+00  0.11116960167E+01  0.93800000000E+00 0. -1.
         22    1    1    2    0    0  0.35668522147E+00  0.86200607298E-01  0.29636908179E+01  0.29863218440E+01  0.00000000000E+00 0. -1.
</event>
<event>
 5    1  0.1173395E+001  0.1543510E+01  0.7818608E-02  0.3417054E+00
         11   -1    0    0    0    0  0.00000000000E+00  0.00000000000E+00  0.39999999674E+01  0.40000000000E+01  0.51100000000E-03 0. -1.
    9000002   -1    0    0    0    0 -0.00000000000E+00 -0.00000000000E+00  0.00000000000E+00  0.93800000000E+00  0.93800000000E+00 0.  1.
         11    1    1    2    0    0 -0.28419665268E+00 -0.80413981284E-01  0.10754941973E+01  0.11153125909E+01  0.51100000000E-03 0. -1.
    9000002    1    1    2    0    0  0.23256476363E+00 -0.18437210793E+00  0.10400348455E+00  0.98931297791E+00  0.93800000000E+00 0.  1.
         22    1    1    2    0    0  0.51631889049E-01  0.26478608922E+00  0.28205022855E+01  0.28333744312E+01  0.00000000000E+00 0. -1.
</event>
<event>
 5    1  0.1173395E+001  0.1460867E+01  0.7818608E-02  0.3519756E+00
         11   -1    0    0    0    0  0.00000000000E+00  0.00000000000E+00  0.39999999674E+01  0.40000000000E+01  0.51100000000E-03 0. -1.
    9000002   -1    0    0    0    0 -0.00000000000E+00 -0.00000000000E+00  0.00000000000E+00  0.93800000000E+00  0.93800000000E+00 0. -1.
         11    1    1    2    0    0  0.41534959811E+00  0.19472148916E+00  0.11376299377E+01  0.12266351875E+01  0.51100000000E-03 0. -1.
    9000002    1    1    2    0    0 -0.26266791091E+00  0.15068373270E+00  0.17929572673E+00  0.10018437884E+01  0.93800000000E+00 0. -1.
         22    1    1    2    0    0 -0.15268168720E+00 -0.34540522187E+00  0.26830743029E+01  0.27095210241E+01  0.00000000000E+00 0. -1.
</event>
<event>
 5    1  0.1173395E+001  0.1582466E+01  0.7818608E-02  0.3372616E+00
         11   -1    0    0    0    0  0.00000000000E+00  0.00000000000E+00  0.39999999674E+01  0.40000000000E+01  0.51100000000E-03 0. -1.
    9000002   -1    0    0    0    0 -0.00000000000E+00 -0.00000000000E+00  0.00000000000E+00  0.93800000000E+00  0.93800000000E+00 0.  1.
         11    1    1    2    0    0  0.69885398379E-01 -0.20110130949E+00  0.14298461762E+01  0.14456092329E+01  0.51100000000E-03 0. -1.
    9000002    1    1    2    0    0  0.13943968741E+00  0.29741521725E+00  0.85992526747E-01  0.99756601412E+00  0.93800000000E+00 0.  1.
         22    1    1    2    0    0 -0.20932508578E+00 -0.96313907757E-01  0.24841612644E+01  0.24948247530E+01  0.00000000000E+00 0. -1.
</event>
<event>
 5    1  0.1173395E+001  0.1586123E+01  0.7818608E-02  0.3368564E+00
         11   -1    0    0    0    0  0.00000000000E+00  0.00000000000E+00  0.39999999674E+01  0.40000000000E+01  0.51100000000E-03 0. -1.
    9000002   -1    0    0    0    0 -0.00000000000E+00 -0.00000000000E+00  0.00000000000E+00  0.93800000000E+00  0.93800000000E+00 0. -1.
         11    1    1    2    0    0 -0.13876547044E+00 -0.17319725385E-01  0.88380651759E+00  0.89480168212E+00  0.51100000000E-03 0. -1.
    9000002    1    1    2    0    0  0.16205412739E+00  0.33273035344E+00  0.10318702525E+00  0.10136382937E+01  0.93800000000E+00 0. -1.
         22    1    1    2    0    0 -0.23288656948E-01 -0.31541062805E+00  0.30130064245E+01  0.30295600242E+01  0.00000000000E+00 0. -1.
</event>
<event>
 5    1  0.1173395E+001  0.1580843E+01  0.7818608E-02  0.3374422E+00
         11   -1    0    0    0    0  0.00000000000E+00  0.00000000000E+00  0.39999999674E+01  0.40000000000E+01  0.51100000000E-03 0.  1.
    9000002   -1    0    0    0    0 -0.00000000000E+00 -0.00000000000E+00  0.00000000000E+00  0.93800000000E+00  0.93800000000E+00 0.  1.
         11    1    1    2    0    0 -0.89007817618E-01  0.44124591915E-01  0.14380030603E+01  0.14414306899E+01  0.51100000000E-03 0.  1.
    9000002    1    1    2    0    0 -0.51087696177E-02 -0.46981270570E+00  0.16710325027E+00  0.10623170780E+01  0.93800000000E+00 0.  1.
         22    1    1    2    0    0  0.94116587236E-01  0.42568811378E+00  0.23948936568E+01  0.24342522321E+01  0.00000000000E+00 0.  1.
</event>
<event>
 5    1  0.1173395E+001  0.1532652E+01  0.7818608E-02  0.3429869E+00
         11   -1    0    0    0    0  0.00000000000E+00  0.00000000000E+00  0.39999999674E+01  0.40000000000E+01  0.51100000000E-03 0. -1.
    9000002   -1    0    0    0    0 -0.00000000000E+00 -0.00000000000E+00  0.00000000000E+00  0.93800000000E+00  0.93800000000E+00 0. -1.
         11    1    1    2    0    0  0.24587370812E+00  0.17705930134E-01  0.12221291866E+01  0.12467427121E+01  0.51100000000E-03 0. -1.
    9000002    1    1    2    0    0  0.13696576696E+00 -0.64948228690E-01  0.66401425852E-01  0.95248676793E+00  0.93800000000E+00 0. -1.
         22    1    1    2    0    0 -0.38283947508E+00  0.47242298556E-01  0.27114693550E+01  0.27387705200E+01  0.00000000000E+00 0. -1.
</event>
<event>
 5    1  0.1173395E+001  0.1534362E+01  0.7818608E-02  0.3427838E+00
         11   -1    0    0    0    0  0.00000000000E+00  0.00000000000E+00  0.39999999674E+01  0.40000000000E+01  0.51100000000E-03 0.  1.
    9000002   -1    0    0    0    0 -0.00000000000E+00 -0.00000000000E+00  0.00000000000E+00  0.93800000000E+00  0.93800000000E+00 0. -1.
         11    1    1    2    0    0  0.12736459058E+00 -0.24504451094E+00  0.11490167924E+01  0.11817395659E+01  0.51100000000E-03 0.  1.
    9000002    1    1    2    0    0  0.99370850061E-01  0.43426390776E-01  0.57124063244E-01  0.94597440550E+00  0.93800000000E+00 0. -1.
         22    1    1    2    0    0 -0.22673544064E+00  0.20161812017E+00  0.27938591117E+01  0.28102860286E+01  0.00000000000E+00 0.  1.
</event>
<event>
 5    1  0.1173395E+001  0.1557355E+01  0.7818608E-02  0.3400990E+00
         11   -1    0    0    0    0  0.00000000000E+00  0.00000000000E+00  0.39999999674E+01  0.40000000000E+01  0.51100000000E-03 0. -1.
    9000002   -1    0    0    0    0 -0.00000000000E+00 -0.00000000000E+00  0.00000000000E+00  0.93800000000E+00  0.93800000000E+00 0.  1.
         11    1    1    2    0    0  0.34338184647E+00 -0.31817234072E+00  0.11114973533E+01  0.12060561174E+01  0.51100000000E-03 0. -1.
    9000002    1    1    2    0    0 -0.74860321024E+00  0.32263639856E+00  0.55068728127E+00  0.13592650565E+01  0.93800000000E+00 0.  1.
         22    1    1    2    0    0  0.40522136377E+00 -0.44640578375E-02  0.23378153328E+01  0.23726788261E+01  0.00000000000E+00 0. -1.
</event>
<event>
 5    1  0.1173395E+001  0.1497394E+01  0.7818608E-02  0.3472857E+00
         11   -1    0    0    0    0  0.00000000000E+00  0.00000000000E+00  0.39999999674E+01  0.40000000000E+01  0.51100000000E-03 0.  1.
    9000002   -1    0    0    0    0 -0.00000000000E+00 -0.00000000000E+00  0.00000000000E+00  0.93800000000E+00  0.93800000000E+00 0.  1.
         11    1    1    2    0    0  0.31117456361E-01 -0.32354576517E+00  0.82444824113E+00  0.88620839630E+00  0.51100000000E-03 0.  1.
    9000002    1    1    2    0    0 -0.15035535421E+00  0.29382517644E-01  0.95261308425E-01  0.95519044267E+00  0.93800000000E+00 0.  1.
         22    1    1    2    0    0  0.11923789785E+00  0.29416324753E+00  0.30802904178E+01  0.30966011610E+01  0.00000000000E+00 0. -1.
</event>
<event>
 5    1  0.1173395E+001  0.1556412E+01  0.7818608E-02  0.3402075E+00
         11   -1    0    0    0    0  0.00000000000E+00  0.00000000000E+00  0.39999999674E+01  0.40000000000E+01  0.51100000000E-03 0.  1.
    9000002   -1    0    0    0    0 -0.00000000000E+00 -0.00000000000E+00  0.00000000000E+00  0.93800000000E+00  0.93800000000E+00 0.  1.
         11    1    1    2    0    0 -0.78130964440E-02  0.26339302931E+00  0.14027565479E+01  0.14272922357E+01  0.51100000000E-03 0.  1.
    9000002    1    1    2    0    0 -0.14858457473E+00 -0.88093910955E-01  0.52577452470E-01  0.95522055124E+00  0.93800000000E+00 0.  1.
         22    1    1    2    0    0  0.15639767117E+00 -0.17529911836E+00  0.25446659670E+01  0.25554872131E+01  0.00000000000E+00 0.  1.
</event>
<event>
 5    1  0.1173395E+001  0.1524210E+01  0.7818608E-02  0.3439968E+00
         11   -1    0    0    0    0  0.00000000000E+00  0.00000000000E+00  0.39999999674E+01  0.40000000000E+01  0.51100000000E-03 0.  1.
    9000002   -1    0    0    0    0 -0.00000000000E+00 -0.00000000000E+00  0.00000000000E+00  0.93800000000E+00  0.93800000000E+00 0.  1.
         11    1    1    2    0    0  0.32085638203E+00  0.10970348370E+00  0.13807123105E+01  0.14217420363E+01  0.51100000000E-03 0.  1.
    9000002    1    1    2    0    0 -0.10579450895E-01 -0.33456783916E+00  0.13787884096E+00  0.10054362926E+01  0.93800000000E+00 0.  1.
         22    1    1    2    0    0 -0.31027693113E+00  0.22486435546E+00  0.24814088159E+01  0.25108216711E+01  0.00000000000E+00 0.  1.
</event>
<event>
 5    1  0.1173395E+001  0.1552228E+01  0.7818608E-02  0.3406903E+00
         11   -1    0    0    0    0  0.00000000000E+00  0.00000000000E+00  0.39999999674E+01  0.40000000000E+01  0.51100000000E-03 0. -1.
    9000002   -1    0    0    0    0 -0.00000000000E+00 -0.00000000000E+00  0.00000000000E+00  0.93800000000E+00  0.93800000000E+00 0. -1.
         11    1    1    2    0    0  0.27058742983E+00  0.70451605116E-02  0.12752913147E+01  0.13037006520E+01  0.51100000000E-03 0. -1.
    9000002    1    1    2    0    0 -0.91442348505E-01 -0.17096918557E+00  0.61240048396E-01  0.95978461596E+00  0.93800000000E+00 0. -1.
         22    1    1    2    0    0 -0.17914508133E+00  0.16392402506E+00  0.26634686043E+01  0.26745147321E+01  0.00000000000E+00 0. -1.
</event>
<event>
 5    1  0.1173395E+001  0.1592289E+01  0.7818608E-02  0.3361776E+00
         11   -1    0    0    0    0  0.00000000000E+00  0.00000000000E+00  0.39999999674E+01  0.40000000000E+01  0.51100000000E-03 0.  1.
    9000002   -1    0    0    0    0 -0.00000000000E+00 -0.00000000000E+00  0.00000000000E+00  0.93800000000E+00  0.93800000000E+00 0.  1.
         11    1    1    2    0    0 -0.19200926820E-01 -0.24676935800E-01  0.21548840715E+00  0.21774558891E+00  0.51100000000E-03 0.  1.
    9000002    1    1    2    0    0 -0.33176770657E+00 -0.72822215909E-01  0.83207686563E-01  0.10010696306E+01  0.93800000000E+00 0.  1.
         22    1    1    2    0    0  0.35096863339E+00  0.97499151709E-01  0.37013038736E+01  0.37191847805E+01  0.00000000000E+00 0.  1.
</event>
<event>
 5    1  0.1173395E+001  0.1468055E+01  0.7818608E-02  0.3510327E+00
         11   -1    0    0    0    0  0.00000000000E+00  0.00000000000E+00  0.39999999674E+01  0.40000000000E+01  0.51100000000E-03 0. -1.
    9000002   -1    0    0    0    0 -0.00000000000E+00 -0.00000000000E+00  0.00000000000E+00  0.93800000000E+00  0.93800000000E+00 0. -1.
         11    1    1    2    0    0 -0.15673663359E-01  0.47014450809E+00  0.78166119691E+00  0.91229162557E+00  0.51100000000E-03 0. -1.
    9000002    1    1    2    0    0  0.51846781018E+00 -0.26836701327E+00  0.43055685059E+00  0.11857710258E+01  0.93800000000E+00 0. -1.
         22    1    1    2    0    0 -0.50279414682E+00 -0.20177749482E+00  0.27877819199E+01  0.28399373486E+01  0.00000000000E+00 0. -1.
</event>
<event>
 5    1  0.1173395E+001  0.1450713E+01  0.7818608E-02  0.3533249E+00
         11   -1    0    0    0    0  0.00000000000E+00  0.00000000000E+00  0.39999999674E+01  0.40000000000E+01  0.51100000000E-03 0.  1.
    9000002   -1    0    0    0    0 -0.00000000000E+00 -0.00000000000E+00  0.00000000000E+00  0.93800000000E+00  0.93800000000E+00 0.  1.
         11    1    1    2    0    0 -0.29781148452E+00 -0.14894362818E+00  0.45947401036E+00  0.56744384040E+00  0.51100000000E-03 0.  1.
    9000002    1    1    2    0    0  0.25524159922E+00 -0.27632628452E+00  0.23508673427E+00  0.10376002420E+01  0.93800000000E+00 0.  1.
         22    1    1    2    0    0  0.42569885292E-01  0.42526991270E+00  0.33054392227E+01  0.33329559176E+01  0.00000000000E+00 0.  1.
</event>
<event>
 5    1  0.1173395E+001  0.1529868E+01  0.7818608E-02  0.3433186E+00
         11   -1    0    0    0    0  0.00000000000E+00  0.00000000000E+00  0.39999999674E+01  0.40000000000E+01  0.51100000000E-03 0.  1.
    9000002   -1    0    0    0    0 -0.00000000000E+00 -0.00000000000E+00  0.00000000000E+00  0.93800000000E+00  0.93800000000E+00 0. -1.
         11    1    1    2    0    0 -0.23946177573E-01  0.28920091620E+00  0.80868644713E+00  0.85917671072E+00  0.51100000000E-03 0.  1.
    9000002    1    1    2    0    0 -0.29387294178E+00 -0.20145042889E+00  0.14393380643E+00  0.10136589771E+01  0.93800000000E+00 0. -1.
         22    1    1    2    0    0  0.31781911935E+00 -0.87750487311E-01  0.30473797138E+01  0.30651643122E+01  0.00000000000E+00 0.  1.
</event>
<event>
 5    1  0.1173395E+001  0.1454198E+01  0.7818608E-02  0.3528595E+00
         11   -1    0    0    0    0  0.00000000000E+00  0.00000000000E+00  0.39999999674E+01  0.40000000000E+01  0.51100000000E-03 0.  1.
    9000002   -1    0    0    0    0 -0.00000000000E+00 -0.00000000000E+00  0.00000000000E+00  0.93800000000E+00  0.93800000000E+00 0. -1.
         11    1    1    2    0    0  0.14479763064E+00 -0.37893247491E+00  0.51788024295E+00  0.65784221630E+00  0.51100000000E-03 0.  1.
    9000002    1    1    2    0    0  0.14650102675E+00  0.55460231966E+00  0.38581402897E+00  0.11652221886E+01  0.93800000000E+00 0. -1.
         22    1    1    2    0    0 -0.29129865739E+00 -0.17566984475E+00  0.30963056954E+01  0.31149355951E+01  0.00000000000E+00 0.  1.
</event>
<event>
 5    1  0.1173395E+001  0.1485944E+01  0.7818608E-02  0.3487290E+00
         11   -1    0    0    0    0  0.00000000000E+00  0.00000000000E+00  0.39999999674E+01  0.40000000000E+01  0.51100000000E-03 0. -1.
    9000002   -1    0    0    0    0 -0.00000000000E+00 -0.00000000000E+00  0.00000000000E+00  0.93800000000E+00  0.93800000000E+00 0. -1.
         11    1    1    2    0    0  0.58858621332E+00 -0.41312784579E-01  0.13475399232E+01  0.14710556014E+01  0.51100000000E-03 0. -1.
    9000002    1    1    2    0    0 -0.58292059038E+00 -0.29856889701E+00  0.43555464579E+00  0.12241289354E+01  0.93800000000E+00 0. -1.
         22    1    1    2    0    0 -0.56656229394E-02  0.33988168158E+00  0.22169053984E+01  0.22428154632E+01  0.00000000000E+00 0. -1.
</event>
<event>
 5    1  0.1173395E+001  0.1551760E+01  0.7818608E-02  0.3407446E+00
         11   -1    0    0    0    0  0.00000000000E+00  0.00000000000E+00  0.39999999674E+01  0.40000000000E+01  0.51100000000E-03 0.  1.
    9000002   -1    0    0    0    0 -0.00000000000E+00 -0.00000000000E+00  0.00000000000E+00  0.93800000000E+00  0.93800000000E+00 0. -1.
         11    1    1    2    0    0 -0.23158386311E+00  0.37337463610E-01  0.11851645420E+01  0.12081557948E+01  0.51100000000E-03 0.  1.
    9000002    1    1    2    0    0 -0.10492951536E-01  0.65444345559E-01  0.38548439532E-01  0.94112860258E+00  0.93800000000E+00 0. -1.
         22    1    1    2    0    0  0.24207681464E+00 -0.10278180917E+00  0.27762869858E+01  0.27887156026E+01  0.00000000000E+00 0.  1.
</event>
<event>
 5    1  0.1173395E+001  0.1578255E+01  0.7818608E-02  0.3377308E+00
         11   -1    0    0    0    0  0.00000000000E+00  0.00000000000E+00  0.39999999674E+01  0.40000000000E+01  0.51100000000E-03 0. -1.
    9000002   -1    0    0    0    0 -0.00000000000E+00 -0.00000000000E+00  0.00000000000E+00  0.93800000000E+00  0.93800000000E+00 0. -1.
         11    1    1    2    0    0 -0.83413989599E-01  0.21045593269E-01  0.13413361978E+01  0.13440922094E+01  0.51100000000E-03 0. -1.
    9000002    1    1    2    0    0  0.14572272118E+00  0.41330303026E+00  0.14878553526E+00  0.10459615871E+01  0.93800000000E+00 0. -1.
         22    1    1    2    0    0 -0.62308731576E-01 -0.43434862353E+00  0.25098782343E+01  0.25479462034E+01  0.00000000000E+00 0. -1.
</event>
<event>
 5    1  0.1173395E+001  0.1558665E+01  0.7818608E-02  0.3399486E+00
         11   -1    0    0    0    0  0.00000000000E+00  0.00000000000E+00  0.39999999674E+01  0.40000000000E+01  0.51100000000E-03 0. -1.
    9000002   -1    0    0    0    0 -0.00000000000E+00 -0.00000000000E+00  0.00000000000E+00  0.93800000000E+00  0.93800000000E+00 0. -1.
         11    1    1    2    0    0 -0.20046764900E+00  0.64509498578E-01  0.13316735438E+01  0.13482223267E+01  0.51100000000E-03 0. -1.
    9000002    1    1    2    0    0 -0.60976303616E-01  0.65205327519E-03  0.32839854000E-01  0.94055355551E+00  0.93800000000E+00 0. -1.
         22    1    1    2    0    0  0.26144395261E+00 -0.65161551853E-01  0.26354865695E+01  0.26492241178E+01  0.00000000000E+00 0. -1.
</event>
<event>
 5    1  0.1173395E+001  0.1578186E+01  0.7818608E-02  0.3377385E+00
         11   -1    0    0    0    0  0.00000000000E+00  0.00000000000E+00  0.39999999674E+01  0.40000000000E+01  0.51100000000E-03 0. -1.
    9000002   -1    0    0    0    0 -0.00000000000E+00 -0.00000000000E+00  0.00000000000E+00  0.93800000000E+00  0.93800000000E+00 0. -1.
         11    1    1    2    0    0 -0.28009135602E+00 -0.12343194076E+00  0.13592196453E+01  0.13932569458E+01  0.51100000000E-03 0. -1.
    9000002    1    1    2    0    0  0.31110837536E+00  0.34778343388E+00  0.16731903767E+00  0.10609342102E+01  0.93800000000E+00 0. -1.
         22    1    1    2    0    0 -0.31017019345E-01 -0.22435149311E+00  0.24734612844E+01  0.24838088439E+01  0.00000000000E+00 0. -1.
</event>
<event>
 5    1  0.1173395E+001  0.1458211E+01  0.7818608E-02  0.3523265E+00
         11   -1    0    0    0    0  0.00000000000E+00  0.00000000000E+00  0.39999999674E+01  0.40000000000E+01  0.51100000000E-03 0. -1.
    9000002   -1    0    0    0    0 -0.00000000000E+00 -0.00000000000E+00  0.00000000000E+00  0.93800000000E+00  0.93800000000E+00 0.  1.
         11    1    1    2    0    0 -0.25836500223E+00 -0.32706780798E+00  0.94040159516E+00  0.10286307630E+01  0.51100000000E-03 0. -1.
    9000002    1    1    2    0    0  0.29838533878E-01  0.10302195186E+00  0.11920154691E+00  0.95160751860E+00  0.93800000000E+00 0.  1.
         22    1    1    2    0    0  0.22852646835E+00  0.22404585612E+00  0.29403968253E+01  0.29577617184E+01  0.00000000000E+00 0. -1.
</event>
<event>
 5    1  0.1173395E+001  0.1506046E+01  0.7818608E-02  0.3462108E+00
         11   -1    0    0    0    0  0.00000000000E+00  0.00000000000E+00  0.39999999674E+01  0.40000000000E+01  0.51100000000E-03 0.  1.
    9000002   -1    0    0    0    0 -0.00000000000E+00 -0.00000000000E+00  0.00000000000E+00  0.93800000000E+00  0.93800000000E+00 0. -1.
         11    1    1    2    0    0 -0.33431056961E+00 -0.26368726164E-01  0.12231103729E+01  0.12682500195E+01  0.51100000000E-03 0.  1.
    9000002    1    1    2    0    0 -0.12007473184E-01 -0.78945505569E-01  0.75718582203E-01  0.94443309766E+00  0.93800000000E+00 0. -1.
         22    1    1    2    0    0  0.34631804279E+00  0.10531423173E+00  0.27011710123E+01  0.27253168828E+01  0.00000000000E+00 0.  1.
</event>
<event>
 5    1  0.1173395E+001  0.1207612E+01  0.7818608E-02  0.3975530E+00
         11   -1    0    0    0    0  0.00000000000E+00  0.00000000000E+00  0.39999999674E+01  0.40000000000E+01  0.51100000000E-03 0. -1.
    9000002   -1    0    0    0    0 -0.00000000000E+00 -0.00000000000E+00  0.00000000000E+00  0.93800000000E+00  0.93800000000E+00 0. -1.
         11    1    1    2    0    0  0.73208225026E+00  0.45713070661E-01  0.11057480271E+01  0.13269186360E+01  0.51100000000E-03 0. -1.
    9000002    1    1    2    0    0 -0.10435541477E+00  0.19120176262E+00  0.42549715769E+00  0.10527772784E+01  0.93800000000E+00 0. -1.
         22    1    1    2    0    0 -0.62772683549E+00 -0.23691483328E+00  0.24687547826E+01  0.25583040857E+01  0.00000000000E+00 0. -1.
</event>
<event>
 5    1  0.1173395E+001  0.1545073E+01  0.7818608E-02  0.3415226E+00
         11   -1    0    0    0    0  0.00000000000E+00  0.00000000000E+00  0.39999999674E+01  0.40000000000E+01  0.51100000000E-03 0. -1.
    9000002   -1    0    0    0    0 -0.00000000000E+00 -0.00000000000E+00  0.00000000000E+00  0.93800000000E+00  0.93800000000E+00 0. -1.
         11    1    1    2    0    0 -0.13325106777E+00  0.20687105160E+00  0.94972480313E+00  0.98108559354E+00  0.51100000000E-03 0. -1.
    9000002    1    1    2    0    0  0.23513618491E+00  0.93399312471E-01  0.85551334876E-01  0.97528226064E+00  0.93800000000E+00 0. -1.
         22    1    1    2    0    0 -0.10188511714E+00 -0.30027036407E+00  0.29647238294E+01  0.29816321458E+01  0.00000000000E+00 0.  1.
</event>
<event>
 5    1  0.1173395E+001  0.1511817E+01  0.7818608E-02  0.3455011E+00
         11   -1    0    0    0    0  0.00000000000E+00  0.00000000000E+00  0.39999999674E+01  0.40000000000E+01  0.51100000000E-03 0.  1.
    9000002   -1    0    0    0    0 -0.00000000000E+00 -0.00000000000E+00  0.00000000000E+00  0.93800000000E+00  0.93800000000E+00 0. -1.
         11    1    1    2    0    0 -0.15061708024E+00  0.31536855219E+00  0.11901066349E+01  0.12403615973E+01  0.51100000000E-03 0.  1.
    9000002    1    1    2    0    0  0.13007643715E+00 -0.17643534336E-01  0.78936780885E-01  0.95042421538E+00  0.93800000000E+00 0. -1.
         22    1    1    2    0    0  0.20540643087E-01 -0.29772501785E+00  0.27309565516E+01  0.27472141873E+01  0.00000000000E+00 0.  1.
</event>
<event>
 5    1  0.1173395E+001  0.1593754E+01  0.7818608E-02  0.3360171E+00
         11   -1    0    0    0    0  0.00000000000E+00  0.00000000000E+00  0.39999999674E+01  0.40000000000E+01  0.51100000000E-03 0. -1.
    9000002   -1    0    0    0    0 -0.00000000000E+00 -0.00000000000E+00  0.00000000000E+00  0.93800000000E+00  0.93800000000E+00 0.  1.
         11    1    1    2    0    0 -0.28506468439E+00 -0.97795381788E-01  0.13385878817E+01  0.13720945992E+01  0.51100000000E-03 0. -1.
    9000002    1    1    2    0    0  0.62097661700E+00  0.89649910344E-01  0.28241093280E+00  0.11632923108E+01  0.93800000000E+00 0.  1.
         22    1    1    2    0    0 -0.33591193261E+00  0.81454714442E-02  0.23790011528E+01  0.24026130900E+01  0.00000000000E+00 0.  1.
</event>
<event>
 5    1  0.1173395E+001  0.1537109E+01  0.7818608E-02  0.3424586E+00
         11   -1    0    0    0    0  0.00000000000E+00  0.00000000000E+00  0.39999999674E+01  0.40000000000E+01  0.51100000000E-03 0.  1.
    9000002   -1    0    0    0    0 -0.00000000000E+00 -0.00000000000E+00  0.00000000000E+00  0.93800000000E+00  0.93800000000E+00 0. -1.
         11    1    1    2    0    0 -0.13332795342E+00  0.99517975155E-01  0.67643520451E+00  0.69659530400E+00  0.51100000000E-03 0.  1.
    9000002    1    1    2    0    0 -0.32619159885E+00  0.15765957607E+00  0.14076911322E+00  0.10153410483E+01  0.93800000000E+00 0. -1.
         22    1    1    2    0    0  0.45951955227E+00 -0.25717755123E+00  0.31827956496E+01  0.32260636477E+01  0.00000000000E+00 0.  1.
</event>
<event>
 5    1  0.1173395E+001  0.1474784E+01  0.7818608E-02  0.3501591E+00
         11   -1    0    0    0    0  0.00000000000E+00  0.00000000000E+00  0.39999999674E+01  0.40000000000E+01  0.51100000000E-03 0. -1.
    9000002   -1    0    0    0    0 -0.00000000000E+00 -0.00000000000E+00  0.00000000000E+00  0.93800000000E+00  0.93800000000E+00 0. -1.
         11    1    1    2    0    0  0.36494157946E+00  0.13428844793E+00  0.12244656641E+01  0.12847303870E+01  0.51100000000E-03 0. -1.
    9000002    1    1    2    0    0  0.71476723773E-01 -0.16120206708E+00  0.11996161577E+00  0.96194065188E+00  0.93800000000E+00 0. -1.
         22    1    1    2    0    0 -0.43641830323E+00  0.26913619151E-01  0.26555726875E+01  0.26913289611E+01  0.00000000000E+00 0. -1.
</event>
<event>
 5    1  0.1173395E+001  0.1554184E+01  0.7818608E-02  0.3404642E+00
         11   -1    0    0    0    0  0.00000000000E+00  0.00000000000E+00  0.39999999674E+01  0.40000000000E+01  0.51100000000E-03 0.  1.
    9000002   -1    0    0    0    0 -0.00000000000E+00 -0.00000000000E+00  0.00000000000E+00  0.93800000000E+00  0.93800000000E+00 0. -1.
         11    1    1    2    0    0  0.15017545777E+00 -0.10525822954E+00  0.73846327727E+00  0.76089436586E+00  0.51100000000E-03 0.  1.
    9000002    1    1    2    0    0  0.15963793751E+00  0.87200366708E-01  0.56569154158E-01  0.95714797406E+00  0.93800000000E+00 0. -1.
         22    1    1    2    0    0 -0.30981339529E+00  0.18057862832E-01  0.32049675359E+01  0.32199576601E+01  0.00000000000E+00 0.  1.
</event>
<event>
 5    1  0.1173395E+001  0.1576123E+01  0.7818608E-02  0.3379694E+00
         11   -1    0    0    0    0  0.00000000000E+00  0.00000000000E+00  0.39999999674E+01  0.40000000000E+01  0.51100000000E-03 0. -1.
    9000002   -1    0    0    0    0 -0.00000000000E+00 -0.00000000000E+00  0.00000000000E+00  0.93800000000E+00  0.93800000000E+00 0. -1.
         11    1    1    2    0    0 -0.10886154745E+00  0.19625723088E+00  0.13732535028E+01  0.13914715884E+01  0.51100000000E-03 0. -1.
    9000002    1    1    2    0    0  0.29346946375E+00 -0.57104305897E-01  0.78283982722E-01  0.98760194909E+00  0.93800000000E+00 0. -1.
         22    1    1    2    0    0 -0.18460791630E+00 -0.13915292499E+00  0.25484624818E+01  0.25589264625E+01  0.00000000000E+00 0. -1.
</event>
<event>
 5    1  0.1173395E+001  0.1546585E+01  0.7818608E-02  0.3413460E+00
         11   -1    0    0    0    0  0.00000000000E+00  0.00000000000E+00  0.39999999674E+01  0.40000000000E+01  0.51100000000E-03 0. -1.
    9000002   -1    0    0    0    0 -0.00000000000E+00 -0.00000000000E+00  0.00000000000E+00  0.93800000000E+00  0.93800000000E+00 0. -1.
         11    1    1    2    0    0  0.26387527711E+00  0.38834317226E-01  0.13435474223E+01  0.13697657476E+01  0.51100000000E-03 0. -1.
    9000002    1    1    2    0    0 -0.44680911785E-01  0.13782513893E+00  0.54063727540E-01  0.95066242139E+00  0.93800000000E+00 0. -1.
         22    1    1    2    0    0 -0.21919436533E+00 -0.17665945616E+00  0.26023888175E+01  0.26175718311E+01  0.00000000000E+00 0. -1.
</event>
<event>
 5    1  0.1173395E+001  0.1494364E+01  0.7818608E-02  0.3476653E+00
         11   -1    0    0    0    0  0.00000000000E+00  0.00000000000E+00  0.39999999674E+01  0.40000000000E+01  0.51100000000E-03 0. -1.
    9000002   -1    0    0    0    0 -0.00000000000E+00 -0.00000000000E+00  0.00000000000E+00  0.93800000000E+00  0.93800000000E+00 0.  1.
         11    1    1    2    0    0  0.48819730928E+00  0.90754898033E-01  0.75162883349E+00  0.90084362059E+00  0.51100000000E-03 0. -1.
    9000002    1    1    2    0    0 -0.32805149153E+00  0.28882294076E+00  0.32466639145E+00  0.10845684570E+01  0.93800000000E+00 0.  1.
         22    1    1    2    0    0 -0.16014581775E+00 -0.37957783880E+00  0.29237047424E+01  0.29525879224E+01  0.00000000000E+00 0. -1.
</event>
<event>
 5    1  0.1173395E+001  0.1585566E+01  0.7818608E-02  0.3369181E+00
         11   -1    0    0    0    0  0.00000000000E+00  0.00000000000E+00  0.39999999674E+01  0.40000000000E+01  0.51100000000E-03 0. -1.
    9000002   -1    0    0    0    0 -0.00000000000E+00 -0.00000000000E+00  0.00000000000E+00  0.93800000000E+00  0.93800000000E+00 0. -1.
         11    1    1    2    0    0  0.26654190533E-01  0.89189406953E-01  0.14331133167E+01  0.14361334325E+01  0.51100000000E-03 0. -1.
    9000002    1    1    2    0    0  0.21987931068E+00 -0.57263878490E-02  0.42798048616E-01  0.96439378666E+00  0.93800000000E+00 0. -1.
         22    1    1    2    0    0 -0.24653350121E+00 -0.83463019104E-01  0.25240886020E+01  0.25374727809E+01  0.00000000000E+00 0. -1.
</event>
<event>
 5    1  0.1173395E+001  0.1490065E+01  0.7818608E-02  0.3482068E+00
         11   -1    0    0    0    0  0.00000000000E+00  0.00000000000E+00  0.39999999674E+01  0.40000000000E+01  0.51100000000E-03 0.  1.
    9000002   -1    0    0    0    0 -0.00000000000E+00 -0.00000000000E+00  0.00000000000E+00  0.93800000000E+00  0.93800000000E+00 0.  1.
         11    1    1    2    0    0 -0.34921052533E+00  0.50395633522E-01  0.61311203351E+00  0.70738556505E+00  0.51100000000E-03 0.  1.
    9000002    1    1    2    0    0 -0.24776798600E+00  0.17657380469E+00  0.23373616727E+00  0.10134317339E+01  0.93800000000E+00 0.  1.
         22    1    1    2    0    0  0.59697851133E+00 -0.22696943821E+00  0.31531517666E+01  0.32171827011E+01  0.00000000000E+00 0.  1.
</event>
<event>
 5    1  0.1173395E+001  0.1540652E+01  0.7818608E-02  0.3420409E+00
         11   -1    0    0    0    0  0.00000000000E+00  0.00000000000E+00  0.39999999674E+01  0.40000000000E+01  0.51100000000E-03 0. -1.
    9000002   -1    0    0    0    0 -0.00000000000E+00 -0.00000000000E+00  0.00000000000E+00  0.93800000000E+00  0.93800000000E+00 0.  1.
         11    1    1    2    0    0  0.18056500383E+00 -0.20756973603E+00  0.11198260128E+01  0.11531259584E+01  0.51100000000E-03 0. -1.
    9000002    1    1    2    0    0 -0.18539794703E+00 -0.85125068221E-01  0.73241838114E-01  0.96271856887E+00  0.93800000000E+00 0.  1.
         22    1    1    2    0    0  0.48329432068E-02  0.29269480425E+00  0.28069321165E+01  0.28221554727E+01  0.00000000000E+00 0. -1.
</event>
<event>
 5    1  0.1173395E+001  0.1547641E+01  0.7818608E-02  0.3412229E+00
         11   -1    0    0    0    0  0.00000000000E+00  0.00000000000E+00  0.39999999674E+01  0.40000000000E+01  0.51100000000E-03 0. -1.
    9000002   -1    0    0    0    0 -0.00000000000E+00 -0.00000000000E+00  0.00000000000E+00  0.93800000000E+00  0.93800000000E+00 0.  1.
         11    1    1    2    0    0 -0.47859829239E-01  0.44061679870E+00  0.47482524762E+00  0.64953291175E+00  0.51100000000E-03 0. -1.
    9000002    1    1    2    0    0 -0.57145384728E-01 -0.12837082325E+00  0.22880124740E+00  0.97567344643E+00  0.93800000000E+00 0.  1.
         22    1    1    2    0    0  0.10500521397E+00 -0.31224597545E+00  0.32963734723E+01  0.33127936418E+01  0.00000000000E+00 0. -1.
</event>
<event>
 5    1  0.1173395E+001  0.1538145E+01  0.7818608E-02  0.3423362E+00
         11   -1    0    0    0    0  0.00000000000E+00  0.00000000000E+00  0.39999999674E+01  0.40000000000E+01  0.51100000000E-03 0. -1.
    9000002   -1    0    0    0    0 -0.00000000000E+00 -0.00000000000E+00  0.00000000000E+00  0.93800000000E+00  0.93800000000E+00 0.  1.
         11    1    1    2    0    0 -0.25427130056E+00  0.14873998167E+00  0.13375139200E+01  0.13695697221E+01  0.51100000000E-03 0. -1.
    9000002    1    1    2    0    0  0.14824557516E+00  0.14124222314E+00  0.75465429142E-01  0.96304991934E+00  0.93800000000E+00 0.  1.
         22    1    1    2    0    0  0.10602572541E+00 -0.28998220481E+00  0.25870206183E+01  0.26053803586E+01  0.00000000000E+00 0. -1.
</event>
<event>
 5    1  0.1173395E+001  0.1519402E+01  0.7818608E-02  0.3445773E+00
         11   -1    0    0    0    0  0.00000000000E+00  0.00000000000E+00  0.39999999674E+01  0.40000000000E+01  0.51100000000E-03 0. -1.
    9000002   -1    0    0    0    0 -0.00000000000E+00 -0.00000000000E+00  0.00000000000E+00  0.93800000000E+00  0.93800000000E+00 0. -1.
         11    1    1    2    0    0 -0.86405684813E-01  0.30175254766E+00  0.89939474731E+00  0.95259210315E+00  0.51100000000E-03 0. -1.
    9000002    1    1    2    0    0 -0.18304056238E+00 -0.18187069803E+00  0.10858066551E+00  0.97888434414E+00  0.93800000000E+00 0. -1.
         22    1    1    2    0    0  0.26944624720E+00 -0.11988184963E+00  0.29920245545E+01  0.30065235527E+01  0.00000000000E+00 0. -1.
</event>
<event>
 5    1  0.1173395E+001  0.1524058E+01  0.7818608E-02  0.3440151E+00
         11   -1    0    0    0    0  0.00000000000E+00  0.00000000000E+00  0.39999999674E+01  0.40000000000E+01  0.51100000000E-03 0.  1.
    9000002   -1    0    0    0    0 -0.00000000000E+00 -0.00000000000E+00  0.00000000000E+00  0.93800000000E+00  0.93800000000E+00 0. -1.
         11    1    1    2    0    0  0.12885495020E+00 -0.33836868298E+00  0.13485964655E+01  0.13963558471E+01  0.51100000000E-03 0.  1.
    9000002    1    1    2    0    0  0.27880508024E-01  0.15968651209E+00  0.75603867488E-01  0.95490159161E+00  0.93800000000E+00 0. -1.
         22    1    1    2    0    0 -0.15673545823E+00  0.17868217088E+00  0.25757996343E+01  0.25867425613E+01  0.00000000000E+00 0.  1.
</event>
<event>
 5    1  0.1173395E+001  0.1516492E+01  0.7818608E-02  0.3449305E+00
         11   -1    0    0    0    0  0.00000000000E+00  0.00000000000E+00  0.39999999674E+01  0.40000000000E+01  0.51100000000E-03 0.  1.
    9000002   -1    0    0    0    0 -0.00000000000E+00 -0.00000000000E+00  0.00000000000E+00  0.93800000000E+00  0.93800000000E+00 0. -1.
         11    1    1    2    0    0  0.13889306459E+00  0.36229717968E+00  0.13121836822E+01  0.13683482038E+01  0.51100000000E-03 0.  1.
    9000002    1    1    2    0    0 -0.59941082668E+00 -0.10534381924E+00  0.34784989354E+00  0.11709970998E+01  0.93800000000E+00 0. -1.
         22    1    1    2    0    0  0.46051776209E+00 -0.25695336044E+00  0.23399663916E+01  0.23986546964E+01  0.00000000000E+00 0.  1.
</event>
<event>
 5    1  0.1173395E+001  0.1582434E+01  0.7818608E-02  0.3372653E+00
         11   -1    0    0    0    0  0.00000000000E+00  0.00000000000E+00  0.39999999674E+01  0.40000000000E+01  0.51100000000E-03 0.  1.
    9000002   -1    0    0    0    0 -0.00000000000E+00 -0.00000000000E+00  0.00000000000E+00  0.93800000000E+00  0.93800000000E+00 0.  1.
         11    1    1    2    0    0 -0.36076719957E+00 -0.21327900335E+00  0.33169541967E+00  0.53447452522E+00  0.51100000000E-03 0.  1.
    9000002    1    1    2    0    0 -0.18625154705E+00  0.42779763538E+00  0.46399768158E+00  0.11457915623E+01  0.93800000000E+00 0.  1.
         22    1    1    2    0    0  0.54701874662E+00 -0.21451863202E+00  0.32043068661E+01  0.32577339125E+01  0.00000000000E+00 0.  1.
</event>
<event>
 5    1  0.1173395E+001  0.1568410E+01  0.7818608E-02  0.3388380E+00
         11   -1    0    0    0    0  0.00000000000E+00  0.00000000000E+00  0.39999999674E+01  0.40000000000E+01  0.51100000000E-03 0. -1.
    9000002   -1    0    0    0    0 -0.00000000000E+00 -0.00000000000E+00  0.00000000000E+00  0.93800000000E+00  0.93800000000E+00 0. -1.
         11    1    1    2    0    0  0.17635141710E+00 -0.36337744515E-01  0.13214026018E+01  0.13336136439E+01  0.51100000000E-03 0. -1.
    9000002    1    1    2    0    0  0.71676953308E-01  0.73373600900E-01  0.30129974928E-01  0.94407260649E+00  0.93800000000E+00 0. -1.
         22    1    1    2    0    0 -0.24802837040E+00 -0.37035856385E-01  0.26484673906E+01  0.26603137496E+01  0.00000000000E+00 0. -1.
</event>
<event>
 5    1  0.1173395E+001  0.1171060E+01  0.7818608E-02  0.4062811E+00
         11   -1    0    0    0    0  0.00000000000E+00  0.00000000000E+00  0.39999999674E+01  0.40000000000E+01  0.51100000000E-03 0.  1.
    9000002   -1    0    0    0    0 -0.00000000000E+00 -0.00000000000E+00  0.00000000000E+00  0.93800000000E+00  0.93800000000E+00 0.  1.
         11    1    1    2    0    0  0.58472620823E+00 -0.34662671742E+00  0.37498261830E+00  0.77631633048E+00  0.51100000000E-03 0.  1.
    9000002    1    1    2    0    0  0.14079731550E-01  0.67746573345E+00  0.13108946596E+01  0.17485556518E+01  0.93800000000E+00 0.  1.
         22    1    1    2    0    0 -0.59880593978E+00 -0.33083901604E+00  0.23141226895E+01  0.24131280178E+01  0.00000000000E+00 0.  1.
</event>
<event>
 5    1  0.1173395E+001  0.1481256E+01  0.7818608E-02  0.3493268E+00
         11   -1    0    0    0    0  0.00000000000E+00  0.00000000000E+00  0.39999999674E+01  0.40000000000E+01  0.51100000000E-03 0. -1.
    9000002   -1    0    0    0    0 -0.00000000000E+00 -0.00000000000E+00  0.00000000000E+00  0.93800000000E+00  0.93800000000E+00 0. -1.
         11    1    1    2    0    0  0.31260800201E+00 -0.20132274950E+00  0.90691948233E+00  0.98018254470E+00  0.51100000000E-03 0. -1.
    9000002    1    1    2    0    0 -0.71458588686E-01  0.33326251281E-01  0.95809056457E-01  0.94617141376E+00  0.93800000000E+00 0. -1.
         22    1    1    2    0    0 -0.24114941333E+00  0.16799649821E+00  0.29972714286E+01  0.30116460415E+01  0.00000000000E+00 0. -1.
</event>
<event>
 5    1  0.1173395E+001  0.1530044E+01  0.7818608E-02  0.3432976E+00
         11   -1    0    0    0    0  0.00000000000E+00  0.00000000000E+00  0.39999999674E+01  0.40000000000E+01  0.51100000000E-03 0.  1.
    9000002   -1    0    0    0    0 -0.00000000000E+00 -0.00000000000E+00  0.00000000000E+00  0.93800000000E+00  0.93800000000E+00 0.  1.
         11    1    1    2    0    0  0.18346508667E+00  0.18945715567E+00  0.89697286820E+00  0.93494066083E+00  0.51100000000E-03 0.  1.
    9000002    1    1    2    0    0  0.20720294537E+00 -0.22824867959E+00  0.12036012307E+00  0.99466631567E+00  0.93800000000E+00 0.  1.
         22    1    1    2    0    0 -0.39066803203E+00  0.38791523918E-01  0.29826669761E+01  0.30083930235E+01  0.00000000000E+00 0.  1.
</event>
<event>
 5    1  0.1173395E+001  0.1532709E+01  0.7818608E-02  0.3429802E+00
         11   -1    0    0    0    0  0.00000000000E+00  0.00000000000E+00  0.39999999674E+01  0.40000000000E+01  0.51100000000E-03 0. -1.
    9000002   -1    0    0    0    0 -0.00000000000E+00 -0.00000000000E+00  0.00000000000E+00  0.93800000000E+00  0.93800000000E+00 0.  1.
         11    1    1    2    0    0  0.43005379239E-02  0.30798364470E+00  0.14568934281E+01  0.14890974253E+01  0.51100000000E-03 0. -1.
    9000002    1    1    2    0    0 -0.47476334299E-01 -0.20176842060E-01  0.52001840679E-01  0.94085562054E+00  0.93800000000E+00 0.  1.
         22    1    1    2    0    0  0.43175796375E-01 -0.28780680264E+00  0.24911046986E+01  0.25080469541E+01  0.00000000000E+00 0. -1.
</event>
<event>
 5    1  0.1173395E+001  0.1511091E+01  0.7818608E-02  0.3455901E+00
         11   -1    0    0    0    0  0.00000000000E+00  0.00000000000E+00  0.39999999674E+01  0.40000000000E+01  0.51100000000E-03 0. -1.
    9000002   -1    0    0    0    0 -0.00000000000E+00 -0.00000000000E+00  0.00000000000E+00  0.93800000000E+00  0.93800000000E+00 0. -1.
         11    1    1    2    0    0  0.48052527889E+00 -0.46415510290E+00  0.12702452808E+01  0.14352239678E+01  0.51100000000E-03 0. -1.
    9000002    1    1    2    0    0 -0.68067109860E+00  0.47482603797E+00  0.64567819791E+00  0.14090838322E+01  0.93800000000E+00 0. -1.
         22    1    1    2    0    0  0.20014581971E+00 -0.10670935077E-01  0.20840764887E+01  0.20936922001E+01  0.00000000000E+00 0. -1.
</event>
<event>
 5    1  0.1173395E+001  0.1112346E+01  0.7818608E-02  0.4218678E+00
         11   -1    0    0    0    0  0.00000000000E+00  0.00000000000E+00  0.39999999674E+01  0.40000000000E+01  0.51100000000E-03 0.  1.
    9000002   -1    0    0    0    0 -0.00000000000E+00 -0.00000000000E+00  0.00000000000E+00  0.93800000000E+00  0.93800000000E+00 0.  1.
         11    1    1    2    0    0  0.53910367743E-01 -0.45010485509E+00  0.71113807101E-01  0.45886614934E+00  0.51100000000E-03 0.  1.
    9000002    1    1    2    0    0 -0.18710866392E-01  0.13926084550E+00  0.57177991907E+00  0.11074836141E+01  0.93800000000E+00 0.  1.
         22    1    1    2    0    0 -0.35199501351E-01  0.31084400959E+00  0.33571062412E+01  0.33716502366E+01  0.00000000000E+00 0. -1.
</event>
<event>
 5    1  0.1173395E+001  0.1516170E+01  0.7818608E-02  0.3449697E+00
         11   -1    0    0    0    0  0.00000000000E+00  0.00000000000E+00  0.39999999674E+01  0.40000000000E+01  0.51100000000E-03 0. -1.
    9000002   -1    0    0    0    0 -0.00000000000E+00 -0.00000000000E+00  0.00000000000E+00  0.93800000000E+00  0.93800000000E+00 0. -1.
         11    1    1    2    0    0 -0.23809327500E+00 -0.22440531366E+00  0.11873363776E+01  0.12315900646E+01  0.51100000000E-03 0. -1.
    9000002    1    1    2    0    0  0.87631757822E-01 -0.53229279272E-01  0.70601856809E-01  0.94622476365E+00  0.93800000000E+00 0. -1.
         22    1    1    2    0    0  0.15046151718E+00  0.27763459293E+00  0.27420617329E+01  0.27601851718E+01  0.00000000000E+00 0. -1.
</event>
<event>
 5    1  0.1173395E+001  0.1449676E+01  0.7818608E-02  0.3534640E+00
         11   -1    0    0    0    0  0.00000000000E+00  0.00000000000E+00  0.39999999674E+01  0.40000000000E+01  0.51100000000E-03 0.  1.
    9000002   -1    0    0    0    0 -0.00000000000E+00 -0.00000000000E+00  0.00000000000E+00  0.93800000000E+00  0.93800000000E+00 0. -1.
         11    1    1    2    0    0  0.93905052390E-01  0.31615408417E+00  0.34921298701E+00  0.48033481575E+00  0.51100000000E-03 0.  1.
    9000002    1    1    2    0    0  0.20288013366E+00 -0.44015085623E+00  0.30853057319E+00  0.10999673811E+01  0.93800000000E+00 0. -1.
         22    1    1    2    0    0 -0.29678518605E+00  0.12399677206E+00  0.33422564072E+01  0.33576978032E+01  0.00000000000E+00 0.  1.
</event>
<event>
 5    1  0.1173395E+001  0.1593494E+01  0.7818608E-02  0.3360455E+00
         11   -1    0    0    0    0  0.00000000000E+00  0.00000000000E+00  0.39999999674E+01  0.40000000000E+01  0.51100000000E-03 0. -1.
    9000002   -1    0    0    0    0 -0.00000000000E+00 -0.00000000000E+00  0.00000000000E+00  0.93800000000E+00  0.93800000000E+00 0. -1.
         11    1    1    2    0    0  0.11072681666E-01 -0.47594636369E-01  0.13525352345E+01  0.13534177756E+01  0.51100000000E-03 0. -1.
    9000002    1    1    2    0    0  0.22891201946E+00  0.11350611032E+00  0.48137527501E-01  0.97336815814E+00  0.93800000000E+00 0. -1.
         22    1    1    2    0    0 -0.23998470113E+00 -0.65911473952E-01  0.25993272053E+01  0.26112140662E+01  0.00000000000E+00 0. -1.
</event>
<event>
 5    1  0.1173395E+001  0.1587031E+01  0.7818608E-02  0.3367561E+00
         11   -1    0    0    0    0  0.00000000000E+00  0.00000000000E+00  0.39999999674E+01  0.40000000000E+01  0.51100000000E-03 0. -1.
    9000002   -1    0    0    0    0 -0.00000000000E+00 -0.00000000000E+00  0.00000000000E+00  0.93800000000E+00  0.93800000000E+00 0. -1.
         11    1    1    2    0    0  0.20434093281E+00  0.13632454091E+00  0.89635623269E+00  0.92940537673E+00  0.51100000000E-03 0. -1.
    9000002    1    1    2    0    0 -0.45542429529E+00 -0.29566798905E+00  0.21532396745E+00  0.11050064522E+01  0.93800000000E+00 0. -1.
         22    1    1    2    0    0  0.25108336249E+00  0.15934344814E+00  0.28883197672E+01  0.29035881711E+01  0.00000000000E+00 0. -1.
</event>
<event>
 5    1  0.1173395E+001  0.1598524E+01  0.7818608E-02  0.3354967E+00
         11   -1    0    0    0    0  0.00000000000E+00  0.00000000000E+00  0.39999999674E+01  0.40000000000E+01  0.51100000000E-03 0. -1.
    9000002   -1    0    0    0    0 -0.00000000000E+00 -0.00000000000E+00  0.00000000000E+00  0.93800000000E+00  0.93800000000E+00 0. -1.
         11    1    1    2    0    0 -0.16929644654E+00 -0.39635319106E-01  0.14590779285E+01  0.14694015475E+01  0.51100000000E-03 0. -1.
    9000002    1    1    2    0    0  0.44121576077E+00  0.20855831616E+00  0.16374540526E+00  0.10699647081E+01  0.93800000000E+00 0. -1.
         22    1    1    2    0    0 -0.27191931423E+00 -0.16892299706E+00  0.23771766336E+01  0.23986337444E+01  0.00000000000E+00 0. -1.
</event>
<event>
 5    1  0.1173395E+001  0.1584877E+01  0.7818608E-02  0.3369943E+00
         11   -1    0    0    0    0  0.00000000000E+00  0.00000000000E+00  0.39999999674E+01  0.40000000000E+01  0.51100000000E-03 0.  1.
    9000002   -1    0    0    0    0 -0.00000000000E+00 -0.00000000000E+00  0.00000000000E+00  0.93800000000E+00  0.93800000000E+00 0. -1.
         11    1    1    2    0    0  0.76744959446E-01 -0.10724929558E+00  0.79047530736E+00  0.80140106868E+00  0.51100000000E-03 0.  1.
    9000002    1    1    2    0    0  0.17393794028E+00  0.34740243509E+00  0.11398628510E+00  0.10216553882E+01  0.93800000000E+00 0. -1.
         22    1    1    2    0    0 -0.25068289972E+00 -0.24015313951E+00  0.30955383749E+01  0.31149435432E+01  0.00000000000E+00 0.  1.
</event>
<event>
 5    1  0.1173395E+001  0.1540439E+01  0.7818608E-02  0.3420659E+00
         11   -1    0    0    0    0  0.00000000000E+00  0.00000000000E+00  0.39999999674E+01  0.40000000000E+01  0.51100000000E-03 0.  1.
    9000002   -1    0    0    0    0 -0.00000000000E+00 -0.00000000000E+00  0.00000000000E+00  0.93800000000E+00  0.93800000000E+00 0. -1.
         11    1    1    2    0    0 -0.29211703448E-02 -0.25392566824E+00  0.12743277512E+01  0.12993837989E+01  0.51100000000E-03 0.  1.
    9000002    1    1    2    0    0  0.57473085704E-01 -0.60853546562E-01  0.49058331972E-01  0.94300425749E+00  0.93800000000E+00 0. -1.
         22    1    1    2    0    0 -0.54551915360E-01  0.31477921480E+00  0.26766138842E+01  0.26956119436E+01  0.00000000000E+00 0.  1.
</event>
<event>
 5    1  0.1173395E+001  0.1493702E+01  0.7818608E-02  0.3477485E+00
         11   -1    0    0    0    0  0.00000000000E+00  0.00000000000E+00  0.39999999674E+01  0.40000000000E+01  0.51100000000E-03 0. -1.
    9000002   -1    0    0    0    0 -0.00000000000E+00 -0.00000000000E+00  0.00000000000E+00  0.93800000000E+00  0.93800000000E+00 0.  1.
         11    1    1    2    0    0  0.33780432645E+00  0.93127674329E-01  0.90399949746E+00  0.96953590920E+00  0.51100000000E-03 0. -1.
    9000002    1    1    2    0    0 -0.79963015698E-01  0.13774418179E-01  0.85859784361E-01  0.94540981645E+00  0.93800000000E+00 0.  1.
         22    1    1    2    0    0 -0.25784131076E+00 -0.10690209251E+00  0.30101406855E+01  0.30230542743E+01  0.00000000000E+00 0. -1.
</event>
<event>
 5    1  0.1173395E+001  0.1575242E+01  0.7818608E-02  0.3380681E+00
         11   -1    0    0    0    0  0.00000000000E+00  0.00000000000E+00  0.39999999674E+01  0.40000000000E+01  0.51100000000E-03 0.  1.
    9000002   -1    0    0    0    0 -0.00000000000E+00 -0.00000000000E+00  0.00000000000E+00  0.93800000000E+00  0.93800000000E+00 0. -1.
         11    1    1    2    0    0  0.15380603608E+00  0.29302863416E-01  0.14328414782E+01  0.14413708466E+01  0.51100000000E-03 0.  1.
    9000002    1    1    2    0    0 -0.36147603674E-01  0.23248978111E+00  0.55526946557E-01  0.96865132497E+00  0.93800000000E+00 0. -1.
         22    1    1    2    0    0 -0.11765843241E+00 -0.26179264453E+00  0.25116315426E+01  0.25279778285E+01  0.00000000000E+00 0.  1.
</event>
<event>
 5    1  0.1173395E+001  0.1571167E+01  0.7818608E-02  0.3385264E+00
         11   -1    0    0    0    0  0.00000000000E+00  0.00000000000E+00  0.39999999674E+01  0.40000000000E+01  0.51100000000E-03 0.  1.
    9000002   -1    0    0    0    0 -0.00000000000E+00 -0.00000000000E+00  0.00000000000E+00  0.93800000000E+00  0.93800000000E+00 0. -1.
         11    1    1    2    0    0  0.14505399434E+00  0.26448477277E-01  0.87818585916E+00  0.89047787596E+00  0.51100000000E-03 0.  1.
    9000002    1    1    2    0    0  0.10681792633E+00 -0.15996978307E+00  0.46104118710E-01  0.95862922480E+00  0.93800000000E+00 0. -1.
         22    1    1    2    0    0 -0.25187192067E+00  0.13352130579E+00  0.30757099895E+01  0.30888928992E+01  0.00000000000E+00 0.  1.
</event>
<event>
 5    1  0.1173395E+001  0.1511911E+01  0.7818608E-02  0.3454896E+00
         11   -1    0    0    0    0  0.00000000000E+00  0.00000000000E+00  0.39999999674E+01  0.40000000000E+01  0.51100000000E-03 0. -1.
    9000002   -1    0    0    0    0 -0.00000000000E+00 -0.00000000000E+00  0.00000000000E+00  0.93800000000E+00  0.93800000000E+00 0. -1.
         11    1    1    2    0    0 -0.20557388770E+00 -0.23949334278E+00  0.13445764594E+01  0.13811241077E+01  0.51100000000E-03 0. -1.
    9000002    1    1    2    0    0 -0.30166356722E+00  0.29058862886E+00  0.19679860943E+00  0.10459523659E+01  0.93800000000E+00 0. -1.
         22    1    1    2    0    0  0.50723745492E+00 -0.51095286085E-01  0.24586248985E+01  0.25109235264E+01  0.00000000000E+00 0. -1.
</event>
<event>
 5    1  0.1173395E+001  0.1707087E+01  0.7818608E-02  0.3244755E+00
         11   -1    0    0    0    0  0.00000000000E+00  0.00000000000E+00  0.39999999674E+01  0.40000000000E+01  0.51100000000E-03 0.  1.
    9000002   -1    0    0    0    0 -0.00000000000E+00 -0.00000000000E+00  0.00000000000E+00  0.93800000000E+00  0.93800000000E+00 0.  1.
         11    1    1    2    0    0  0.10525417204E+00  0.14498052803E+00 -0.10098642240E+00  0.20566067410E+00  0.51100000000E-03 0.  1.
    9000002    1    1    2    0    0  0.57168157302E-01  0.18797861280E+00  0.44326205468E+00  0.10559021764E+01  0.93800000000E+00 0.  1.
         22    1    1    2    0    0 -0.16242232934E+00 -0.33295914083E+00  0.36577243351E+01  0.36764371495E+01  0.00000000000E+00 0.  1.
</event>
<event>
 5    1  0.1173395E+001  0.1462846E+01  0.7818608E-02  0.3517150E+00
         11   -1    0    0    0    0  0.00000000000E+00  0.00000000000E+00  0.39999999674E+01  0.40000000000E+01  0.51100000000E-03 0.  1.
    9000002   -1    0    0    0    0 -0.00000000000E+00 -0.00000000000E+00  0.00000000000E+00  0.93800000000E+00  0.93800000000E+00 0. -1.
         11    1    1    2    0    0 -0.24993908629E+00 -0.45947930098E+00  0.13937151916E+01  0.14886346332E+01  0.51100000000E-03 0.  1.
    9000002    1    1    2    0    0  0.32519336442E+00  0.12968259399E+00  0.20197388511E+00  0.10213744415E+01  0.93800000000E+00 0. -1.
         22    1    1    2    0    0 -0.75254278127E-01  0.32979670698E+00  0.24043108907E+01  0.24279909253E+01  0.00000000000E+00 0.  1.
</event>
<event>
 5    1  0.1173395E+001  0.1509635E+01  0.7818608E-02  0.3457687E+00
         11   -1    0    0    0    0  0.00000000000E+00  0.00000000000E+00  0.39999999674E+01  0.40000000000E+01  0.51100000000E-03 0.  1.
    9000002   -1    0    0    0    0 -0.00000000000E+00 -0.00000000000E+00  0.00000000000E+00  0.93800000000E+00  0.93800000000E+00 0.  1.
         11    1    1    2    0    0 -0.28564470978E+00  0.14493860235E+00  0.12495216247E+01  0.12899242809E+01  0.51100000000E-03 0.  1.
    9000002    1    1    2    0    0 -0.20387214437E-01  0.71700875841E-01  0.72248675193E-01  0.94372693359E+00  0.93800000000E+00 0.  1.
         22    1    1    2    0    0  0.30603192422E+00 -0.21663947819E+00  0.26782296675E+01  0.27043487855E+01  0.00000000000E+00 0.  1.
</event>
<event>
 5    1  0.1173395E+001  0.1502218E+01  0.7818608E-02  0.3466847E+00
         11   -1    0    0    0    0  0.00000000000E+00  0.00000000000E+00  0.39999999674E+01  0.40000000000E+01  0.51100000000E-03 0. -1.
    9000002   -1    0    0    0    0 -0.00000000000E+00 -0.00000000000E+00  0.00000000000E+00  0.93800000000E+00  0.93800000000E+00 0. -1.
         11    1    1    2    0    0  0.79522033078E-01 -0.32586400808E+00  0.13895832926E+01  0.14294939992E+01  0.51100000000E-03 0. -1.
    9000002    1    1    2    0    0  0.31144434164E+00  0.56040371653E-01  0.14830634367E+00  0.10009879484E+01  0.93800000000E+00 0. -1.
         22    1    1    2    0    0 -0.39096637472E+00  0.26982363643E+00  0.24621103311E+01  0.25075180524E+01  0.00000000000E+00 0. -1.
</event>
<event>
 5    1  0.1173395E+001  0.1576257E+01  0.7818608E-02  0.3379543E+00
         11   -1    0    0    0    0  0.00000000000E+00  0.00000000000E+00  0.39999999674E+01  0.40000000000E+01  0.51100000000E-03 0. -1.
    9000002   -1    0    0    0    0 -0.00000000000E+00 -0.00000000000E+00  0.00000000000E+00  0.93800000000E+00  0.93800000000E+00 0. -1.
         11    1    1    2    0    0 -0.44150501806E+00 -0.21192997649E+00  0.42867804371E+00  0.65085030705E+00  0.51100000000E-03 0. -1.
    9000002    1    1    2    0    0  0.17457149664E+00  0.32927585314E+00  0.37374072420E+00  0.10763010377E+01  0.93800000000E+00 0. -1.
         22    1    1    2    0    0  0.26693352142E+00 -0.11734587665E+00  0.31975811995E+01  0.32108486552E+01  0.00000000000E+00 0. -1.
</event>
<event>
 5    1  0.1173395E+001  0.1141693E+01  0.7818608E-02  0.4138164E+00
         11   -1    0    0    0    0  0.00000000000E+00  0.00000000000E+00  0.39999999674E+01  0.40000000000E+01  0.51100000000E-03 0.  1.
    9000002   -1    0    0    0    0 -0.00000000000E+00 -0.00000000000E+00  0.00000000000E+00  0.93800000000E+00  0.93800000000E+00 0.  1.
         11    1    1    2    0    0  0.61268303867E+00 -0.58222649360E+00  0.62483685564E+00  0.10510896979E+01  0.51100000000E-03 0.  1.
    9000002    1    1    2    0    0 -0.39255778579E+00  0.35815390222E+00  0.93626932368E+00  0.14278725711E+01  0.93800000000E+00 0.  1.
         22    1    1    2    0    0 -0.22012525288E+00  0.22407259138E+00  0.24388937880E+01  0.24590377310E+01  0.00000000000E+00 0.  1.
</event>
<event>
 5    1  0.1173395E+001  0.1528480E+01  0.7818608E-02  0.3434845E+00
         11   -1    0    0    0    0  0.00000000000E+00  0.00000000000E+00  0.39999999674E+01  0.40000000000E+01  0.51100000000E-03 0.  1.
    9000002   -1    0    0    0    0 -0.00000000000E+00 -0.00000000000E+00  0.00000000000E+00  0.93800000000E+00  0.93800000000E+00 0.  1.
         11    1    1    2    0    0 -0.51438436731E-01 -0.24070181768E+00  0.12537653906E+01  0.12776976143E+01  0.51100000000E-03 0.  1.
    9000002    1    1    2    0    0  0.33533067106E-01 -0.17520993493E+00  0.76022821681E-01  0.95783425357E+00  0.93800000000E+00 0.  1.
         22    1    1    2    0    0  0.17905369625E-01  0.41591175261E+00  0.26702117551E+01  0.27024681321E+01  0.00000000000E+00 0.  1.
</event>
<event>
 5    1  0.1173395E+001  0.1535930E+01  0.7818608E-02  0.3425980E+00
         11   -1    0    0    0    0  0.00000000000E+00  0.00000000000E+00  0.39999999674E+01  0.40000000000E+01  0.51100000000E-03 0. -1.
    9000002   -1    0    0    0    0 -0.00000000000E+00 -0.00000000000E+00  0.00000000000E+00  0.93800000000E+00  0.93800000000E+00 0. -1.
         11    1    1    2    0    0 -0.31526189864E+00 -0.28423185620E+00  0.78561550003E+00  0.89295564718E+00  0.51100000000E-03 0. -1.
    9000002    1    1    2    0    0  0.68258951176E+00  0.33124398412E+00  0.50070974855E+00  0.13062179263E+01  0.93800000000E+00 0. -1.
         22    1    1    2    0    0 -0.36732761312E+00 -0.47012127924E-01  0.27136747188E+01  0.27388264266E+01  0.00000000000E+00 0. -1.
</event>
<event>
 5    1  0.1173395E+001  0.1526003E+01  0.7818608E-02  0.3437813E+00
         11   -1    0    0    0    0  0.00000000000E+00  0.00000000000E+00  0.39999999674E+01  0.40000000000E+01  0.51100000000E-03 0. -1.
    9000002   -1    0    0    0    0 -0.00000000000E+00 -0.00000000000E+00  0.00000000000E+00  0.93800000000E+00  0.93800000000E+00 0. -1.
         11    1    1    2    0    0 -0.10725373589E+00  0.29438291795E+00  0.12766456172E+01  0.13145299386E+01  0.51100000000E-03 0. -1.
    9000002    1    1    2    0    0 -0.43529482573E-01 -0.40511030187E-01  0.57850673416E-01  0.94166164828E+00  0.93800000000E+00 0. -1.
         22    1    1    2    0    0  0.15078321846E+00 -0.25387188777E+00  0.26655036767E+01  0.26818084132E+01  0.00000000000E+00 0. -1.
</event>
<event>
 5    1  0.1173395E+001  0.1555457E+01  0.7818608E-02  0.3403174E+00
         11   -1    0    0    0    0  0.00000000000E+00  0.00000000000E+00  0.39999999674E+01  0.40000000000E+01  0.51100000000E-03 0.  1.
    9000002   -1    0    0    0    0 -0.00000000000E+00 -0.00000000000E+00  0.00000000000E+00  0.93800000000E+00  0.93800000000E+00 0. -1.
         11    1    1    2    0    0  0.23052039721E+00  0.70084730387E-01  0.13307333206E+01  0.13523693854E+01  0.51100000000E-03 0.  1.
    9000002    1    1    2    0    0 -0.12514026935E+00  0.23170385897E+00  0.80918913792E-01  0.97761886023E+00  0.93800000000E+00 0. -1.
         22    1    1    2    0    0 -0.10538012786E+00 -0.30178858936E+00  0.25883477330E+01  0.26080117544E+01  0.00000000000E+00 0.  1.
</event>
<event>
 5    1  0.1173395E+001  0.1469612E+01  0.7818608E-02  0.3508298E+00
         11   -1    0    0    0    0  0.00000000000E+00  0.00000000000E+00  0.39999999674E+01  0.40000000000E+01  0.51100000000E-03 0. -1.
    9000002   -1    0    0    0    0 -0.00000000000E+00 -0.00000000000E+00  0.00000000000E+00  0.93800000000E+00  0.93800000000E+00 0. -1.
         11    1    1    2    0    0  0.41477652034E+00 -0.49596148852E-01  0.11932724538E+01  0.12642779560E+01  0.51100000000E-03 0. -1.
    9000002    1    1    2    0    0 -0.51274581117E-01 -0.75492047104E-03  0.10280343103E+00  0.94500909943E+00  0.93800000000E+00 0. -1.
         22    1    1    2    0    0 -0.36350193923E+00  0.50351069323E-01  0.27039240825E+01  0.27287129446E+01  0.00000000000E+00 0. -1.
</event>
<event>
 5    1  0.1173395E+001  0.1536557E+01  0.7818608E-02  0.3425238E+00
         11   -1    0    0    0    0  0.00000000000E+00  0.00000000000E+00  0.39999999674E+01  0.40000000000E+01  0.51100000000E-03 0. -1.
    9000002   -1    0    0    0    0 -0.00000000000E+00 -0.00000000000E+00  0.00000000000E+00  0.93800000000E+00  0.93800000000E+00 0. -1.
         11    1    1    2    0    0 -0.14114607570E+00  0.26218904922E+00  0.13149947479E+01  0.13482866017E+01  0.51100000000E-03 0. -1.
    9000002    1    1    2    0    0 -0.23671271968E-01 -0.56199600341E-01  0.49760162869E-01  0.94129633910E+00  0.93800000000E+00 0. -1.
         22    1    1    2    0    0  0.16481734766E+00 -0.20598944888E+00  0.26352450565E+01  0.26484170592E+01  0.00000000000E+00 0.  1.
</event>
<event>
 5    1  0.1173395E+001  0.1538254E+01  0.7818608E-02  0.3423234E+00
         11   -1    0    0    0    0  0.00000000000E+00  0.00000000000E+00  0.39999999674E+01  0.40000000000E+01  0.51100000000E-03 0. -1.
    9000002   -1    0    0    0    0 -0.00000000000E+00 -0.00000000000E+00  0.00000000000E+00  0.93800000000E+00  0.93800000000E+00 0.  1.
         11    1    1    2    0    0 -0.46883427055E+00 -0.16303843868E+00  0.57355157618E+00  0.75851748654E+00  0.51100000000E-03 0. -1.
    9000002    1    1    2    0    0  0.16428809564E+00  0.33849025222E+00  0.33001441948E+00  0.10631649666E+01  0.93800000000E+00 0.  1.
         22    1    1    2    0    0  0.30454617490E+00 -0.17545181354E+00  0.30964339717E+01  0.31163175468E+01  0.00000000000E+00 0. -1.
</event>
<event>
 5    1  0.1173395E+001  0.1492520E+01  0.7818608E-02  0.3478972E+00
         11   -1    0    0    0    0  0.00000000000E+00  0.00000000000E+00  0.39999999674E+01  0.40000000000E+01  0.51100000000E-03 0. -1.
    9000002   -1    0    0    0    0 -0.00000000000E+00 -0.00000000000E+00  0.00000000000E+00  0.93800000000E+00  0.93800000000E+00 0. -1.
         11    1    1    2    0    0  0.39204408805E+00  0.32400228523E+00  0.88739092144E+00  0.10228093451E+01  0.51100000000E-03 0. -1.
    9000002    1    1    2    0    0 -0.18773281919E+00 -0.86127188837E-01  0.19410438511E+00  0.97988877755E+00  0.93800000000E+00 0. -1.
         22    1    1    2    0    0 -0.20431126886E+00 -0.23787509639E+00  0.29185046608E+01  0.29353018774E+01  0.00000000000E+00 0. -1.
</event>
<event>
 5    1  0.1173395E+001  0.1336776E+01  0.7818608E-02  0.3713908E+00
         11   -1    0    0    0    0  0.00000000000E+00  0.00000000000E+00  0.39999999674E+01  0.40000000000E+01  0.51100000000E-03 0. -1.
    9000002   -1    0    0    0    0 -0.00000000000E+00 -0.00000000000E+00  0.00000000000E+00  0.93800000000E+00  0.93800000000E+00 0. -1.
         11    1    1    2    0    0 -0.73581171512E+00 -0.71514464196E+00  0.95873077289E+00  0.14042847628E+01  0.51100000000E-03 0. -1.
    9000002    1    1    2    0    0  0.77717493518E+00  0.53102077733E+00  0.15987342047E+01  0.20788888867E+01  0.93800000000E+00 0. -1.
         22    1    1    2    0    0 -0.41363220063E-01  0.18412386463E+00  0.14425349898E+01  0.14548263505E+01  0.00000000000E+00 0. -1.
</event>
<event>
 5    1  0.1173395E+001  0.1541683E+01  0.7818608E-02  0.3419197E+00
         11   -1    0    0    0    0  0.00000000000E+00  0.00000000000E+00  0.39999999674E+01  0.40000000000E+01  0.51100000000E-03 0.  1.
    9000002   -1    0    0    0    0 -0.00000000000E+00 -0.00000000000E+00  0.00000000000E+00  0.93800000000E+00  0.93800000000E+00 0.  1.
         11    1    1    2    0    0  0.16598966197E+00  0.14174621507E+00  0.12225147695E+01  0.12418482919E+01  0.51100000000E-03 0.  1.
    9000002    1    1    2    0    0  0.54003972660E-01  0.17571109144E+00  0.66892797674E-01  0.95818028737E+00  0.93800000000E+00 0.  1.
         22    1    1    2    0    0 -0.21999363463E+00 -0.31745730650E+00  0.27105924002E+01  0.27379714207E+01  0.00000000000E+00 0.  1.
</event>
<event>
 5    1  0.1173395E+001  0.1460701E+01  0.7818608E-02  0.3519975E+00
         11   -1    0    0    0    0  0.00000000000E+00  0.00000000000E+00  0.39999999674E+01  0.40000000000E+01  0.51100000000E-03 0.  1.
    9000002   -1    0    0    0    0 -0.00000000000E+00 -0.00000000000E+00  0.00000000000E+00  0.93800000000E+00  0.93800000000E+00 0. -1.
         11    1    1    2    0    0  0.14232724856E+00  0.23588264061E+00  0.42886545877E+00  0.50972885799E+00  0.51100000000E-03 0.  1.
    9000002    1    1    2    0    0  0.14685795923E+00  0.61349895455E-01  0.12768100992E+00  0.95993620109E+00  0.93800000000E+00 0. -1.
         22    1    1    2    0    0 -0.28918520779E+00 -0.29723253607E+00  0.34434534987E+01  0.34683349409E+01  0.00000000000E+00 0.  1.
</event>
<event>
 5    1  0.1173395E+001  0.1552128E+01  0.7818608E-02  0.3407020E+00
         11   -1    0    0    0    0  0.00000000000E+00  0.00000000000E+00  0.39999999674E+01  0.40000000000E+01  0.51100000000E-03 0.  1.
    9000002   -1    0    0    0    0 -0.00000000000E+00 -0.00000000000E+00  0.00000000000E+00  0.93800000000E+00  0.93800000000E+00 0. -1.
         11    1    1    2    0    0 -0.12488780758E-01 -0.19024841227E+00  0.77485068809E+00  0.79796257930E+00  0.51100000000E-03 0.  1.
    9000002    1    1    2    0    0 -0.15925616061E+00 -0.72245341359E-01  0.56430308083E-01  0.95582963634E+00  0.93800000000E+00 0. -1.
         22    1    1    2    0    0  0.17174494136E+00  0.26249375363E+00  0.31687189712E+01  0.31842077844E+01  0.00000000000E+00 0.  1.
</event>
<event>
 5    1  0.1173395E+001  0.1308875E+01  0.7818608E-02  0.3765094E+00
         11   -1    0    0    0    0  0.00000000000E+00  0.00000000000E+00  0.39999999674E+01  0.40000000000E+01  0.51100000000E-03 0. -1.
    9000002   -1    0    0    0    0 -0.00000000000E+00 -0.00000000000E+00  0.00000000000E+00  0.93800000000E+00  0.93800000000E+00 0. -1.
         11    1    1    2    0    0  0.57243548462E+00 -0.13519779880E+00  0.63618303710E+00  0.86642365311E+00  0.51100000000E-03 0. -1.
    9000002    1    1    2    0    0 -0.29665799318E+00  0.23138286987E+00  0.38972503825E+00  0.10831775491E+01  0.93800000000E+00 0. -1.
         22    1    1    2    0    0 -0.27577749144E+00 -0.96185071072E-01  0.29740918920E+01  0.29883987978E+01  0.00000000000E+00 0.  1.
</event>
<event>
 5    1  0.1173395E+001  0.1357031E+01  0.7818608E-02  0.3678325E+00
         11   -1    0    0    0    0  0.00000000000E+00  0.00000000000E+00  0.39999999674E+01  0.40000000000E+01  0.51100000000E-03 0. -1.
    9000002   -1    0    0    0    0 -0.00000000000E+00 -0.00000000000E+00  0.00000000000E+00  0.93800000000E+00  0.93800000000E+00 0. -1.
         11    1    1    2    0    0 -0.24478865019E+00  0.78291147742E+00  0.12441439486E+01  0.14902235707E+01  0.51100000000E-03 0. -1.
    9000002    1    1    2    0    0  0.65214105993E+00 -0.47011091123E+00  0.91692045856E+00  0.15384665607E+01  0.93800000000E+00 0. -1.
         22    1    1    2    0    0 -0.40735240975E+00 -0.31280056619E+00  0.18389355602E+01  0.19093098686E+01  0.00000000000E+00 0.  1.
</event>
<event>
 5    1  0.1173395E+001  0.1546145E+01  0.7818608E-02  0.3413974E+00
         11   -1    0    0    0    0  0.00000000000E+00  0.00000000000E+00  0.39999999674E+01  0.40000000000E+01  0.51100000000E-03 0.  1.
    9000002   -1    0    0    0    0 -0.00000000000E+00 -0.00000000000E+00  0.00000000000E+00  0.93800000000E+00  0.93800000000E+00 0.  1.
         11    1    1    2    0    0 -0.33749376279E-01 -0.20771913915E+00  0.83567246450E+00  0.86176272269E+00  0.51100000000E-03 0.  1.
    9000002    1    1    2    0    0 -0.61553789720E-01 -0.73010998322E-01  0.46128245195E-01  0.94397631851E+00  0.93800000000E+00 0.  1.
         22    1    1    2    0    0  0.95303166000E-01  0.28073013747E+00  0.31181992577E+01  0.31322609588E+01  0.00000000000E+00 0.  1.
</event>
<event>
 5    1  0.1173395E+001  0.1579046E+01  0.7818608E-02  0.3376425E+00
         11   -1    0    0    0    0  0.00000000000E+00  0.00000000000E+00  0.39999999674E+01  0.40000000000E+01  0.51100000000E-03 0. -1.
    9000002   -1    0    0    0    0 -0.00000000000E+00 -0.00000000000E+00  0.00000000000E+00  0.93800000000E+00  0.93800000000E+00 0.  1.
         11    1    1    2    0    0 -0.96545467351E-01  0.85158411744E-01  0.13682278557E+01  0.13742709735E+01  0.51100000000E-03 0. -1.
    9000002    1    1    2    0    0 -0.17283230462E+00 -0.98916894447E-01  0.41869916418E-01  0.95981907015E+00  0.93800000000E+00 0.  1.
         22    1    1    2    0    0  0.26937777197E+00  0.13758482702E-01  0.25899021952E+01  0.26039099564E+01  0.00000000000E+00 0. -1.
</event>
<event>
 5    1  0.1173395E+001  0.1555994E+01  0.7818608E-02  0.3402556E+00
         11   -1    0    0    0    0  0.00000000000E+00  0.00000000000E+00  0.39999999674E+01  0.40000000000E+01  0.51100000000E-03 0. -1.
    9000002   -1    0    0    0    0 -0.00000000000E+00 -0.00000000000E+00  0.00000000000E+00  0.93800000000E+00  0.93800000000E+00 0. -1.
         11    1    1    2    0    0 -0.18905236616E+00 -0.99893930432E-01  0.10012434305E+01  0.10238204251E+01  0.51100000000E-03 0. -1.
    9000002    1    1    2    0    0 -0.80099555355E-01  0.13767171031E+00  0.49805003352E-01  0.95272975022E+00  0.93800000000E+00 0. -1.
         22    1    1    2    0    0  0.26915192151E+00 -0.37777779876E-01  0.29489515335E+01  0.29614498247E+01  0.00000000000E+00 0. -1.
</event>
<event>
 5    1  0.1173395E+001  0.1451481E+01  0.7818608E-02  0.3532222E+00
         11   -1    0    0    0    0  0.00000000000E+00  0.00000000000E+00  0.39999999674E+01  0.40000000000E+01  0.51100000000E-03 0.  1.
    9000002   -1    0    0    0    0 -0.00000000000E+00 -0.00000000000E+00  0.00000000000E+00  0.93800000000E+00  0.93800000000E+00 0. -1.
         11    1    1    2    0    0  0.14885771386E+00 -0.33030755179E+00  0.75023114321E+00  0.83313187858E+00  0.51100000000E-03 0.  1.
    9000002    1    1    2    0    0  0.13108095123E+00  0.12627101217E-01  0.12951098690E+00  0.95601190118E+00  0.93800000000E+00 0. -1.
         22    1    1    2    0    0 -0.27993866508E+00  0.31768045057E+00  0.31202578372E+01  0.31488562202E+01  0.00000000000E+00 0.  1.
</event>
<event>
 5    1  0.1173395E+001  0.1451120E+01  0.7818608E-02  0.3532704E+00
         11   -1    0    0    0    0  0.00000000000E+00  0.00000000000E+00  0.39999999674E+01  0.40000000000E+01  0.51100000000E-03 0. -1.
    9000002   -1    0    0    0    0 -0.00000000000E+00 -0.00000000000E+00  0.00000000000E+00  0.93800000000E+00  0.93800000000E+00 0. -1.
         11    1    1    2    0    0  0.18904049166E+00 -0.30601553798E+00  0.58240260071E+00  0.68452528617E+00  0.51100000000E-03 0. -1.
    9000002    1    1    2    0    0  0.21348580391E+00  0.27533751440E+00  0.21234275081E+00  0.10228980297E+01  0.93800000000E+00 0. -1.
         22    1    1    2    0    0 -0.40252629557E+00  0.30678023580E-01  0.32052546158E+01  0.32305766841E+01  0.00000000000E+00 0. -1.
</event>
<event>
 5    1  0.1173395E+001  0.1049108E+01  0.7818608E-02  0.4412862E+00
         11   -1    0    0    0    0  0.00000000000E+00  0.00000000000E+00  0.39999999674E+01  0.40000000000E+01  0.51100000000E-03 0.  1.
    9000002   -1    0    0    0    0 -0.00000000000E+00 -0.00000000000E+00  0.00000000000E+00  0.93800000000E+00  0.93800000000E+00 0.  1.
         11    1    1    2    0    0  0.22576559849E+00 -0.43041782811E+00 -0.16536615103E-01  0.48631608341E+00  0.51100000000E-03 0.  1.
    9000002    1    1    2    0    0 -0.86926597842E-01  0.12245134326E+00  0.87336591842E+00  0.12904117918E+01  0.93800000000E+00 0. -1.
         22    1    1    2    0    0 -0.13883900065E+00  0.30796648485E+00  0.31431706640E+01  0.31612721248E+01  0.00000000000E+00 0. -1.
</event>
<event>
 5    1  0.1173395E+001  0.1532999E+01  0.7818608E-02  0.3429457E+00
         11   -1    0    0    0    0  0.00000000000E+00  0.00000000000E+00  0.39999999674E+01  0.40000000000E+01  0.51100000000E-03 0. -1.
    9000002   -1    0    0    0    0 -0.00000000000E+00 -0.00000000000E+00  0.00000000000E+00  0.93800000000E+00  0.93800000000E+00 0.  1.
         11    1    1    2    0    0  0.38290125321E-01 -0.23974920668E+00  0.74609271239E+00  0.78460207265E+00  0.51100000000E-03 0. -1.
    9000002    1    1    2    0    0 -0.25015141773E+00 -0.30953948685E-01  0.95077072756E-01  0.97591881245E+00  0.93800000000E+00 0.  1.
         22    1    1    2    0    0  0.21186129241E+00  0.27070315537E+00  0.31588301822E+01  0.31774791149E+01  0.00000000000E+00 0. -1.
</event>
<event>
 5    1  0.1173395E+001  0.1566006E+01  0.7818608E-02  0.3391106E+00
         11   -1    0    0    0    0  0.00000000000E+00  0.00000000000E+00  0.39999999674E+01  0.40000000000E+01  0.51100000000E-03 0.  1.
    9000002   -1    0    0    0    0 -0.00000000000E+00 -0.00000000000E+00  0.00000000000E+00  0.93800000000E+00  0.93800000000E+00 0. -1.
         11    1    1    2    0    0  0.35814525040E-01  0.55565714380E-02  0.12131464972E+01  0.12136878678E+01  0.51100000000E-03 0.  1.
    9000002    1    1    2    0    0  0.51405890319E+00 -0.16977223697E+00  0.23433380068E+00  0.11080773883E+01  0.93800000000E+00 0. -1.
         22    1    1    2    0    0 -0.54987342823E+00  0.16421566553E+00  0.25525196695E+01  0.26162347439E+01  0.00000000000E+00 0.  1.
</event>
<event>
 5    1  0.1173395E+001  0.1547338E+01  0.7818608E-02  0.3412582E+00
         11   -1    0    0    0    0  0.00000000000E+00  0.00000000000E+00  0.39999999674E+01  0.40000000000E+01  0.51100000000E-03 0.  1.
    9000002   -1    0    0    0    0 -0.00000000000E+00 -0.00000000000E+00  0.00000000000E+00  0.93800000000E+00  0.93800000000E+00 0.  1.
         11    1    1    2    0    0  0.14666465007E+00 -0.15581313955E+00  0.83456187604E+00  0.86155791453E+00  0.51100000000E-03 0.  1.
    9000002    1    1    2    0    0  0.16933506377E+00  0.10833168679E+00  0.67071108580E-01  0.96164060427E+00  0.93800000000E+00 0.  1.
         22    1    1    2    0    0 -0.31599971383E+00  0.47481452758E-01  0.30983669827E+01  0.31148014812E+01  0.00000000000E+00 0.  1.
</event>
<event>
 5    1  0.1173395E+001  0.1519099E+01  0.7818608E-02  0.3446140E+00
         11   -1    0    0    0    0  0.00000000000E+00  0.00000000000E+00  0.39999999674E+01  0.40000000000E+01  0.51100000000E-03 0. -1.
    9000002   -1    0    0    0    0 -0.00000000000E+00 -0.00000000000E+00  0.00000000000E+00  0.93800000000E+00  0.93800000000E+00 0. -1.
         11    1    1    2    0    0  0.28410073823E+00  0.25942657705E+00  0.40684997450E+00  0.55994869516E+00  0.51100000000E-03 0. -1.
    9000002    1    1    2    0    0  0.10787369910E-01 -0.12725562745E+00  0.19747195857E+00  0.96703130068E+00  0.93800000000E+00 0. -1.
         22    1    1    2    0    0 -0.29488810814E+00 -0.13217094960E+00  0.33956780343E+01  0.34110200042E+01  0.00000000000E+00 0. -1.
</event>
<event>
 5    1  0.1173395E+001  0.1448588E+01  0.7818608E-02  0.3536099E+00
         11   -1    0    0    0    0  0.00000000000E+00  0.00000000000E+00  0.39999999674E+01  0.40000000000E+01  0.51100000000E-03 0. -1.
    9000002   -1    0    0    0    0 -0.00000000000E+00 -0.00000000000E+00  0.00000000000E+00  0.93800000000E+00  0.93800000000E+00 0. -1.
         11    1    1    2    0    0 -0.14767810032E+00 -0.53296006108E+00  0.11816914091E+01  0.13047030679E+01  0.51100000000E-03 0. -1.
    9000002    1    1    2    0    0 -0.15777915262E+00  0.43061796492E+00  0.28874417874E+00  0.10833020324E+01  0.93800000000E+00 0. -1.
         22    1    1    2    0    0  0.30545725294E+00  0.10234209615E+00  0.25295643796E+01  0.25499948997E+01  0.00000000000E+00 0. -1.
</event>
<event>
 5    1  0.1173395E+001  0.1559515E+01  0.7818608E-02  0.3398512E+00
         11   -1    0    0    0    0  0.00000000000E+00  0.00000000000E+00  0.39999999674E+01  0.40000000000E+01  0.51100000000E-03 0. -1.
    9000002   -1    0    0    0    0 -0.00000000000E+00 -0.00000000000E+00  0.00000000000E+00  0.93800000000E+00  0.93800000000E+00 0. -1.
         11    1    1    2    0    0  0.75198638836E-01  0.23856173588E+00  0.14608024469E+01  0.14820629497E+01  0.51100000000E-03 0. -1.
    9000002    1    1    2    0    0  0.28652732003E+00 -0.24769282233E+00  0.13020958602E+00  0.10199255736E+01  0.93800000000E+00 0. -1.
         22    1    1    2    0    0 -0.36172595887E+00  0.91310864413E-02  0.24089879345E+01  0.24360114767E+01  0.00000000000E+00 0. -1.
</event>
<event>
 5    1  0.1173395E+001  0.1515543E+01  0.7818608E-02  0.3450461E+00
         11   -1    0    0    0    0  0.00000000000E+00  0.00000000000E+00  0.39999999674E+01  0.40000000000E+01  0.51100000000E-03 0. -1.
    9000002   -1    0    0    0    0 -0.00000000000E+00 -0.00000000000E+00  0.00000000000E+00  0.93800000000E+00  0.93800000000E+00 0. -1.
         11    1    1    2    0    0  0.19665987797E+00 -0.98433200120E-01  0.74970319232E+00  0.78129337651E+00  0.51100000000E-03 0. -1.
    9000002    1    1    2    0    0  0.32111552065E+00  0.67740953542E-02  0.13885052539E+00  0.10011416155E+01  0.93800000000E+00 0. -1.
         22    1    1    2    0    0 -0.51777539862E+00  0.91659104766E-01  0.31114462497E+01  0.31555650079E+01  0.00000000000E+00 0. -1.
</event>
<event>
 5    1  0.1173395E+001  0.1591750E+01  0.7818608E-02  0.3362366E+00
         11   -1    0    0    0    0  0.00000000000E+00  0.00000000000E+00  0.39999999674E+01  0.40000000000E+01  0.51100000000E-03 0. -1.
    9000002   -1    0    0    0    0 -0.00000000000E+00 -0.00000000000E+00  0.00000000000E+00  0.93800000000E+00  0.93800000000E+00 0. -1.
         11    1    1    2    0    0 -0.11391954748E+00 -0.23649104750E+00  0.10342301835E+01  0.10670229672E+01  0.51100000000E-03 0. -1.
    9000002    1    1    2    0    0  0.31575385630E+00  0.51558517396E+00  0.26324272961E+00  0.11465902948E+01  0.93800000000E+00 0. -1.
         22    1    1    2    0    0 -0.20183430882E+00 -0.27909412646E+00  0.27025270542E+01  0.27243867380E+01  0.00000000000E+00 0. -1.
</event>
<event>
 5    1  0.1173395E+001  0.1571188E+01  0.7818608E-02  0.3385241E+00
         11   -1    0    0    0    0  0.00000000000E+00  0.00000000000E+00  0.39999999674E+01  0.40000000000E+01  0.51100000000E-03 0. -1.
    9000002   -1    0    0    0    0 -0.00000000000E+00 -0.00000000000E+00  0.00000000000E+00  0.93800000000E+00  0.93800000000E+00 0. -1.
         11    1    1    2    0    0 -0.12044969013E+00  0.91007814265E-01  0.14900192137E+01  0.14976475114E+01  0.51100000000E-03 0. -1.
    9000002    1    1    2    0    0 -0.63105663106E-01  0.11403865674E+00  0.32432901520E-01  0.94756690162E+00  0.93800000000E+00 0. -1.
         22    1    1    2    0    0  0.18355535323E+00 -0.20504647100E+00  0.24775478521E+01  0.24927855870E+01  0.00000000000E+00 0.  1.
</event>
<event>
 5    1  0.1173395E+001  0.1463296E+01  0.7818608E-02  0.3516558E+00
         11   -1    0    0    0    0  0.00000000000E+00  0.00000000000E+00  0.39999999674E+01  0.40000000000E+01  0.51100000000E-03 0.  1.
    9000002   -1    0    0    0    0 -0.00000000000E+00 -0.00000000000E+00  0.00000000000E+00  0.93800000000E+00  0.93800000000E+00 0. -1.
         11    1    1    2    0    0 -0.40673996697E+00  0.32152947910E+00  0.11385704426E+01  0.12510641552E+01  0.51100000000E-03 0.  1.
    9000002    1    1    2    0    0  0.17968662601E+00 -0.11156677168E+00  0.16837191041E+00  0.97618006962E+00  0.93800000000E+00 0. -1.
         22    1    1    2    0    0  0.22705334096E+00 -0.20996270743E+00  0.26930576144E+01  0.27107557752E+01  0.00000000000E+00 0.  1.
</event>
<event>
 5    1  0.1173395E+001  0.1593818E+01  0.7818608E-02  0.3360101E+00
         11   -1    0    0    0    0  0.00000000000E+00  0.00000000000E+00  0.39999999674E+01  0.40000000000E+01  0.51100000000E-03 0.  1.
    9000002   -1    0    0    0    0 -0.00000000000E+00 -0.00000000000E+00  0.00000000000E+00  0.93800000000E+00  0.93800000000E+00 0. -1.
         11    1    1    2    0    0  0.58265076165E-01  0.16281849111E-02  0.39826563376E+00  0.40250869089E+00  0.51100000000E-03 0.  1.
    9000002    1    1    2    0    0 -0.12773130550E+00 -0.33577204192E+00  0.91384343037E-01  0.10085897326E+01  0.93800000000E+00 0. -1.
         22    1    1    2    0    0  0.69466229340E-01  0.33414385701E+00  0.35103499906E+01  0.35269015765E+01  0.00000000000E+00 0.  1.
</event>
<event>
 5    1  0.1173395E+001  0.1588228E+01  0.7818608E-02  0.3366240E+00
         11   -1    0    0    0    0  0.00000000000E+00  0.00000000000E+00  0.39999999674E+01  0.40000000000E+01  0.51100000000E-03 0.  1.
    9000002   -1    0    0    0    0 -0.00000000000E+00 -0.00000000000E+00  0.00000000000E+00  0.93800000000E+00  0.93800000000E+00 0. -1.
         11    1    1    2    0    0  0.54787226926E-01 -0.14363869484E-01  0.75727458394E+00  0.75938989826E+00  0.51100000000E-03 0.  1.
    9000002    1    1    2    0    0  0.21680230721E+00 -0.89395941732E-01  0.45233968922E-01  0.96792819297E+00  0.93800000000E+00 0. -1.
         22    1    1    2    0    0 -0.27158953413E+00  0.10375981122E+00  0.31974914145E+01  0.32106819088E+01  0.00000000000E+00 0.  1.
</event>
<event>
 5    1  0.1173395E+001  0.1563312E+01  0.7818608E-02  0.3394172E+00
         11   -1    0    0    0    0  0.00000000000E+00  0.00000000000E+00  0.39999999674E+01  0.40000000000E+01  0.51100000000E-03 0.  1.
    9000002   -1    0    0    0    0 -0.00000000000E+00 -0.00000000000E+00  0.00000000000E+00  0.93800000000E+00  0.93800000000E+00 0. -1.
         11    1    1    2    0    0 -0.45801805628E-01 -0.11281463656E+00  0.14594634629E+01  0.14645336487E+01  0.51100000000E-03 0.  1.
    9000002    1    1    2    0    0  0.54122962154E-01 -0.28906290169E+00  0.86602387597E-01  0.98682857159E+00  0.93800000000E+00 0. -1.
         22    1    1    2    0    0 -0.83211565262E-02  0.40187753825E+00  0.24539341169E+01  0.24866377797E+01  0.00000000000E+00 0.  1.
</event>
<event>
 5    1  0.1173395E+001  0.1526982E+01  0.7818608E-02  0.3436638E+00
         11   -1    0    0    0    0  0.00000000000E+00  0.00000000000E+00  0.39999999674E+01  0.40000000000E+01  0.51100000000E-03 0. -1.
    9000002   -1    0    0    0    0 -0.00000000000E+00 -0.00000000000E+00  0.00000000000E+00  0.93800000000E+00  0.93800000000E+00 0.  1.
         11    1    1    2    0    0 -0.14834597505E-01  0.26171037468E+00  0.90977409442E+00  0.94678484858E+00  0.51100000000E-03 0. -1.
    9000002    1    1    2    0    0 -0.93429553607E-01  0.45141948095E-01  0.62214181928E-01  0.94577031112E+00  0.93800000000E+00 0.  1.
         22    1    1    2    0    0  0.10826415111E+00 -0.30685232278E+00  0.30280116910E+01  0.30454448403E+01  0.00000000000E+00 0. -1.
</event>
<event>
 5    1  0.1173395E+001  0.1615226E+01  0.7818608E-02  0.3337002E+00
         11   -1    0    0    0    0  0.00000000000E+00  0.00000000000E+00  0.39999999674E+01  0.40000000000E+01  0.51100000000E-03 0.  1.
    9000002   -1    0    0    0    0 -0.00000000000E+00 -0.00000000000E+00  0.00000000000E+00  0.93800000000E+00  0.93800000000E+00 0.  1.
         11    1    1    2    0    0 -0.89205949239E-01  0.35572406523E+00  0.15679016201E+00  0.39884925471E+00  0.51100000000E-03 0.  1.
    9000002    1    1    2    0    0  0.27024049026E+00 -0.93543803694E-01  0.36495616630E+00  0.10463352088E+01  0.93800000000E+00 0.  1.
         22    1    1    2    0    0 -0.18103454103E+00 -0.26218026153E+00  0.34782536390E+01  0.34928155365E+01  0.00000000000E+00 0.  1.
</event>
<event>
 5    1  0.1173395E+001  0.1554639E+01  0.7818608E-02  0.3404117E+00
         11   -1    0    0    0    0  0.00000000000E+00  0.00000000000E+00  0.39999999674E+01  0.40000000000E+01  0.51100000000E-03 0. -1.
    9000002   -1    0    0    0    0 -0.00000000000E+00 -0.00000000000E+00  0.00000000000E+00  0.93800000000E+00  0.93800000000E+00 0. -1.
         11    1    1    2    0    0  0.19770289452E+00 -0.10202805916E+00  0.12336405252E+01  0.12535411305E+01  0.51100000000E-03 0. -1.
    9000002    1    1    2    0    0  0.77717736823E-01  0.63193219851E-01  0.40244600701E-01  0.94419121874E+00  0.93800000000E+00 0. -1.
         22    1    1    2    0    0 -0.27542063135E+00  0.38834839304E-01  0.27261148415E+01  0.27402676508E+01  0.00000000000E+00 0. -1.
</event>
<event>
 5    1  0.1173395E+001  0.1534782E+01  0.7818608E-02  0.3427340E+00
         11   -1    0    0    0    0  0.00000000000E+00  0.00000000000E+00  0.39999999674E+01  0.40000000000E+01  0.51100000000E-03 0. -1.
    9000002   -1    0    0    0    0 -0.00000000000E+00 -0.00000000000E+00  0.00000000000E+00  0.93800000000E+00  0.93800000000E+00 0.  1.
         11    1    1    2    0    0  0.28708676166E+00  0.76385451544E-01  0.13792265436E+01  0.14108577765E+01  0.51100000000E-03 0. -1.
    9000002    1    1    2    0    0  0.55075947389E-02 -0.86513987257E-01  0.53805585567E-01  0.94353274698E+00  0.93800000000E+00 0.  1.
         22    1    1    2    0    0 -0.29259435640E+00  0.10128535713E-01  0.25669678382E+01  0.25836094765E+01  0.00000000000E+00 0. -1.
</event>
<event>
 5    1  0.1173395E+001  0.1452012E+01  0.7818608E-02  0.3531512E+00
         11   -1    0    0    0    0  0.00000000000E+00  0.00000000000E+00  0.39999999674E+01  0.40000000000E+01  0.51100000000E-03 0. -1.
    9000002   -1    0    0    0    0 -0.00000000000E+00 -0.00000000000E+00  0.00000000000E+00  0.93800000000E+00  0.93800000000E+00 0. -1.
         11    1    1    2    0    0 -0.21102908766E+00  0.15130170119E+00  0.33477983281E+00  0.42367827204E+00  0.51100000000E-03 0. -1.
    9000002    1    1    2    0    0 -0.68627829107E-01  0.14502690899E+00  0.13556964407E+00  0.96123135178E+00  0.93800000000E+00 0. -1.
         22    1    1    2    0    0  0.27965691677E+00 -0.29632861018E+00  0.35296504905E+01  0.35530903762E+01  0.00000000000E+00 0. -1.
</event>
<event>
 5    1  0.1173395E+001  0.1521934E+01  0.7818608E-02  0.3442711E+00
         11   -1    0    0    0    0  0.00000000000E+00  0.00000000000E+00  0.39999999674E+01  0.40000000000E+01  0.51100000000E-03 0. -1.
    9000002   -1    0    0    0    0 -0.00000000000E+00 -0.00000000000E+00  0.00000000000E+00  0.93800000000E+00  0.93800000000E+00 0. -1.
         11    1    1    2    0    0  0.10133424970E+00  0.37165498262E+00  0.14393385440E+01  0.14899972355E+01  0.51100000000E-03 0. -1.
    9000002    1    1    2    0    0  0.19674198499E+00 -0.26097187326E+00  0.13599024751E+00  0.10025722292E+01  0.93800000000E+00 0. -1.
         22    1    1    2    0    0 -0.29807623470E+00 -0.11068310936E+00  0.24246711758E+01  0.24454305353E+01  0.00000000000E+00 0. -1.
</event>
<event>
 5    1  0.1173395E+001  0.1551269E+01  0.7818608E-02  0.3408015E+00
         11   -1    0    0    0    0  0.00000000000E+00  0.00000000000E+00  0.39999999674E+01  0.40000000000E+01  0.51100000000E-03 0.  1.
    9000002   -1    0    0    0    0 -0.00000000000E+00 -0.00000000000E+00  0.00000000000E+00  0.93800000000E+00  0.93800000000E+00 0. -1.
         11    1    1    2    0    0  0.17717301638E+00  0.11405565705E+00  0.93028384886E+00  0.95384866264E+00  0.51100000000E-03 0.  1.
    9000002    1    1    2    0    0  0.11825804004E+00 -0.89187789450E-01  0.51084917230E-01  0.95099584362E+00  0.93800000000E+00 0. -1.
         22    1    1    2    0    0 -0.29543105642E+00 -0.24867867599E-01  0.30186312013E+01  0.30331554937E+01  0.00000000000E+00 0.  1.
</event>
<event>
 5    1  0.1173395E+001  0.1512198E+01  0.7818608E-02  0.3454545E+00
         11   -1    0    0    0    0  0.00000000000E+00  0.00000000000E+00  0.39999999674E+01  0.40000000000E+01  0.51100000000E-03 0. -1.
    9000002   -1    0    0    0    0 -0.00000000000E+00 -0.00000000000E+00  0.00000000000E+00  0.93800000000E+00  0.93800000000E+00 0. -1.
         11    1    1    2    0    0 -0.32732840975E+00 -0.83802473219E-01  0.67489106524E+00  0.75474827155E+00  0.51100000000E-03 0. -1.
    9000002    1    1    2    0    0  0.44695675304E+00 -0.28341436299E+00  0.27872794833E+00  0.11124869929E+01  0.93800000000E+00 0. -1.
         22    1    1    2    0    0 -0.11962834329E+00  0.36721683621E+00  0.30463809538E+01  0.30707647355E+01  0.00000000000E+00 0. -1.
</event>
<event>
 5    1  0.1173395E+001  0.1556955E+01  0.7818608E-02  0.3401450E+00
         11   -1    0    0    0    0  0.00000000000E+00  0.00000000000E+00  0.39999999674E+01  0.40000000000E+01  0.51100000000E-03 0. -1.
    9000002   -1    0    0    0    0 -0.00000000000E+00 -0.00000000000E+00  0.00000000000E+00  0.93800000000E+00  0.93800000000E+00 0. -1.
         11    1    1    2    0    0 -0.85861524608E-01 -0.19206375313E+00  0.12007812797E+01  0.12190720362E+01  0.51100000000E-03 0. -1.
    9000002    1    1    2    0    0  0.28381559555E-01 -0.76650344070E-01  0.36170534260E-01  0.94224895634E+00  0.93800000000E+00 0. -1.
         22    1    1    2    0    0  0.57479965052E-01  0.26871409720E+00  0.27630481534E+01  0.27766790075E+01  0.00000000000E+00 0. -1.
</event>
<event>
 5    1  0.1173395E+001  0.1524189E+01  0.7818608E-02  0.3439993E+00
         11   -1    0    0    0    0  0.00000000000E+00  0.00000000000E+00  0.39999999674E+01  0.40000000000E+01  0.51100000000E-03 0.  1.
    9000002   -1    0    0    0    0 -0.00000000000E+00 -0.00000000000E+00  0.00000000000E+00  0.93800000000E+00  0.93800000000E+00 0.  1.
         11    1    1    2    0    0 -0.12729039064E-01  0.18980118776E+00  0.37969378575E-01  0.19398055093E+00  0.51100000000E-03 0.  1.
    9000002    1    1    2    0    0 -0.83905098915E-01  0.19671848564E+00  0.22790277492E+00  0.98869707344E+00  0.93800000000E+00 0.  1.
         22    1    1    2    0    0  0.96634137978E-01 -0.38651967340E+00  0.37341278139E+01  0.37553223756E+01  0.00000000000E+00 0.  1.
</event>
<event>
 5    1  0.1173395E+001  0.1568436E+01  0.7818608E-02  0.3388351E+00
         11   -1    0    0    0    0  0.00000000000E+00  0.00000000000E+00  0.39999999674E+01  0.40000000000E+01  0.51100000000E-03 0.  1.
    9000002   -1    0    0    0    0 -0.00000000000E+00 -0.00000000000E+00  0.00000000000E+00  0.93800000000E+00  0.93800000000E+00 0.  1.
         11    1    1    2    0    0  0.20053784346E+00  0.25709328634E-01  0.11951816118E+01  0.12121615992E+01  0.51100000000E-03 0.  1.
    9000002    1    1    2    0    0 -0.28114940222E-01 -0.20810133897E+00  0.53086040995E-01  0.96268309681E+00  0.93800000000E+00 0.  1.
         22    1    1    2    0    0 -0.17242290324E+00  0.18239201033E+00  0.27517323146E+01  0.27631553040E+01  0.00000000000E+00 0.  1.
</event>
<event>
 5    1  0.1173395E+001  0.1593852E+01  0.7818608E-02  0.3360064E+00
         11   -1    0    0    0    0  0.00000000000E+00  0.00000000000E+00  0.39999999674E+01  0.40000000000E+01  0.51100000000E-03 0. -1.
    9000002   -1    0    0    0    0 -0.00000000000E+00 -0.00000000000E+00  0.00000000000E+00  0.93800000000E+00  0.93800000000E+00 0. -1.
         11    1    1    2    0    0  0.44338405547E-01 -0.15647676787E+00  0.14437970176E+01  0.14529284092E+01  0.51100000000E-03 0. -1.
    9000002    1    1    2    0    0  0.11347144623E+00  0.36785828627E+00  0.10458483473E+00  0.10193024456E+01  0.93800000000E+00 0. -1.
         22    1    1    2    0    0 -0.15780985177E+00 -0.21138151840E+00  0.24516181150E+01  0.24657691452E+01  0.00000000000E+00 0. -1.
</event>
<event>
 5    1  0.1173395E+001  0.1587269E+01  0.7818608E-02  0.3367298E+00
         11   -1    0    0    0    0  0.00000000000E+00  0.00000000000E+00  0.39999999674E+01  0.40000000000E+01  0.51100000000E-03 0. -1.
    9000002   -1    0    0    0    0 -0.00000000000E+00 -0.00000000000E+00  0.00000000000E+00  0.93800000000E+00  0.93800000000E+00 0.  1.
         11    1    1    2    0    0  0.12957005149E+00  0.85302906290E-01  0.14127317694E+01  0.14212235213E+01  0.51100000000E-03 0. -1.
    9000002    1    1    2    0    0 -0.25976914278E+00  0.10598205022E+00  0.62097298995E-01  0.98102613474E+00  0.93800000000E+00 0.  1.
         22    1    1    2    0    0  0.13019909128E+00 -0.19128495651E+00  0.25251708989E+01  0.25357503440E+01  0.00000000000E+00 0. -1.
</event>
<event>
 5    1  0.1173395E+001  0.1533297E+01  0.7818608E-02  0.3429102E+00
         11   -1    0    0    0    0  0.00000000000E+00  0.00000000000E+00  0.39999999674E+01  0.40000000000E+01  0.51100000000E-03 0.  1.
    9000002   -1    0    0    0    0 -0.00000000000E+00 -0.00000000000E+00  0.00000000000E+00  0.93800000000E+00  0.93800000000E+00 0. -1.
         11    1    1    2    0    0  0.18561293262E+00  0.34056385665E+00  0.87808206682E+00  0.95992930906E+00  0.51100000000E-03 0.  1.
    9000002    1    1    2    0    0  0.14647504336E-01 -0.61306619368E+00  0.33353205366E+00  0.11692528974E+01  0.93800000000E+00 0. -1.
         22    1    1    2    0    0 -0.20026043696E+00  0.27250233704E+00  0.27883858469E+01  0.28088177936E+01  0.00000000000E+00 0.  1.
</event>
<event>
 5    1  0.1173395E+001  0.1557078E+01  0.7818608E-02  0.3401309E+00
         11   -1    0    0    0    0  0.00000000000E+00  0.00000000000E+00  0.39999999674E+01  0.40000000000E+01  0.51100000000E-03 0.  1.
    9000002   -1    0    0    0    0 -0.00000000000E+00 -0.00000000000E+00  0.00000000000E+00  0.93800000000E+00  0.93800000000E+00 0.  1.
         11    1    1    2    0    0  0.15055237524E+00  0.13495913953E+00  0.10921223068E+01  0.11106805937E+01  0.51100000000E-03 0.  1.
    9000002    1    1    2    0    0  0.13709555245E+00 -0.61679991113E-01  0.47051452067E-01  0.95113482270E+00  0.93800000000E+00 0.  1.
         22    1    1    2    0    0 -0.28764792770E+00 -0.73279148415E-01  0.28608262085E+01  0.28761845836E+01  0.00000000000E+00 0.  1.
</event>
<event>
 5    1  0.1173395E+001  0.1584690E+01  0.7818608E-02  0.3370149E+00
         11   -1    0    0    0    0  0.00000000000E+00  0.00000000000E+00  0.39999999674E+01  0.40000000000E+01  0.51100000000E-03 0.  1.
    9000002   -1    0    0    0    0 -0.00000000000E+00 -0.00000000000E+00  0.00000000000E+00  0.93800000000E+00  0.93800000000E+00 0. -1.
         11    1    1    2    0    0  0.42674237471E-01  0.51289466009E-01  0.10297377542E+01  0.10318971865E+01  0.51100000000E-03 0.  1.
    9000002    1    1    2    0    0 -0.16571874036E-01  0.27687130669E+00  0.62907653378E-01  0.98017025069E+00  0.93800000000E+00 0. -1.
         22    1    1    2    0    0 -0.26102363434E-01 -0.32816077270E+00  0.29073545598E+01  0.29259325629E+01  0.00000000000E+00 0.  1.
</event>
<event>
 5    1  0.1173395E+001  0.1596748E+01  0.7818608E-02  0.3356901E+00
         11   -1    0    0    0    0  0.00000000000E+00  0.00000000000E+00  0.39999999674E+01  0.40000000000E+01  0.51100000000E-03 0. -1.
    9000002   -1    0    0    0    0 -0.00000000000E+00 -0.00000000000E+00  0.00000000000E+00  0.93800000000E+00  0.93800000000E+00 0.  1.
         11    1    1    2    0    0  0.49001999977E-01  0.27136769911E+00  0.48805698293E-01  0.28004264216E+00  0.51100000000E-03 0. -1.
    9000002    1    1    2    0    0 -0.32107740509E+00 -0.78967562753E-01  0.36980192997E+00  0.10610956806E+01  0.93800000000E+00 0.  1.
         22    1    1    2    0    0  0.27207540511E+00 -0.19240013635E+00  0.35813923391E+01  0.35968616772E+01  0.00000000000E+00 0. -1.
</event>
<event>
 5    1  0.1173395E+001  0.1580865E+01  0.7818608E-02  0.3374397E+00
         11   -1    0    0    0    0  0.00000000000E+00  0.00000000000E+00  0.39999999674E+01  0.40000000000E+01  0.51100000000E-03 0. -1.
    9000002   -1    0    0    0    0 -0.00000000000E+00 -0.00000000000E+00  0.00000000000E+00  0.93800000000E+00  0.93800000000E+00 0. -1.
         11    1    1    2    0    0  0.19935131339E-02  0.82604703914E-01  0.54545734805E+00  0.55168060585E+00  0.51100000000E-03 0. -1.
    9000002    1    1    2    0    0  0.19488390093E+00  0.20012631989E+00  0.66675234229E-01  0.98097903424E+00  0.93800000000E+00 0. -1.
         22    1    1    2    0    0 -0.19687741406E+00 -0.28273102380E+00  0.33878673851E+01  0.34053403599E+01  0.00000000000E+00 0. -1.
</event>
<event>
 5    1  0.1173395E+001  0.1517578E+01  0.7818608E-02  0.3447985E+00
         11   -1    0    0    0    0  0.00000000000E+00  0.00000000000E+00  0.39999999674E+01  0.40000000000E+01  0.51100000000E-03 0. -1.
    9000002   -1    0    0    0    0 -0.00000000000E+00 -0.00000000000E+00  0.00000000000E+00  0.93800000000E+00  0.93800000000E+00 0. -1.
         11    1    1    2    0    0  0.39533894814E+00  0.10040101360E+00  0.92290331168E+00  0.10090213235E+01  0.51100000000E-03 0. -1.
    9000002    1    1    2    0    0 -0.56504452510E+00  0.28628085300E+00  0.37243079777E+00  0.11915455263E+01  0.93800000000E+00 0. -1.
         22    1    1    2    0    0  0.16970557696E+00 -0.38668186660E+00  0.27046658579E+01  0.27374331502E+01  0.00000000000E+00 0. -1.
</event>
<event>
 5    1  0.1173395E+001  0.1494352E+01  0.7818608E-02  0.3476668E+00
         11   -1    0    0    0    0  0.00000000000E+00  0.00000000000E+00  0.39999999674E+01  0.40000000000E+01  0.51100000000E-03 0. -1.
    9000002   -1    0    0    0    0 -0.00000000000E+00 -0.00000000000E+00  0.00000000000E+00  0.93800000000E+00  0.93800000000E+00 0. -1.
         11    1    1    2    0    0  0.28762172002E+00  0.38348215156E-01  0.67667890929E+00  0.73626859694E+00  0.51100000000E-03 0. -1.
    9000002    1    1    2    0    0  0.43946541766E-01  0.46765197997E-01  0.83519156865E-01  0.94389497924E+00  0.93800000000E+00 0. -1.
         22    1    1    2    0    0 -0.33156826179E+00 -0.85113413153E-01  0.32398019012E+01  0.32578364238E+01  0.00000000000E+00 0. -1.
</event>
<event>
 5    1  0.1173395E+001  0.1453737E+01  0.7818608E-02  0.3529209E+00
         11   -1    0    0    0    0  0.00000000000E+00  0.00000000000E+00  0.39999999674E+01  0.40000000000E+01  0.51100000000E-03 0. -1.
    9000002   -1    0    0    0    0 -0.00000000000E+00 -0.00000000000E+00  0.00000000000E+00  0.93800000000E+00  0.93800000000E+00 0.  1.
         11    1    1    2    0    0  0.20586696297E+00 -0.40039984942E+00  0.11498066735E+01  0.12348104687E+01  0.51100000000E-03 0. -1.
    9000002    1    1    2    0    0 -0.26453964088E-01  0.89275140184E-01  0.12085885457E+00  0.95032664153E+00  0.93800000000E+00 0.  1.
         22    1    1    2    0    0 -0.17941299889E+00  0.31112470923E+00  0.27293344393E+01  0.27528628898E+01  0.00000000000E+00 0. -1.
</event>
<event>
 5    1  0.1173395E+001  0.1499824E+01  0.7818608E-02  0.3469824E+00
         11   -1    0    0    0    0  0.00000000000E+00  0.00000000000E+00  0.39999999674E+01  0.40000000000E+01  0.51100000000E-03 0. -1.
    9000002   -1    0    0    0    0 -0.00000000000E+00 -0.00000000000E+00  0.00000000000E+00  0.93800000000E+00  0.93800000000E+00 0.  1.
         11    1    1    2    0    0 -0.15125816514E+00  0.30223970207E+00  0.86739112044E+00  0.93091110584E+00  0.51100000000E-03 0. -1.
    9000002    1    1    2    0    0  0.27793742040E+00  0.24599131204E-01  0.13363933367E+00  0.98770329473E+00  0.93800000000E+00 0.  1.
         22    1    1    2    0    0 -0.12667925527E+00 -0.32683883328E+00  0.29989695133E+01  0.30193855994E+01  0.00000000000E+00 0. -1.
</event>
<event>
 5    1  0.1173395E+001  0.1538875E+01  0.7818608E-02  0.3422502E+00
         11   -1    0    0    0    0  0.00000000000E+00  0.00000000000E+00  0.39999999674E+01  0.40000000000E+01  0.51100000000E-03 0.  1.
    9000002   -1    0    0    0    0 -0.00000000000E+00 -0.00000000000E+00  0.00000000000E+00  0.93800000000E+00  0.93800000000E+00 0. -1.
         11    1    1    2    0    0 -0.19756081463E+00  0.13684156933E+00  0.67870250605E+00  0.71999530791E+00  0.51100000000E-03 0.  1.
    9000002    1    1    2    0    0  0.38621002451E+00  0.29706165059E+00  0.21850827366E+00  0.10793487263E+01  0.93800000000E+00 0. -1.
         22    1    1    2    0    0 -0.18864920988E+00 -0.43390321992E+00  0.31027891877E+01  0.31386559658E+01  0.00000000000E+00 0.  1.
</event>
<event>
 5    1  0.1173395E+001  0.1105317E+01  0.7818608E-02  0.4238803E+00
         11   -1    0    0    0    0  0.00000000000E+00  0.00000000000E+00  0.39999999674E+01  0.40000000000E+01  0.51100000000E-03 0. -1.
    9000002   -1    0    0    0    0 -0.00000000000E+00 -0.00000000000E+00  0.00000000000E+00  0.93800000000E+00  0.93800000000E+00 0. -1.
         11    1    1    2    0    0  0.66968920588E+00  0.14680302347E+00  0.28372598519E+00  0.74198076523E+00  0.51100000000E-03 0. -1.
    9000002    1    1    2    0    0 -0.33117769431E+00 -0.39689260908E+00  0.10609054458E+01  0.15075034903E+01  0.93800000000E+00 0. -1.
         22    1    1    2    0    0 -0.33851151157E+00  0.25008958560E+00  0.26553685364E+01  0.26885157445E+01  0.00000000000E+00 0.  1.
</event>
<event>
 5    1  0.1173395E+001  0.1485191E+01  0.7818608E-02  0.3488247E+00
         11   -1    0    0    0    0  0.00000000000E+00  0.00000000000E+00  0.39999999674E+01  0.40000000000E+01  0.51100000000E-03 0. -1.
    9000002   -1    0    0    0    0 -0.00000000000E+00 -0.00000000000E+00  0.00000000000E+00  0.93800000000E+00  0.93800000000E+00 0. -1.
         11    1    1    2    0    0  0.42775898096E+00  0.13266484499E+00  0.12172927559E+01  0.12970657738E+01  0.51100000000E-03 0. -1.
    9000002    1    1    2    0    0 -0.22862453592E+00  0.14539417519E-01  0.12720740084E+00  0.97391287902E+00  0.93800000000E+00 0. -1.
         22    1    1    2    0    0 -0.19913444504E+00 -0.14720426251E+00  0.26554998107E+01  0.26670213472E+01  0.00000000000E+00 0. -1.
</event>
<event>
 5    1  0.1173395E+001  0.1574497E+01  0.7818608E-02  0.3381517E+00
         11   -1    0    0    0    0  0.00000000000E+00  0.00000000000E+00  0.39999999674E+01  0.40000000000E+01  0.51100000000E-03 0. -1.
    9000002   -1    0    0    0    0 -0.00000000000E+00 -0.00000000000E+00  0.00000000000E+00  0.93800000000E+00  0.93800000000E+00 0. -1.
         11    1    1    2    0    0  0.13970477590E-01  0.24084638134E+00  0.10898960036E+01  0.11162776148E+01  0.51100000000E-03 0. -1.
    9000002    1    1    2    0    0 -0.27599607257E+00 -0.28646843380E+00  0.12792856560E+00  0.10268630452E+01  0.93800000000E+00 0. -1.
         22    1    1    2    0    0  0.26202559498E+00  0.45622052465E-01  0.27821753982E+01  0.27948593400E+01  0.00000000000E+00 0. -1.
</event>
<event>
 5    1  0.1173395E+001  0.1458515E+01  0.7818608E-02  0.3522863E+00
         11   -1    0    0    0    0  0.00000000000E+00  0.00000000000E+00  0.39999999674E+01  0.40000000000E+01  0.51100000000E-03 0. -1.
    9000002   -1    0    0    0    0 -0.00000000000E+00 -0.00000000000E+00  0.00000000000E+00  0.93800000000E+00  0.93800000000E+00 0. -1.
         11    1    1    2    0    0  0.42710271922E+00  0.11804957219E-01  0.10233460740E+01  0.11089605665E+01  0.51100000000E-03 0. -1.
    9000002    1    1    2    0    0  0.12084079342E-01 -0.20019185184E+00  0.16039079633E+00  0.97251838546E+00  0.93800000000E+00 0. -1.
         22    1    1    2    0    0 -0.43918679856E+00  0.18838689463E+00  0.28162630971E+01  0.28565210481E+01  0.00000000000E+00 0. -1.
</event>
<event>
 5    1  0.1173395E+001  0.1474948E+01  0.7818608E-02  0.3501379E+00
         11   -1    0    0    0    0  0.00000000000E+00  0.00000000000E+00  0.39999999674E+01  0.40000000000E+01  0.51100000000E-03 0.  1.
    9000002   -1    0    0    0    0 -0.00000000000E+00 -0.00000000000E+00  0.00000000000E+00  0.93800000000E+00  0.93800000000E+00 0. -1.
         11    1    1    2    0    0 -0.24203849033E+00 -0.23116068776E+00  0.38725663462E+00  0.51184553973E+00  0.51100000000E-03 0.  1.
    9000002    1    1    2    0    0  0.29972436164E+00 -0.19875810053E+00  0.24956261579E+00  0.10351159233E+01  0.93800000000E+00 0. -1.
         22    1    1    2    0    0 -0.57685871308E-01  0.42991878829E+00  0.33631807170E+01  0.33910385370E+01  0.00000000000E+00 0.  1.
</event>
<event>
 5    1  0.1173395E+001  0.1516230E+01  0.7818608E-02  0.3449624E+00
         11   -1    0    0    0    0  0.00000000000E+00  0.00000000000E+00  0.39999999674E+01  0.40000000000E+01  0.51100000000E-03 0.  1.
    9000002   -1    0    0    0    0 -0.00000000000E+00 -0.00000000000E+00  0.00000000000E+00  0.93800000000E+00  0.93800000000E+00 0. -1.
         11    1    1    2    0    0  0.11871442289E+00 -0.43801012168E+00  0.67095828219E+00  0.81001929511E+00  0.51100000000E-03 0.  1.
    9000002    1    1    2    0    0 -0.56895004124E+00 -0.85876681660E-01  0.48730297175E+00  0.12034895679E+01  0.93800000000E+00 0. -1.
         22    1    1    2    0    0  0.45023561834E+00  0.52388680334E+00  0.28417387134E+01  0.29244911369E+01  0.00000000000E+00 0.  1.
</event>
<event>
 5    1  0.1173395E+001  0.1572017E+01  0.7818608E-02  0.3384306E+00
         11   -1    0    0    0    0  0.00000000000E+00  0.00000000000E+00  0.39999999674E+01  0.40000000000E+01  0.51100000000E-03 0. -1.
    9000002   -1    0    0    0    0 -0.00000000000E+00 -0.00000000000E+00  0.00000000000E+00  0.93800000000E+00  0.93800000000E+00 0. -1.
         11    1    1    2    0    0  0.10879706216E+00 -0.40301656147E-01  0.82179795074E+00  0.82994768340E+00  0.51100000000E-03 0. -1.
    9000002    1    1    2    0    0 -0.32350523619E-02 -0.38895682048E+00  0.12511551185E+00  0.10231303754E+01  0.93800000000E+00 0. -1.
         22    1    1    2    0    0 -0.10556200980E+00  0.42925847662E+00  0.30530865048E+01  0.30849219412E+01  0.00000000000E+00 0. -1.
</event>
<event>
 5    1  0.1173395E+001  0.1593201E+01  0.7818608E-02  0.3360776E+00
         11   -1    0    0    0    0  0.00000000000E+00  0.00000000000E+00  0.39999999674E+01  0.40000000000E+01  0.51100000000E-03 0. -1.
    9000002   -1    0    0    0    0 -0.00000000000E+00 -0.00000000000E+00  0.00000000000E+00  0.93800000000E+00  0.93800000000E+00 0.  1.
         11    1    1    2    0    0 -0.40886796154E-01 -0.37235889848E-01  0.11422821610E+01  0.11436201459E+01  0.51100000000E-03 0. -1.
    9000002    1    1    2    0    0 -0.15366473781E+00  0.20113242287E+00  0.47541778797E-01  0.97271338220E+00  0.93800000000E+00 0.  1.
         22    1    1    2    0    0  0.19455153396E+00 -0.16389653303E+00  0.28101760276E+01  0.28216664719E+01  0.00000000000E+00 0. -1.
</event>
<event>
 5    1  0.1173395E+001  0.1526838E+01  0.7818608E-02  0.3436812E+00
         11   -1    0    0    0    0  0.00000000000E+00  0.00000000000E+00  0.39999999674E+01  0.40000000000E+01  0.51100000000E-03 0.  1.
    9000002   -1    0    0    0    0 -0.00000000000E+00 -0.00000000000E+00  0.00000000000E+00  0.93800000000E+00  0.93800000000E+00 0. -1.
         11    1    1    2    0    0 -0.81407763107E-01  0.24120366377E+00  0.59373054934E+00  0.64600515296E+00  0.51100000000E-03 0.  1.
    9000002    1    1    2    0    0  0.40160600978E+00 -0.21745468734E-01  0.17256771491E+00  0.10350767453E+01  0.93800000000E+00 0. -1.
         22    1    1    2    0    0 -0.32019824668E+00 -0.21945819503E+00  0.32337017031E+01  0.32569181017E+01  0.00000000000E+00 0.  1.
</event>
<event>
 5    1  0.1173395E+001  0.1581273E+01  0.7818608E-02  0.3373943E+00
         11   -1    0    0    0    0  0.00000000000E+00  0.00000000000E+00  0.39999999674E+01  0.40000000000E+01  0.51100000000E-03 0.  1.
    9000002   -1    0    0    0    0 -0.00000000000E+00 -0.00000000000E+00  0.00000000000E+00  0.93800000000E+00  0.93800000000E+00 0. -1.
         11    1    1    2    0    0 -0.64528262566E-01  0.83907414406E-01  0.13428427388E+01  0.13470082528E+01  0.51100000000E-03 0.  1.
    9000002    1    1    2    0    0 -0.11570949920E+00  0.90472612802E-01  0.27940383532E-01  0.94984137987E+00  0.93800000000E+00 0. -1.
         22    1    1    2    0    0  0.18023776177E+00 -0.17438002721E+00  0.26292168450E+01  0.26411503673E+01  0.00000000000E+00 0.  1.
</event>
<event>
 5    1  0.1173395E+001  0.1540495E+01  0.7818608E-02  0.3420593E+00
         11   -1    0    0    0    0  0.00000000000E+00  0.00000000000E+00  0.39999999674E+01  0.40000000000E+01  0.51100000000E-03 0.  1.
    9000002   -1    0    0    0    0 -0.00000000000E+00 -0.00000000000E+00  0.00000000000E+00  0.93800000000E+00  0.93800000000E+00 0. -1.
         11    1    1    2    0    0  0.14303500901E+00 -0.18812030640E+00  0.10653174070E+01  0.10912147828E+01  0.51100000000E-03 0.  1.
    9000002    1    1    2    0    0  0.12257411824E+00 -0.12973852964E-01  0.54748999250E-01  0.94764665791E+00  0.93800000000E+00 0. -1.
         22    1    1    2    0    0 -0.26560912725E+00  0.20109415937E+00  0.28799335612E+01  0.28991385593E+01  0.00000000000E+00 0.  1.
</event>
<event>
 5    1  0.1173395E+001  0.1510386E+01  0.7818608E-02  0.3456766E+00
         11   -1    0    0    0    0  0.00000000000E+00  0.00000000000E+00  0.39999999674E+01  0.40000000000E+01  0.51100000000E-03 0.  1.
    9000002   -1    0    0    0    0 -0.00000000000E+00 -0.00000000000E+00  0.00000000000E+00  0.93800000000E+00  0.93800000000E+00 0. -1.
         11    1    1    2    0    0  0.16918273505E+00 -0.28084362998E+00  0.12115883769E+01  0.12551663629E+01  0.51100000000E-03 0.  1.
    9000002    1    1    2    0    0 -0.22700171303E+00 -0.12212474249E+00  0.11608323196E+00  0.97967522536E+00  0.93800000000E+00 0. -1.
         22    1    1    2    0    0  0.57818977981E-01  0.40296837248E+00  0.26723283585E+01  0.27031584118E+01  0.00000000000E+00 0.  1.
</event>
<event>
 5    1  0.1173395E+001  0.1579307E+01  0.7818608E-02  0.3376134E+00
         11   -1    0    0    0    0  0.00000000000E+00  0.00000000000E+00  0.39999999674E+01  0.40000000000E+01  0.51100000000E-03 0. -1.
    9000002   -1    0    0    0    0 -0.00000000000E+00 -0.00000000000E+00  0.00000000000E+00  0.93800000000E+00  0.93800000000E+00 0.  1.
         11    1    1    2    0    0  0.21755241866E+00  0.44712234264E-01  0.12203224801E+01  0.12403690803E+01  0.51100000000E-03 0. -1.
    9000002    1    1    2    0    0 -0.33904535002E+00  0.22382997753E+00  0.12864621059E+00  0.10302647503E+01  0.93800000000E+00 0.  1.
         22    1    1    2    0    0  0.12149293136E+00 -0.26854221179E+00  0.26510312767E+01  0.26673661694E+01  0.00000000000E+00 0. -1.
</event>
<event>
 5    1  0.1173395E+001  0.1517220E+01  0.7818608E-02  0.3448421E+00
         11   -1    0    0    0    0  0.00000000000E+00  0.00000000000E+00  0.39999999674E+01  0.40000000000E+01  0.51100000000E-03 0. -1.
    9000002   -1    0    0    0    0 -0.00000000000E+00 -0.00000000000E+00  0.00000000000E+00  0.93800000000E+00  0.93800000000E+00 0. -1.
         11    1    1    2    0    0  0.44710913837E+00  0.29769668434E+00  0.11026171018E+01  0.12264968943E+01  0.51100000000E-03 0. -1.
    9000002    1    1    2    0    0 -0.87451358468E-02 -0.10269290039E+00  0.19082063425E+00  0.96274546150E+00  0.93800000000E+00 0. -1.
         22    1    1    2    0    0 -0.43836400252E+00 -0.19500378395E+00  0.27065622313E+01  0.27487576442E+01  0.00000000000E+00 0. -1.
</event>
<event>
 5    1  0.1173395E+001  0.1464973E+01  0.7818608E-02  0.3514358E+00
         11   -1    0    0    0    0  0.00000000000E+00  0.00000000000E+00  0.39999999674E+01  0.40000000000E+01  0.51100000000E-03 0. -1.
    9000002   -1    0    0    0    0 -0.00000000000E+00 -0.00000000000E+00  0.00000000000E+00  0.93800000000E+00  0.93800000000E+00 0. -1.
         11    1    1    2    0    0  0.11798920070E+00 -0.42750602846E+00  0.10173892947E+01  0.11098486807E+01  0.51100000000E-03 0. -1.
    9000002    1    1    2    0    0  0.27995968934E+00  0.11157309769E+00  0.20741272646E+00  0.10068217433E+01  0.93800000000E+00 0. -1.
         22    1    1    2    0    0 -0.39794889004E+00  0.31593293077E+00  0.27751979462E+01  0.28213295760E+01  0.00000000000E+00 0. -1.
</event>
<event>
 5    1  0.1173395E+001  0.1582969E+01  0.7818608E-02  0.3372058E+00
         11   -1    0    0    0    0  0.00000000000E+00  0.00000000000E+00  0.39999999674E+01  0.40000000000E+01  0.51100000000E-03 0.  1.
    9000002   -1    0    0    0    0 -0.00000000000E+00 -0.00000000000E+00  0.00000000000E+00  0.93800000000E+00  0.93800000000E+00 0. -1.
         11    1    1    2    0    0  0.69196561171E-02  0.65148956015E-01  0.13853347854E+01  0.13868831951E+01  0.51100000000E-03 0.  1.
    9000002    1    1    2    0    0 -0.38790953286E-01  0.23726498812E+00  0.51193668968E-01  0.96967221492E+00  0.93800000000E+00 0. -1.
         22    1    1    2    0    0  0.31871297169E-01 -0.30241394413E+00  0.25634715130E+01  0.25814445900E+01  0.00000000000E+00 0.  1.
</event>
<event>
 5    1  0.1173395E+001  0.1524431E+01  0.7818608E-02  0.3439702E+00
         11   -1    0    0    0    0  0.00000000000E+00  0.00000000000E+00  0.39999999674E+01  0.40000000000E+01  0.51100000000E-03 0. -1.
    9000002   -1    0    0    0    0 -0.00000000000E+00 -0.00000000000E+00  0.00000000000E+00  0.93800000000E+00  0.93800000000E+00 0. -1.
         11    1    1    2    0    0  0.23570029235E+00 -0.15189558339E+00  0.92050517705E+00  0.96226656295E+00  0.51100000000E-03 0. -1.
    9000002    1    1    2    0    0  0.18900047114E-01  0.27464270943E-01  0.57361826133E-01  0.94034348887E+00  0.93800000000E+00 0. -1.
         22    1    1    2    0    0 -0.25460033947E+00  0.12443131245E+00  0.30221329642E+01  0.30353899482E+01  0.00000000000E+00 0. -1.
</event>
<event>
 5    1  0.1173395E+001  0.1491058E+01  0.7818608E-02  0.3480813E+00
         11   -1    0    0    0    0  0.00000000000E+00  0.00000000000E+00  0.39999999674E+01  0.40000000000E+01  0.51100000000E-03 0. -1.
    9000002   -1    0    0    0    0 -0.00000000000E+00 -0.00000000000E+00  0.00000000000E+00  0.93800000000E+00  0.93800000000E+00 0.  1.
         11    1    1    2    0    0  0.29938897474E+00  0.13913267794E+00  0.85054407670E+00  0.91236897569E+00  0.51100000000E-03 0. -1.
    9000002    1    1    2    0    0  0.85777470147E-01 -0.21873055472E+00  0.12420550749E+00  0.97492145224E+00  0.93800000000E+00 0.  1.
         22    1    1    2    0    0 -0.38516644489E+00  0.79597876777E-01  0.30252503832E+01  0.30507095721E+01  0.00000000000E+00 0. -1.
</event>
<event>
 5    1  0.1173395E+001  0.1599061E+01  0.7818608E-02  0.3354383E+00
         11   -1    0    0    0    0  0.00000000000E+00  0.00000000000E+00  0.39999999674E+01  0.40000000000E+01  0.51100000000E-03 0.  1.
    9000002   -1    0    0    0    0 -0.00000000000E+00 -0.00000000000E+00  0.00000000000E+00  0.93800000000E+00  0.93800000000E+00 0. -1.
         11    1    1    2    0    0 -0.51248148837E-01  0.41077413557E-01  0.83191871616E+00  0.83450748234E+00  0.51100000000E-03 0.  1.
    9000002    1    1    2    0    0  0.35150697609E+00 -0.21637384685E+00  0.11563073643E+00  0.10313046412E+01  0.93800000000E+00 0. -1.
         22    1    1    2    0    0 -0.30025882726E+00  0.17529643330E+00  0.30524505148E+01  0.30721878764E+01  0.00000000000E+00 0.  1.
</event>
<event>
 5    1  0.1173395E+001  0.1480143E+01  0.7818608E-02  0.3494694E+00
         11   -1    0    0    0    0  0.00000000000E+00  0.00000000000E+00  0.39999999674E+01  0.40000000000E+01  0.51100000000E-03 0.  1.
    9000002   -1    0    0    0    0 -0.00000000000E+00 -0.00000000000E+00  0.00000000000E+00  0.93800000000E+00  0.93800000000E+00 0.  1.
         11    1    1    2    0    0 -0.28046566456E-01 -0.28113389893E+00  0.54944666502E+00  0.61783070322E+00  0.51100000000E-03 0.  1.
    9000002    1    1    2    0    0  0.41809405316E-01 -0.90934683024E-01  0.99569529788E-01  0.94856482868E+00  0.93800000000E+00 0.  1.
         22    1    1    2    0    0 -0.13762838860E-01  0.37206858195E+00  0.33509837726E+01  0.33716044681E+01  0.00000000000E+00 0.  1.
</event>
<event>
 5    1  0.1173395E+001  0.1548057E+01  0.7818608E-02  0.3411745E+00
         11   -1    0    0    0    0  0.00000000000E+00  0.00000000000E+00  0.39999999674E+01  0.40000000000E+01  0.51100000000E-03 0. -1.
    9000002   -1    0    0    0    0 -0.00000000000E+00 -0.00000000000E+00  0.00000000000E+00  0.93800000000E+00  0.93800000000E+00 0.  1.
         11    1    1    2    0    0  0.12410777089E+00  0.16950448431E+00  0.61894368588E+00  0.65362531806E+00  0.51100000000E-03 0. -1.
    9000002    1    1    2    0    0  0.25227833487E+00 -0.32101423299E+00  0.15711114245E+00  0.10349987474E+01  0.93800000000E+00 0.  1.
         22    1    1    2    0    0 -0.37638610576E+00  0.15150974868E+00  0.32239451390E+01  0.32493759345E+01  0.00000000000E+00 0. -1.
</event>
<event>
 5    1  0.1173395E+001  0.1545516E+01  0.7818608E-02  0.3414707E+00
         11   -1    0    0    0    0  0.00000000000E+00  0.00000000000E+00  0.39999999674E+01  0.40000000000E+01  0.51100000000E-03 0.  1.
    9000002   -1    0    0    0    0 -0.00000000000E+00 -0.00000000000E+00  0.00000000000E+00  0.93800000000E+00  0.93800000000E+00 0.  1.
         11    1    1    2    0    0 -0.79766814283E-01  0.43478072169E+00  0.13704304656E+01  0.14399572712E+01  0.51100000000E-03 0.  1.
    9000002    1    1    2    0    0  0.31170053942E+00 -0.44829263988E+00  0.25860899974E+00  0.11157267282E+01  0.93800000000E+00 0.  1.
         22    1    1    2    0    0 -0.23193372514E+00  0.13511918198E-01  0.23709605020E+01  0.23823160006E+01  0.00000000000E+00 0.  1.
</event>
<event>
 5    1  0.1173395E+001  0.1563675E+01  0.7818608E-02  0.3393759E+00
         11   -1    0    0    0    0  0.00000000000E+00  0.00000000000E+00  0.39999999674E+01  0.40000000000E+01  0.51100000000E-03 0.  1.
    9000002   -1    0    0    0    0 -0.00000000000E+00 -0.00000000000E+00  0.00000000000E+00  0.93800000000E+00  0.93800000000E+00 0.  1.
         11    1    1    2    0    0  0.16879058781E+00 -0.50324033747E-01  0.11195754021E+01  0.11333455400E+01  0.51100000000E-03 0.  1.
    9000002    1    1    2    0    0  0.94738928932E-01 -0.46978265228E-01  0.34159342575E-01  0.94455983545E+00  0.93800000000E+00 0.  1.
         22    1    1    2    0    0 -0.26352951674E+00  0.97302298975E-01  0.28462652227E+01  0.28600946246E+01  0.00000000000E+00 0.  1.
</event>
<event>
 5    1  0.1173395E+001  0.1513789E+01  0.7818608E-02  0.3452600E+00
         11   -1    0    0    0    0  0.00000000000E+00  0.00000000000E+00  0.39999999674E+01  0.40000000000E+01  0.51100000000E-03 0. -1.
    9000002   -1    0    0    0    0 -0.00000000000E+00 -0.00000000000E+00  0.00000000000E+00  0.93800000000E+00  0.93800000000E+00 0.  1.
         11    1    1    2    0    0 -0.29474081359E+00 -0.21957335114E+00  0.14078484059E+01  0.14550333325E+01  0.51100000000E-03 0. -1.
    9000002    1    1    2    0    0  0.14316601132E+00 -0.46620791126E-01  0.81279501386E-01  0.95347803452E+00  0.93800000000E+00 0.  1.
         22    1    1    2    0    0  0.15157480227E+00  0.26619414226E+00  0.25108720601E+01  0.25294886330E+01  0.00000000000E+00 0. -1.
</event>
<event>
 5    1  0.1173395E+001  0.1482624E+01  0.7818608E-02  0.3491520E+00
         11   -1    0    0    0    0  0.00000000000E+00  0.00000000000E+00  0.39999999674E+01  0.40000000000E+01  0.51100000000E-03 0.  1.
    9000002   -1    0    0    0    0 -0.00000000000E+00 -0.00000000000E+00  0.00000000000E+00  0.93800000000E+00  0.93800000000E+00 0. -1.
         11    1    1    2    0    0  0.49523517385E-01 -0.36416887339E+00  0.11426893822E+01  0.12003377993E+01  0.51100000000E-03 0.  1.
    9000002    1    1    2    0    0  0.10269230943E+00 -0.11436550496E-01  0.98001352911E-01  0.94874905548E+00  0.93800000000E+00 0. -1.
         22    1    1    2    0    0 -0.15221582681E+00  0.37560542389E+00  0.27593092323E+01  0.27889131452E+01  0.00000000000E+00 0.  1.
</event>
<event>
 5    1  0.1173395E+001  0.1579455E+01  0.7818608E-02  0.3375969E+00
         11   -1    0    0    0    0  0.00000000000E+00  0.00000000000E+00  0.39999999674E+01  0.40000000000E+01  0.51100000000E-03 0. -1.
    9000002   -1    0    0    0    0 -0.00000000000E+00 -0.00000000000E+00  0.00000000000E+00  0.93800000000E+00  0.93800000000E+00 0. -1.
         11    1    1    2    0    0  0.16523562264E+00 -0.66945406341E-01  0.94477259435E+00  0.96144683398E+00  0.51100000000E-03 0. -1.
    9000002    1    1    2    0    0 -0.79665392070E-01  0.34648397133E+00  0.10132578719E+00  0.10082205276E+01  0.93800000000E+00 0. -1.
         22    1    1    2    0    0 -0.85570230571E-01 -0.27953856499E+00  0.29539015858E+01  0.29683326384E+01  0.00000000000E+00 0. -1.
</event>
<event>
 5    1  0.1173395E+001  0.1560040E+01  0.7818608E-02  0.3397910E+00
         11   -1    0    0    0    0  0.00000000000E+00  0.00000000000E+00  0.39999999674E+01  0.40000000000E+01  0.51100000000E-03 0.  1.
    9000002   -1    0    0    0    0 -0.00000000000E+00 -0.00000000000E+00  0.00000000000E+00  0.93800000000E+00  0.93800000000E+00 0. -1.
         11    1    1    2    0    0  0.17789102869E+00  0.15054585599E+00  0.12114982121E+01  0.12337088198E+01  0.51100000000E-03 0.  1.
    9000002    1    1    2    0    0  0.88284369933E-01 -0.21730708812E+00  0.67228451055E-01  0.96921626335E+00  0.93800000000E+00 0. -1.
         22    1    1    2    0    0 -0.26617539862E+00  0.66761232121E-01  0.27212733042E+01  0.27350749169E+01  0.00000000000E+00 0.  1.
</event>
<event>
 5    1  0.1173395E+001  0.1549331E+01  0.7818608E-02  0.3410264E+00
         11   -1    0    0    0    0  0.00000000000E+00  0.00000000000E+00  0.39999999674E+01  0.40000000000E+01  0.51100000000E-03 0.  1.
    9000002   -1    0    0    0    0 -0.00000000000E+00 -0.00000000000E+00  0.00000000000E+00  0.93800000000E+00  0.93800000000E+00 0.  1.
         11    1    1    2    0    0 -0.11340221772E+00 -0.15064220861E+00  0.52403211235E+00  0.55692284376E+00  0.51100000000E-03 0.  1.
    9000002    1    1    2    0    0  0.25775945579E+00 -0.13265711029E+00  0.96301038631E-01  0.98648656149E+00  0.93800000000E+00 0.  1.
         22    1    1    2    0    0 -0.14435723807E+00  0.28329931890E+00  0.33796668164E+01  0.33945905948E+01  0.00000000000E+00 0.  1.
</event>
<event>
 5    1  0.1173395E+001  0.1543046E+01  0.7818608E-02  0.3417598E+00
         11   -1    0    0    0    0  0.00000000000E+00  0.00000000000E+00  0.39999999674E+01  0.40000000000E+01  0.51100000000E-03 0. -1.
    9000002   -1    0    0    0    0 -0.00000000000E+00 -0.00000000000E+00  0.00000000000E+00  0.93800000000E+00  0.93800000000E+00 0. -1.
         11    1    1    2    0    0 -0.48684598186E+00  0.71975125522E-01  0.59882136419E+00  0.77510432594E+00  0.51100000000E-03 0. -1.
    9000002    1    1    2    0    0  0.17805041455E+00 -0.10867753710E+00  0.24529604632E+00  0.99172925112E+00  0.93800000000E+00 0. -1.
         22    1    1    2    0    0  0.30879556731E+00  0.36702411578E-01  0.31558825568E+01  0.31711664229E+01  0.00000000000E+00 0. -1.
</event>
<event>
 5    1  0.1173395E+001  0.1479321E+01  0.7818608E-02  0.3495748E+00
         11   -1    0    0    0    0  0.00000000000E+00  0.00000000000E+00  0.39999999674E+01  0.40000000000E+01  0.51100000000E-03 0.  1.
    9000002   -1    0    0    0    0 -0.00000000000E+00 -0.00000000000E+00  0.00000000000E+00  0.93800000000E+00  0.93800000000E+00 0.  1.
         11    1    1    2    0    0 -0.46021773429E+00  0.21135926531E+00  0.12718746261E+01  0.13689917559E+01  0.51100000000E-03 0.  1.
    9000002    1    1    2    0    0  0.46460467535E+00  0.15001350829E+00  0.27937759916E+00  0.10937355256E+01  0.93800000000E+00 0.  1.
         22    1    1    2    0    0 -0.43869410664E-02 -0.36137277360E+00  0.24487477421E+01  0.24752727185E+01  0.00000000000E+00 0.  1.
</event>
<event>
 5    1  0.1173395E+001  0.1484380E+01  0.7818608E-02  0.3489279E+00
         11   -1    0    0    0    0  0.00000000000E+00  0.00000000000E+00  0.39999999674E+01  0.40000000000E+01  0.51100000000E-03 0. -1.
    9000002   -1    0    0    0    0 -0.00000000000E+00 -0.00000000000E+00  0.00000000000E+00  0.93800000000E+00  0.93800000000E+00 0.  1.
         11    1    1    2    0    0 -0.11118613433E+00 -0.42402723852E+00  0.67275005587E+00  0.80296597330E+00  0.51100000000E-03 0. -1.
    9000002    1    1    2    0    0  0.15013424939E+00  0.12028965851E+00  0.18169825758E+00  0.97461179533E+00  0.93800000000E+00 0.  1.
         22    1    1    2    0    0 -0.38948115062E-01  0.30373758002E+00  0.31455516539E+01  0.31604222314E+01  0.00000000000E+00 0. -1.
</event>
<event>
 5    1  0.1173395E+001  0.1572373E+01  0.7818608E-02  0.3383906E+00
         11   -1    0    0    0    0  0.00000000000E+00  0.00000000000E+00  0.39999999674E+01  0.40000000000E+01  0.51100000000E-03 0.  1.
    9000002   -1    0    0    0    0 -0.00000000000E+00 -0.00000000000E+00  0.00000000000E+00  0.93800000000E+00  0.93800000000E+00 0. -1.
         11    1    1    2    0    0 -0.12593069234E+00  0.95524877662E-01  0.12826424221E+01  0.12923449174E+01  0.51100000000E-03 0.  1.
    9000002    1    1    2    0    0 -0.95388270536E-01  0.14031851695E-01  0.26319130438E-01  0.94330934038E+00  0.93800000000E+00 0. -1.
         22    1    1    2    0    0  0.22131896288E+00 -0.10955672936E+00  0.26910384149E+01  0.27023457422E+01  0.00000000000E+00 0.  1.
</event>
<event>
 5    1  0.1173395E+001  0.1565650E+01  0.7818608E-02  0.3391511E+00
         11   -1    0    0    0    0  0.00000000000E+00  0.00000000000E+00  0.39999999674E+01  0.40000000000E+01  0.51100000000E-03 0. -1.
    9000002   -1    0    0    0    0 -0.00000000000E+00 -0.00000000000E+00  0.00000000000E+00  0.93800000000E+00  0.93800000000E+00 0. -1.
         11    1    1    2    0    0 -0.10323367428E+00  0.13207724266E+00  0.76452237551E+00  0.78268532202E+00  0.51100000000E-03 0. -1.
    9000002    1    1    2    0    0  0.32835730038E+00  0.20602230080E+00  0.12982519688E+00  0.10232117508E+01  0.93800000000E+00 0. -1.
         22    1    1    2    0    0 -0.22512362610E+00 -0.33809954345E+00  0.31056523950E+01  0.31321029272E+01  0.00000000000E+00 0. -1.
</event>
<event>
 5    1  0.1173395E+001  0.1560665E+01  0.7818608E-02  0.3397194E+00
         11   -1    0    0    0    0  0.00000000000E+00  0.00000000000E+00  0.39999999674E+01  0.40000000000E+01  0.51100000000E-03 0.  1.
    9000002   -1    0    0    0    0 -0.00000000000E+00 -0.00000000000E+00  0.00000000000E+00  0.93800000000E+00  0.93800000000E+00 0. -1.
         11    1    1    2    0    0 -0.14638741698E+00 -0.78532965097E-02  0.61268961950E+00  0.62998395304E+00  0.51100000000E-03 0.  1.
    9000002    1    1    2    0    0 -0.16021984989E+00 -0.84327943245E-01  0.51314185470E-01  0.95669156364E+00  0.93800000000E+00 0. -1.
         22    1    1    2    0    0  0.30660726687E+00  0.92181239755E-01  0.33359961624E+01  0.33513244833E+01  0.00000000000E+00 0.  1.
</event>
<event>
 5    1  0.1173395E+001  0.1549405E+01  0.7818608E-02  0.3410178E+00
         11   -1    0    0    0    0  0.00000000000E+00  0.00000000000E+00  0.39999999674E+01  0.40000000000E+01  0.51100000000E-03 0. -1.
    9000002   -1    0    0    0    0 -0.00000000000E+00 -0.00000000000E+00  0.00000000000E+00  0.93800000000E+00  0.93800000000E+00 0.  1.
         11    1    1    2    0    0 -0.84842494335E-01  0.17025419189E+00  0.88495113387E+00  0.90516490717E+00  0.51100000000E-03 0. -1.
    9000002    1    1    2    0    0  0.17000342528E+00  0.22512170590E+00  0.93072082100E-01  0.98391430498E+00  0.93800000000E+00 0.  1.
         22    1    1    2    0    0 -0.85160930945E-01 -0.39537589778E+00  0.30219767514E+01  0.30489207879E+01  0.00000000000E+00 0. -1.
</event>
<event>
 5    1  0.1173395E+001  0.1587271E+01  0.7818608E-02  0.3367296E+00
         11   -1    0    0    0    0  0.00000000000E+00  0.00000000000E+00  0.39999999674E+01  0.40000000000E+01  0.51100000000E-03 0. -1.
    9000002   -1    0    0    0    0 -0.00000000000E+00 -0.00000000000E+00  0.00000000000E+00  0.93800000000E+00  0.93800000000E+00 0. -1.
         11    1    1    2    0    0 -0.17939549454E+00 -0.11462539175E-02  0.10081034872E+01  0.10239418730E+01  0.51100000000E-03 0. -1.
    9000002    1    1    2    0    0  0.32964034266E+00 -0.27138446812E+00  0.13401918424E+00  0.10392869800E+01  0.93800000000E+00 0. -1.
         22    1    1    2    0    0 -0.15024484813E+00  0.27253072204E+00  0.28578772959E+01  0.28747711470E+01  0.00000000000E+00 0. -1.
</event>
<event>
 5    1  0.1173395E+001  0.1536442E+01  0.7818608E-02  0.3425374E+00
         11   -1    0    0    0    0  0.00000000000E+00  0.00000000000E+00  0.39999999674E+01  0.40000000000E+01  0.51100000000E-03 0.  1.
    9000002   -1    0    0    0    0 -0.00000000000E+00 -0.00000000000E+00  0.00000000000E+00  0.93800000000E+00  0.93800000000E+00 0. -1.
         11    1    1    2    0    0 -0.31778294834E+00 -0.86975514530E-01  0.14503441080E+01  0.14872958801E+01  0.51100000000E-03 0.  1.
    9000002    1    1    2    0    0  0.10910549475E+00 -0.13004056546E-01  0.55719091578E-01  0.94605588188E+00  0.93800000000E+00 0. -1.
         22    1    1    2    0    0  0.20867745359E+00  0.99979571075E-01  0.24939367678E+01  0.25046482380E+01  0.00000000000E+00 0.  1.
</event>
<event>
 5    1  0.1173395E+001  0.1402757E+01  0.7818608E-02  0.3602466E+00
         11   -1    0    0    0    0  0.00000000000E+00  0.00000000000E+00  0.39999999674E+01  0.40000000000E+01  0.51100000000E-03 0. -1.
    9000002   -1    0    0    0    0 -0.00000000000E+00 -0.00000000000E+00  0.00000000000E+00  0.93800000000E+00  0.93800000000E+00 0. -1.
         11    1    1    2    0    0  0.61565867841E+00 -0.81231629986E-01  0.11965169947E+01  0.13480680123E+01  0.51100000000E-03 0. -1.
    9000002    1    1    2    0    0 -0.33057308133E+00  0.24404719251E+00  0.30292768212E+00  0.10679170262E+01  0.93800000000E+00 0. -1.
         22    1    1    2    0    0 -0.28508559708E+00 -0.16281556253E+00  0.25005552905E+01  0.25220149615E+01  0.00000000000E+00 0. -1.
</event>
<event>
 5    1  0.1173395E+001  0.1516525E+01  0.7818608E-02  0.3449265E+00
         11   -1    0    0    0    0  0.00000000000E+00  0.00000000000E+00  0.39999999674E+01  0.40000000000E+01  0.51100000000E-03 0. -1.
    9000002   -1    0    0    0    0 -0.00000000000E+00 -0.00000000000E+00  0.00000000000E+00  0.93800000000E+00  0.93800000000E+00 0. -1.
         11    1    1    2    0    0  0.23845774073E+00 -0.21433746045E+00  0.10728774598E+01  0.11197628972E+01  0.51100000000E-03 0. -1.
    9000002    1    1    2    0    0  0.77110173985E-02  0.66004695995E-01  0.65944550983E-01  0.94266047095E+00  0.93800000000E+00 0. -1.
         22    1    1    2    0    0 -0.24616875813E+00  0.14833276445E+00  0.28611779565E+01  0.28755766318E+01  0.00000000000E+00 0.  1.
</event>
<event>
 5    1  0.1173395E+001  0.1535367E+01  0.7818608E-02  0.3426646E+00
         11   -1    0    0    0    0  0.00000000000E+00  0.00000000000E+00  0.39999999674E+01  0.40000000000E+01  0.51100000000E-03 0. -1.
    9000002   -1    0    0    0    0 -0.00000000000E+00 -0.00000000000E+00  0.00000000000E+00  0.93800000000E+00  0.93800000000E+00 0. -1.
         11    1    1    2    0    0 -0.15108523045E+00  0.52136888561E+00  0.10618331842E+01  0.11925360514E+01  0.51100000000E-03 0. -1.
    9000002    1    1    2    0    0  0.30872443721E+00 -0.74791736232E+00  0.57408107660E+00  0.13653220285E+01  0.93800000000E+00 0. -1.
         22    1    1    2    0    0 -0.15763920676E+00  0.22654847671E+00  0.23640857065E+01  0.23801419201E+01  0.00000000000E+00 0. -1.
</event>
<event>
 5    1  0.1173395E+001  0.1503526E+01  0.7818608E-02  0.3465225E+00
         11   -1    0    0    0    0  0.00000000000E+00  0.00000000000E+00  0.39999999674E+01  0.40000000000E+01  0.51100000000E-03 0. -1.
    9000002   -1    0    0    0    0 -0.00000000000E+00 -0.00000000000E+00  0.00000000000E+00  0.93800000000E+00  0.93800000000E+00 0. -1.
         11    1    1    2    0    0  0.16287674682E+00  0.27835161956E+00  0.13412854987E+01  0.13795127795E+01  0.51100000000E-03 0. -1.
    9000002    1    1    2    0    0  0.18327167006E+00 -0.14439014524E-01  0.97791219946E-01  0.96083511223E+00  0.93800000000E+00 0. -1.
         22    1    1    2    0    0 -0.34614841688E+00 -0.26391260504E+00  0.25609232488E+01  0.25976521083E+01  0.00000000000E+00 0. -1.
</event>
<event>
 5    1  0.1173395E+001  0.1569550E+01  0.7818608E-02  0.3387091E+00
         11   -1    0    0    0    0  0.00000000000E+00  0.00000000000E+00  0.39999999674E+01  0.40000000000E+01  0.51100000000E-03 0. -1.
    9000002   -1    0    0    0    0 -0.00000000000E+00 -0.00000000000E+00  0.00000000000E+00  0.93800000000E+00  0.93800000000E+00 0. -1.
         11    1    1    2    0    0  0.14788618656E+00 -0.23526845940E+00  0.90978912887E+00  0.95128234099E+00  0.51100000000E-03 0. -1.
    9000002    1    1    2    0    0 -0.45719386329E+00  0.24462760515E+00  0.21278333427E+00  0.10926983304E+01  0.93800000000E+00 0. -1.
         22    1    1    2    0    0  0.30930767673E+00 -0.93591457493E-02  0.28774275042E+01  0.28940193286E+01  0.00000000000E+00 0.  1.
</event>
<event>
 5    1  0.1173395E+001  0.1502122E+01  0.7818608E-02  0.3466967E+00
         11   -1    0    0    0    0  0.00000000000E+00  0.00000000000E+00  0.39999999674E+01  0.40000000000E+01  0.51100000000E-03 0. -1.
    9000002   -1    0    0    0    0 -0.00000000000E+00 -0.00000000000E+00  0.00000000000E+00  0.93800000000E+00  0.93800000000E+00 0.  1.
         11    1    1    2    0    0  0.21995355368E+00 -0.21505606165E+00  0.81001711191E+00  0.86646215043E+00  0.51100000000E-03 0. -1.
    9000002    1    1    2    0    0  0.48559014867E-01  0.55867377417E-01  0.78224761935E-01  0.94416219749E+00  0.93800000000E+00 0.  1.
         22    1    1    2    0    0 -0.26851256855E+00  0.15918868423E+00  0.31117580935E+01  0.31273756521E+01  0.00000000000E+00 0. -1.
</event>
<event>
 5    1  0.1173395E+001  0.1335530E+01  0.7818608E-02  0.3716137E+00
         11   -1    0    0    0    0  0.00000000000E+00  0.00000000000E+00  0.39999999674E+01  0.40000000000E+01  0.51100000000E-03 0. -1.
    9000002   -1    0    0    0    0 -0.00000000000E+00 -0.00000000000E+00  0.00000000000E+00  0.93800000000E+00  0.93800000000E+00 0. -1.
         11    1    1    2    0    0  0.24908536621E+00  0.55833380417E+00  0.43326197414E+00  0.74933060521E+00  0.51100000000E-03 0. -1.
    9000002    1    1    2    0    0 -0.10400184149E+00 -0.77149032529E+00  0.91434561791E+00  0.15237734786E+01  0.93800000000E+00 0. -1.
         22    1    1    2    0    0 -0.14508352473E+00  0.21315652112E+00  0.26523923753E+01  0.26648959162E+01  0.00000000000E+00 0. -1.
</event>
<event>
 5    1  0.1173395E+001  0.1597664E+01  0.7818608E-02  0.3355903E+00
         11   -1    0    0    0    0  0.00000000000E+00  0.00000000000E+00  0.39999999674E+01  0.40000000000E+01  0.51100000000E-03 0. -1.
    9000002   -1    0    0    0    0 -0.00000000000E+00 -0.00000000000E+00  0.00000000000E+00  0.93800000000E+00  0.93800000000E+00 0. -1.
         11    1    1    2    0    0  0.13445301717E+00  0.36738216104E-01  0.80687683075E+00  0.81882708276E+00  0.51100000000E-03 0. -1.
    9000002    1    1    2    0    0 -0.43066624344E+00 -0.19631430206E+00  0.15446033270E+00  0.10619391286E+01  0.93800000000E+00 0. -1.
         22    1    1    2    0    0  0.29621322627E+00  0.15957608596E+00  0.30386628039E+01  0.30572337887E+01  0.00000000000E+00 0. -1.
</event>
<event>
 5    1  0.1173395E+001  0.1520081E+01  0.7818608E-02  0.3444951E+00
         11   -1    0    0    0    0  0.00000000000E+00  0.00000000000E+00  0.39999999674E+01  0.40000000000E+01  0.51100000000E-03 0. -1.
    9000002   -1    0    0    0    0 -0.00000000000E+00 -0.00000000000E+00  0.00000000000E+00  0.93800000000E+00  0.93800000000E+00 0. -1.
         11    1    1    2    0    0  0.33543261435E+00  0.26394492473E+00  0.10003896887E+01  0.10876404518E+01  0.51100000000E-03 0. -1.
    9000002    1    1    2    0    0 -0.21940030557E+00 -0.48666461331E+00  0.27440452948E+00  0.11136071056E+01  0.93800000000E+00 0. -1.
         22    1    1    2    0    0 -0.11603230878E+00  0.22271968858E+00  0.27252057492E+01  0.27367524425E+01  0.00000000000E+00 0. -1.
</event>
<event>
 5    1  0.1173395E+001  0.1587496E+01  0.7818608E-02  0.3367048E+00
         11   -1    0    0    0    0  0.00000000000E+00  0.00000000000E+00  0.39999999674E+01  0.40000000000E+01  0.51100000000E-03 0. -1.
    9000002   -1    0    0    0    0 -0.00000000000E+00 -0.00000000000E+00  0.00000000000E+00  0.93800000000E+00  0.93800000000E+00 0.  1.
         11    1    1    2    0    0  0.42331565960E-01  0.36338995613E-01  0.86813639753E+00  0.86992732451E+00  0.51100000000E-03 0. -1.
    9000002    1    1    2    0    0  0.30447533320E+00 -0.11377079712E+00  0.80380146963E-01  0.99596887041E+00  0.93800000000E+00 0.  1.
         22    1    1    2    0    0 -0.34680689916E+00  0.77431801507E-01  0.30514834229E+01  0.30721038051E+01  0.00000000000E+00 0. -1.
</event>
<event>
 5    1  0.1173395E+001  0.1557856E+01  0.7818608E-02  0.3400415E+00
         11   -1    0    0    0    0  0.00000000000E+00  0.00000000000E+00  0.39999999674E+01  0.40000000000E+01  0.51100000000E-03 0. -1.
    9000002   -1    0    0    0    0 -0.00000000000E+00 -0.00000000000E+00  0.00000000000E+00  0.93800000000E+00  0.93800000000E+00 0. -1.
         11    1    1    2    0    0 -0.84198518668E-01  0.14737182365E+00  0.11825929597E+01  0.11947109334E+01  0.51100000000E-03 0. -1.
    9000002    1    1    2    0    0 -0.14459561851E+00  0.12864975979E+00  0.56738569876E-01  0.95943833512E+00  0.93800000000E+00 0. -1.
         22    1    1    2    0    0  0.22879413718E+00 -0.27602158345E+00  0.27606684378E+01  0.27838507314E+01  0.00000000000E+00 0. -1.
</event>
<event>
 5    1  0.1173395E+001  0.1556970E+01  0.7818608E-02  0.3401433E+00
         11   -1    0    0    0    0  0.00000000000E+00  0.00000000000E+00  0.39999999674E+01  0.40000000000E+01  0.51100000000E-03 0.  1.
    9000002   -1    0    0    0    0 -0.00000000000E+00 -0.00000000000E+00  0.00000000000E+00  0.93800000000E+00  0.93800000000E+00 0.  1.
         11    1    1    2    0    0 -0.31042769277E+00  0.22952169215E+00  0.13106797188E+01  0.13663554245E+01  0.51100000000E-03 0.  1.
    9000002    1    1    2    0    0  0.22297339510E+00 -0.49873142965E+00  0.24734197531E+00  0.11133158701E+01  0.93800000000E+00 0.  1.
         22    1    1    2    0    0  0.87454297667E-01  0.26920973750E+00  0.24419782732E+01  0.24583287054E+01  0.00000000000E+00 0. -1.
</event>
<event>
 5    1  0.1173395E+001  0.1557886E+01  0.7818608E-02  0.3400381E+00
         11   -1    0    0    0    0  0.00000000000E+00  0.00000000000E+00  0.39999999674E+01  0.40000000000E+01  0.51100000000E-03 0.  1.
    9000002   -1    0    0    0    0 -0.00000000000E+00 -0.00000000000E+00  0.00000000000E+00  0.93800000000E+00  0.93800000000E+00 0.  1.
         11    1    1    2    0    0 -0.15695165005E+00 -0.10343697783E+00  0.10531883051E+01  0.10698312465E+01  0.51100000000E-03 0.  1.
    9000002    1    1    2    0    0 -0.89849140265E-01 -0.65462990722E-01  0.39367907197E-01  0.94538463245E+00  0.93800000000E+00 0.  1.
         22    1    1    2    0    0  0.24680079032E+00  0.16889996855E+00  0.29074437551E+01  0.29227841211E+01  0.00000000000E+00 0.  1.
</event>
<event>
 5    1  0.1173395E+001  0.1651835E+01  0.7818608E-02  0.3298957E+00
         11   -1    0    0    0    0  0.00000000000E+00  0.00000000000E+00  0.39999999674E+01  0.40000000000E+01  0.51100000000E-03 0.  1.
    9000002   -1    0    0    0    0 -0.00000000000E+00 -0.00000000000E+00  0.00000000000E+00  0.93800000000E+00  0.93800000000E+00 0.  1.
         11    1    1    2    0    0 -0.31775311244E+00  0.73202824967E-02 -0.12299875103E-01  0.31807573791E+00  0.51100000000E-03 0.  1.
    9000002    1    1    2    0    0  0.39829708787E+00 -0.49328881181E+00  0.84038655177E+00  0.14099886448E+01  0.93800000000E+00 0.  1.
         22    1    1    2    0    0 -0.80543975431E-01  0.48596852932E+00  0.31719132907E+01  0.32099356173E+01  0.00000000000E+00 0.  1.
</event>
<event>
 5    1  0.1173395E+001  0.1573144E+01  0.7818608E-02  0.3383038E+00
         11   -1    0    0    0    0  0.00000000000E+00  0.00000000000E+00  0.39999999674E+01  0.40000000000E+01  0.51100000000E-03 0. -1.
    9000002   -1    0    0    0    0 -0.00000000000E+00 -0.00000000000E+00  0.00000000000E+00  0.93800000000E+00  0.93800000000E+00 0.  1.
         11    1    1    2    0    0  0.63276699362E-01  0.15073940254E+00  0.11264959040E+01  0.11382967939E+01  0.51100000000E-03 0. -1.
    9000002    1    1    2    0    0 -0.22246619589E+00  0.92404394221E-01  0.58999918430E-01  0.97023438960E+00  0.93800000000E+00 0.  1.
         22    1    1    2    0    0  0.15918949653E+00 -0.24314379676E+00  0.28145041450E+01  0.28294688165E+01  0.00000000000E+00 0. -1.
</event>
<event>
 5    1  0.1173395E+001  0.1585220E+01  0.7818608E-02  0.3369563E+00
         11   -1    0    0    0    0  0.00000000000E+00  0.00000000000E+00  0.39999999674E+01  0.40000000000E+01  0.51100000000E-03 0.  1.
    9000002   -1    0    0    0    0 -0.00000000000E+00 -0.00000000000E+00  0.00000000000E+00  0.93800000000E+00  0.93800000000E+00 0.  1.
         11    1    1    2    0    0 -0.16997493814E+00 -0.68043041454E-01  0.11066414901E+01  0.11216848862E+01  0.51100000000E-03 0.  1.
    9000002    1    1    2    0    0  0.51859342413E+00 -0.21298187918E+00  0.23145565334E+00  0.11170121485E+01  0.93800000000E+00 0.  1.
         22    1    1    2    0    0 -0.34861848599E+00  0.28102492063E+00  0.26619028239E+01  0.26993029653E+01  0.00000000000E+00 0.  1.
</event>
<event>
 5    1  0.1173395E+001  0.1452945E+01  0.7818608E-02  0.3530266E+00
         11   -1    0    0    0    0  0.00000000000E+00  0.00000000000E+00  0.39999999674E+01  0.40000000000E+01  0.51100000000E-03 0. -1.
    9000002   -1    0    0    0    0 -0.00000000000E+00 -0.00000000000E+00  0.00000000000E+00  0.93800000000E+00  0.93800000000E+00 0. -1.
         11    1    1    2    0    0  0.37658455246E+00 -0.23819000930E+00  0.93936904411E+00  0.10396946032E+01  0.51100000000E-03 0. -1.
    9000002    1    1    2    0    0 -0.60229327856E-01  0.24916720842E+00  0.16605633057E+00  0.98647380838E+00  0.93800000000E+00 0. -1.
         22    1    1    2    0    0 -0.31635522460E+00 -0.10977199118E-01  0.28945745927E+01  0.29118315885E+01  0.00000000000E+00 0. -1.
</event>
<event>
 5    1  0.1173395E+001  0.1529948E+01  0.7818608E-02  0.3433091E+00
         11   -1    0    0    0    0  0.00000000000E+00  0.00000000000E+00  0.39999999674E+01  0.40000000000E+01  0.51100000000E-03 0.  1.
    9000002   -1    0    0    0    0 -0.00000000000E+00 -0.00000000000E+00  0.00000000000E+00  0.93800000000E+00  0.93800000000E+00 0. -1.
         11    1    1    2    0    0  0.53301465139E-01 -0.23103715096E+00  0.90499628059E+00  0.93554141560E+00  0.51100000000E-03 0.  1.
    9000002    1    1    2    0    0 -0.13689091406E+00 -0.15798487879E+00  0.83334202992E-01  0.96461750641E+00  0.93800000000E+00 0. -1.
         22    1    1    2    0    0  0.83589448921E-01  0.38902202974E+00  0.30116694838E+01  0.30378410780E+01  0.00000000000E+00 0.  1.
</event>
<event>
 5    1  0.1173395E+001  0.1587005E+01  0.7818608E-02  0.3367589E+00
         11   -1    0    0    0    0  0.00000000000E+00  0.00000000000E+00  0.39999999674E+01  0.40000000000E+01  0.51100000000E-03 0.  1.
    9000002   -1    0    0    0    0 -0.00000000000E+00 -0.00000000000E+00  0.00000000000E+00  0.93800000000E+00  0.93800000000E+00 0.  1.
         11    1    1    2    0    0 -0.13809394264E+00 -0.17041258498E+00  0.13365295774E+01  0.13544083426E+01  0.51100000000E-03 0.  1.
    9000002    1    1    2    0    0  0.41064771525E-01  0.39236056865E+00  0.11548285593E+00  0.10241159218E+01  0.93800000000E+00 0.  1.
         22    1    1    2    0    0  0.97029171111E-01 -0.22194798368E+00  0.25479875340E+01  0.25594757356E+01  0.00000000000E+00 0.  1.
</event>
<event>
 5    1  0.1173395E+001  0.1492488E+01  0.7818608E-02  0.3479012E+00
         11   -1    0    0    0    0  0.00000000000E+00  0.00000000000E+00  0.39999999674E+01  0.40000000000E+01  0.51100000000E-03 0. -1.
    9000002   -1    0    0    0    0 -0.00000000000E+00 -0.00000000000E+00  0.00000000000E+00  0.93800000000E+00  0.93800000000E+00 0.  1.
         11    1    1    2    0    0 -0.17659177398E+00  0.26692842897E-01  0.22186488087E+00  0.28481827361E+00  0.51100000000E-03 0. -1.
    9000002    1    1    2    0    0 -0.24593732482E+00 -0.61117531503E-01  0.12975598368E+00  0.98025564813E+00  0.93800000000E+00 0.  1.
         22    1    1    2    0    0  0.42252909879E+00  0.34424688606E-01  0.36483791028E+01  0.36729260783E+01  0.00000000000E+00 0. -1.
</event>
<event>
 5    1  0.1173395E+001  0.1592441E+01  0.7818608E-02  0.3361609E+00
         11   -1    0    0    0    0  0.00000000000E+00  0.00000000000E+00  0.39999999674E+01  0.40000000000E+01  0.51100000000E-03 0.  1.
    9000002   -1    0    0    0    0 -0.00000000000E+00 -0.00000000000E+00  0.00000000000E+00  0.93800000000E+00  0.93800000000E+00 0.  1.
         11    1    1    2    0    0 -0.19993910241E+00  0.30352704614E-01  0.84902615319E+00  0.87277866683E+00  0.51100000000E-03 0.  1.
    9000002    1    1    2    0    0  0.61651852413E+00  0.14486260054E+00  0.28941741244E+00  0.11681980578E+01  0.93800000000E+00 0.  1.
         22    1    1    2    0    0 -0.41657942172E+00 -0.17521530516E+00  0.28615564017E+01  0.28970232754E+01  0.00000000000E+00 0.  1.
</event>
<event>
 5    1  0.1173395E+001  0.1548841E+01  0.7818608E-02  0.3410833E+00
         11   -1    0    0    0    0  0.00000000000E+00  0.00000000000E+00  0.39999999674E+01  0.40000000000E+01  0.51100000000E-03 0.  1.
    9000002   -1    0    0    0    0 -0.00000000000E+00 -0.00000000000E+00  0.00000000000E+00  0.93800000000E+00  0.93800000000E+00 0.  1.
         11    1    1    2    0    0  0.22687874156E+00 -0.82837878763E-01  0.11642379640E+01  0.11890274914E+01  0.51100000000E-03 0.  1.
    9000002    1    1    2    0    0  0.14979026217E-03 -0.54950329664E-01  0.39825506558E-01  0.94045182340E+00  0.93800000000E+00 0.  1.
         22    1    1    2    0    0 -0.22702853182E+00  0.13778820843E+00  0.27959364969E+01  0.28085206852E+01  0.00000000000E+00 0.  1.
</event>
<event>
 5    1  0.1173395E+001  0.1563481E+01  0.7818608E-02  0.3393979E+00
         11   -1    0    0    0    0  0.00000000000E+00  0.00000000000E+00  0.39999999674E+01  0.40000000000E+01  0.51100000000E-03 0. -1.
    9000002   -1    0    0    0    0 -0.00000000000E+00 -0.00000000000E+00  0.00000000000E+00  0.93800000000E+00  0.93800000000E+00 0.  1.
         11    1    1    2    0    0  0.45853598360E-01  0.15292020302E+00  0.93384579426E+00  0.94739398855E+00  0.51100000000E-03 0. -1.
    9000002    1    1    2    0    0 -0.17367854245E+00  0.17657268739E+00  0.68904146173E-01  0.97259134861E+00  0.93800000000E+00 0.  1.
         22    1    1    2    0    0  0.12782494409E+00 -0.32949289040E+00  0.29972500269E+01  0.30180146628E+01  0.00000000000E+00 0. -1.
</event>
<event>
 5    1  0.1173395E+001  0.1586924E+01  0.7818608E-02  0.3367680E+00
         11   -1    0    0    0    0  0.00000000000E+00  0.00000000000E+00  0.39999999674E+01  0.40000000000E+01  0.51100000000E-03 0.  1.
    9000002   -1    0    0    0    0 -0.00000000000E+00 -0.00000000000E+00  0.00000000000E+00  0.93800000000E+00  0.93800000000E+00 0.  1.
         11    1    1    2    0    0 -0.12516731323E+00 -0.43240031165E-01  0.14907334482E+01  0.14966038325E+01  0.51100000000E-03 0.  1.
    9000002    1    1    2    0    0  0.19968626199E-01  0.27154662393E+00  0.59246986185E-01  0.97851444566E+00  0.93800000000E+00 0.  1.
         22    1    1    2    0    0  0.10519868703E+00 -0.22830659276E+00  0.24500195330E+01  0.24628817219E+01  0.00000000000E+00 0.  1.
</event>
<event>
 5    1  0.1173395E+001  0.1509095E+01  0.7818608E-02  0.3458352E+00
         11   -1    0    0    0    0  0.00000000000E+00  0.00000000000E+00  0.39999999674E+01  0.40000000000E+01  0.51100000000E-03 0.  1.
    9000002   -1    0    0    0    0 -0.00000000000E+00 -0.00000000000E+00  0.00000000000E+00  0.93800000000E+00  0.93800000000E+00 0.  1.
         11    1    1    2    0    0 -0.53508957616E+00  0.25842093430E-01  0.77883052697E+00  0.94528615729E+00  0.51100000000E-03 0.  1.
    9000002    1    1    2    0    0  0.87151022410E+00  0.11353863978E+00  0.73639787116E+00  0.14814003234E+01  0.93800000000E+00 0.  1.
         22    1    1    2    0    0 -0.33642064794E+00 -0.13938073321E+00  0.24847715692E+01  0.25113135193E+01  0.00000000000E+00 0.  1.
</event>
<event>
 5    1  0.1173395E+001  0.1266155E+01  0.7818608E-02  0.3848809E+00
         11   -1    0    0    0    0  0.00000000000E+00  0.00000000000E+00  0.39999999674E+01  0.40000000000E+01  0.51100000000E-03 0.  1.
    9000002   -1    0    0    0    0 -0.00000000000E+00 -0.00000000000E+00  0.00000000000E+00  0.93800000000E+00  0.93800000000E+00 0.  1.
         11    1    1    2    0    0 -0.23221475838E-01  0.56078510882E+00  0.40447825275E+00  0.69182518983E+00  0.51100000000E-03 0.  1.
    9000002    1    1    2    0    0  0.32203563651E+00 -0.39262518801E+00  0.58565182342E+00  0.12168375190E+01  0.93800000000E+00 0.  1.
         22    1    1    2    0    0 -0.29881416067E+00 -0.16815992081E+00  0.30098698912E+01  0.30293372911E+01  0.00000000000E+00 0.  1.
</event>
<event>
 5    1  0.1173395E+001  0.1545511E+01  0.7818608E-02  0.3414714E+00
         11   -1    0    0    0    0  0.00000000000E+00  0.00000000000E+00  0.39999999674E+01  0.40000000000E+01  0.51100000000E-03 0. -1.
    9000002   -1    0    0    0    0 -0.00000000000E+00 -0.00000000000E+00  0.00000000000E+00  0.93800000000E+00  0.93800000000E+00 0.  1.
         11    1    1    2    0    0  0.22372238429E+00 -0.25908745293E+00  0.14301103511E+01  0.14705080384E+01  0.51100000000E-03 0. -1.
    9000002    1    1    2    0    0  0.21560643690E-01  0.32242489704E+00  0.11406711136E+00  0.99863806330E+00  0.93800000000E+00 0.  1.
         22    1    1    2    0    0 -0.24528302798E+00 -0.63337444114E-01  0.24558225049E+01  0.24688538983E+01  0.00000000000E+00 0.  1.
</event>
<event>
 5    1  0.1173395E+001  0.1595362E+01  0.7818608E-02  0.3358412E+00
         11   -1    0    0    0    0  0.00000000000E+00  0.00000000000E+00  0.39999999674E+01  0.40000000000E+01  0.51100000000E-03 0. -1.
    9000002   -1    0    0    0    0 -0.00000000000E+00 -0.00000000000E+00  0.00000000000E+00  0.93800000000E+00  0.93800000000E+00 0.  1.
         11    1    1    2    0    0 -0.32428557281E-01  0.28383257433E-01  0.26346291913E+00  0.26696477578E+00  0.51100000000E-03 0. -1.
    9000002    1    1    2    0    0 -0.10857792013E+00 -0.40520435698E+00  0.12265718633E+00  0.10348277736E+01  0.93800000000E+00 0.  1.
         22    1    1    2    0    0  0.14100647741E+00  0.37682109954E+00  0.36138798619E+01  0.36362074506E+01  0.00000000000E+00 0. -1.
</event>
<event>
 5    1  0.1173395E+001  0.1599322E+01  0.7818608E-02  0.3354100E+00
         11   -1    0    0    0    0  0.00000000000E+00  0.00000000000E+00  0.39999999674E+01  0.40000000000E+01  0.51100000000E-03 0. -1.
    9000002   -1    0    0    0    0 -0.00000000000E+00 -0.00000000000E+00  0.00000000000E+00  0.93800000000E+00  0.93800000000E+00 0. -1.
         11    1    1    2    0    0 -0.19204920548E+00 -0.53654805872E-01  0.12557413003E+01  0.12714748169E+01  0.51100000000E-03 0. -1.
    9000002    1    1    2    0    0  0.52115255823E+00  0.19059410790E+00  0.21322133645E+00  0.11105104418E+01  0.93800000000E+00 0. -1.
         22    1    1    2    0    0 -0.32910335275E+00 -0.13693930203E+00  0.25310373306E+01  0.25560147414E+01  0.00000000000E+00 0. -1.
</event>
<event>
 5    1  0.1173395E+001  0.1537891E+01  0.7818608E-02  0.3423661E+00
         11   -1    0    0    0    0  0.00000000000E+00  0.00000000000E+00  0.39999999674E+01  0.40000000000E+01  0.51100000000E-03 0. -1.
    9000002   -1    0    0    0    0 -0.00000000000E+00 -0.00000000000E+00  0.00000000000E+00  0.93800000000E+00  0.93800000000E+00 0. -1.
         11    1    1    2    0    0  0.40809910641E-01  0.21293267853E+00  0.70825032986E+00  0.74069195032E+00  0.51100000000E-03 0. -1.
    9000002    1    1    2    0    0 -0.12583584380E-01  0.81275111496E-01  0.50862025685E-01  0.94297133361E+00  0.93800000000E+00 0. -1.
         22    1    1    2    0    0 -0.28226326261E-01 -0.29420779003E+00  0.32408876118E+01  0.32543367161E+01  0.00000000000E+00 0. -1.
</event>
<event>
 5    1  0.1173395E+001  0.1584477E+01  0.7818608E-02  0.3370385E+00
         11   -1    0    0    0    0  0.00000000000E+00  0.00000000000E+00  0.39999999674E+01  0.40000000000E+01  0.51100000000E-03 0.  1.
    9000002   -1    0    0    0    0 -0.00000000000E+00 -0.00000000000E+00  0.00000000000E+00  0.93800000000E+00  0.93800000000E+00 0. -1.
         11    1    1    2    0    0  0.88078467179E-01 -0.80189753907E-01  0.70160315667E+00  0.71164279212E+00  0.51100000000E-03 0.  1.
    9000002    1    1    2    0    0 -0.28215878855E+00 -0.15259009258E+00  0.80911813400E-01  0.99462959933E+00  0.93800000000E+00 0. -1.
         22    1    1    2    0    0  0.19408032137E+00  0.23277984648E+00  0.32174849973E+01  0.32317276086E+01  0.00000000000E+00 0.  1.
</event>
<event>
 5    1  0.1173395E+001  0.1579745E+01  0.7818608E-02  0.3375646E+00
         11   -1    0    0    0    0  0.00000000000E+00  0.00000000000E+00  0.39999999674E+01  0.40000000000E+01  0.51100000000E-03 0.  1.
    9000002   -1    0    0    0    0 -0.00000000000E+00 -0.00000000000E+00  0.00000000000E+00  0.93800000000E+00  0.93800000000E+00 0.  1.
         11    1    1    2    0    0  0.25560516149E-01 -0.75248610958E-01  0.10550395264E+01  0.10580285237E+01  0.51100000000E-03 0.  1.
    9000002    1    1    2    0    0  0.14192172967E+00 -0.22825551761E+00  0.63584768923E-01  0.97781868540E+00  0.93800000000E+00 0.  1.
         22    1    1    2    0    0 -0.16748224581E+00  0.30350412857E+00  0.28813756720E+01  0.29021527909E+01  0.00000000000E+00 0. -1.
</event>
<event>
 5    1  0.1173395E+001  0.1517742E+01  0.7818608E-02  0.3447786E+00
         11   -1    0    0    0    0  0.00000000000E+00  0.00000000000E+00  0.39999999674E+01  0.40000000000E+01  0.51100000000E-03 0.  1.
    9000002   -1    0    0    0    0 -0.00000000000E+00 -0.00000000000E+00  0.00000000000E+00  0.93800000000E+00  0.93800000000E+00 0.  1.
         11    1    1    2    0    0 -0.26262201141E+00  0.14015784327E+00  0.76959552313E+00  0.82516184610E+00  0.51100000000E-03 0.  1.
    9000002    1    1    2    0    0 -0.23845521451E-01 -0.31913512671E+00  0.13637937059E+00  0.10004294931E+01  0.93800000000E+00 0.  1.
         22    1    1    2    0    0  0.28646753286E+00  0.17897728343E+00  0.30940250736E+01  0.31124086608E+01  0.00000000000E+00 0.  1.
</event>
<event>
 5    1  0.1173395E+001  0.1537294E+01  0.7818608E-02  0.3424367E+00
         11   -1    0    0    0    0  0.00000000000E+00  0.00000000000E+00  0.39999999674E+01  0.40000000000E+01  0.51100000000E-03 0.  1.
    9000002   -1    0    0    0    0 -0.00000000000E+00 -0.00000000000E+00  0.00000000000E+00  0.93800000000E+00  0.93800000000E+00 0.  1.
         11    1    1    2    0    0  0.24125505885E+00 -0.22999543415E-01  0.88020091034E+00  0.91295502961E+00  0.51100000000E-03 0.  1.
    9000002    1    1    2    0    0  0.44789669322E-01  0.11705745726E+00  0.57611410393E-01  0.94808841222E+00  0.93800000000E+00 0.  1.
         22    1    1    2    0    0 -0.28604472817E+00 -0.94057913848E-01  0.30621876466E+01  0.30769565582E+01  0.00000000000E+00 0.  1.
</event>
<event>
 5    1  0.1173395E+001  0.1515139E+01  0.7818608E-02  0.3450954E+00
         11   -1    0    0    0    0  0.00000000000E+00  0.00000000000E+00  0.39999999674E+01  0.40000000000E+01  0.51100000000E-03 0. -1.
    9000002   -1    0    0    0    0 -0.00000000000E+00 -0.00000000000E+00  0.00000000000E+00  0.93800000000E+00  0.93800000000E+00 0.  1.
         11    1    1    2    0    0  0.18328804179E+00  0.16450428337E+00  0.65931148267E+00  0.70380967443E+00  0.51100000000E-03 0. -1.
    9000002    1    1    2    0    0  0.19467707244E+00 -0.74652881864E-01  0.95273517705E-01  0.96560512555E+00  0.93800000000E+00 0.  1.
         22    1    1    2    0    0 -0.37796511423E+00 -0.89851401507E-01  0.32454149670E+01  0.32685852000E+01  0.00000000000E+00 0. -1.
</event>
<event>
 5    1  0.1173395E+001  0.1515690E+01  0.7818608E-02  0.3450282E+00
         11   -1    0    0    0    0  0.00000000000E+00  0.00000000000E+00  0.39999999674E+01  0.40000000000E+01  0.51100000000E-03 0.  1.
    9000002   -1    0    0    0    0 -0.00000000000E+00 -0.00000000000E+00  0.00000000000E+00  0.93800000000E+00  0.93800000000E+00 0.  1.
         11    1    1    2    0    0  0.20822349998E+00  0.12489312260E+00  0.59636526252E+00  0.64389991884E+00  0.51100000000E-03 0.  1.
    9000002    1    1    2    0    0  0.16957036171E-01  0.10013666089E+00  0.70842501028E-01  0.94613823085E+00  0.93800000000E+00 0.  1.
         22    1    1    2    0    0 -0.22518053616E+00 -0.22502978350E+00  0.33327922038E+01  0.33479618503E+01  0.00000000000E+00 0.  1.
</event>
<event>
 5    1  0.1173395E+001  0.1569377E+01  0.7818608E-02  0.3387287E+00
         11   -1    0    0    0    0  0.00000000000E+00  0.00000000000E+00  0.39999999674E+01  0.40000000000E+01  0.51100000000E-03 0. -1.
    9000002   -1    0    0    0    0 -0.00000000000E+00 -0.00000000000E+00  0.00000000000E+00  0.93800000000E+00  0.93800000000E+00 0.  1.
         11    1    1    2    0    0 -0.85087578371E-01 -0.11088827157E+00  0.80904622356E+00  0.82103115516E+00  0.51100000000E-03 0. -1.
    9000002    1    1    2    0    0 -0.15602393844E+00 -0.54555351445E-01  0.40855074249E-01  0.95332727478E+00  0.93800000000E+00 0.  1.
         22    1    1    2    0    0  0.24111151681E+00  0.16544362302E+00  0.31500986695E+01  0.31636415701E+01  0.00000000000E+00 0. -1.
</event>
<event>
 5    1  0.1173395E+001  0.1588514E+01  0.7818608E-02  0.3365925E+00
         11   -1    0    0    0    0  0.00000000000E+00  0.00000000000E+00  0.39999999674E+01  0.40000000000E+01  0.51100000000E-03 0. -1.
    9000002   -1    0    0    0    0 -0.00000000000E+00 -0.00000000000E+00  0.00000000000E+00  0.93800000000E+00  0.93800000000E+00 0. -1.
         11    1    1    2    0    0  0.11582095033E+00 -0.13033611174E+00  0.13500953998E+01  0.13613081371E+01  0.51100000000E-03 0. -1.
    9000002    1    1    2    0    0  0.14346989704E-01  0.35814390766E+00  0.95314509113E-01  0.10086633484E+01  0.93800000000E+00 0. -1.
         22    1    1    2    0    0 -0.13016794003E+00 -0.22780779592E+00  0.25545900584E+01  0.25680285145E+01  0.00000000000E+00 0. -1.
</event>
<event>
 5    1  0.1173395E+001  0.1558540E+01  0.7818608E-02  0.3399629E+00
         11   -1    0    0    0    0  0.00000000000E+00  0.00000000000E+00  0.39999999674E+01  0.40000000000E+01  0.51100000000E-03 0. -1.
    9000002   -1    0    0    0    0 -0.00000000000E+00 -0.00000000000E+00  0.00000000000E+00  0.93800000000E+00  0.93800000000E+00 0. -1.
         11    1    1    2    0    0  0.92944725797E-02 -0.51544805601E+00  0.12386154559E+01  0.13416190199E+01  0.51100000000E-03 0. -1.
    9000002    1    1    2    0    0 -0.56635158402E+00 -0.12165358240E+00  0.55709140527E+00  0.12352119432E+01  0.93800000000E+00 0. -1.
         22    1    1    2    0    0  0.55705711144E+00  0.63710163841E+00  0.22042931061E+01  0.23611690369E+01  0.00000000000E+00 0. -1.
</event>
<event>
 5    1  0.1173395E+001  0.1555525E+01  0.7818608E-02  0.3403097E+00
         11   -1    0    0    0    0  0.00000000000E+00  0.00000000000E+00  0.39999999674E+01  0.40000000000E+01  0.51100000000E-03 0. -1.
    9000002   -1    0    0    0    0 -0.00000000000E+00 -0.00000000000E+00  0.00000000000E+00  0.93800000000E+00  0.93800000000E+00 0.  1.
         11    1    1    2    0    0 -0.18314977699E+00 -0.39244815847E+00  0.13636111469E+01  0.14307323366E+01  0.51100000000E-03 0. -1.
    9000002    1    1    2    0    0  0.44418596121E+00  0.39847044791E+00  0.29341496396E+00  0.11497896360E+01  0.93800000000E+00 0.  1.
         22    1    1    2    0    0 -0.26103618422E+00 -0.60222894332E-02  0.23429738565E+01  0.23574780274E+01  0.00000000000E+00 0. -1.
</event>
<event>
 5    1  0.1173395E+001  0.1531236E+01  0.7818608E-02  0.3431555E+00
         11   -1    0    0    0    0  0.00000000000E+00  0.00000000000E+00  0.39999999674E+01  0.40000000000E+01  0.51100000000E-03 0.  1.
    9000002   -1    0    0    0    0 -0.00000000000E+00 -0.00000000000E+00  0.00000000000E+00  0.93800000000E+00  0.93800000000E+00 0.  1.
         11    1    1    2    0    0  0.21556262158E+00  0.14792935746E+00  0.13063530110E+01  0.13322570282E+01  0.51100000000E-03 0.  1.
    9000002    1    1    2    0    0 -0.11054479633E+00  0.26790089758E+00  0.11131960298E+00  0.98804205221E+00  0.93800000000E+00 0.  1.
         22    1    1    2    0    0 -0.10501782525E+00 -0.41583025504E+00  0.25823273533E+01  0.26177009196E+01  0.00000000000E+00 0.  1.
</event>
<event>
 5    1  0.1173395E+001  0.1483486E+01  0.7818608E-02  0.3490420E+00
         11   -1    0    0    0    0  0.00000000000E+00  0.00000000000E+00  0.39999999674E+01  0.40000000000E+01  0.51100000000E-03 0. -1.
    9000002   -1    0    0    0    0 -0.00000000000E+00 -0.00000000000E+00  0.00000000000E+00  0.93800000000E+00  0.93800000000E+00 0. -1.
         11    1    1    2    0    0 -0.64068880362E-01  0.45490764261E+00  0.12830615226E+01  0.13628253434E+01  0.51100000000E-03 0. -1.
    9000002    1    1    2    0    0  0.17983398461E+00 -0.19681512579E+00  0.14281258727E+00  0.98555359613E+00  0.93800000000E+00 0. -1.
         22    1    1    2    0    0 -0.11576510425E+00 -0.25809251682E+00  0.25741258575E+01  0.25896210605E+01  0.00000000000E+00 0.  1.
</event>
<event>
 5    1  0.1173395E+001  0.1534675E+01  0.7818608E-02  0.3427467E+00
         11   -1    0    0    0    0  0.00000000000E+00  0.00000000000E+00  0.39999999674E+01  0.40000000000E+01  0.51100000000E-03 0. -1.
    9000002   -1    0    0    0    0 -0.00000000000E+00 -0.00000000000E+00  0.00000000000E+00  0.93800000000E+00  0.93800000000E+00 0.  1.
         11    1    1    2    0    0  0.68760598824E-01 -0.21220612566E+00  0.76765022857E+00  0.79940389933E+00  0.51100000000E-03 0. -1.
    9000002    1    1    2    0    0  0.19761642793E+00 -0.37090841164E-01  0.77185090915E-01  0.96240818853E+00  0.93800000000E+00 0.  1.
         22    1    1    2    0    0 -0.26637702675E+00  0.24929696682E+00  0.31551646479E+01  0.31761879121E+01  0.00000000000E+00 0.  1.
</event>
<event>
 5    1  0.1173395E+001  0.1189534E+01  0.7818608E-02  0.4017845E+00
         11   -1    0    0    0    0  0.00000000000E+00  0.00000000000E+00  0.39999999674E+01  0.40000000000E+01  0.51100000000E-03 0.  1.
    9000002   -1    0    0    0    0 -0.00000000000E+00 -0.00000000000E+00  0.00000000000E+00  0.93800000000E+00  0.93800000000E+00 0. -1.
         11    1    1    2    0    0  0.17516107212E+00  0.86395077792E+00  0.78362516826E+00  0.11794748888E+01  0.51100000000E-03 0.  1.
    9000002    1    1    2    0    0 -0.16150660726E+00 -0.57172644156E+00  0.91535595672E+00  0.14389843764E+01  0.93800000000E+00 0. -1.
         22    1    1    2    0    0 -0.13654464862E-01 -0.29222433636E+00  0.23010188424E+01  0.23195407348E+01  0.00000000000E+00 0. -1.
</event>
<event>
 5    1  0.1173395E+001  0.1493295E+01  0.7818608E-02  0.3477996E+00
         11   -1    0    0    0    0  0.00000000000E+00  0.00000000000E+00  0.39999999674E+01  0.40000000000E+01  0.51100000000E-03 0.  1.
    9000002   -1    0    0    0    0 -0.00000000000E+00 -0.00000000000E+00  0.00000000000E+00  0.93800000000E+00  0.93800000000E+00 0.  1.
         11    1    1    2    0    0  0.42213189152E+00 -0.13535970576E+00  0.76662141472E+00  0.88556549075E+00  0.51100000000E-03 0.  1.
    9000002    1    1    2    0    0 -0.38627373415E+00  0.64267102063E+00  0.54918483403E+00  0.13204852973E+01  0.93800000000E+00 0.  1.
         22    1    1    2    0    0 -0.35858157369E-01 -0.50731131487E+00  0.26841937186E+01  0.27319492120E+01  0.00000000000E+00 0.  1.
</event>
<event>
 5    1  0.1173395E+001  0.1583570E+01  0.7818608E-02  0.3371392E+00
         11   -1    0    0    0    0  0.00000000000E+00  0.00000000000E+00  0.39999999674E+01  0.40000000000E+01  0.51100000000E-03 0.  1.
    9000002   -1    0    0    0    0 -0.00000000000E+00 -0.00000000000E+00  0.00000000000E+00  0.93800000000E+00  0.93800000000E+00 0.  1.
         11    1    1    2    0    0 -0.14647571395E+00 -0.34946688849E+00  0.13492007323E+01  0.14014011268E+01  0.51100000000E-03 0.  1.
    9000002    1    1    2    0    0  0.12519377362E+00  0.64996035083E+00  0.32746641785E+00  0.11938174875E+01  0.93800000000E+00 0.  1.
         22    1    1    2    0    0  0.21281940332E-01 -0.30049346235E+00  0.23233328172E+01  0.23427813857E+01  0.00000000000E+00 0.  1.
</event>
<event>
 5    1  0.1173395E+001  0.1539700E+01  0.7818608E-02  0.3421530E+00
         11   -1    0    0    0    0  0.00000000000E+00  0.00000000000E+00  0.39999999674E+01  0.40000000000E+01  0.51100000000E-03 0.  1.
    9000002   -1    0    0    0    0 -0.00000000000E+00 -0.00000000000E+00  0.00000000000E+00  0.93800000000E+00  0.93800000000E+00 0. -1.
         11    1    1    2    0    0  0.20125041753E+00 -0.73651056117E-01  0.11606538561E+01  0.11802727835E+01  0.51100000000E-03 0.  1.
    9000002    1    1    2    0    0  0.11656641421E+00 -0.18935164682E+00  0.79551762467E-01  0.96727155339E+00  0.93800000000E+00 0. -1.
         22    1    1    2    0    0 -0.31781683174E+00  0.26300270294E+00  0.27597943488E+01  0.27904556631E+01  0.00000000000E+00 0.  1.
</event>
<event>
 5    1  0.1173395E+001  0.1468741E+01  0.7818608E-02  0.3509433E+00
         11   -1    0    0    0    0  0.00000000000E+00  0.00000000000E+00  0.39999999674E+01  0.40000000000E+01  0.51100000000E-03 0.  1.
    9000002   -1    0    0    0    0 -0.00000000000E+00 -0.00000000000E+00  0.00000000000E+00  0.93800000000E+00  0.93800000000E+00 0. -1.
         11    1    1    2    0    0 -0.49448393800E+00 -0.11195348211E+00  0.13749373708E+01  0.14654354240E+01  0.51100000000E-03 0.  1.
    9000002    1    1    2    0    0  0.20491852573E+00  0.47218958972E+00  0.31305262529E+00  0.11148096506E+01  0.93800000000E+00 0. -1.
         22    1    1    2    0    0  0.28956541228E+00 -0.36023610761E+00  0.23120099713E+01  0.23577549255E+01  0.00000000000E+00 0.  1.
</event>
<event>
 5    1  0.1173395E+001  0.1530896E+01  0.7818608E-02  0.3431960E+00
         11   -1    0    0    0    0  0.00000000000E+00  0.00000000000E+00  0.39999999674E+01  0.40000000000E+01  0.51100000000E-03 0. -1.
    9000002   -1    0    0    0    0 -0.00000000000E+00 -0.00000000000E+00  0.00000000000E+00  0.93800000000E+00  0.93800000000E+00 0. -1.
         11    1    1    2    0    0  0.26937357346E+00 -0.61749178015E-01  0.10642230677E+01  0.10995208420E+01  0.51100000000E-03 0. -1.
    9000002    1    1    2    0    0  0.32697638048E-02 -0.55338540510E-01  0.53701859386E-01  0.94116998206E+00  0.93800000000E+00 0. -1.
         22    1    1    2    0    0 -0.27264333727E+00  0.11708771852E+00  0.28820750403E+01  0.28973091760E+01  0.00000000000E+00 0. -1.
</event>
<event>
 5    1  0.1173395E+001  0.1543520E+01  0.7818608E-02  0.3417043E+00
         11   -1    0    0    0    0  0.00000000000E+00  0.00000000000E+00  0.39999999674E+01  0.40000000000E+01  0.51100000000E-03 0.  1.
    9000002   -1    0    0    0    0 -0.00000000000E+00 -0.00000000000E+00  0.00000000000E+00  0.93800000000E+00  0.93800000000E+00 0.  1.
         11    1    1    2    0    0  0.25874595429E+00  0.10978626945E+00  0.13864318328E+01  0.14146363426E+01  0.51100000000E-03 0.  1.
    9000002    1    1    2    0    0 -0.41262137245E-01  0.30805856980E-01  0.43645337805E-01  0.94042569101E+00  0.93800000000E+00 0.  1.
         22    1    1    2    0    0 -0.21748381705E+00 -0.14059212643E+00  0.25699227968E+01  0.25829379664E+01  0.00000000000E+00 0.  1.
</event>
<event>
 5    1  0.1173395E+001  0.1565846E+01  0.7818608E-02  0.3391288E+00
         11   -1    0    0    0    0  0.00000000000E+00  0.00000000000E+00  0.39999999674E+01  0.40000000000E+01  0.51100000000E-03 0. -1.
    9000002   -1    0    0    0    0 -0.00000000000E+00 -0.00000000000E+00  0.00000000000E+00  0.93800000000E+00  0.93800000000E+00 0. -1.
         11    1    1    2    0    0 -0.15198743709E+00  0.82554096047E-01  0.14733549070E+01  0.14834723803E+01  0.51100000000E-03 0. -1.
    9000002    1    1    2    0    0 -0.90976971746E-01  0.63000096786E-01  0.33241730015E-01  0.94508985509E+00  0.93800000000E+00 0. -1.
         22    1    1    2    0    0  0.24296440883E+00 -0.14555419283E+00  0.24934033303E+01  0.25094377646E+01  0.00000000000E+00 0.  1.
</event>
<event>
 5    1  0.1173395E+001  0.1573674E+01  0.7818608E-02  0.3382442E+00
         11   -1    0    0    0    0  0.00000000000E+00  0.00000000000E+00  0.39999999674E+01  0.40000000000E+01  0.51100000000E-03 0.  1.
    9000002   -1    0    0    0    0 -0.00000000000E+00 -0.00000000000E+00  0.00000000000E+00  0.93800000000E+00  0.93800000000E+00 0. -1.
         11    1    1    2    0    0 -0.11567152512E+00 -0.10589562720E+00  0.13337911238E+01  0.13429790798E+01  0.51100000000E-03 0.  1.
    9000002    1    1    2    0    0  0.29159409352E-01 -0.13018788648E+00  0.31107295936E-01  0.94795085358E+00  0.93800000000E+00 0. -1.
         22    1    1    2    0    0  0.86512115767E-01  0.23608351368E+00  0.26351015476E+01  0.26470700666E+01  0.00000000000E+00 0.  1.
</event>
<event>
 5    1  0.1173395E+001  0.1367141E+01  0.7818608E-02  0.3661035E+00
         11   -1    0    0    0    0  0.00000000000E+00  0.00000000000E+00  0.39999999674E+01  0.40000000000E+01  0.51100000000E-03 0. -1.
    9000002   -1    0    0    0    0 -0.00000000000E+00 -0.00000000000E+00  0.00000000000E+00  0.93800000000E+00  0.93800000000E+00 0. -1.
         11    1    1    2    0    0 -0.63070548107E+00  0.30196371140E+00  0.11559407886E+01  0.13509888433E+01  0.51100000000E-03 0. -1.
    9000002    1    1    2    0    0  0.36756903341E+00 -0.27451632241E+00  0.38366523159E+00  0.11124339151E+01  0.93800000000E+00 0. -1.
         22    1    1    2    0    0  0.26313644766E+00 -0.27447388990E-01  0.24603939472E+01  0.24745772416E+01  0.00000000000E+00 0. -1.
</event>
<event>
 5    1  0.1173395E+001  0.1521830E+01  0.7818608E-02  0.3442836E+00
         11   -1    0    0    0    0  0.00000000000E+00  0.00000000000E+00  0.39999999674E+01  0.40000000000E+01  0.51100000000E-03 0. -1.
    9000002   -1    0    0    0    0 -0.00000000000E+00 -0.00000000000E+00  0.00000000000E+00  0.93800000000E+00  0.93800000000E+00 0.  1.
         11    1    1    2    0    0 -0.23222696647E+00 -0.12087663385E+00  0.71319656312E+00  0.75973029645E+00  0.51100000000E-03 0. -1.
    9000002    1    1    2    0    0 -0.58103365815E-01  0.13327099977E+00  0.73705311853E-01  0.95205757888E+00  0.93800000000E+00 0.  1.
         22    1    1    2    0    0  0.29033033228E+00 -0.12394365923E-01  0.32130980924E+01  0.32262121247E+01  0.00000000000E+00 0. -1.
</event>
<event>
 5    1  0.1173395E+001  0.1508807E+01  0.7818608E-02  0.3458705E+00
         11   -1    0    0    0    0  0.00000000000E+00  0.00000000000E+00  0.39999999674E+01  0.40000000000E+01  0.51100000000E-03 0. -1.
    9000002   -1    0    0    0    0 -0.00000000000E+00 -0.00000000000E+00  0.00000000000E+00  0.93800000000E+00  0.93800000000E+00 0. -1.
         11    1    1    2    0    0  0.34879725784E-01  0.22217200592E+00  0.40928082871E+00  0.46699898646E+00  0.51100000000E-03 0. -1.
    9000002    1    1    2    0    0 -0.21448439181E+00  0.52227150725E-01  0.10437082514E+00  0.96926183188E+00  0.93800000000E+00 0. -1.
         22    1    1    2    0    0  0.17960466603E+00 -0.27439915664E+00  0.34863483135E+01  0.35017391817E+01  0.00000000000E+00 0. -1.
</event>
<event>
 5    1  0.1173395E+001  0.1571050E+01  0.7818608E-02  0.3385397E+00
         11   -1    0    0    0    0  0.00000000000E+00  0.00000000000E+00  0.39999999674E+01  0.40000000000E+01  0.51100000000E-03 0.  1.
    9000002   -1    0    0    0    0 -0.00000000000E+00 -0.00000000000E+00  0.00000000000E+00  0.93800000000E+00  0.93800000000E+00 0.  1.
         11    1    1    2    0    0 -0.24260790373E+00 -0.16117525854E+00  0.14575750936E+01  0.14863920995E+01  0.51100000000E-03 0.  1.
    9000002    1    1    2    0    0  0.43552546814E+00 -0.55091977072E-01  0.15561907339E+00  0.10472721019E+01  0.93800000000E+00 0.  1.
         22    1    1    2    0    0 -0.19291756441E+00  0.21626723561E+00  0.23868058004E+01  0.24043357986E+01  0.00000000000E+00 0.  1.
</event>
<event>
 5    1  0.1173395E+001  0.1518667E+01  0.7818608E-02  0.3446664E+00
         11   -1    0    0    0    0  0.00000000000E+00  0.00000000000E+00  0.39999999674E+01  0.40000000000E+01  0.51100000000E-03 0.  1.
    9000002   -1    0    0    0    0 -0.00000000000E+00 -0.00000000000E+00  0.00000000000E+00  0.93800000000E+00  0.93800000000E+00 0.  1.
         11    1    1    2    0    0  0.14868863244E+00 -0.17888700019E+00  0.59142966285E+00  0.63552983838E+00  0.51100000000E-03 0.  1.
    9000002    1    1    2    0    0  0.14775216062E+00 -0.70067205153E-03  0.76740814798E-01  0.95266171570E+00  0.93800000000E+00 0.  1.
         22    1    1    2    0    0 -0.29644079306E+00  0.17958767224E+00  0.33318294897E+01  0.33498084459E+01  0.00000000000E+00 0.  1.
</event>
<event>
 5    1  0.1173395E+001  0.1480652E+01  0.7818608E-02  0.3494042E+00
         11   -1    0    0    0    0  0.00000000000E+00  0.00000000000E+00  0.39999999674E+01  0.40000000000E+01  0.51100000000E-03 0. -1.
    9000002   -1    0    0    0    0 -0.00000000000E+00 -0.00000000000E+00  0.00000000000E+00  0.93800000000E+00  0.93800000000E+00 0. -1.
         11    1    1    2    0    0  0.18798593734E+00  0.12929184958E+00  0.32801961100E+00  0.39956504017E+00  0.51100000000E-03 0. -1.
    9000002    1    1    2    0    0 -0.84236694435E-01  0.35244028658E+00  0.19198660803E+00  0.10237249796E+01  0.93800000000E+00 0. -1.
         22    1    1    2    0    0 -0.10374924290E+00 -0.48173213616E+00  0.34799937483E+01  0.35147099802E+01  0.00000000000E+00 0. -1.
</event>
<event>
 5    1  0.1173395E+001  0.1462422E+01  0.7818608E-02  0.3517708E+00
         11   -1    0    0    0    0  0.00000000000E+00  0.00000000000E+00  0.39999999674E+01  0.40000000000E+01  0.51100000000E-03 0.  1.
    9000002   -1    0    0    0    0 -0.00000000000E+00 -0.00000000000E+00  0.00000000000E+00  0.93800000000E+00  0.93800000000E+00 0. -1.
         11    1    1    2    0    0  0.57128975446E-01 -0.31383742249E+00  0.53113370478E+00  0.61956510640E+00  0.51100000000E-03 0.  1.
    9000002    1    1    2    0    0  0.14706167298E+00  0.58167089058E-01  0.12594632188E+00  0.95954000537E+00  0.93800000000E+00 0. -1.
         22    1    1    2    0    0 -0.20419064843E+00  0.25567033343E+00  0.33429199407E+01  0.33588948882E+01  0.00000000000E+00 0.  1.
</event>
<event>
 5    1  0.1173395E+001  0.1521620E+01  0.7818608E-02  0.3443090E+00
         11   -1    0    0    0    0  0.00000000000E+00  0.00000000000E+00  0.39999999674E+01  0.40000000000E+01  0.51100000000E-03 0.  1.
    9000002   -1    0    0    0    0 -0.00000000000E+00 -0.00000000000E+00  0.00000000000E+00  0.93800000000E+00  0.93800000000E+00 0. -1.
         11    1    1    2    0    0 -0.47446200663E-01  0.32990758930E+00  0.10878609035E+01  0.11377749188E+01  0.51100000000E-03 0.  1.
    9000002    1    1    2    0    0 -0.12256334374E+00 -0.13742414941E+00  0.83050659688E-01  0.95950434191E+00  0.93800000000E+00 0. -1.
         22    1    1    2    0    0  0.17000954441E+00 -0.19248343989E+00  0.28290884042E+01  0.28407207393E+01  0.00000000000E+00 0.  1.
</event>
<event>
 5    1  0.1173395E+001  0.1563645E+01  0.7818608E-02  0.3393792E+00
         11   -1    0    0    0    0  0.00000000000E+00  0.00000000000E+00  0.39999999674E+01  0.40000000000E+01  0.51100000000E-03 0. -1.
    9000002   -1    0    0    0    0 -0.00000000000E+00 -0.00000000000E+00  0.00000000000E+00  0.93800000000E+00  0.93800000000E+00 0.  1.
         11    1    1    2    0    0 -0.37148408899E-01  0.17552210646E+00  0.12335179082E+01  0.12464969736E+01  0.51100000000E-03 0. -1.
    9000002    1    1    2    0    0 -0.34758037947E-01  0.97963161223E-01  0.33923377496E-01  0.94435146937E+00  0.93800000000E+00 0.  1.
         22    1    1    2    0    0  0.71906446846E-01 -0.27348526769E+00  0.27325586816E+01  0.27471515570E+01  0.00000000000E+00 0. -1.
</event>
<event>
 5    1  0.1173395E+001  0.1562596E+01  0.7818608E-02  0.3394989E+00
         11   -1    0    0    0    0  0.00000000000E+00  0.00000000000E+00  0.39999999674E+01  0.40000000000E+01  0.51100000000E-03 0.  1.
    9000002   -1    0    0    0    0 -0.00000000000E+00 -0.00000000000E+00  0.00000000000E+00  0.93800000000E+00  0.93800000000E+00 0. -1.
         11    1    1    2    0    0 -0.14358365205E+00 -0.68351062092E-01  0.14116441470E+01  0.14205729801E+01  0.51100000000E-03 0.  1.
    9000002    1    1    2    0    0 -0.21717101121E+00  0.13969130693E+00  0.73323881242E-01  0.97565224384E+00  0.93800000000E+00 0. -1.
         22    1    1    2    0    0  0.36075466326E+00 -0.71340244843E-01  0.25150319391E+01  0.25417747761E+01  0.00000000000E+00 0.  1.
</event>
<event>
 5    1  0.1173395E+001  0.1596027E+01  0.7818608E-02  0.3357687E+00
         11   -1    0    0    0    0  0.00000000000E+00  0.00000000000E+00  0.39999999674E+01  0.40000000000E+01  0.51100000000E-03 0.  1.
    9000002   -1    0    0    0    0 -0.00000000000E+00 -0.00000000000E+00  0.00000000000E+00  0.93800000000E+00  0.93800000000E+00 0.  1.
         11    1    1    2    0    0  0.83347273603E-01  0.14042748891E-01  0.71377996347E+00  0.71876704445E+00  0.51100000000E-03 0.  1.
    9000002    1    1    2    0    0 -0.31700618522E+00  0.19749384703E+00  0.96774590103E-01  0.10142514789E+01  0.93800000000E+00 0.  1.
         22    1    1    2    0    0  0.23365891162E+00 -0.21153659592E+00  0.31894454138E+01  0.32049814767E+01  0.00000000000E+00 0.  1.
</event>
<event>
 5    1  0.1173395E+001  0.1305371E+01  0.7818608E-02  0.3771711E+00
         11   -1    0    0    0    0  0.00000000000E+00  0.00000000000E+00  0.39999999674E+01  0.40000000000E+01  0.51100000000E-03 0.  1.
    9000002   -1    0    0    0    0 -0.00000000000E+00 -0.00000000000E+00  0.00000000000E+00  0.93800000000E+00  0.93800000000E+00 0.  1.
         11    1    1    2    0    0  0.26521121077E+00  0.69914178617E+00  0.10735618963E+01  0.13083086906E+01  0.51100000000E-03 0.  1.
    9000002    1    1    2    0    0 -0.15618206229E+00 -0.39647392399E+00  0.43625721493E+00  0.11188157876E+01  0.93800000000E+00 0.  1.
         22    1    1    2    0    0 -0.10902914848E+00 -0.30266786217E+00  0.24901808561E+01  0.25108755218E+01  0.00000000000E+00 0.  1.
</event>
<event>
 5    1  0.1173395E+001  0.1559750E+01  0.7818608E-02  0.3398243E+00
         11   -1    0    0    0    0  0.00000000000E+00  0.00000000000E+00  0.39999999674E+01  0.40000000000E+01  0.51100000000E-03 0. -1.
    9000002   -1    0    0    0    0 -0.00000000000E+00 -0.00000000000E+00  0.00000000000E+00  0.93800000000E+00  0.93800000000E+00 0.  1.
         11    1    1    2    0    0 -0.16298093938E+00  0.76780425017E-01  0.95603478832E+00  0.97286216796E+00  0.51100000000E-03 0. -1.
    9000002    1    1    2    0    0 -0.71050504596E-01  0.95780785381E-01  0.39227761785E-01  0.94636406860E+00  0.93800000000E+00 0.  1.
         22    1    1    2    0    0  0.23403144397E+00 -0.17256121040E+00  0.30047374173E+01  0.30187737634E+01  0.00000000000E+00 0. -1.
</event>
<event>
 5    1  0.1173395E+001  0.1546853E+01  0.7818608E-02  0.3413148E+00
         11   -1    0    0    0    0  0.00000000000E+00  0.00000000000E+00  0.39999999674E+01  0.40000000000E+01  0.51100000000E-03 0.  1.
    9000002   -1    0    0    0    0 -0.00000000000E+00 -0.00000000000E+00  0.00000000000E+00  0.93800000000E+00  0.93800000000E+00 0. -1.
         11    1    1    2    0    0  0.65225726030E+00  0.11737026703E+00  0.12236135898E+01  0.13915623563E+01  0.51100000000E-03 0.  1.
    9000002    1    1    2    0    0 -0.10024588253E+01  0.25794037316E-01  0.92221150836E+00  0.16540577665E+01  0.93800000000E+00 0. -1.
         22    1    1    2    0    0  0.35020156495E+00 -0.14316430434E+00  0.18541748692E+01  0.18923798772E+01  0.00000000000E+00 0.  1.
</event>
<event>
 5    1  0.1173395E+001  0.1541091E+01  0.7818608E-02  0.3419893E+00
         11   -1    0    0    0    0  0.00000000000E+00  0.00000000000E+00  0.39999999674E+01  0.40000000000E+01  0.51100000000E-03 0.  1.
    9000002   -1    0    0    0    0 -0.00000000000E+00 -0.00000000000E+00  0.00000000000E+00  0.93800000000E+00  0.93800000000E+00 0.  1.
         11    1    1    2    0    0  0.27141227842E+00  0.20500508439E+00  0.53380955433E+00  0.63296493656E+00  0.51100000000E-03 0.  1.
    9000002    1    1    2    0    0 -0.58642810317E+00 -0.48826232334E+00  0.49957830919E+00  0.13083273687E+01  0.93800000000E+00 0.  1.
         22    1    1    2    0    0  0.31501582475E+00  0.28325723895E+00  0.29666121038E+01  0.29967076948E+01  0.00000000000E+00 0.  1.
</event>
<event>
 5    1  0.1173395E+001  0.1586477E+01  0.7818608E-02  0.3368173E+00
         11   -1    0    0    0    0  0.00000000000E+00  0.00000000000E+00  0.39999999674E+01  0.40000000000E+01  0.51100000000E-03 0.  1.
    9000002   -1    0    0    0    0 -0.00000000000E+00 -0.00000000000E+00  0.00000000000E+00  0.93800000000E+00  0.93800000000E+00 0.  1.
         11    1    1    2    0    0  0.78341686727E-01  0.41609642573E-02  0.12914469910E+01  0.12938277803E+01  0.51100000000E-03 0.  1.
    9000002    1    1    2    0    0  0.11916760131E+00  0.15727111492E+00  0.35720711228E-01  0.95919502188E+00  0.93800000000E+00 0.  1.
         22    1    1    2    0    0 -0.19750928804E+00 -0.16143207918E+00  0.26728322651E+01  0.26849771978E+01  0.00000000000E+00 0.  1.
</event>
<event>
 5    1  0.1173395E+001  0.1547405E+01  0.7818608E-02  0.3412505E+00
         11   -1    0    0    0    0  0.00000000000E+00  0.00000000000E+00  0.39999999674E+01  0.40000000000E+01  0.51100000000E-03 0.  1.
    9000002   -1    0    0    0    0 -0.00000000000E+00 -0.00000000000E+00  0.00000000000E+00  0.93800000000E+00  0.93800000000E+00 0. -1.
         11    1    1    2    0    0  0.20675169765E+00  0.48669165293E-01  0.96922960513E+00  0.99223043730E+00  0.51100000000E-03 0.  1.
    9000002    1    1    2    0    0  0.71663138037E-01  0.11483889439E+00  0.51564750914E-01  0.94911880213E+00  0.93800000000E+00 0. -1.
         22    1    1    2    0    0 -0.27841483569E+00 -0.16350805968E+00  0.29792056113E+01  0.29966507606E+01  0.00000000000E+00 0.  1.
</event>
<event>
 5    1  0.1173395E+001  0.1453325E+01  0.7818608E-02  0.3529759E+00
         11   -1    0    0    0    0  0.00000000000E+00  0.00000000000E+00  0.39999999674E+01  0.40000000000E+01  0.51100000000E-03 0.  1.
    9000002   -1    0    0    0    0 -0.00000000000E+00 -0.00000000000E+00  0.00000000000E+00  0.93800000000E+00  0.93800000000E+00 0. -1.
         11    1    1    2    0    0 -0.40369875537E-01  0.33726203553E+00  0.62063361814E+00  0.70750389154E+00  0.51100000000E-03 0.  1.
    9000002    1    1    2    0    0 -0.92415868857E-01  0.17987339285E-01  0.12136309555E+00  0.95049315524E+00  0.93800000000E+00 0. -1.
         22    1    1    2    0    0  0.13278574439E+00 -0.35524937481E+00  0.32580032537E+01  0.32800029532E+01  0.00000000000E+00 0.  1.
</event>
<event>
 5    1  0.1173395E+001  0.1543270E+01  0.7818608E-02  0.3417335E+00
         11   -1    0    0    0    0  0.00000000000E+00  0.00000000000E+00  0.39999999674E+01  0.40000000000E+01  0.51100000000E-03 0.  1.
    9000002   -1    0    0    0    0 -0.00000000000E+00 -0.00000000000E+00  0.00000000000E+00  0.93800000000E+00  0.93800000000E+00 0. -1.
         11    1    1    2    0    0 -0.13018995947E+00 -0.52278558023E+00  0.82352188212E+00  0.98409488358E+00  0.51100000000E-03 0.  1.
    9000002    1    1    2    0    0 -0.14879597240E+00  0.18111304371E+00  0.25580636926E+00  0.10001115311E+01  0.93800000000E+00 0. -1.
         22    1    1    2    0    0  0.27898593187E+00  0.34167253652E+00  0.29206717160E+01  0.29537935854E+01  0.00000000000E+00 0.  1.
</event>
<event>
 5    1  0.1173395E+001  0.1587384E+01  0.7818608E-02  0.3367171E+00
         11   -1    0    0    0    0  0.00000000000E+00  0.00000000000E+00  0.39999999674E+01  0.40000000000E+01  0.51100000000E-03 0.  1.
    9000002   -1    0    0    0    0 -0.00000000000E+00 -0.00000000000E+00  0.00000000000E+00  0.93800000000E+00  0.93800000000E+00 0. -1.
         11    1    1    2    0    0 -0.31436578109E+00  0.31829586703E-01  0.13687257610E+01  0.14047239718E+01  0.51100000000E-03 0.  1.
    9000002    1    1    2    0    0  0.52747475558E+00 -0.20126058879E+00  0.23264107855E+00  0.11192414010E+01  0.93800000000E+00 0. -1.
         22    1    1    2    0    0 -0.21310897448E+00  0.16943100209E+00  0.23986331278E+01  0.24140346272E+01  0.00000000000E+00 0.  1.
</event>
<event>
 5    1  0.1173395E+001  0.1469261E+01  0.7818608E-02  0.3508755E+00
         11   -1    0    0    0    0  0.00000000000E+00  0.00000000000E+00  0.39999999674E+01  0.40000000000E+01  0.51100000000E-03 0.  1.
    9000002   -1    0    0    0    0 -0.00000000000E+00 -0.00000000000E+00  0.00000000000E+00  0.93800000000E+00  0.93800000000E+00 0. -1.
         11    1    1    2    0    0 -0.43546032927E+00  0.11029698329E-01  0.87471277929E+00  0.97717452893E+00  0.51100000000E-03 0.  1.
    9000002    1    1    2    0    0  0.42579513697E-01 -0.16021658275E+00  0.15996934221E+00  0.96587605769E+00  0.93800000000E+00 0. -1.
         22    1    1    2    0    0  0.39288081557E+00  0.14918688443E+00  0.29653178459E+01  0.29949494134E+01  0.00000000000E+00 0.  1.
</event>
<event>
 5    1  0.1173395E+001  0.1573191E+01  0.7818608E-02  0.3382985E+00
         11   -1    0    0    0    0  0.00000000000E+00  0.00000000000E+00  0.39999999674E+01  0.40000000000E+01  0.51100000000E-03 0.  1.
    9000002   -1    0    0    0    0 -0.00000000000E+00 -0.00000000000E+00  0.00000000000E+00  0.93800000000E+00  0.93800000000E+00 0.  1.
         11    1    1    2    0    0  0.31012026637E+00 -0.13736433094E+00  0.13869235661E+01  0.14277957761E+01  0.51100000000E-03 0.  1.
    9000002    1    1    2    0    0 -0.33054225386E+00  0.36996511931E+00  0.19255854233E+00  0.10784503527E+01  0.93800000000E+00 0.  1.
         22    1    1    2    0    0  0.20421987486E-01 -0.23260078837E+00  0.24205178590E+01  0.24317538712E+01  0.00000000000E+00 0.  1.
</event>
<event>
 5    1  0.1173395E+001  0.1546034E+01  0.7818608E-02  0.3414103E+00
         11   -1    0    0    0    0  0.00000000000E+00  0.00000000000E+00  0.39999999674E+01  0.40000000000E+01  0.51100000000E-03 0.  1.
    9000002   -1    0    0    0    0 -0.00000000000E+00 -0.00000000000E+00  0.00000000000E+00  0.93800000000E+00  0.93800000000E+00 0. -1.
         11    1    1    2    0    0  0.27266431135E+00  0.74499034118E-01  0.13447450107E+01  0.13741307572E+01  0.51100000000E-03 0.  1.
    9000002    1    1    2    0    0 -0.79267154614E-01  0.69156503879E-01  0.47568726426E-01  0.94507813834E+00  0.93800000000E+00 0. -1.
         22    1    1    2    0    0 -0.19339715673E+00 -0.14365553800E+00  0.26076862302E+01  0.26187911045E+01  0.00000000000E+00 0.  1.
</event>
<event>
 5    1  0.1173395E+001  0.1494955E+01  0.7818608E-02  0.3475911E+00
         11   -1    0    0    0    0  0.00000000000E+00  0.00000000000E+00  0.39999999674E+01  0.40000000000E+01  0.51100000000E-03 0. -1.
    9000002   -1    0    0    0    0 -0.00000000000E+00 -0.00000000000E+00  0.00000000000E+00  0.93800000000E+00  0.93800000000E+00 0. -1.
         11    1    1    2    0    0 -0.34056357642E-02  0.23007268625E+00  0.35008632479E+00  0.41893404641E+00  0.51100000000E-03 0. -1.
    9000002    1    1    2    0    0  0.35527971652E+00  0.62569649495E-02  0.17476189239E+00  0.10181593911E+01  0.93800000000E+00 0. -1.
         22    1    1    2    0    0 -0.35187408075E+00 -0.23632965120E+00  0.34751517502E+01  0.35009065625E+01  0.00000000000E+00 0. -1.
</event>
<event>
 5    1  0.1173395E+001  0.1508114E+01  0.7818608E-02  0.3459558E+00
         11   -1    0    0    0    0  0.00000000000E+00  0.00000000000E+00  0.39999999674E+01  0.40000000000E+01  0.51100000000E-03 0. -1.
    9000002   -1    0    0    0    0 -0.00000000000E+00 -0.00000000000E+00  0.00000000000E+00  0.93800000000E+00  0.93800000000E+00 0.  1.
         11    1    1    2    0    0 -0.10608843289E+00 -0.33823982553E+00  0.12430593672E+01  0.12926166433E+01  0.51100000000E-03 0. -1.
    9000002    1    1    2    0    0  0.10616381680E+00  0.19244634252E-01  0.77872445428E-01  0.94739074816E+00  0.93800000000E+00 0.  1.
         22    1    1    2    0    0 -0.75383905130E-04  0.31899519128E+00  0.26790681548E+01  0.26979926085E+01  0.00000000000E+00 0. -1.
</event>
<event>
 5    1  0.1173395E+001  0.1589891E+01  0.7818608E-02  0.3364409E+00
         11   -1    0    0    0    0  0.00000000000E+00  0.00000000000E+00  0.39999999674E+01  0.40000000000E+01  0.51100000000E-03 0.  1.
    9000002   -1    0    0    0    0 -0.00000000000E+00 -0.00000000000E+00  0.00000000000E+00  0.93800000000E+00  0.93800000000E+00 0. -1.
         11    1    1    2    0    0  0.92791555330E-01  0.71741023317E-01  0.92643216808E+00  0.93382753779E+00  0.51100000000E-03 0.  1.
    9000002    1    1    2    0    0 -0.30713424045E+00  0.11586658738E+00  0.79904764973E-01  0.99698810384E+00  0.93800000000E+00 0. -1.
         22    1    1    2    0    0  0.21434268512E+00 -0.18760761070E+00  0.29936630343E+01  0.30071843584E+01  0.00000000000E+00 0.  1.
</event>
<event>
 5    1  0.1173395E+001  0.1454771E+01  0.7818608E-02  0.3527832E+00
         11   -1    0    0    0    0  0.00000000000E+00  0.00000000000E+00  0.39999999674E+01  0.40000000000E+01  0.51100000000E-03 0. -1.
    9000002   -1    0    0    0    0 -0.00000000000E+00 -0.00000000000E+00  0.00000000000E+00  0.93800000000E+00  0.93800000000E+00 0.  1.
         11    1    1    2    0    0 -0.38264970822E+00 -0.78262019109E-01  0.87897965441E+00  0.96184782415E+00  0.51100000000E-03 0. -1.
    9000002    1    1    2    0    0  0.46290401579E-01 -0.14144909186E+00  0.13037410232E+00  0.95864073219E+00  0.93800000000E+00 0.  1.
         22    1    1    2    0    0  0.33635930664E+00  0.21971111096E+00  0.29906462106E+01  0.30175114437E+01  0.00000000000E+00 0. -1.
</event>
<event>
 5    1  0.1173395E+001  0.1555389E+01  0.7818608E-02  0.3403253E+00
         11   -1    0    0    0    0  0.00000000000E+00  0.00000000000E+00  0.39999999674E+01  0.40000000000E+01  0.51100000000E-03 0. -1.
    9000002   -1    0    0    0    0 -0.00000000000E+00 -0.00000000000E+00  0.00000000000E+00  0.93800000000E+00  0.93800000000E+00 0. -1.
         11    1    1    2    0    0  0.10353040078E+00 -0.20346067692E+00  0.14041163928E+01  0.14225533019E+01  0.51100000000E-03 0. -1.
    9000002    1    1    2    0    0 -0.30748374265E-01 -0.57698666337E-01  0.35705083891E-01  0.94095348006E+00  0.93800000000E+00 0. -1.
         22    1    1    2    0    0 -0.72782026518E-01  0.26115934325E+00  0.25601784906E+01  0.25744932181E+01  0.00000000000E+00 0. -1.
</event>
<event>
 5    1  0.1173395E+001  0.1533225E+01  0.7818608E-02  0.3429188E+00
         11   -1    0    0    0    0  0.00000000000E+00  0.00000000000E+00  0.39999999674E+01  0.40000000000E+01  0.51100000000E-03 0.  1.
    9000002   -1    0    0    0    0 -0.00000000000E+00 -0.00000000000E+00  0.00000000000E+00  0.93800000000E+00  0.93800000000E+00 0. -1.
         11    1    1    2    0    0  0.25278298671E+00 -0.42679293832E+00  0.11981154864E+01  0.12967391528E+01  0.51100000000E-03 0.  1.
    9000002    1    1    2    0    0 -0.63459789970E+00  0.38229842837E+00  0.48047690437E+00  0.12882424610E+01  0.93800000000E+00 0. -1.
         22    1    1    2    0    0  0.38181491298E+00  0.44494509953E-01  0.23214075766E+01  0.23530183862E+01  0.00000000000E+00 0.  1.
</event>
<event>
 5    1  0.1173395E+001  0.1502017E+01  0.7818608E-02  0.3467097E+00
         11   -1    0    0    0    0  0.00000000000E+00  0.00000000000E+00  0.39999999674E+01  0.40000000000E+01  0.51100000000E-03 0. -1.
    9000002   -1    0    0    0    0 -0.00000000000E+00 -0.00000000000E+00  0.00000000000E+00  0.93800000000E+00  0.93800000000E+00 0. -1.
         11    1    1    2    0    0  0.37405431493E+00 -0.24355597624E+00  0.10231303825E+01  0.11162581174E+01  0.51100000000E-03 0. -1.
    9000002    1    1    2    0    0 -0.51097024062E+00 -0.19883266492E-01  0.27439279257E+00  0.11030055919E+01  0.93800000000E+00 0. -1.
         22    1    1    2    0    0  0.13691592569E+00  0.26343924273E+00  0.27024767923E+01  0.27187362907E+01  0.00000000000E+00 0. -1.
</event>
<event>
 5    1  0.1173395E+001  0.1576632E+01  0.7818608E-02  0.3379123E+00
         11   -1    0    0    0    0  0.00000000000E+00  0.00000000000E+00  0.39999999674E+01  0.40000000000E+01  0.51100000000E-03 0. -1.
    9000002   -1    0    0    0    0 -0.00000000000E+00 -0.00000000000E+00  0.00000000000E+00  0.93800000000E+00  0.93800000000E+00 0.  1.
         11    1    1    2    0    0 -0.24120492128E+00  0.13061100193E+00  0.12488358342E+01  0.12786048060E+01  0.51100000000E-03 0. -1.
    9000002    1    1    2    0    0  0.46030655486E+00  0.46105826527E-01  0.16601681314E+00  0.10589681081E+01  0.93800000000E+00 0.  1.
         22    1    1    2    0    0 -0.21910163357E+00 -0.17671682846E+00  0.25851473200E+01  0.26004270859E+01  0.00000000000E+00 0. -1.
</event>
<event>
 5    1  0.1173395E+001  0.1495664E+01  0.7818608E-02  0.3475022E+00
         11   -1    0    0    0    0  0.00000000000E+00  0.00000000000E+00  0.39999999674E+01  0.40000000000E+01  0.51100000000E-03 0. -1.
    9000002   -1    0    0    0    0 -0.00000000000E+00 -0.00000000000E+00  0.00000000000E+00  0.93800000000E+00  0.93800000000E+00 0.  1.
         11    1    1    2    0    0 -0.41736771757E+00 -0.29490135798E+00  0.11222085493E+01  0.12330916072E+01  0.51100000000E-03 0. -1.
    9000002    1    1    2    0    0  0.36440239343E-02  0.97522175612E-01  0.16959458858E+00  0.95819109687E+00  0.93800000000E+00 0.  1.
         22    1    1    2    0    0  0.41372369364E+00  0.19737918237E+00  0.27081968295E+01  0.27467172959E+01  0.00000000000E+00 0. -1.
</event>
<event>
 5    1  0.1173395E+001  0.1597629E+01  0.7818608E-02  0.3355940E+00
         11   -1    0    0    0    0  0.00000000000E+00  0.00000000000E+00  0.39999999674E+01  0.40000000000E+01  0.51100000000E-03 0.  1.
    9000002   -1    0    0    0    0 -0.00000000000E+00 -0.00000000000E+00  0.00000000000E+00  0.93800000000E+00  0.93800000000E+00 0. -1.
         11    1    1    2    0    0  0.76433009083E-01  0.92481931982E-01  0.10325817030E+01  0.10395288101E+01  0.51100000000E-03 0.  1.
    9000002    1    1    2    0    0 -0.11573523385E+00 -0.40502013919E+00  0.12175276968E+00  0.10354244030E+01  0.93800000000E+00 0. -1.
         22    1    1    2    0    0  0.39302224767E-01  0.31253820721E+00  0.28456654947E+01  0.28630467868E+01  0.00000000000E+00 0.  1.
</event>
<event>
 5    1  0.1173395E+001  0.1524408E+01  0.7818608E-02  0.3439730E+00
         11   -1    0    0    0    0  0.00000000000E+00  0.00000000000E+00  0.39999999674E+01  0.40000000000E+01  0.51100000000E-03 0. -1.
    9000002   -1    0    0    0    0 -0.00000000000E+00 -0.00000000000E+00  0.00000000000E+00  0.93800000000E+00  0.93800000000E+00 0. -1.
         11    1    1    2    0    0  0.20880493153E+00  0.18577056131E+00  0.10186803112E+01  0.10563238322E+01  0.51100000000E-03 0. -1.
    9000002    1    1    2    0    0  0.63594483272E-01 -0.12071464654E-01  0.59566328274E-01  0.94211577103E+00  0.93800000000E+00 0. -1.
         22    1    1    2    0    0 -0.27239941481E+00 -0.17369909665E+00  0.29217533279E+01  0.29395603968E+01  0.00000000000E+00 0. -1.
</event>
