<event>
 5    1  0.6172503E+001  0.1598787E+01  0.7818608E-02  0.3354681E+00
         11   -1    0    0    0    0  0.00000000000E+00  0.00000000000E+00  0.39999999674E+01  0.40000000000E+01  0.51100000000E-03 0. -1.
    9000002   -1    0    0    0    0 -0.00000000000E+00 -0.00000000000E+00  0.00000000000E+00  0.93800000000E+00  0.93800000000E+00 0. -1.
         11    1    1    2    0    0 -0.76087223324E-01 -0.24228686148E-01  0.64497547094E+00  0.64989992615E+00  0.51100000000E-03 0. -1.
    9000002    1    1    2    0    0  0.39631011713E+00 -0.23266417808E-02  0.10663433626E+00  0.10238564371E+01  0.93800000000E+00 0. -1.
         22    1    1    2    0    0 -0.32022289380E+00  0.26555327929E-01  0.32483901602E+01  0.32642436367E+01  0.00000000000E+00 0. -1.
</event>
<event>
 5    1  0.6172503E+001  0.1599674E+01  0.7818608E-02  0.3353717E+00
         11   -1    0    0    0    0  0.00000000000E+00  0.00000000000E+00  0.39999999674E+01  0.40000000000E+01  0.51100000000E-03 0.  1.
    9000002   -1    0    0    0    0 -0.00000000000E+00 -0.00000000000E+00  0.00000000000E+00  0.93800000000E+00  0.93800000000E+00 0. -1.
         11    1    1    2    0    0 -0.46141527183E-01  0.17290168093E-02  0.38386096283E+00  0.38662841326E+00  0.51100000000E-03 0. -1.
    9000002    1    1    2    0    0  0.47351318178E+00 -0.17556816337E-01  0.15304918972E+00  0.10619750607E+01  0.93800000000E+00 0. -1.
         22    1    1    2    0    0 -0.42737165459E+00  0.15827799528E-01  0.34630898148E+01  0.34893965260E+01  0.00000000000E+00 0.  1.
</event>
<event>
 5    1  0.6172503E+001  0.1599665E+01  0.7818608E-02  0.3353727E+00
         11   -1    0    0    0    0  0.00000000000E+00  0.00000000000E+00  0.39999999674E+01  0.40000000000E+01  0.51100000000E-03 0.  1.
    9000002   -1    0    0    0    0 -0.00000000000E+00 -0.00000000000E+00  0.00000000000E+00  0.93800000000E+00  0.93800000000E+00 0. -1.
         11    1    1    2    0    0  0.58537326195E-01  0.92776037666E-01  0.85559483811E+00  0.86259886381E+00  0.51100000000E-03 0.  1.
    9000002    1    1    2    0    0 -0.25012962677E+00 -0.42549348169E+00  0.16659677193E+00  0.10729436227E+01  0.93800000000E+00 0. -1.
         22    1    1    2    0    0  0.19159230058E+00  0.33271744403E+00  0.29778083573E+01  0.30024575135E+01  0.00000000000E+00 0.  1.
</event>
<event>
 5    1  0.6172503E+001  0.1514900E+01  0.7818608E-02  0.3451244E+00
         11   -1    0    0    0    0  0.00000000000E+00  0.00000000000E+00  0.39999999674E+01  0.40000000000E+01  0.51100000000E-03 0. -1.
    9000002   -1    0    0    0    0 -0.00000000000E+00 -0.00000000000E+00  0.00000000000E+00  0.93800000000E+00  0.93800000000E+00 0.  1.
         11    1    1    2    0    0  0.15904354250E+00  0.25626302439E-01  0.12685137922E+00  0.20504411555E+00  0.51100000000E-03 0. -1.
    9000002    1    1    2    0    0 -0.38766029564E+00 -0.26663190735E+00  0.22949429843E+00  0.10741902587E+01  0.93800000000E+00 0.  1.
         22    1    1    2    0    0  0.22861675314E+00  0.24100560491E+00  0.36436542897E+01  0.36587656258E+01  0.00000000000E+00 0. -1.
</event>
<event>
 5    1  0.6172503E+001  0.1598443E+01  0.7818608E-02  0.3355055E+00
         11   -1    0    0    0    0  0.00000000000E+00  0.00000000000E+00  0.39999999674E+01  0.40000000000E+01  0.51100000000E-03 0. -1.
    9000002   -1    0    0    0    0 -0.00000000000E+00 -0.00000000000E+00  0.00000000000E+00  0.93800000000E+00  0.93800000000E+00 0.  1.
         11    1    1    2    0    0  0.24653061959E+00  0.30096683850E-01  0.70668625817E+00  0.74905866618E+00  0.51100000000E-03 0. -1.
    9000002    1    1    2    0    0 -0.10538029360E+01  0.22914489142E-01  0.92725073558E+00  0.16883908399E+01  0.93800000000E+00 0.  1.
         22    1    1    2    0    0  0.80727231642E+00 -0.53011172992E-01  0.23660629736E+01  0.25005504939E+01  0.00000000000E+00 0. -1.
</event>
<event>
 5    1  0.6172503E+001  0.1598959E+01  0.7818608E-02  0.3354495E+00
         11   -1    0    0    0    0  0.00000000000E+00  0.00000000000E+00  0.39999999674E+01  0.40000000000E+01  0.51100000000E-03 0.  1.
    9000002   -1    0    0    0    0 -0.00000000000E+00 -0.00000000000E+00  0.00000000000E+00  0.93800000000E+00  0.93800000000E+00 0.  1.
         11    1    1    2    0    0 -0.10322764993E+00  0.81449367810E-01  0.63208488594E+00  0.64561715542E+00  0.51100000000E-03 0.  1.
    9000002    1    1    2    0    0  0.48929262697E+00 -0.39584476986E+00  0.27889780620E+00  0.11634983210E+01  0.93800000000E+00 0.  1.
         22    1    1    2    0    0 -0.38606497704E+00  0.31439540205E+00  0.30890172752E+01  0.31288845236E+01  0.00000000000E+00 0.  1.
</event>
<event>
 5    1  0.6172503E+001  0.1597096E+01  0.7818608E-02  0.3356521E+00
         11   -1    0    0    0    0  0.00000000000E+00  0.00000000000E+00  0.39999999674E+01  0.40000000000E+01  0.51100000000E-03 0. -1.
    9000002   -1    0    0    0    0 -0.00000000000E+00 -0.00000000000E+00  0.00000000000E+00  0.93800000000E+00  0.93800000000E+00 0.  1.
         11    1    1    2    0    0  0.38152444711E-01 -0.30250077728E+00  0.12468406233E+01  0.12835786420E+01  0.51100000000E-03 0. -1.
    9000002    1    1    2    0    0 -0.11269720512E+00  0.70778025539E+00  0.37174247775E+00  0.12376146491E+01  0.93800000000E+00 0.  1.
         22    1    1    2    0    0  0.74544760406E-01 -0.40527947811E+00  0.23814168663E+01  0.24168067088E+01  0.00000000000E+00 0. -1.
</event>
<event>
 5    1  0.6172503E+001  0.1599643E+01  0.7818608E-02  0.3353751E+00
         11   -1    0    0    0    0  0.00000000000E+00  0.00000000000E+00  0.39999999674E+01  0.40000000000E+01  0.51100000000E-03 0.  1.
    9000002   -1    0    0    0    0 -0.00000000000E+00 -0.00000000000E+00  0.00000000000E+00  0.93800000000E+00  0.93800000000E+00 0. -1.
         11    1    1    2    0    0 -0.37499935696E+00  0.20100794396E+00  0.12591993538E+01  0.13291395657E+01  0.51100000000E-03 0.  1.
    9000002    1    1    2    0    0  0.91674073622E+00 -0.48365930001E+00  0.88370128555E+00  0.16538173593E+01  0.93800000000E+00 0. -1.
         22    1    1    2    0    0 -0.54174137927E+00  0.28265135605E+00  0.18570993280E+01  0.19550430750E+01  0.00000000000E+00 0.  1.
</event>
<event>
 5    1  0.6172503E+001  0.1598767E+01  0.7818608E-02  0.3354703E+00
         11   -1    0    0    0    0  0.00000000000E+00  0.00000000000E+00  0.39999999674E+01  0.40000000000E+01  0.51100000000E-03 0.  1.
    9000002   -1    0    0    0    0 -0.00000000000E+00 -0.00000000000E+00  0.00000000000E+00  0.93800000000E+00  0.93800000000E+00 0. -1.
         11    1    1    2    0    0 -0.14744147935E-01  0.18677131637E-01  0.46809521437E+00  0.46869992104E+00  0.51100000000E-03 0.  1.
    9000002    1    1    2    0    0  0.92822117435E-01 -0.35092167252E+00  0.89216045152E-01  0.10097353457E+01  0.93800000000E+00 0. -1.
         22    1    1    2    0    0 -0.78077969500E-01  0.33224454088E+00  0.34426887078E+01  0.34595647332E+01  0.00000000000E+00 0.  1.
</event>
<event>
 5    1  0.6172503E+001  0.1490077E+01  0.7818608E-02  0.3482052E+00
         11   -1    0    0    0    0  0.00000000000E+00  0.00000000000E+00  0.39999999674E+01  0.40000000000E+01  0.51100000000E-03 0. -1.
    9000002   -1    0    0    0    0 -0.00000000000E+00 -0.00000000000E+00  0.00000000000E+00  0.93800000000E+00  0.93800000000E+00 0.  1.
         11    1    1    2    0    0  0.24226269463E+00  0.21823327973E+00  0.13323570682E+01  0.13716751058E+01  0.51100000000E-03 0. -1.
    9000002    1    1    2    0    0  0.22035185014E+00 -0.37853154371E-01  0.12113198370E+00  0.97185634568E+00  0.93800000000E+00 0.  1.
         22    1    1    2    0    0 -0.46261454477E+00 -0.18038012536E+00  0.25465109155E+01  0.25944685485E+01  0.00000000000E+00 0. -1.
</event>
<event>
 5    1  0.6172503E+001  0.1599199E+01  0.7818608E-02  0.3354234E+00
         11   -1    0    0    0    0  0.00000000000E+00  0.00000000000E+00  0.39999999674E+01  0.40000000000E+01  0.51100000000E-03 0. -1.
    9000002   -1    0    0    0    0 -0.00000000000E+00 -0.00000000000E+00  0.00000000000E+00  0.93800000000E+00  0.93800000000E+00 0.  1.
         11    1    1    2    0    0 -0.10304636180E+00 -0.25225554687E-01  0.82903430168E+00  0.83579484072E+00  0.51100000000E-03 0. -1.
    9000002    1    1    2    0    0  0.38479447663E+00  0.95402455530E-01  0.10636231366E+00  0.10238776096E+01  0.93800000000E+00 0.  1.
         22    1    1    2    0    0 -0.28174811483E+00 -0.70176900842E-01  0.30646033520E+01  0.30783275496E+01  0.00000000000E+00 0. -1.
</event>
<event>
 5    1  0.6172503E+001  0.1599667E+01  0.7818608E-02  0.3353725E+00
         11   -1    0    0    0    0  0.00000000000E+00  0.00000000000E+00  0.39999999674E+01  0.40000000000E+01  0.51100000000E-03 0. -1.
    9000002   -1    0    0    0    0 -0.00000000000E+00 -0.00000000000E+00  0.00000000000E+00  0.93800000000E+00  0.93800000000E+00 0. -1.
         11    1    1    2    0    0  0.27966011800E-01 -0.51706481505E-01  0.42687951289E+00  0.43090838666E+00  0.51100000000E-03 0. -1.
    9000002    1    1    2    0    0 -0.23064323359E+00  0.45472493956E+00  0.17827288123E+00  0.10824030174E+01  0.93800000000E+00 0. -1.
         22    1    1    2    0    0  0.20267722179E+00 -0.40301845806E+00  0.33948475732E+01  0.34246885960E+01  0.00000000000E+00 0. -1.
</event>
<event>
 5    1  0.6172503E+001  0.1599677E+01  0.7818608E-02  0.3353714E+00
         11   -1    0    0    0    0  0.00000000000E+00  0.00000000000E+00  0.39999999674E+01  0.40000000000E+01  0.51100000000E-03 0. -1.
    9000002   -1    0    0    0    0 -0.00000000000E+00 -0.00000000000E+00  0.00000000000E+00  0.93800000000E+00  0.93800000000E+00 0.  1.
         11    1    1    2    0    0 -0.17290169307E+00  0.53120447196E-01  0.14779278035E+01  0.14889552145E+01  0.51100000000E-03 0.  1.
    9000002    1    1    2    0    0  0.44969454469E+00 -0.13893286887E+00  0.15093018246E+00  0.10602600839E+01  0.93800000000E+00 0.  1.
         22    1    1    2    0    0 -0.27679285162E+00  0.85812421679E-01  0.23711419814E+01  0.23887847016E+01  0.00000000000E+00 0. -1.
</event>
<event>
 5    1  0.6172503E+001  0.1599671E+01  0.7818608E-02  0.3353721E+00
         11   -1    0    0    0    0  0.00000000000E+00  0.00000000000E+00  0.39999999674E+01  0.40000000000E+01  0.51100000000E-03 0. -1.
    9000002   -1    0    0    0    0 -0.00000000000E+00 -0.00000000000E+00  0.00000000000E+00  0.93800000000E+00  0.93800000000E+00 0.  1.
         11    1    1    2    0    0 -0.31963702726E-01  0.63342946449E-01  0.59295357402E+00  0.59718356409E+00  0.51100000000E-03 0. -1.
    9000002    1    1    2    0    0  0.22050087849E+00 -0.41621692088E+00  0.15116845205E+00  0.10604494630E+01  0.93800000000E+00 0.  1.
         22    1    1    2    0    0 -0.18853717576E+00  0.35287397443E+00  0.32558779413E+01  0.32803669729E+01  0.00000000000E+00 0. -1.
</event>
<event>
 5    1  0.6172503E+001  0.1583220E+01  0.7818608E-02  0.3371780E+00
         11   -1    0    0    0    0  0.00000000000E+00  0.00000000000E+00  0.39999999674E+01  0.40000000000E+01  0.51100000000E-03 0.  1.
    9000002   -1    0    0    0    0 -0.00000000000E+00 -0.00000000000E+00  0.00000000000E+00  0.93800000000E+00  0.93800000000E+00 0. -1.
         11    1    1    2    0    0  0.42175032078E-01  0.91734481051E-01  0.25734675877E+00  0.27644450386E+00  0.51100000000E-03 0.  1.
    9000002    1    1    2    0    0  0.26792214064E+00 -0.57478433932E+00  0.29993188387E+00  0.11713080061E+01  0.93800000000E+00 0. -1.
         22    1    1    2    0    0 -0.31009717272E+00  0.48304985827E+00  0.34427213247E+01  0.34902474900E+01  0.00000000000E+00 0.  1.
</event>
<event>
 5    1  0.6172503E+001  0.1594546E+01  0.7818608E-02  0.3359304E+00
         11   -1    0    0    0    0  0.00000000000E+00  0.00000000000E+00  0.39999999674E+01  0.40000000000E+01  0.51100000000E-03 0.  1.
    9000002   -1    0    0    0    0 -0.00000000000E+00 -0.00000000000E+00  0.00000000000E+00  0.93800000000E+00  0.93800000000E+00 0.  1.
         11    1    1    2    0    0  0.37853795439E-02  0.27701580855E-01  0.27608634731E+00  0.27749889905E+00  0.51100000000E-03 0.  1.
    9000002    1    1    2    0    0 -0.46117284312E+00  0.80464158853E-01  0.15376549785E+00  0.10595483474E+01  0.93800000000E+00 0.  1.
         22    1    1    2    0    0  0.45738746358E+00 -0.10816573971E+00  0.35701481222E+01  0.36009527536E+01  0.00000000000E+00 0.  1.
</event>
<event>
 5    1  0.6172503E+001  0.1597908E+01  0.7818608E-02  0.3355637E+00
         11   -1    0    0    0    0  0.00000000000E+00  0.00000000000E+00  0.39999999674E+01  0.40000000000E+01  0.51100000000E-03 0. -1.
    9000002   -1    0    0    0    0 -0.00000000000E+00 -0.00000000000E+00  0.00000000000E+00  0.93800000000E+00  0.93800000000E+00 0. -1.
         11    1    1    2    0    0 -0.10250840871E+00 -0.16198573654E-01  0.85261374749E+00  0.85890676513E+00  0.51100000000E-03 0. -1.
    9000002    1    1    2    0    0  0.33328803031E+00  0.20965043969E+00  0.10595740112E+00  0.10227928377E+01  0.93800000000E+00 0. -1.
         22    1    1    2    0    0 -0.23077962159E+00 -0.19345186604E+00  0.30414288187E+01  0.30563003972E+01  0.00000000000E+00 0. -1.
</event>
<event>
 5    1  0.6172503E+001  0.1599670E+01  0.7818608E-02  0.3353722E+00
         11   -1    0    0    0    0  0.00000000000E+00  0.00000000000E+00  0.39999999674E+01  0.40000000000E+01  0.51100000000E-03 0.  1.
    9000002   -1    0    0    0    0 -0.00000000000E+00 -0.00000000000E+00  0.00000000000E+00  0.93800000000E+00  0.93800000000E+00 0.  1.
         11    1    1    2    0    0  0.44179838719E-01  0.26343841318E-01  0.57759627100E+00  0.57988237559E+00  0.51100000000E-03 0.  1.
    9000002    1    1    2    0    0 -0.30575669086E+00 -0.19250314971E+00  0.87648683878E-01  0.10089949992E+01  0.93800000000E+00 0.  1.
         22    1    1    2    0    0  0.26157685214E+00  0.16615930839E+00  0.33347550125E+01  0.33491226252E+01  0.00000000000E+00 0.  1.
</event>
<event>
 5    1  0.6172503E+001  0.1599677E+01  0.7818608E-02  0.3353714E+00
         11   -1    0    0    0    0  0.00000000000E+00  0.00000000000E+00  0.39999999674E+01  0.40000000000E+01  0.51100000000E-03 0. -1.
    9000002   -1    0    0    0    0 -0.00000000000E+00 -0.00000000000E+00  0.00000000000E+00  0.93800000000E+00  0.93800000000E+00 0. -1.
         11    1    1    2    0    0 -0.14188103615E+00 -0.10127329382E-01  0.14758974918E+01  0.14827361392E+01  0.51100000000E-03 0. -1.
    9000002    1    1    2    0    0  0.37513010868E+00  0.26450522937E-01  0.95109502398E-01  0.10150428789E+01  0.93800000000E+00 0. -1.
         22    1    1    2    0    0 -0.23324907253E+00 -0.16323193555E-01  0.24289929732E+01  0.24402209819E+01  0.00000000000E+00 0. -1.
</event>
<event>
 5    1  0.6172503E+001  0.1599674E+01  0.7818608E-02  0.3353717E+00
         11   -1    0    0    0    0  0.00000000000E+00  0.00000000000E+00  0.39999999674E+01  0.40000000000E+01  0.51100000000E-03 0.  1.
    9000002   -1    0    0    0    0 -0.00000000000E+00 -0.00000000000E+00  0.00000000000E+00  0.93800000000E+00  0.93800000000E+00 0.  1.
         11    1    1    2    0    0 -0.12663978192E-01  0.25241023141E-02  0.96294578655E-01  0.97157884062E-01  0.51100000000E-03 0.  1.
    9000002    1    1    2    0    0  0.51647318187E+00 -0.94555578778E-01  0.18954571452E+00  0.10915387684E+01  0.93800000000E+00 0.  1.
         22    1    1    2    0    0 -0.50380920368E+00  0.92031476464E-01  0.37141596742E+01  0.37493033475E+01  0.00000000000E+00 0.  1.
</event>
<event>
 5    1  0.6172503E+001  0.1577365E+01  0.7818608E-02  0.3378304E+00
         11   -1    0    0    0    0  0.00000000000E+00  0.00000000000E+00  0.39999999674E+01  0.40000000000E+01  0.51100000000E-03 0.  1.
    9000002   -1    0    0    0    0 -0.00000000000E+00 -0.00000000000E+00  0.00000000000E+00  0.93800000000E+00  0.93800000000E+00 0. -1.
         11    1    1    2    0    0  0.52299701805E-01  0.67776620998E-02  0.85531601130E-01  0.10048438399E+00  0.51100000000E-03 0.  1.
    9000002    1    1    2    0    0  0.10097346904E+00 -0.32371927083E+00  0.95079205845E-01  0.10019350593E+01  0.93800000000E+00 0. -1.
         22    1    1    2    0    0 -0.15327317085E+00  0.31694160873E+00  0.38193891604E+01  0.38355805567E+01  0.00000000000E+00 0.  1.
</event>
<event>
 5    1  0.6172503E+001  0.1599327E+01  0.7818608E-02  0.3354094E+00
         11   -1    0    0    0    0  0.00000000000E+00  0.00000000000E+00  0.39999999674E+01  0.40000000000E+01  0.51100000000E-03 0. -1.
    9000002   -1    0    0    0    0 -0.00000000000E+00 -0.00000000000E+00  0.00000000000E+00  0.93800000000E+00  0.93800000000E+00 0. -1.
         11    1    1    2    0    0 -0.21031988906E-01  0.74427638411E-02  0.16880463229E+00  0.17027332232E+00  0.51100000000E-03 0. -1.
    9000002    1    1    2    0    0  0.31730445934E+00 -0.30200288527E+00  0.13040111423E+00  0.10434252792E+01  0.93800000000E+00 0. -1.
         22    1    1    2    0    0 -0.29627247044E+00  0.29456012143E+00  0.37007942208E+01  0.37243013985E+01  0.00000000000E+00 0. -1.
</event>
<event>
 5    1  0.6172503E+001  0.1569471E+01  0.7818608E-02  0.3387179E+00
         11   -1    0    0    0    0  0.00000000000E+00  0.00000000000E+00  0.39999999674E+01  0.40000000000E+01  0.51100000000E-03 0. -1.
    9000002   -1    0    0    0    0 -0.00000000000E+00 -0.00000000000E+00  0.00000000000E+00  0.93800000000E+00  0.93800000000E+00 0.  1.
         11    1    1    2    0    0 -0.71047073258E-01 -0.15497893936E+00  0.70063945163E+00  0.72108394835E+00  0.51100000000E-03 0. -1.
    9000002    1    1    2    0    0 -0.26626648466E+00  0.25541578267E+00  0.11651367372E+00  0.10146696502E+01  0.93800000000E+00 0.  1.
         22    1    1    2    0    0  0.33731355792E+00 -0.10043684331E+00  0.31828468420E+01  0.32022464014E+01  0.00000000000E+00 0. -1.
</event>
<event>
 5    1  0.6172503E+001  0.1599414E+01  0.7818608E-02  0.3354000E+00
         11   -1    0    0    0    0  0.00000000000E+00  0.00000000000E+00  0.39999999674E+01  0.40000000000E+01  0.51100000000E-03 0. -1.
    9000002   -1    0    0    0    0 -0.00000000000E+00 -0.00000000000E+00  0.00000000000E+00  0.93800000000E+00  0.93800000000E+00 0. -1.
         11    1    1    2    0    0  0.18301360310E+00  0.35649333628E-01  0.88322697325E+00  0.90269319335E+00  0.51100000000E-03 0. -1.
    9000002    1    1    2    0    0 -0.71253616580E+00 -0.89380909605E-01  0.37069605831E+00  0.12381261253E+01  0.93800000000E+00 0. -1.
         22    1    1    2    0    0  0.52952256270E+00  0.53731575977E-01  0.27460769358E+01  0.27971806813E+01  0.00000000000E+00 0. -1.
</event>
<event>
 5    1  0.6172503E+001  0.1598922E+01  0.7818608E-02  0.3354535E+00
         11   -1    0    0    0    0  0.00000000000E+00  0.00000000000E+00  0.39999999674E+01  0.40000000000E+01  0.51100000000E-03 0. -1.
    9000002   -1    0    0    0    0 -0.00000000000E+00 -0.00000000000E+00  0.00000000000E+00  0.93800000000E+00  0.93800000000E+00 0. -1.
         11    1    1    2    0    0 -0.26144470905E-01  0.71611596878E-01  0.40647814251E+00  0.41356558806E+00  0.51100000000E-03 0. -1.
    9000002    1    1    2    0    0  0.13945615448E+00 -0.50859741683E+00  0.19199368417E+00  0.10930804756E+01  0.93800000000E+00 0. -1.
         22    1    1    2    0    0 -0.11331168357E+00  0.43698581995E+00  0.34015281407E+01  0.34313539363E+01  0.00000000000E+00 0. -1.
</event>
<event>
 5    1  0.6172503E+001  0.1599650E+01  0.7818608E-02  0.3353743E+00
         11   -1    0    0    0    0  0.00000000000E+00  0.00000000000E+00  0.39999999674E+01  0.40000000000E+01  0.51100000000E-03 0. -1.
    9000002   -1    0    0    0    0 -0.00000000000E+00 -0.00000000000E+00  0.00000000000E+00  0.93800000000E+00  0.93800000000E+00 0.  1.
         11    1    1    2    0    0  0.12335068959E+00  0.34330399744E-01  0.12879573198E+01  0.12943061028E+01  0.51100000000E-03 0. -1.
    9000002    1    1    2    0    0 -0.37463928341E+00 -0.12152959459E+00  0.10457482015E+00  0.10226944451E+01  0.93800000000E+00 0.  1.
         22    1    1    2    0    0  0.25128859382E+00  0.87199194849E-01  0.26074678274E+01  0.26209994521E+01  0.00000000000E+00 0. -1.
</event>
<event>
 5    1  0.6172503E+001  0.1599677E+01  0.7818608E-02  0.3353714E+00
         11   -1    0    0    0    0  0.00000000000E+00  0.00000000000E+00  0.39999999674E+01  0.40000000000E+01  0.51100000000E-03 0. -1.
    9000002   -1    0    0    0    0 -0.00000000000E+00 -0.00000000000E+00  0.00000000000E+00  0.93800000000E+00  0.93800000000E+00 0.  1.
         11    1    1    2    0    0  0.45800526235E-01  0.10948151876E+00  0.12972354054E+01  0.13026526204E+01  0.51100000000E-03 0.  1.
    9000002    1    1    2    0    0 -0.13772391753E+00 -0.33030953509E+00  0.85949333037E-01  0.10076227242E+01  0.93800000000E+00 0.  1.
         22    1    1    2    0    0  0.91923391293E-01  0.22082801633E+00  0.26168152289E+01  0.26277246555E+01  0.00000000000E+00 0. -1.
</event>
<event>
 5    1  0.6172503E+001  0.1599650E+01  0.7818608E-02  0.3353743E+00
         11   -1    0    0    0    0  0.00000000000E+00  0.00000000000E+00  0.39999999674E+01  0.40000000000E+01  0.51100000000E-03 0.  1.
    9000002   -1    0    0    0    0 -0.00000000000E+00 -0.00000000000E+00  0.00000000000E+00  0.93800000000E+00  0.93800000000E+00 0. -1.
         11    1    1    2    0    0  0.14098385862E-01  0.12206643062E-01  0.19015238939E+00  0.19106532634E+00  0.51100000000E-03 0.  1.
    9000002    1    1    2    0    0 -0.26201336622E+00 -0.29680036859E+00  0.10569205120E+00  0.10235996642E+01  0.93800000000E+00 0. -1.
         22    1    1    2    0    0  0.24791498035E+00  0.28459372553E+00  0.37041555268E+01  0.37233350095E+01  0.00000000000E+00 0.  1.
</event>
<event>
 5    1  0.6172503E+001  0.1599675E+01  0.7818608E-02  0.3353717E+00
         11   -1    0    0    0    0  0.00000000000E+00  0.00000000000E+00  0.39999999674E+01  0.40000000000E+01  0.51100000000E-03 0.  1.
    9000002   -1    0    0    0    0 -0.00000000000E+00 -0.00000000000E+00  0.00000000000E+00  0.93800000000E+00  0.93800000000E+00 0. -1.
         11    1    1    2    0    0 -0.81133580780E-01  0.82731594702E-01  0.12463994997E+01  0.12517744000E+01  0.51100000000E-03 0.  1.
    9000002    1    1    2    0    0  0.24972380476E+00 -0.25770749936E+00  0.86432530159E-01  0.10080127560E+01  0.93800000000E+00 0. -1.
         22    1    1    2    0    0 -0.16859022398E+00  0.17497590466E+00  0.26671679375E+01  0.26782128440E+01  0.00000000000E+00 0.  1.
</event>
<event>
 5    1  0.6172503E+001  0.1599629E+01  0.7818608E-02  0.3353766E+00
         11   -1    0    0    0    0  0.00000000000E+00  0.00000000000E+00  0.39999999674E+01  0.40000000000E+01  0.51100000000E-03 0.  1.
    9000002   -1    0    0    0    0 -0.00000000000E+00 -0.00000000000E+00  0.00000000000E+00  0.93800000000E+00  0.93800000000E+00 0.  1.
         11    1    1    2    0    0  0.16955539372E+00 -0.85991117569E-01  0.12801436052E+01  0.12941836867E+01  0.51100000000E-03 0.  1.
    9000002    1    1    2    0    0 -0.51186388145E+00  0.27256404505E+00  0.23369808332E+00  0.11272775106E+01  0.93800000000E+00 0.  1.
         22    1    1    2    0    0  0.34230848773E+00 -0.18657292748E+00  0.24861582789E+01  0.25165388027E+01  0.00000000000E+00 0.  1.
</event>
<event>
 5    1  0.6172503E+001  0.1597104E+01  0.7818608E-02  0.3356513E+00
         11   -1    0    0    0    0  0.00000000000E+00  0.00000000000E+00  0.39999999674E+01  0.40000000000E+01  0.51100000000E-03 0.  1.
    9000002   -1    0    0    0    0 -0.00000000000E+00 -0.00000000000E+00  0.00000000000E+00  0.93800000000E+00  0.93800000000E+00 0. -1.
         11    1    1    2    0    0 -0.27231005465E-01 -0.84620492397E-01  0.43200623888E+00  0.44105760048E+00  0.51100000000E-03 0.  1.
    9000002    1    1    2    0    0  0.23216793680E+00  0.40701662394E+00  0.15180351061E+00  0.10594587245E+01  0.93800000000E+00 0. -1.
         22    1    1    2    0    0 -0.20493693133E+00 -0.32239613154E+00  0.34161902179E+01  0.34374836750E+01  0.00000000000E+00 0.  1.
</event>
<event>
 5    1  0.6172503E+001  0.1561971E+01  0.7818608E-02  0.3395702E+00
         11   -1    0    0    0    0  0.00000000000E+00  0.00000000000E+00  0.39999999674E+01  0.40000000000E+01  0.51100000000E-03 0. -1.
    9000002   -1    0    0    0    0 -0.00000000000E+00 -0.00000000000E+00  0.00000000000E+00  0.93800000000E+00  0.93800000000E+00 0. -1.
         11    1    1    2    0    0 -0.52549016614E-01 -0.11112869883E+00  0.46427654782E+00  0.48027488049E+00  0.51100000000E-03 0. -1.
    9000002    1    1    2    0    0  0.13888592381E+00 -0.30501418574E+00  0.10592204896E+00  0.10016917858E+01  0.93800000000E+00 0. -1.
         22    1    1    2    0    0 -0.86336907198E-01  0.41614288457E+00  0.34298013706E+01  0.34560333337E+01  0.00000000000E+00 0. -1.
</event>
<event>
 5    1  0.6172503E+001  0.1599675E+01  0.7818608E-02  0.3353717E+00
         11   -1    0    0    0    0  0.00000000000E+00  0.00000000000E+00  0.39999999674E+01  0.40000000000E+01  0.51100000000E-03 0.  1.
    9000002   -1    0    0    0    0 -0.00000000000E+00 -0.00000000000E+00  0.00000000000E+00  0.93800000000E+00  0.93800000000E+00 0. -1.
         11    1    1    2    0    0  0.11851442980E+00  0.10391094394E+00  0.13639981188E+01  0.13730747553E+01  0.51100000000E-03 0.  1.
    9000002    1    1    2    0    0 -0.34001244981E+00 -0.29155996758E+00  0.13621509320E+00  0.10483387965E+01  0.93800000000E+00 0. -1.
         22    1    1    2    0    0  0.22149802001E+00  0.18764902364E+00  0.24997867554E+01  0.25165864482E+01  0.00000000000E+00 0.  1.
</event>
<event>
 5    1  0.6172503E+001  0.1599663E+01  0.7818608E-02  0.3353730E+00
         11   -1    0    0    0    0  0.00000000000E+00  0.00000000000E+00  0.39999999674E+01  0.40000000000E+01  0.51100000000E-03 0.  1.
    9000002   -1    0    0    0    0 -0.00000000000E+00 -0.00000000000E+00  0.00000000000E+00  0.93800000000E+00  0.93800000000E+00 0.  1.
         11    1    1    2    0    0 -0.10968104185E+00  0.89822667353E-01  0.14768885919E+01  0.14836772616E+01  0.51100000000E-03 0.  1.
    9000002    1    1    2    0    0  0.29746826573E+00 -0.22851318062E+00  0.94628508014E-01  0.10146448627E+01  0.93800000000E+00 0.  1.
         22    1    1    2    0    0 -0.18778722388E+00  0.13869051327E+00  0.24284828674E+01  0.24396778757E+01  0.00000000000E+00 0.  1.
</event>
<event>
 5    1  0.6172503E+001  0.1599661E+01  0.7818608E-02  0.3353732E+00
         11   -1    0    0    0    0  0.00000000000E+00  0.00000000000E+00  0.39999999674E+01  0.40000000000E+01  0.51100000000E-03 0. -1.
    9000002   -1    0    0    0    0 -0.00000000000E+00 -0.00000000000E+00  0.00000000000E+00  0.93800000000E+00  0.93800000000E+00 0.  1.
         11    1    1    2    0    0 -0.74454618795E-01 -0.45588410326E-01  0.99241902944E+00  0.99625176764E+00  0.51100000000E-03 0. -1.
    9000002    1    1    2    0    0  0.29786980540E+00  0.19603658486E+00  0.85335847201E-01  0.10071161653E+01  0.93800000000E+00 0.  1.
         22    1    1    2    0    0 -0.22341518660E+00 -0.15044817454E+00  0.29222450907E+01  0.29346320671E+01  0.00000000000E+00 0. -1.
</event>
<event>
 5    1  0.6172503E+001  0.1599576E+01  0.7818608E-02  0.3353824E+00
         11   -1    0    0    0    0  0.00000000000E+00  0.00000000000E+00  0.39999999674E+01  0.40000000000E+01  0.51100000000E-03 0.  1.
    9000002   -1    0    0    0    0 -0.00000000000E+00 -0.00000000000E+00  0.00000000000E+00  0.93800000000E+00  0.93800000000E+00 0. -1.
         11    1    1    2    0    0  0.48480393561E-01  0.11054213664E+00  0.12260183440E+01  0.12319460838E+01  0.51100000000E-03 0.  1.
    9000002    1    1    2    0    0 -0.11882832872E+00 -0.34988968330E+00  0.91839294474E-01  0.10123346375E+01  0.93800000000E+00 0. -1.
         22    1    1    2    0    0  0.70347935158E-01  0.23934754666E+00  0.26821423289E+01  0.26937192787E+01  0.00000000000E+00 0.  1.
</event>
<event>
 5    1  0.6172503E+001  0.1545277E+01  0.7818608E-02  0.3414987E+00
         11   -1    0    0    0    0  0.00000000000E+00  0.00000000000E+00  0.39999999674E+01  0.40000000000E+01  0.51100000000E-03 0. -1.
    9000002   -1    0    0    0    0 -0.00000000000E+00 -0.00000000000E+00  0.00000000000E+00  0.93800000000E+00  0.93800000000E+00 0. -1.
         11    1    1    2    0    0 -0.15863739527E+00 -0.68548226567E-01  0.48932016031E+00  0.51894042331E+00  0.51100000000E-03 0. -1.
    9000002    1    1    2    0    0  0.14849111564E-01 -0.26994329123E+00  0.91837400945E-01  0.98049374542E+00  0.93800000000E+00 0. -1.
         22    1    1    2    0    0  0.14378828371E+00  0.33849151780E+00  0.34188424061E+01  0.34385658313E+01  0.00000000000E+00 0. -1.
</event>
<event>
 5    1  0.6172503E+001  0.1599677E+01  0.7818608E-02  0.3353714E+00
         11   -1    0    0    0    0  0.00000000000E+00  0.00000000000E+00  0.39999999674E+01  0.40000000000E+01  0.51100000000E-03 0.  1.
    9000002   -1    0    0    0    0 -0.00000000000E+00 -0.00000000000E+00  0.00000000000E+00  0.93800000000E+00  0.93800000000E+00 0. -1.
         11    1    1    2    0    0 -0.45125923712E-01  0.54032847354E-01  0.59219118768E+00  0.59636109990E+00  0.51100000000E-03 0. -1.
    9000002    1    1    2    0    0  0.29561720940E+00 -0.35071068061E+00  0.14307732321E+00  0.10538987790E+01  0.93800000000E+00 0. -1.
         22    1    1    2    0    0 -0.25049128569E+00  0.29667783326E+00  0.32647314565E+01  0.32877401211E+01  0.00000000000E+00 0.  1.
</event>
<event>
 5    1  0.6172503E+001  0.1599666E+01  0.7818608E-02  0.3353726E+00
         11   -1    0    0    0    0  0.00000000000E+00  0.00000000000E+00  0.39999999674E+01  0.40000000000E+01  0.51100000000E-03 0. -1.
    9000002   -1    0    0    0    0 -0.00000000000E+00 -0.00000000000E+00  0.00000000000E+00  0.93800000000E+00  0.93800000000E+00 0.  1.
         11    1    1    2    0    0 -0.18854354055E+00  0.13600669641E+00  0.10846615962E+01  0.11092959603E+01  0.51100000000E-03 0. -1.
    9000002    1    1    2    0    0  0.61622374665E+00 -0.45887461062E+00  0.43036057747E+00  0.12866047726E+01  0.93800000000E+00 0.  1.
         22    1    1    2    0    0 -0.42768020610E+00  0.32286791421E+00  0.24849777937E+01  0.25420992671E+01  0.00000000000E+00 0. -1.
</event>
<event>
 5    1  0.6172503E+001  0.1599312E+01  0.7818608E-02  0.3354111E+00
         11   -1    0    0    0    0  0.00000000000E+00  0.00000000000E+00  0.39999999674E+01  0.40000000000E+01  0.51100000000E-03 0. -1.
    9000002   -1    0    0    0    0 -0.00000000000E+00 -0.00000000000E+00  0.00000000000E+00  0.93800000000E+00  0.93800000000E+00 0. -1.
         11    1    1    2    0    0  0.10263662198E+00  0.61450999924E-01  0.10098302878E+01  0.10168913280E+01  0.51100000000E-03 0. -1.
    9000002    1    1    2    0    0 -0.32122111051E+00 -0.21536288249E+00  0.10101692901E+00  0.10196139431E+01  0.93800000000E+00 0. -1.
         22    1    1    2    0    0  0.21858448853E+00  0.15391188257E+00  0.28891527505E+01  0.29014947290E+01  0.00000000000E+00 0. -1.
</event>
<event>
 5    1  0.6172503E+001  0.1599666E+01  0.7818608E-02  0.3353726E+00
         11   -1    0    0    0    0  0.00000000000E+00  0.00000000000E+00  0.39999999674E+01  0.40000000000E+01  0.51100000000E-03 0. -1.
    9000002   -1    0    0    0    0 -0.00000000000E+00 -0.00000000000E+00  0.00000000000E+00  0.93800000000E+00  0.93800000000E+00 0. -1.
         11    1    1    2    0    0  0.19712754547E-02  0.13324463542E+00  0.40870532483E+00  0.42988175404E+00  0.51100000000E-03 0. -1.
    9000002    1    1    2    0    0 -0.22023783335E-02 -0.10145983743E+01  0.83527444321E+00  0.16146027707E+01  0.93800000000E+00 0. -1.
         22    1    1    2    0    0  0.23110287874E-03  0.88135373891E+00  0.27560201993E+01  0.28935154753E+01  0.00000000000E+00 0. -1.
</event>
<event>
 5    1  0.6172503E+001  0.1599677E+01  0.7818608E-02  0.3353714E+00
         11   -1    0    0    0    0  0.00000000000E+00  0.00000000000E+00  0.39999999674E+01  0.40000000000E+01  0.51100000000E-03 0. -1.
    9000002   -1    0    0    0    0 -0.00000000000E+00 -0.00000000000E+00  0.00000000000E+00  0.93800000000E+00  0.93800000000E+00 0.  1.
         11    1    1    2    0    0  0.99161460709E-01  0.15071531451E+00  0.12688561898E+01  0.12816178810E+01  0.51100000000E-03 0. -1.
    9000002    1    1    2    0    0 -0.29770954029E+00 -0.44960033882E+00  0.20043151883E+00  0.11003582275E+01  0.93800000000E+00 0.  1.
         22    1    1    2    0    0  0.19854807958E+00  0.29888502430E+00  0.25307122587E+01  0.25560238915E+01  0.00000000000E+00 0. -1.
</event>
<event>
 5    1  0.6172503E+001  0.1599675E+01  0.7818608E-02  0.3353717E+00
         11   -1    0    0    0    0  0.00000000000E+00  0.00000000000E+00  0.39999999674E+01  0.40000000000E+01  0.51100000000E-03 0.  1.
    9000002   -1    0    0    0    0 -0.00000000000E+00 -0.00000000000E+00  0.00000000000E+00  0.93800000000E+00  0.93800000000E+00 0.  1.
         11    1    1    2    0    0  0.14257244730E+00  0.37951764961E-01  0.85662418555E+00  0.86923673161E+00  0.51100000000E-03 0.  1.
    9000002    1    1    2    0    0 -0.61220244431E+00 -0.16646758648E+00  0.28298814311E+00  0.11672315877E+01  0.93800000000E+00 0.  1.
         22    1    1    2    0    0  0.46962999700E+00  0.12851582152E+00  0.28603876387E+01  0.29015316807E+01  0.00000000000E+00 0.  1.
</event>
<event>
 5    1  0.6172503E+001  0.1599668E+01  0.7818608E-02  0.3353723E+00
         11   -1    0    0    0    0  0.00000000000E+00  0.00000000000E+00  0.39999999674E+01  0.40000000000E+01  0.51100000000E-03 0.  1.
    9000002   -1    0    0    0    0 -0.00000000000E+00 -0.00000000000E+00  0.00000000000E+00  0.93800000000E+00  0.93800000000E+00 0. -1.
         11    1    1    2    0    0 -0.12856422092E-01  0.77516232666E-02  0.10679403334E+00  0.10784526846E+00  0.51100000000E-03 0.  1.
    9000002    1    1    2    0    0  0.43661110913E+00 -0.30724547672E+00  0.19628780513E+00  0.10969967849E+01  0.93800000000E+00 0. -1.
         22    1    1    2    0    0 -0.42375468704E+00  0.29949385345E+00  0.36969181289E+01  0.37331579467E+01  0.00000000000E+00 0.  1.
</event>
<event>
 5    1  0.6172503E+001  0.1599384E+01  0.7818608E-02  0.3354033E+00
         11   -1    0    0    0    0  0.00000000000E+00  0.00000000000E+00  0.39999999674E+01  0.40000000000E+01  0.51100000000E-03 0. -1.
    9000002   -1    0    0    0    0 -0.00000000000E+00 -0.00000000000E+00  0.00000000000E+00  0.93800000000E+00  0.93800000000E+00 0. -1.
         11    1    1    2    0    0  0.13159258194E+00  0.16658181823E-01  0.14541483137E+01  0.14601854958E+01  0.51100000000E-03 0. -1.
    9000002    1    1    2    0    0 -0.35702699666E+00 -0.98216678408E-01  0.92388865668E-01  0.10126670207E+01  0.93800000000E+00 0. -1.
         22    1    1    2    0    0  0.22543441472E+00  0.81558496585E-01  0.24534627880E+01  0.24651474835E+01  0.00000000000E+00 0. -1.
</event>
<event>
 5    1  0.6172503E+001  0.1599677E+01  0.7818608E-02  0.3353714E+00
         11   -1    0    0    0    0  0.00000000000E+00  0.00000000000E+00  0.39999999674E+01  0.40000000000E+01  0.51100000000E-03 0. -1.
    9000002   -1    0    0    0    0 -0.00000000000E+00 -0.00000000000E+00  0.00000000000E+00  0.93800000000E+00  0.93800000000E+00 0. -1.
         11    1    1    2    0    0  0.30119951030E-01  0.86451337510E-01  0.70574053544E+00  0.71165371473E+00  0.51100000000E-03 0. -1.
    9000002    1    1    2    0    0 -0.16080380832E+00 -0.46977862330E+00  0.16867991374E+00  0.10746379544E+01  0.93800000000E+00 0. -1.
         22    1    1    2    0    0  0.13068385729E+00  0.38332728579E+00  0.31255795182E+01  0.31517083309E+01  0.00000000000E+00 0. -1.
</event>
<event>
 5    1  0.6172503E+001  0.1599677E+01  0.7818608E-02  0.3353714E+00
         11   -1    0    0    0    0  0.00000000000E+00  0.00000000000E+00  0.39999999674E+01  0.40000000000E+01  0.51100000000E-03 0.  1.
    9000002   -1    0    0    0    0 -0.00000000000E+00 -0.00000000000E+00  0.00000000000E+00  0.93800000000E+00  0.93800000000E+00 0. -1.
         11    1    1    2    0    0 -0.12060911527E+00 -0.96951615532E-01  0.11560383514E+01  0.11663494783E+01  0.51100000000E-03 0. -1.
    9000002    1    1    2    0    0  0.39926295150E+00  0.31911489470E+00  0.17917611675E+00  0.10831404809E+01  0.93800000000E+00 0. -1.
         22    1    1    2    0    0 -0.27865383623E+00 -0.22216327916E+00  0.26647854992E+01  0.26885100409E+01  0.00000000000E+00 0.  1.
</event>
<event>
 5    1  0.6172503E+001  0.1565903E+01  0.7818608E-02  0.3391223E+00
         11   -1    0    0    0    0  0.00000000000E+00  0.00000000000E+00  0.39999999674E+01  0.40000000000E+01  0.51100000000E-03 0. -1.
    9000002   -1    0    0    0    0 -0.00000000000E+00 -0.00000000000E+00  0.00000000000E+00  0.93800000000E+00  0.93800000000E+00 0. -1.
         11    1    1    2    0    0 -0.11008389760E+00  0.11497581231E+00  0.12027144290E+01  0.12132024402E+01  0.51100000000E-03 0. -1.
    9000002    1    1    2    0    0 -0.85412877607E-01  0.11927675168E+00  0.39541350409E-01  0.95022619494E+00  0.93800000000E+00 0. -1.
         22    1    1    2    0    0  0.19549677521E+00 -0.23425256399E+00  0.27577441879E+01  0.27745713649E+01  0.00000000000E+00 0. -1.
</event>
<event>
 5    1  0.6172503E+001  0.1506218E+01  0.7818608E-02  0.3461896E+00
         11   -1    0    0    0    0  0.00000000000E+00  0.00000000000E+00  0.39999999674E+01  0.40000000000E+01  0.51100000000E-03 0.  1.
    9000002   -1    0    0    0    0 -0.00000000000E+00 -0.00000000000E+00  0.00000000000E+00  0.93800000000E+00  0.93800000000E+00 0.  1.
         11    1    1    2    0    0 -0.10189937938E+00  0.27220024068E+00  0.85901366962E+00  0.90685235858E+00  0.51100000000E-03 0.  1.
    9000002    1    1    2    0    0 -0.20725021956E+00 -0.15829735867E-01  0.10246854150E+00  0.96620237841E+00  0.93800000000E+00 0.  1.
         22    1    1    2    0    0  0.30914959894E+00 -0.25637050481E+00  0.30385177562E+01  0.30649452630E+01  0.00000000000E+00 0.  1.
</event>
<event>
 5    1  0.6172503E+001  0.1599646E+01  0.7818608E-02  0.3353747E+00
         11   -1    0    0    0    0  0.00000000000E+00  0.00000000000E+00  0.39999999674E+01  0.40000000000E+01  0.51100000000E-03 0. -1.
    9000002   -1    0    0    0    0 -0.00000000000E+00 -0.00000000000E+00  0.00000000000E+00  0.93800000000E+00  0.93800000000E+00 0.  1.
         11    1    1    2    0    0  0.70813366171E-01  0.41153685976E-01  0.76131635599E+00  0.76570948388E+00  0.51100000000E-03 0. -1.
    9000002    1    1    2    0    0 -0.35421843396E+00 -0.18447769226E+00  0.10760475945E+00  0.10251465759E+01  0.93800000000E+00 0.  1.
         22    1    1    2    0    0  0.28340506779E+00  0.14332400629E+00  0.31310788519E+01  0.31471439402E+01  0.00000000000E+00 0. -1.
</event>
<event>
 5    1  0.6172503E+001  0.1599533E+01  0.7818608E-02  0.3353870E+00
         11   -1    0    0    0    0  0.00000000000E+00  0.00000000000E+00  0.39999999674E+01  0.40000000000E+01  0.51100000000E-03 0.  1.
    9000002   -1    0    0    0    0 -0.00000000000E+00 -0.00000000000E+00  0.00000000000E+00  0.93800000000E+00  0.93800000000E+00 0.  1.
         11    1    1    2    0    0  0.13655925464E-01 -0.67393398771E-01  0.25614700932E+00  0.26521671517E+00  0.51100000000E-03 0.  1.
    9000002    1    1    2    0    0 -0.16049326622E+00  0.81477960049E+00  0.51365179971E+00  0.13539963284E+01  0.93800000000E+00 0.  1.
         22    1    1    2    0    0  0.14683734076E+00 -0.74738620172E+00  0.32302011583E+01  0.33187869565E+01  0.00000000000E+00 0.  1.
</event>
<event>
 5    1  0.6172503E+001  0.1592968E+01  0.7818608E-02  0.3361031E+00
         11   -1    0    0    0    0  0.00000000000E+00  0.00000000000E+00  0.39999999674E+01  0.40000000000E+01  0.51100000000E-03 0. -1.
    9000002   -1    0    0    0    0 -0.00000000000E+00 -0.00000000000E+00  0.00000000000E+00  0.93800000000E+00  0.93800000000E+00 0.  1.
         11    1    1    2    0    0 -0.59622074669E-01 -0.20826405731E-01  0.30655168791E+00  0.31298998298E+00  0.51100000000E-03 0. -1.
    9000002    1    1    2    0    0  0.49218456792E+00 -0.36293940282E+00  0.26835634598E+00  0.11514468235E+01  0.93800000000E+00 0.  1.
         22    1    1    2    0    0 -0.43256249325E+00  0.38376580855E+00  0.34250919335E+01  0.34735631935E+01  0.00000000000E+00 0. -1.
</event>
<event>
 5    1  0.6172503E+001  0.1506857E+01  0.7818608E-02  0.3461107E+00
         11   -1    0    0    0    0  0.00000000000E+00  0.00000000000E+00  0.39999999674E+01  0.40000000000E+01  0.51100000000E-03 0.  1.
    9000002   -1    0    0    0    0 -0.00000000000E+00 -0.00000000000E+00  0.00000000000E+00  0.93800000000E+00  0.93800000000E+00 0. -1.
         11    1    1    2    0    0 -0.24728840829E+00 -0.74629090626E-01  0.60018684727E+00  0.65341072136E+00  0.51100000000E-03 0.  1.
    9000002    1    1    2    0    0 -0.67331385184E-01  0.21446264581E-01  0.74065047908E-01  0.94356933450E+00  0.93800000000E+00 0. -1.
         22    1    1    2    0    0  0.31461979347E+00  0.53182826046E-01  0.33257480722E+01  0.33410199441E+01  0.00000000000E+00 0.  1.
</event>
<event>
 5    1  0.6172503E+001  0.1581657E+01  0.7818608E-02  0.3373516E+00
         11   -1    0    0    0    0  0.00000000000E+00  0.00000000000E+00  0.39999999674E+01  0.40000000000E+01  0.51100000000E-03 0.  1.
    9000002   -1    0    0    0    0 -0.00000000000E+00 -0.00000000000E+00  0.00000000000E+00  0.93800000000E+00  0.93800000000E+00 0. -1.
         11    1    1    2    0    0 -0.15744382444E+00 -0.24448143885E+00  0.13589408113E+01  0.13897050484E+01  0.51100000000E-03 0.  1.
    9000002    1    1    2    0    0  0.52988842594E-01  0.48953394840E+00  0.18206673681E+00  0.10749156249E+01  0.93800000000E+00 0. -1.
         22    1    1    2    0    0  0.10445498185E+00 -0.24505250955E+00  0.24589924192E+01  0.24733793266E+01  0.00000000000E+00 0.  1.
</event>
<event>
 5    1  0.6172503E+001  0.1540506E+01  0.7818608E-02  0.3420580E+00
         11   -1    0    0    0    0  0.00000000000E+00  0.00000000000E+00  0.39999999674E+01  0.40000000000E+01  0.51100000000E-03 0. -1.
    9000002   -1    0    0    0    0 -0.00000000000E+00 -0.00000000000E+00  0.00000000000E+00  0.93800000000E+00  0.93800000000E+00 0.  1.
         11    1    1    2    0    0 -0.28868407959E+00  0.15335104380E-01  0.11880810450E+01  0.12227471095E+01  0.51100000000E-03 0. -1.
    9000002    1    1    2    0    0  0.12020876420E+00  0.26847679162E+00  0.10539258101E+00  0.98867665632E+00  0.93800000000E+00 0.  1.
         22    1    1    2    0    0  0.16847531539E+00 -0.28381189600E+00  0.27065263414E+01  0.27265762342E+01  0.00000000000E+00 0. -1.
</event>
<event>
 5    1  0.6172503E+001  0.1599656E+01  0.7818608E-02  0.3353737E+00
         11   -1    0    0    0    0  0.00000000000E+00  0.00000000000E+00  0.39999999674E+01  0.40000000000E+01  0.51100000000E-03 0. -1.
    9000002   -1    0    0    0    0 -0.00000000000E+00 -0.00000000000E+00  0.00000000000E+00  0.93800000000E+00  0.93800000000E+00 0.  1.
         11    1    1    2    0    0 -0.20385199563E-01 -0.75293174339E-01  0.79041903092E+00  0.79425885203E+00  0.51100000000E-03 0. -1.
    9000002    1    1    2    0    0  0.81145161031E-01  0.38141415241E+00  0.10245550624E+00  0.10209811083E+01  0.93800000000E+00 0.  1.
         22    1    1    2    0    0 -0.60759961468E-01 -0.30612097807E+00  0.31071254302E+01  0.31227600396E+01  0.00000000000E+00 0. -1.
</event>
<event>
 5    1  0.6172503E+001  0.1581831E+01  0.7818608E-02  0.3373322E+00
         11   -1    0    0    0    0  0.00000000000E+00  0.00000000000E+00  0.39999999674E+01  0.40000000000E+01  0.51100000000E-03 0. -1.
    9000002   -1    0    0    0    0 -0.00000000000E+00 -0.00000000000E+00  0.00000000000E+00  0.93800000000E+00  0.93800000000E+00 0.  1.
         11    1    1    2    0    0  0.19257874400E+00 -0.78666640189E-01  0.11881060810E+01  0.12061804731E+01  0.51100000000E-03 0. -1.
    9000002    1    1    2    0    0 -0.34742169516E+00 -0.13686585164E+00  0.10847292533E+00  0.10154036001E+01  0.93800000000E+00 0.  1.
         22    1    1    2    0    0  0.15484295115E+00  0.21553249183E+00  0.27034209611E+01  0.27164159268E+01  0.00000000000E+00 0. -1.
</event>
<event>
 5    1  0.6172503E+001  0.1598117E+01  0.7818608E-02  0.3355410E+00
         11   -1    0    0    0    0  0.00000000000E+00  0.00000000000E+00  0.39999999674E+01  0.40000000000E+01  0.51100000000E-03 0. -1.
    9000002   -1    0    0    0    0 -0.00000000000E+00 -0.00000000000E+00  0.00000000000E+00  0.93800000000E+00  0.93800000000E+00 0. -1.
         11    1    1    2    0    0  0.51797166522E-01  0.49085711183E-02  0.78279588735E+00  0.78452323286E+00  0.51100000000E-03 0. -1.
    9000002    1    1    2    0    0 -0.38770115283E+00  0.11354748590E+00  0.11144476064E+00  0.10273602825E+01  0.93800000000E+00 0. -1.
         22    1    1    2    0    0  0.33590398630E+00 -0.11845605702E+00  0.31057593194E+01  0.31261164846E+01  0.00000000000E+00 0. -1.
</event>
<event>
 5    1  0.6172503E+001  0.1599097E+01  0.7818608E-02  0.3354344E+00
         11   -1    0    0    0    0  0.00000000000E+00  0.00000000000E+00  0.39999999674E+01  0.40000000000E+01  0.51100000000E-03 0. -1.
    9000002   -1    0    0    0    0 -0.00000000000E+00 -0.00000000000E+00  0.00000000000E+00  0.93800000000E+00  0.93800000000E+00 0. -1.
         11    1    1    2    0    0 -0.64110480699E-01 -0.30485097962E-02  0.93238885532E+00  0.93459546639E+00  0.51100000000E-03 0. -1.
    9000002    1    1    2    0    0  0.36322074285E+00 -0.30738235253E-01  0.89711171560E-01  0.10103297687E+01  0.93800000000E+00 0. -1.
         22    1    1    2    0    0 -0.29911026215E+00  0.33786745049E-01  0.29778999405E+01  0.29930747649E+01  0.00000000000E+00 0. -1.
</event>
<event>
 5    1  0.6172503E+001  0.1599660E+01  0.7818608E-02  0.3353733E+00
         11   -1    0    0    0    0  0.00000000000E+00  0.00000000000E+00  0.39999999674E+01  0.40000000000E+01  0.51100000000E-03 0.  1.
    9000002   -1    0    0    0    0 -0.00000000000E+00 -0.00000000000E+00  0.00000000000E+00  0.93800000000E+00  0.93800000000E+00 0.  1.
         11    1    1    2    0    0 -0.20688952949E-01  0.51688425249E-01  0.46127993695E+00  0.46462798822E+00  0.51100000000E-03 0.  1.
    9000002    1    1    2    0    0  0.19141832403E+00 -0.41280285296E+00  0.14074296971E+00  0.10519979818E+01  0.93800000000E+00 0.  1.
         22    1    1    2    0    0 -0.17072937108E+00  0.36111442771E+00  0.33979770607E+01  0.34213740300E+01  0.00000000000E+00 0.  1.
</event>
<event>
 5    1  0.6172503E+001  0.1599200E+01  0.7818608E-02  0.3354232E+00
         11   -1    0    0    0    0  0.00000000000E+00  0.00000000000E+00  0.39999999674E+01  0.40000000000E+01  0.51100000000E-03 0.  1.
    9000002   -1    0    0    0    0 -0.00000000000E+00 -0.00000000000E+00  0.00000000000E+00  0.93800000000E+00  0.93800000000E+00 0.  1.
         11    1    1    2    0    0 -0.82563605263E-01 -0.25558315976E-01  0.94865511618E+00  0.95258425717E+00  0.51100000000E-03 0.  1.
    9000002    1    1    2    0    0  0.38862582463E+00  0.26589926579E-01  0.10260814137E+00  0.10208376396E+01  0.93800000000E+00 0.  1.
         22    1    1    2    0    0 -0.30606221937E+00 -0.10316106030E-02  0.29487367098E+01  0.29645781032E+01  0.00000000000E+00 0. -1.
</event>
<event>
 5    1  0.6172503E+001  0.1599674E+01  0.7818608E-02  0.3353717E+00
         11   -1    0    0    0    0  0.00000000000E+00  0.00000000000E+00  0.39999999674E+01  0.40000000000E+01  0.51100000000E-03 0. -1.
    9000002   -1    0    0    0    0 -0.00000000000E+00 -0.00000000000E+00  0.00000000000E+00  0.93800000000E+00  0.93800000000E+00 0.  1.
         11    1    1    2    0    0 -0.45463168918E-01 -0.28601187092E-02  0.37967115958E+00  0.38239446982E+00  0.51100000000E-03 0. -1.
    9000002    1    1    2    0    0  0.46850520554E+00  0.20278259467E-01  0.14978929187E+00  0.10593343039E+01  0.93800000000E+00 0.  1.
         22    1    1    2    0    0 -0.42304203662E+00 -0.17418140757E-01  0.34705395159E+01  0.34962712263E+01  0.00000000000E+00 0. -1.
</event>
<event>
 5    1  0.6775182E+001  0.1599373E+01  0.7818608E-02  0.3354044E+00
         11   -1    0    0    0    0  0.00000000000E+00  0.00000000000E+00  0.39999999674E+01  0.40000000000E+01  0.51100000000E-03 0.  1.
    9000002   -1    0    0    0    0 -0.00000000000E+00 -0.00000000000E+00  0.00000000000E+00  0.93800000000E+00  0.93800000000E+00 0. -1.
         11    1    1    2    0    0 -0.65938797606E-01 -0.93600281778E-01  0.14181006035E+01  0.14227151931E+01  0.51100000000E-03 0.  1.
    9000002    1    1    2    0    0  0.20755511976E+00  0.30736287449E+00  0.92697255367E-01  0.10129105812E+01  0.93800000000E+00 0. -1.
         22    1    1    2    0    0 -0.14161632215E+00 -0.21376259272E+00  0.24892021085E+01  0.25023742257E+01  0.00000000000E+00 0.  1.
</event>
<event>
 5    1  0.6172503E+001  0.1554441E+01  0.7818608E-02  0.3404346E+00
         11   -1    0    0    0    0  0.00000000000E+00  0.00000000000E+00  0.39999999674E+01  0.40000000000E+01  0.51100000000E-03 0. -1.
    9000002   -1    0    0    0    0 -0.00000000000E+00 -0.00000000000E+00  0.00000000000E+00  0.93800000000E+00  0.93800000000E+00 0.  1.
         11    1    1    2    0    0 -0.16460945987E+00  0.15501267711E+00  0.14389337133E+01  0.14565904355E+01  0.51100000000E-03 0. -1.
    9000002    1    1    2    0    0  0.69036079472E-01  0.13189518908E+00  0.48784120514E-01  0.95099222478E+00  0.93800000000E+00 0.  1.
         22    1    1    2    0    0  0.95573380403E-01 -0.28690786620E+00  0.25122821335E+01  0.25304173397E+01  0.00000000000E+00 0. -1.
</event>
<event>
 5    1  0.6172503E+001  0.1599522E+01  0.7818608E-02  0.3353883E+00
         11   -1    0    0    0    0  0.00000000000E+00  0.00000000000E+00  0.39999999674E+01  0.40000000000E+01  0.51100000000E-03 0. -1.
    9000002   -1    0    0    0    0 -0.00000000000E+00 -0.00000000000E+00  0.00000000000E+00  0.93800000000E+00  0.93800000000E+00 0.  1.
         11    1    1    2    0    0 -0.55913606939E-01  0.35501811633E-01  0.59963003236E+00  0.60327700677E+00  0.51100000000E-03 0. -1.
    9000002    1    1    2    0    0  0.30437346191E+00 -0.26951758006E+00  0.11171110707E+00  0.10283998744E+01  0.93800000000E+00 0.  1.
         22    1    1    2    0    0 -0.24845985497E+00  0.23401576843E+00  0.32886588279E+01  0.33063231188E+01  0.00000000000E+00 0. -1.
</event>
<event>
 5    1  0.6172503E+001  0.1494961E+01  0.7818608E-02  0.3475903E+00
         11   -1    0    0    0    0  0.00000000000E+00  0.00000000000E+00  0.39999999674E+01  0.40000000000E+01  0.51100000000E-03 0.  1.
    9000002   -1    0    0    0    0 -0.00000000000E+00 -0.00000000000E+00  0.00000000000E+00  0.93800000000E+00  0.93800000000E+00 0.  1.
         11    1    1    2    0    0 -0.39446093197E+00 -0.34891189730E-01  0.67042250789E+00  0.77864203725E+00  0.51100000000E-03 0.  1.
    9000002    1    1    2    0    0 -0.12688932215E+00  0.13605259678E+00  0.18972669193E+00  0.97491098404E+00  0.93800000000E+00 0.  1.
         22    1    1    2    0    0  0.52135025412E+00 -0.10116140705E+00  0.31398507675E+01  0.31844469787E+01  0.00000000000E+00 0.  1.
</event>
<event>
 5    1  0.7448781E+001  0.1592643E+01  0.7818608E-02  0.3361387E+00
         11   -1    0    0    0    0  0.00000000000E+00  0.00000000000E+00  0.39999999674E+01  0.40000000000E+01  0.51100000000E-03 0. -1.
    9000002   -1    0    0    0    0 -0.00000000000E+00 -0.00000000000E+00  0.00000000000E+00  0.93800000000E+00  0.93800000000E+00 0.  1.
         11    1    1    2    0    0  0.75774368193E-01  0.83201929211E-03  0.11483406884E+01  0.11508384095E+01  0.51100000000E-03 0. -1.
    9000002    1    1    2    0    0 -0.83543749867E-01  0.25789664782E+00  0.54347859184E-01  0.97789975401E+00  0.93800000000E+00 0.  1.
         22    1    1    2    0    0  0.77693816738E-02 -0.25872866711E+00  0.27973114198E+01  0.28092618365E+01  0.00000000000E+00 0. -1.
</event>
<event>
 5    1  0.6172503E+001  0.1599518E+01  0.7818608E-02  0.3353886E+00
         11   -1    0    0    0    0  0.00000000000E+00  0.00000000000E+00  0.39999999674E+01  0.40000000000E+01  0.51100000000E-03 0.  1.
    9000002   -1    0    0    0    0 -0.00000000000E+00 -0.00000000000E+00  0.00000000000E+00  0.93800000000E+00  0.93800000000E+00 0. -1.
         11    1    1    2    0    0  0.11020815472E-01  0.34996128248E-01  0.32335800634E+00  0.32543332459E+00  0.51100000000E-03 0.  1.
    9000002    1    1    2    0    0 -0.20205408723E+00 -0.34819868640E+00  0.10948687540E+00  0.10265961013E+01  0.93800000000E+00 0. -1.
         22    1    1    2    0    0  0.19103327176E+00  0.31320255815E+00  0.35671550856E+01  0.35859705741E+01  0.00000000000E+00 0.  1.
</event>
<event>
 5    1  0.6172503E+001  0.1598831E+01  0.7818608E-02  0.3354633E+00
         11   -1    0    0    0    0  0.00000000000E+00  0.00000000000E+00  0.39999999674E+01  0.40000000000E+01  0.51100000000E-03 0. -1.
    9000002   -1    0    0    0    0 -0.00000000000E+00 -0.00000000000E+00  0.00000000000E+00  0.93800000000E+00  0.93800000000E+00 0. -1.
         11    1    1    2    0    0  0.22468841488E-02 -0.17536621016E+00  0.12512370586E+01  0.12634685569E+01  0.51100000000E-03 0. -1.
    9000002    1    1    2    0    0 -0.77085752091E-01  0.46637095942E+00  0.15302855359E+00  0.10614639999E+01  0.93800000000E+00 0. -1.
         22    1    1    2    0    0  0.74838867942E-01 -0.29100474926E+00  0.25957343551E+01  0.26130674432E+01  0.00000000000E+00 0.  1.
</event>
<event>
 5    1  0.6172503E+001  0.1597410E+01  0.7818608E-02  0.3356180E+00
         11   -1    0    0    0    0  0.00000000000E+00  0.00000000000E+00  0.39999999674E+01  0.40000000000E+01  0.51100000000E-03 0.  1.
    9000002   -1    0    0    0    0 -0.00000000000E+00 -0.00000000000E+00  0.00000000000E+00  0.93800000000E+00  0.93800000000E+00 0.  1.
         11    1    1    2    0    0 -0.50650899177E-01  0.93584111182E-02  0.29585571789E+00  0.30030644411E+00  0.51100000000E-03 0.  1.
    9000002    1    1    2    0    0  0.29758524067E+00 -0.28239831858E+00  0.11557983758E+00  0.10302953386E+01  0.93800000000E+00 0.  1.
         22    1    1    2    0    0 -0.24693434150E+00  0.27303990746E+00  0.35885644119E+01  0.36073982173E+01  0.00000000000E+00 0.  1.
</event>
<event>
 5    1  0.6172503E+001  0.1599538E+01  0.7818608E-02  0.3353864E+00
         11   -1    0    0    0    0  0.00000000000E+00  0.00000000000E+00  0.39999999674E+01  0.40000000000E+01  0.51100000000E-03 0. -1.
    9000002   -1    0    0    0    0 -0.00000000000E+00 -0.00000000000E+00  0.00000000000E+00  0.93800000000E+00  0.93800000000E+00 0.  1.
         11    1    1    2    0    0 -0.74896753555E-01 -0.50062417257E-01  0.10661066739E+01  0.10699062905E+01  0.51100000000E-03 0. -1.
    9000002    1    1    2    0    0  0.31136355738E+00  0.15490007979E+00  0.81183869583E-01  0.10036812842E+01  0.93800000000E+00 0.  1.
         22    1    1    2    0    0 -0.23646680382E+00 -0.10483766254E+00  0.28527094239E+01  0.28644124253E+01  0.00000000000E+00 0.  1.
</event>
<event>
 5    1  0.6172503E+001  0.1599675E+01  0.7818608E-02  0.3353716E+00
         11   -1    0    0    0    0  0.00000000000E+00  0.00000000000E+00  0.39999999674E+01  0.40000000000E+01  0.51100000000E-03 0. -1.
    9000002   -1    0    0    0    0 -0.00000000000E+00 -0.00000000000E+00  0.00000000000E+00  0.93800000000E+00  0.93800000000E+00 0.  1.
         11    1    1    2    0    0  0.56882139455E-01 -0.11758748219E+00  0.14277866474E+01  0.14337494082E+01  0.51100000000E-03 0. -1.
    9000002    1    1    2    0    0 -0.15695080717E+00  0.31854364792E+00  0.84603134915E-01  0.10065313219E+01  0.93800000000E+00 0.  1.
         22    1    1    2    0    0  0.10006866771E+00 -0.20095616573E+00  0.24876101850E+01  0.24977192700E+01  0.00000000000E+00 0. -1.
</event>
<event>
 5    1  0.6172503E+001  0.1594000E+01  0.7818608E-02  0.3359901E+00
         11   -1    0    0    0    0  0.00000000000E+00  0.00000000000E+00  0.39999999674E+01  0.40000000000E+01  0.51100000000E-03 0.  1.
    9000002   -1    0    0    0    0 -0.00000000000E+00 -0.00000000000E+00  0.00000000000E+00  0.93800000000E+00  0.93800000000E+00 0. -1.
         11    1    1    2    0    0  0.71849190732E-01 -0.70108272678E-01  0.69525288117E+00  0.70246302821E+00  0.51100000000E-03 0.  1.
    9000002    1    1    2    0    0 -0.72598994829E+00  0.26097361966E+00  0.44140093948E+00  0.12922257638E+01  0.93800000000E+00 0. -1.
         22    1    1    2    0    0  0.65414075755E+00 -0.19086534698E+00  0.28633461467E+01  0.29433112080E+01  0.00000000000E+00 0.  1.
</event>
<event>
 5    1  0.6172503E+001  0.1599076E+01  0.7818608E-02  0.3354367E+00
         11   -1    0    0    0    0  0.00000000000E+00  0.00000000000E+00  0.39999999674E+01  0.40000000000E+01  0.51100000000E-03 0.  1.
    9000002   -1    0    0    0    0 -0.00000000000E+00 -0.00000000000E+00  0.00000000000E+00  0.93800000000E+00  0.93800000000E+00 0. -1.
         11    1    1    2    0    0 -0.28589830203E-02  0.40917672333E-02  0.12177011267E+00  0.12187344996E+00  0.51100000000E-03 0.  1.
    9000002    1    1    2    0    0  0.27026878800E+00 -0.40171883607E+00  0.16059260080E+00  0.10677346227E+01  0.93800000000E+00 0. -1.
         22    1    1    2    0    0 -0.26740980498E+00  0.39762706884E+00  0.37176372539E+01  0.37483919274E+01  0.00000000000E+00 0.  1.
</event>
<event>
 5    1  0.6172503E+001  0.1510834E+01  0.7818608E-02  0.3456216E+00
         11   -1    0    0    0    0  0.00000000000E+00  0.00000000000E+00  0.39999999674E+01  0.40000000000E+01  0.51100000000E-03 0.  1.
    9000002   -1    0    0    0    0 -0.00000000000E+00 -0.00000000000E+00  0.00000000000E+00  0.93800000000E+00  0.93800000000E+00 0. -1.
         11    1    1    2    0    0 -0.20748926005E-01  0.36441300527E+00  0.11914496976E+01  0.12461059342E+01  0.51100000000E-03 0.  1.
    9000002    1    1    2    0    0 -0.15373453967E-01 -0.11119117751E+00  0.76378377564E-01  0.94777501423E+00  0.93800000000E+00 0. -1.
         22    1    1    2    0    0  0.36122379972E-01 -0.25322182777E+00  0.27321718922E+01  0.27441190515E+01  0.00000000000E+00 0.  1.
</event>
<event>
 5    1  0.6172503E+001  0.1599543E+01  0.7818608E-02  0.3353859E+00
         11   -1    0    0    0    0  0.00000000000E+00  0.00000000000E+00  0.39999999674E+01  0.40000000000E+01  0.51100000000E-03 0. -1.
    9000002   -1    0    0    0    0 -0.00000000000E+00 -0.00000000000E+00  0.00000000000E+00  0.93800000000E+00  0.93800000000E+00 0.  1.
         11    1    1    2    0    0 -0.61551430621E-01  0.10977134736E+00  0.14031811075E+01  0.14088136175E+01  0.51100000000E-03 0. -1.
    9000002    1    1    2    0    0  0.18360291953E+00 -0.34012520128E+00  0.10070926772E+00  0.10195006333E+01  0.93800000000E+00 0.  1.
         22    1    1    2    0    0 -0.12205148891E+00  0.23035385391E+00  0.24961095921E+01  0.25096857492E+01  0.00000000000E+00 0. -1.
</event>
<event>
 5    1  0.7148681E+001  0.1525903E+01  0.7818608E-02  0.3437933E+00
         11   -1    0    0    0    0  0.00000000000E+00  0.00000000000E+00  0.39999999674E+01  0.40000000000E+01  0.51100000000E-03 0.  1.
    9000002   -1    0    0    0    0 -0.00000000000E+00 -0.00000000000E+00  0.00000000000E+00  0.93800000000E+00  0.93800000000E+00 0.  1.
         11    1    1    2    0    0  0.19120318654E+00 -0.17261458729E+00  0.85162417513E+00  0.88972942577E+00  0.51100000000E-03 0.  1.
    9000002    1    1    2    0    0  0.70304922251E-01 -0.89194913959E-02  0.58984185865E-01  0.94252080805E+00  0.93800000000E+00 0.  1.
         22    1    1    2    0    0 -0.26150810879E+00  0.18153407869E+00  0.30893916064E+01  0.31057497662E+01  0.00000000000E+00 0.  1.
</event>
<event>
 5    1  0.6172503E+001  0.1557639E+01  0.7818608E-02  0.3400664E+00
         11   -1    0    0    0    0  0.00000000000E+00  0.00000000000E+00  0.39999999674E+01  0.40000000000E+01  0.51100000000E-03 0. -1.
    9000002   -1    0    0    0    0 -0.00000000000E+00 -0.00000000000E+00  0.00000000000E+00  0.93800000000E+00  0.93800000000E+00 0. -1.
         11    1    1    2    0    0  0.92277651710E-01  0.18210932104E+00  0.14542744820E+01  0.14685344735E+01  0.51100000000E-03 0. -1.
    9000002    1    1    2    0    0  0.69410234067E-01  0.66812742039E-01  0.37439328012E-01  0.94367760722E+00  0.93800000000E+00 0. -1.
         22    1    1    2    0    0 -0.16168788578E+00 -0.24892206308E+00  0.25082861574E+01  0.25257879193E+01  0.00000000000E+00 0. -1.
</event>
<event>
 5    1  0.6172503E+001  0.1570533E+01  0.7818608E-02  0.3385980E+00
         11   -1    0    0    0    0  0.00000000000E+00  0.00000000000E+00  0.39999999674E+01  0.40000000000E+01  0.51100000000E-03 0.  1.
    9000002   -1    0    0    0    0 -0.00000000000E+00 -0.00000000000E+00  0.00000000000E+00  0.93800000000E+00  0.93800000000E+00 0.  1.
         11    1    1    2    0    0 -0.15562242601E+00 -0.19371391047E-01  0.10082068380E+01  0.10203307697E+01  0.51100000000E-03 0.  1.
    9000002    1    1    2    0    0 -0.11110259827E-01 -0.25260261171E+00  0.65120360521E-01  0.97366122377E+00  0.93800000000E+00 0.  1.
         22    1    1    2    0    0  0.16673268583E+00  0.27197400276E+00  0.29266727689E+01  0.29440080066E+01  0.00000000000E+00 0.  1.
</event>
<event>
 5    1  0.6172503E+001  0.1599656E+01  0.7818608E-02  0.3353737E+00
         11   -1    0    0    0    0  0.00000000000E+00  0.00000000000E+00  0.39999999674E+01  0.40000000000E+01  0.51100000000E-03 0.  1.
    9000002   -1    0    0    0    0 -0.00000000000E+00 -0.00000000000E+00  0.00000000000E+00  0.93800000000E+00  0.93800000000E+00 0.  1.
         11    1    1    2    0    0  0.10914484996E+00 -0.20035558716E+00  0.13902383681E+01  0.14088356685E+01  0.51100000000E-03 0.  1.
    9000002    1    1    2    0    0 -0.29500902031E+00  0.52552884932E+00  0.25357759643E+00  0.11433969088E+01  0.93800000000E+00 0.  1.
         22    1    1    2    0    0  0.18586417035E+00 -0.32517326216E+00  0.23561840029E+01  0.23857674228E+01  0.00000000000E+00 0.  1.
</event>
<event>
 5    1  0.6172503E+001  0.1209960E+01  0.7818608E-02  0.3970152E+00
         11   -1    0    0    0    0  0.00000000000E+00  0.00000000000E+00  0.39999999674E+01  0.40000000000E+01  0.51100000000E-03 0. -1.
    9000002   -1    0    0    0    0 -0.00000000000E+00 -0.00000000000E+00  0.00000000000E+00  0.93800000000E+00  0.93800000000E+00 0. -1.
         11    1    1    2    0    0 -0.67116643442E+00 -0.64029374087E+00  0.93994452104E+00  0.13205818494E+01  0.51100000000E-03 0. -1.
    9000002    1    1    2    0    0  0.60348741356E+00  0.25215637406E+00  0.99710879539E+00  0.15171848421E+01  0.93800000000E+00 0. -1.
         22    1    1    2    0    0  0.67679020858E-01  0.38813736681E+00  0.20629466509E+01  0.21002333085E+01  0.00000000000E+00 0.  1.
</event>
<event>
 5    1  0.6172503E+001  0.1599620E+01  0.7818608E-02  0.3353776E+00
         11   -1    0    0    0    0  0.00000000000E+00  0.00000000000E+00  0.39999999674E+01  0.40000000000E+01  0.51100000000E-03 0. -1.
    9000002   -1    0    0    0    0 -0.00000000000E+00 -0.00000000000E+00  0.00000000000E+00  0.93800000000E+00  0.93800000000E+00 0. -1.
         11    1    1    2    0    0 -0.71401622831E-01  0.58987280488E-02  0.66266933462E+00  0.66653124075E+00  0.51100000000E-03 0. -1.
    9000002    1    1    2    0    0  0.38009302007E+00 -0.37323888281E-01  0.98212931452E-01  0.10175232461E+01  0.93800000000E+00 0. -1.
         22    1    1    2    0    0 -0.30869139724E+00  0.31425160232E-01  0.32391177013E+01  0.32539455131E+01  0.00000000000E+00 0. -1.
</event>
<event>
 5    1  0.6172503E+001  0.1599385E+01  0.7818608E-02  0.3354031E+00
         11   -1    0    0    0    0  0.00000000000E+00  0.00000000000E+00  0.39999999674E+01  0.40000000000E+01  0.51100000000E-03 0.  1.
    9000002   -1    0    0    0    0 -0.00000000000E+00 -0.00000000000E+00  0.00000000000E+00  0.93800000000E+00  0.93800000000E+00 0.  1.
         11    1    1    2    0    0 -0.11524964024E+00 -0.96772637696E-02  0.86251643001E+00  0.87023616459E+00  0.51100000000E-03 0.  1.
    9000002    1    1    2    0    0  0.51608772147E+00 -0.33055161910E-01  0.18388370685E+00  0.10867825899E+01  0.93800000000E+00 0.  1.
         22    1    1    2    0    0 -0.40083808123E+00  0.42732425679E-01  0.29535998305E+01  0.29809812455E+01  0.00000000000E+00 0.  1.
</event>
<event>
 5    1  0.6172503E+001  0.1599630E+01  0.7818608E-02  0.3353765E+00
         11   -1    0    0    0    0  0.00000000000E+00  0.00000000000E+00  0.39999999674E+01  0.40000000000E+01  0.51100000000E-03 0.  1.
    9000002   -1    0    0    0    0 -0.00000000000E+00 -0.00000000000E+00  0.00000000000E+00  0.93800000000E+00  0.93800000000E+00 0. -1.
         11    1    1    2    0    0 -0.41674255449E-01  0.10148906324E+00  0.10075851257E+01  0.10135407343E+01  0.51100000000E-03 0.  1.
    9000002    1    1    2    0    0  0.18412591594E+00 -0.40305445071E+00  0.13326733214E+00  0.10459251527E+01  0.93800000000E+00 0. -1.
         22    1    1    2    0    0 -0.14245166049E+00  0.30156538746E+00  0.28591475096E+01  0.28785341130E+01  0.00000000000E+00 0.  1.
</event>
<event>
 5    1  0.6172503E+001  0.1599566E+01  0.7818608E-02  0.3353835E+00
         11   -1    0    0    0    0  0.00000000000E+00  0.00000000000E+00  0.39999999674E+01  0.40000000000E+01  0.51100000000E-03 0. -1.
    9000002   -1    0    0    0    0 -0.00000000000E+00 -0.00000000000E+00  0.00000000000E+00  0.93800000000E+00  0.93800000000E+00 0.  1.
         11    1    1    2    0    0 -0.32495469290E-01  0.16550245767E+00  0.13177177834E+01  0.13284680790E+01  0.51100000000E-03 0. -1.
    9000002    1    1    2    0    0  0.10896520578E+00 -0.51069510680E+00  0.18748519862E+00  0.10898062249E+01  0.93800000000E+00 0.  1.
         22    1    1    2    0    0 -0.76469736486E-01  0.34519264913E+00  0.24947969853E+01  0.25197256961E+01  0.00000000000E+00 0. -1.
</event>
<event>
 5    1  0.6172503E+001  0.1598515E+01  0.7818608E-02  0.3354976E+00
         11   -1    0    0    0    0  0.00000000000E+00  0.00000000000E+00  0.39999999674E+01  0.40000000000E+01  0.51100000000E-03 0. -1.
    9000002   -1    0    0    0    0 -0.00000000000E+00 -0.00000000000E+00  0.00000000000E+00  0.93800000000E+00  0.93800000000E+00 0.  1.
         11    1    1    2    0    0 -0.65443935761E-01  0.41590934491E-01  0.57103082557E+00  0.57627179302E+00  0.51100000000E-03 0. -1.
    9000002    1    1    2    0    0  0.51295830787E+00 -0.97691309039E-01  0.18844191609E+00  0.10899652165E+01  0.93800000000E+00 0.  1.
         22    1    1    2    0    0 -0.44751437210E+00  0.56100374547E-01  0.32405272257E+01  0.32717629905E+01  0.00000000000E+00 0. -1.
</event>
<event>
 5    1  0.6172503E+001  0.1582113E+01  0.7818608E-02  0.3373010E+00
         11   -1    0    0    0    0  0.00000000000E+00  0.00000000000E+00  0.39999999674E+01  0.40000000000E+01  0.51100000000E-03 0.  1.
    9000002   -1    0    0    0    0 -0.00000000000E+00 -0.00000000000E+00  0.00000000000E+00  0.93800000000E+00  0.93800000000E+00 0.  1.
         11    1    1    2    0    0  0.26641127843E+00 -0.49912590799E-01  0.11209333134E+01  0.11532380457E+01  0.51100000000E-03 0.  1.
    9000002    1    1    2    0    0 -0.52950104179E+00 -0.16217800581E+00  0.22880811063E+00  0.11130454664E+01  0.93800000000E+00 0.  1.
         22    1    1    2    0    0  0.26308976335E+00  0.21209059661E+00  0.26502585434E+01  0.26717164878E+01  0.00000000000E+00 0.  1.
</event>
<event>
 5    1  0.6172503E+001  0.1598275E+01  0.7818608E-02  0.3355237E+00
         11   -1    0    0    0    0  0.00000000000E+00  0.00000000000E+00  0.39999999674E+01  0.40000000000E+01  0.51100000000E-03 0. -1.
    9000002   -1    0    0    0    0 -0.00000000000E+00 -0.00000000000E+00  0.00000000000E+00  0.93800000000E+00  0.93800000000E+00 0. -1.
         11    1    1    2    0    0  0.10540900441E+00  0.36707092894E-01  0.69205685984E+00  0.70100030474E+00  0.51100000000E-03 0. -1.
    9000002    1    1    2    0    0 -0.44973920518E+00 -0.68258698376E-01  0.14185812475E+00  0.10520895067E+01  0.93800000000E+00 0. -1.
         22    1    1    2    0    0  0.34433020076E+00  0.31551605483E-01  0.31660849828E+01  0.31849101885E+01  0.00000000000E+00 0. -1.
</event>
<event>
 5    1  0.6172503E+001  0.1598650E+01  0.7818608E-02  0.3354830E+00
         11   -1    0    0    0    0  0.00000000000E+00  0.00000000000E+00  0.39999999674E+01  0.40000000000E+01  0.51100000000E-03 0.  1.
    9000002   -1    0    0    0    0 -0.00000000000E+00 -0.00000000000E+00  0.00000000000E+00  0.93800000000E+00  0.93800000000E+00 0.  1.
         11    1    1    2    0    0  0.66997479251E-01  0.13678107377E-01  0.59873091972E+00  0.60262320582E+00  0.51100000000E-03 0.  1.
    9000002    1    1    2    0    0 -0.45065668711E+00  0.90771100126E-01  0.14463539322E+00  0.10545587889E+01  0.93800000000E+00 0.  1.
         22    1    1    2    0    0  0.38365920785E+00 -0.10444920750E+00  0.32566336544E+01  0.32808180053E+01  0.00000000000E+00 0. -1.
</event>
<event>
 5    1  0.6172503E+001  0.1599656E+01  0.7818608E-02  0.3353736E+00
         11   -1    0    0    0    0  0.00000000000E+00  0.00000000000E+00  0.39999999674E+01  0.40000000000E+01  0.51100000000E-03 0. -1.
    9000002   -1    0    0    0    0 -0.00000000000E+00 -0.00000000000E+00  0.00000000000E+00  0.93800000000E+00  0.93800000000E+00 0. -1.
         11    1    1    2    0    0 -0.49400180842E-01 -0.65638715572E-01  0.57366059377E+00  0.57951320676E+00  0.51100000000E-03 0. -1.
    9000002    1    1    2    0    0  0.31153315434E+00  0.41657982638E+00  0.18589894957E+00  0.10885743325E+01  0.93800000000E+00 0. -1.
         22    1    1    2    0    0 -0.26213297349E+00 -0.35094111081E+00  0.32404404240E+01  0.32699124607E+01  0.00000000000E+00 0. -1.
</event>
<event>
 5    1  0.6172503E+001  0.1569825E+01  0.7818608E-02  0.3386780E+00
         11   -1    0    0    0    0  0.00000000000E+00  0.00000000000E+00  0.39999999674E+01  0.40000000000E+01  0.51100000000E-03 0. -1.
    9000002   -1    0    0    0    0 -0.00000000000E+00 -0.00000000000E+00  0.00000000000E+00  0.93800000000E+00  0.93800000000E+00 0.  1.
         11    1    1    2    0    0  0.82636256289E-01  0.14042666197E+00  0.11682257900E+01  0.11795338722E+01  0.51100000000E-03 0. -1.
    9000002    1    1    2    0    0  0.31132282434E+00 -0.22529131665E+00  0.12441085333E+00  0.10212737825E+01  0.93800000000E+00 0.  1.
         22    1    1    2    0    0 -0.39395908063E+00  0.84864654682E-01  0.27073633240E+01  0.27371923453E+01  0.00000000000E+00 0. -1.
</event>
<event>
 5    1  0.6172503E+001  0.1599674E+01  0.7818608E-02  0.3353717E+00
         11   -1    0    0    0    0  0.00000000000E+00  0.00000000000E+00  0.39999999674E+01  0.40000000000E+01  0.51100000000E-03 0. -1.
    9000002   -1    0    0    0    0 -0.00000000000E+00 -0.00000000000E+00  0.00000000000E+00  0.93800000000E+00  0.93800000000E+00 0. -1.
         11    1    1    2    0    0  0.98977542602E-01  0.88864791374E-01  0.14231767535E+01  0.14293795290E+01  0.51100000000E-03 0. -1.
    9000002    1    1    2    0    0 -0.26823584975E+00 -0.24797872305E+00  0.89632628092E-01  0.10106047329E+01  0.93800000000E+00 0. -1.
         22    1    1    2    0    0  0.16925830715E+00  0.15911393168E+00  0.24871905857E+01  0.24980157380E+01  0.00000000000E+00 0. -1.
</event>
<event>
 5    1  0.6172503E+001  0.1599269E+01  0.7818608E-02  0.3354157E+00
         11   -1    0    0    0    0  0.00000000000E+00  0.00000000000E+00  0.39999999674E+01  0.40000000000E+01  0.51100000000E-03 0. -1.
    9000002   -1    0    0    0    0 -0.00000000000E+00 -0.00000000000E+00  0.00000000000E+00  0.93800000000E+00  0.93800000000E+00 0. -1.
         11    1    1    2    0    0  0.38127102761E-02 -0.14721476888E-01  0.10362911252E+00  0.10474021541E+00  0.51100000000E-03 0. -1.
    9000002    1    1    2    0    0 -0.23832631669E+00  0.27613457875E+00  0.89691250295E-01  0.10104148946E+01  0.93800000000E+00 0. -1.
         22    1    1    2    0    0  0.23451360641E+00 -0.26141310186E+00  0.38066796045E+01  0.38228448900E+01  0.00000000000E+00 0. -1.
</event>
<event>
 5    1  0.6172503E+001  0.1448857E+01  0.7818608E-02  0.3535738E+00
         11   -1    0    0    0    0  0.00000000000E+00  0.00000000000E+00  0.39999999674E+01  0.40000000000E+01  0.51100000000E-03 0.  1.
    9000002   -1    0    0    0    0 -0.00000000000E+00 -0.00000000000E+00  0.00000000000E+00  0.93800000000E+00  0.93800000000E+00 0. -1.
         11    1    1    2    0    0 -0.11669518766E+00 -0.31927377770E+00  0.40458971140E+00  0.52843789384E+00  0.51100000000E-03 0.  1.
    9000002    1    1    2    0    0 -0.29079934831E+00  0.39516849145E+00  0.31694546331E+00  0.11049981106E+01  0.93800000000E+00 0. -1.
         22    1    1    2    0    0  0.40749453597E+00 -0.75894713746E-01  0.32784647927E+01  0.33045639956E+01  0.00000000000E+00 0.  1.
</event>
<event>
 5    1  0.6172503E+001  0.1599677E+01  0.7818608E-02  0.3353714E+00
         11   -1    0    0    0    0  0.00000000000E+00  0.00000000000E+00  0.39999999674E+01  0.40000000000E+01  0.51100000000E-03 0. -1.
    9000002   -1    0    0    0    0 -0.00000000000E+00 -0.00000000000E+00  0.00000000000E+00  0.93800000000E+00  0.93800000000E+00 0. -1.
         11    1    1    2    0    0  0.18384750450E-01 -0.67328814869E-01  0.77744969011E+00  0.78057635766E+00  0.51100000000E-03 0. -1.
    9000002    1    1    2    0    0 -0.91428841280E-01  0.34157999338E+00  0.83871878893E-01  0.10059396687E+01  0.93800000000E+00 0. -1.
         22    1    1    2    0    0  0.73044090830E-01 -0.27425117851E+00  0.31386783984E+01  0.31514839737E+01  0.00000000000E+00 0. -1.
</event>
<event>
 5    1  0.6172503E+001  0.1590839E+01  0.7818608E-02  0.3363367E+00
         11   -1    0    0    0    0  0.00000000000E+00  0.00000000000E+00  0.39999999674E+01  0.40000000000E+01  0.51100000000E-03 0. -1.
    9000002   -1    0    0    0    0 -0.00000000000E+00 -0.00000000000E+00  0.00000000000E+00  0.93800000000E+00  0.93800000000E+00 0.  1.
         11    1    1    2    0    0 -0.43972903348E-01 -0.46829944046E-01  0.68455642838E+00  0.68756412403E+00  0.51100000000E-03 0. -1.
    9000002    1    1    2    0    0 -0.21722294383E+00  0.40848295782E+00  0.15340342781E+00  0.10570812390E+01  0.93800000000E+00 0.  1.
         22    1    1    2    0    0  0.26119584717E+00 -0.36165301377E+00  0.31620401112E+01  0.31933546370E+01  0.00000000000E+00 0. -1.
</event>
<event>
 5    1  0.6172503E+001  0.1599523E+01  0.7818608E-02  0.3353881E+00
         11   -1    0    0    0    0  0.00000000000E+00  0.00000000000E+00  0.39999999674E+01  0.40000000000E+01  0.51100000000E-03 0. -1.
    9000002   -1    0    0    0    0 -0.00000000000E+00 -0.00000000000E+00  0.00000000000E+00  0.93800000000E+00  0.93800000000E+00 0.  1.
         11    1    1    2    0    0  0.86387438377E-01 -0.12559014799E+00  0.12371419472E+01  0.12464975465E+01  0.51100000000E-03 0. -1.
    9000002    1    1    2    0    0 -0.26423908519E+00  0.34953175913E+00  0.13030747428E+00  0.10434647970E+01  0.93800000000E+00 0.  1.
         22    1    1    2    0    0  0.17785164682E+00 -0.22394161115E+00  0.26325505459E+01  0.26480376565E+01  0.00000000000E+00 0. -1.
</event>
<event>
 5    1  0.6172503E+001  0.1546076E+01  0.7818608E-02  0.3414054E+00
         11   -1    0    0    0    0  0.00000000000E+00  0.00000000000E+00  0.39999999674E+01  0.40000000000E+01  0.51100000000E-03 0.  1.
    9000002   -1    0    0    0    0 -0.00000000000E+00 -0.00000000000E+00  0.00000000000E+00  0.93800000000E+00  0.93800000000E+00 0. -1.
         11    1    1    2    0    0  0.21176501607E+00 -0.54704913491E-01  0.13331550668E+01  0.13509773288E+01  0.51100000000E-03 0.  1.
    9000002    1    1    2    0    0  0.15322751719E+00  0.17828530460E+00  0.78544808745E-01  0.97019462421E+00  0.93800000000E+00 0. -1.
         22    1    1    2    0    0 -0.36499253326E+00 -0.12358039111E+00  0.25883000918E+01  0.26168280470E+01  0.00000000000E+00 0.  1.
</event>
<event>
 5    1  0.6172503E+001  0.1587012E+01  0.7818608E-02  0.3367582E+00
         11   -1    0    0    0    0  0.00000000000E+00  0.00000000000E+00  0.39999999674E+01  0.40000000000E+01  0.51100000000E-03 0. -1.
    9000002   -1    0    0    0    0 -0.00000000000E+00 -0.00000000000E+00  0.00000000000E+00  0.93800000000E+00  0.93800000000E+00 0.  1.
         11    1    1    2    0    0  0.27854568671E+00 -0.37325660497E-01  0.60619667468E+00  0.66817331138E+00  0.51100000000E-03 0. -1.
    9000002    1    1    2    0    0 -0.91510629074E+00  0.39688816434E+00  0.82399416652E+00  0.15980457205E+01  0.93800000000E+00 0.  1.
         22    1    1    2    0    0  0.63656060403E+00 -0.35956250384E+00  0.25698091262E+01  0.26717809681E+01  0.00000000000E+00 0. -1.
</event>
<event>
 5    1  0.6440768E+001  0.1553821E+01  0.7818608E-02  0.3405061E+00
         11   -1    0    0    0    0  0.00000000000E+00  0.00000000000E+00  0.39999999674E+01  0.40000000000E+01  0.51100000000E-03 0.  1.
    9000002   -1    0    0    0    0 -0.00000000000E+00 -0.00000000000E+00  0.00000000000E+00  0.93800000000E+00  0.93800000000E+00 0. -1.
         11    1    1    2    0    0  0.17752292552E+00 -0.98166082394E-01  0.14673882035E+01  0.14813437716E+01  0.51100000000E-03 0.  1.
    9000002    1    1    2    0    0  0.12267337732E+00 -0.33418013121E-01  0.45109011764E-01  0.94765201633E+00  0.93800000000E+00 0. -1.
         22    1    1    2    0    0 -0.30019630284E+00  0.13158409551E+00  0.24875027521E+01  0.25090042121E+01  0.00000000000E+00 0.  1.
</event>
<event>
 5    1  0.6172503E+001  0.1599175E+01  0.7818608E-02  0.3354260E+00
         11   -1    0    0    0    0  0.00000000000E+00  0.00000000000E+00  0.39999999674E+01  0.40000000000E+01  0.51100000000E-03 0. -1.
    9000002   -1    0    0    0    0 -0.00000000000E+00 -0.00000000000E+00  0.00000000000E+00  0.93800000000E+00  0.93800000000E+00 0.  1.
         11    1    1    2    0    0  0.89191827737E-03  0.17998517702E-02  0.87218356157E-02  0.89647377048E-02  0.51100000000E-03 0. -1.
    9000002    1    1    2    0    0 -0.22406456466E+00  0.30087824525E+00  0.95046332855E-01  0.10146972223E+01  0.93800000000E+00 0.  1.
         22    1    1    2    0    0  0.22317264638E+00 -0.30267809702E+00  0.38962317989E+01  0.39143380400E+01  0.00000000000E+00 0. -1.
</event>
<event>
 5    1  0.6172503E+001  0.1597563E+01  0.7818608E-02  0.3356013E+00
         11   -1    0    0    0    0  0.00000000000E+00  0.00000000000E+00  0.39999999674E+01  0.40000000000E+01  0.51100000000E-03 0. -1.
    9000002   -1    0    0    0    0 -0.00000000000E+00 -0.00000000000E+00  0.00000000000E+00  0.93800000000E+00  0.93800000000E+00 0.  1.
         11    1    1    2    0    0  0.19905436650E+00 -0.36412552415E-01  0.10849408467E+01  0.11036509488E+01  0.51100000000E-03 0. -1.
    9000002    1    1    2    0    0 -0.55014492738E+00  0.26776173780E-01  0.21157338572E+00  0.11081442605E+01  0.93800000000E+00 0.  1.
         22    1    1    2    0    0  0.35109056088E+00  0.96363786354E-02  0.27034857349E+01  0.27262047907E+01  0.00000000000E+00 0. -1.
</event>
<event>
 5    1  0.6172503E+001  0.1599676E+01  0.7818608E-02  0.3353716E+00
         11   -1    0    0    0    0  0.00000000000E+00  0.00000000000E+00  0.39999999674E+01  0.40000000000E+01  0.51100000000E-03 0.  1.
    9000002   -1    0    0    0    0 -0.00000000000E+00 -0.00000000000E+00  0.00000000000E+00  0.93800000000E+00  0.93800000000E+00 0. -1.
         11    1    1    2    0    0  0.90007670431E-02 -0.25951754476E-01  0.30624001308E+00  0.30746985885E+00  0.51100000000E-03 0.  1.
    9000002    1    1    2    0    0 -0.11596556595E+00  0.33984209419E+00  0.86545132002E-01  0.10081045191E+01  0.93800000000E+00 0. -1.
         22    1    1    2    0    0  0.10696479890E+00 -0.31389033971E+00  0.36072148223E+01  0.36224256221E+01  0.00000000000E+00 0.  1.
</event>
<event>
 5    1  0.6172503E+001  0.1522273E+01  0.7818608E-02  0.3442301E+00
         11   -1    0    0    0    0  0.00000000000E+00  0.00000000000E+00  0.39999999674E+01  0.40000000000E+01  0.51100000000E-03 0. -1.
    9000002   -1    0    0    0    0 -0.00000000000E+00 -0.00000000000E+00  0.00000000000E+00  0.93800000000E+00  0.93800000000E+00 0.  1.
         11    1    1    2    0    0 -0.17555341331E+00 -0.18756579825E-01  0.32945748808E+00  0.37378243375E+00  0.51100000000E-03 0. -1.
    9000002    1    1    2    0    0 -0.89508153629E-01 -0.44992352059E+00  0.21385153307E+00  0.10658420906E+01  0.93800000000E+00 0.  1.
         22    1    1    2    0    0  0.26506156694E+00  0.46868010042E+00  0.34566909462E+01  0.34983754756E+01  0.00000000000E+00 0. -1.
</event>
<event>
 5    1  0.6172503E+001  0.1599307E+01  0.7818608E-02  0.3354116E+00
         11   -1    0    0    0    0  0.00000000000E+00  0.00000000000E+00  0.39999999674E+01  0.40000000000E+01  0.51100000000E-03 0.  1.
    9000002   -1    0    0    0    0 -0.00000000000E+00 -0.00000000000E+00  0.00000000000E+00  0.93800000000E+00  0.93800000000E+00 0. -1.
         11    1    1    2    0    0 -0.43255463733E-01 -0.69469586367E-01  0.63418092229E+00  0.63943941221E+00  0.51100000000E-03 0.  1.
    9000002    1    1    2    0    0  0.35173101906E+00  0.36874768581E+00  0.17839876350E+00  0.10822937145E+01  0.93800000000E+00 0. -1.
         22    1    1    2    0    0 -0.30847555533E+00 -0.29927809945E+00  0.31874202816E+01  0.32162668733E+01  0.00000000000E+00 0.  1.
</event>
<event>
 5    1  0.6750406E+001  0.1581545E+01  0.7818608E-02  0.3373640E+00
         11   -1    0    0    0    0  0.00000000000E+00  0.00000000000E+00  0.39999999674E+01  0.40000000000E+01  0.51100000000E-03 0.  1.
    9000002   -1    0    0    0    0 -0.00000000000E+00 -0.00000000000E+00  0.00000000000E+00  0.93800000000E+00  0.93800000000E+00 0.  1.
         11    1    1    2    0    0  0.50383404625E-01  0.49525224264E-01  0.14834305040E+01  0.14851119677E+01  0.51100000000E-03 0.  1.
    9000002    1    1    2    0    0  0.16674929090E+00  0.15849723399E+00  0.48977000882E-01  0.96704159467E+00  0.93800000000E+00 0.  1.
         22    1    1    2    0    0 -0.21713269552E+00 -0.20802245825E+00  0.24675924624E+01  0.24858464376E+01  0.00000000000E+00 0.  1.
</event>
<event>
 5    1  0.6172503E+001  0.1599676E+01  0.7818608E-02  0.3353715E+00
         11   -1    0    0    0    0  0.00000000000E+00  0.00000000000E+00  0.39999999674E+01  0.40000000000E+01  0.51100000000E-03 0. -1.
    9000002   -1    0    0    0    0 -0.00000000000E+00 -0.00000000000E+00  0.00000000000E+00  0.93800000000E+00  0.93800000000E+00 0. -1.
         11    1    1    2    0    0 -0.15092559420E+00 -0.83269220419E-01  0.10590284469E+01  0.10729649624E+01  0.51100000000E-03 0. -1.
    9000002    1    1    2    0    0  0.53520278477E+00  0.29037171991E+00  0.25917610351E+00  0.11479433824E+01  0.93800000000E+00 0. -1.
         22    1    1    2    0    0 -0.38427719057E+00 -0.20710249949E+00  0.26817954169E+01  0.27170916552E+01  0.00000000000E+00 0. -1.
</event>
<event>
 5    1  0.6172503E+001  0.1599669E+01  0.7818608E-02  0.3353723E+00
         11   -1    0    0    0    0  0.00000000000E+00  0.00000000000E+00  0.39999999674E+01  0.40000000000E+01  0.51100000000E-03 0.  1.
    9000002   -1    0    0    0    0 -0.00000000000E+00 -0.00000000000E+00  0.00000000000E+00  0.93800000000E+00  0.93800000000E+00 0.  1.
         11    1    1    2    0    0  0.47481053943E-01 -0.28805621148E+00  0.14286178676E+01  0.14581426899E+01  0.51100000000E-03 0.  1.
    9000002    1    1    2    0    0 -0.11134142510E+00  0.72765729341E+00  0.39122272443E+00  0.12549028925E+01  0.93800000000E+00 0.  1.
         22    1    1    2    0    0  0.63860371153E-01 -0.43960108193E+00  0.21801593753E+01  0.22249544175E+01  0.00000000000E+00 0.  1.
</event>
<event>
 5    1  0.6172503E+001  0.1599672E+01  0.7818608E-02  0.3353719E+00
         11   -1    0    0    0    0  0.00000000000E+00  0.00000000000E+00  0.39999999674E+01  0.40000000000E+01  0.51100000000E-03 0.  1.
    9000002   -1    0    0    0    0 -0.00000000000E+00 -0.00000000000E+00  0.00000000000E+00  0.93800000000E+00  0.93800000000E+00 0.  1.
         11    1    1    2    0    0 -0.35294487831E-01 -0.17515337118E-01  0.40651303621E+00  0.40841841001E+00  0.51100000000E-03 0.  1.
    9000002    1    1    2    0    0  0.35197890919E+00  0.16099545931E+00  0.10088832676E+00  0.10197211113E+01  0.93800000000E+00 0.  1.
         22    1    1    2    0    0 -0.31668442136E+00 -0.14348012219E+00  0.34925986044E+01  0.35098604787E+01  0.00000000000E+00 0.  1.
</event>
<event>
 5    1  0.6172503E+001  0.1599642E+01  0.7818608E-02  0.3353752E+00
         11   -1    0    0    0    0  0.00000000000E+00  0.00000000000E+00  0.39999999674E+01  0.40000000000E+01  0.51100000000E-03 0.  1.
    9000002   -1    0    0    0    0 -0.00000000000E+00 -0.00000000000E+00  0.00000000000E+00  0.93800000000E+00  0.93800000000E+00 0.  1.
         11    1    1    2    0    0 -0.15505080202E-01 -0.11465843399E+00  0.11279951318E+01  0.11339136838E+01  0.51100000000E-03 0.  1.
    9000002    1    1    2    0    0  0.48865803324E-01  0.37485754772E+00  0.96158883581E-01  0.10158723240E+01  0.93800000000E+00 0.  1.
         22    1    1    2    0    0 -0.33360723122E-01 -0.26019911374E+00  0.27758459520E+01  0.27882139921E+01  0.00000000000E+00 0.  1.
</event>
<event>
 5    1  0.6172503E+001  0.1599673E+01  0.7818608E-02  0.3353718E+00
         11   -1    0    0    0    0  0.00000000000E+00  0.00000000000E+00  0.39999999674E+01  0.40000000000E+01  0.51100000000E-03 0. -1.
    9000002   -1    0    0    0    0 -0.00000000000E+00 -0.00000000000E+00  0.00000000000E+00  0.93800000000E+00  0.93800000000E+00 0.  1.
         11    1    1    2    0    0 -0.17272080971E+00 -0.13215246255E+00  0.14834613441E+01  0.14993180356E+01  0.51100000000E-03 0. -1.
    9000002    1    1    2    0    0  0.44062540129E+00  0.34322024976E+00  0.21582130513E+00  0.11128224116E+01  0.93800000000E+00 0.  1.
         22    1    1    2    0    0 -0.26790459158E+00 -0.21106778720E+00  0.23007173182E+01  0.23258595527E+01  0.00000000000E+00 0. -1.
</event>
<event>
 5    1  0.6172503E+001  0.1599657E+01  0.7818608E-02  0.3353736E+00
         11   -1    0    0    0    0  0.00000000000E+00  0.00000000000E+00  0.39999999674E+01  0.40000000000E+01  0.51100000000E-03 0. -1.
    9000002   -1    0    0    0    0 -0.00000000000E+00 -0.00000000000E+00  0.00000000000E+00  0.93800000000E+00  0.93800000000E+00 0.  1.
         11    1    1    2    0    0  0.54051509974E-01 -0.72020146359E-01  0.90367501968E+00  0.90815046634E+00  0.51100000000E-03 0. -1.
    9000002    1    1    2    0    0 -0.22548311702E+00  0.29337011803E+00  0.92024691179E-01  0.10125320765E+01  0.93800000000E+00 0.  1.
         22    1    1    2    0    0  0.17143160704E+00 -0.22134997167E+00  0.30043002565E+01  0.30173174571E+01  0.00000000000E+00 0. -1.
</event>
<event>
 5    1  0.6172503E+001  0.1598541E+01  0.7818608E-02  0.3354948E+00
         11   -1    0    0    0    0  0.00000000000E+00  0.00000000000E+00  0.39999999674E+01  0.40000000000E+01  0.51100000000E-03 0.  1.
    9000002   -1    0    0    0    0 -0.00000000000E+00 -0.00000000000E+00  0.00000000000E+00  0.93800000000E+00  0.93800000000E+00 0.  1.
         11    1    1    2    0    0 -0.66828173361E-02  0.67691006687E-03  0.23376963182E+00  0.23386667171E+00  0.51100000000E-03 0.  1.
    9000002    1    1    2    0    0  0.15649806093E+00  0.30784142302E+00  0.80835519584E-01  0.10028142231E+01  0.93800000000E+00 0.  1.
         22    1    1    2    0    0 -0.14981524359E+00 -0.30851833309E+00  0.36853948160E+01  0.37013191052E+01  0.00000000000E+00 0.  1.
</event>
<event>
 5    1  0.6172503E+001  0.1599644E+01  0.7818608E-02  0.3353750E+00
         11   -1    0    0    0    0  0.00000000000E+00  0.00000000000E+00  0.39999999674E+01  0.40000000000E+01  0.51100000000E-03 0. -1.
    9000002   -1    0    0    0    0 -0.00000000000E+00 -0.00000000000E+00  0.00000000000E+00  0.93800000000E+00  0.93800000000E+00 0.  1.
         11    1    1    2    0    0  0.59797621677E-02  0.15128211473E-02  0.43844427756E-01  0.44279127698E-01  0.51100000000E-03 0. -1.
    9000002    1    1    2    0    0 -0.52444345960E+00 -0.10075736850E-01  0.18918323429E+00  0.10912271803E+01  0.93800000000E+00 0.  1.
         22    1    1    2    0    0  0.51846369743E+00  0.85629157023E-02  0.37669723053E+01  0.38024936920E+01  0.00000000000E+00 0. -1.
</event>
<event>
 5    1  0.6172503E+001  0.1477136E+01  0.7818608E-02  0.3498558E+00
         11   -1    0    0    0    0  0.00000000000E+00  0.00000000000E+00  0.39999999674E+01  0.40000000000E+01  0.51100000000E-03 0. -1.
    9000002   -1    0    0    0    0 -0.00000000000E+00 -0.00000000000E+00  0.00000000000E+00  0.93800000000E+00  0.93800000000E+00 0.  1.
         11    1    1    2    0    0 -0.27388498926E+00  0.37597577571E-01  0.32438439261E+00  0.42620659365E+00  0.51100000000E-03 0. -1.
    9000002    1    1    2    0    0  0.33123640259E+00  0.35931580266E+00  0.28207628349E+00  0.10946398632E+01  0.93800000000E+00 0.  1.
         22    1    1    2    0    0 -0.57351413335E-01 -0.39691338023E+00  0.33935392913E+01  0.34171535431E+01  0.00000000000E+00 0. -1.
</event>
<event>
 5    1  0.6172503E+001  0.1599670E+01  0.7818608E-02  0.3353722E+00
         11   -1    0    0    0    0  0.00000000000E+00  0.00000000000E+00  0.39999999674E+01  0.40000000000E+01  0.51100000000E-03 0. -1.
    9000002   -1    0    0    0    0 -0.00000000000E+00 -0.00000000000E+00  0.00000000000E+00  0.93800000000E+00  0.93800000000E+00 0.  1.
         11    1    1    2    0    0 -0.47964119022E-01  0.92132522950E-01  0.99722205350E+00  0.10026170972E+01  0.51100000000E-03 0. -1.
    9000002    1    1    2    0    0  0.19788577240E+00 -0.35901790323E+00  0.11350772785E+00  0.10299420557E+01  0.93800000000E+00 0.  1.
         22    1    1    2    0    0 -0.14992165338E+00  0.26688538028E+00  0.28892701860E+01  0.29054408471E+01  0.00000000000E+00 0. -1.
</event>
<event>
 5    1  0.6172503E+001  0.1599637E+01  0.7818608E-02  0.3353758E+00
         11   -1    0    0    0    0  0.00000000000E+00  0.00000000000E+00  0.39999999674E+01  0.40000000000E+01  0.51100000000E-03 0.  1.
    9000002   -1    0    0    0    0 -0.00000000000E+00 -0.00000000000E+00  0.00000000000E+00  0.93800000000E+00  0.93800000000E+00 0. -1.
         11    1    1    2    0    0  0.27968682156E-02  0.23010928366E-01  0.19912874744E+00  0.20047404938E+00  0.51100000000E-03 0.  1.
    9000002    1    1    2    0    0 -0.68944906361E-01 -0.50481401517E+00  0.17802790777E+00  0.10821869182E+01  0.93800000000E+00 0. -1.
         22    1    1    2    0    0  0.66148038145E-01  0.48180308680E+00  0.36228433122E+01  0.36553390324E+01  0.00000000000E+00 0.  1.
</event>
<event>
 5    1  0.6172503E+001  0.1599652E+01  0.7818608E-02  0.3353742E+00
         11   -1    0    0    0    0  0.00000000000E+00  0.00000000000E+00  0.39999999674E+01  0.40000000000E+01  0.51100000000E-03 0. -1.
    9000002   -1    0    0    0    0 -0.00000000000E+00 -0.00000000000E+00  0.00000000000E+00  0.93800000000E+00  0.93800000000E+00 0.  1.
         11    1    1    2    0    0 -0.32246166044E-03  0.16399050526E+00  0.14215197538E+01  0.14309478192E+01  0.51100000000E-03 0. -1.
    9000002    1    1    2    0    0 -0.85606490148E-03 -0.43099739232E+00  0.12584235241E+00  0.10399229696E+01  0.93800000000E+00 0.  1.
         22    1    1    2    0    0  0.11785265619E-02  0.26700688706E+00  0.24526378612E+01  0.24671292112E+01  0.00000000000E+00 0. -1.
</event>
<event>
 5    1  0.6172503E+001  0.1599231E+01  0.7818608E-02  0.3354199E+00
         11   -1    0    0    0    0  0.00000000000E+00  0.00000000000E+00  0.39999999674E+01  0.40000000000E+01  0.51100000000E-03 0. -1.
    9000002   -1    0    0    0    0 -0.00000000000E+00 -0.00000000000E+00  0.00000000000E+00  0.93800000000E+00  0.93800000000E+00 0. -1.
         11    1    1    2    0    0  0.14699282770E+00 -0.10643040032E+00  0.10856171752E+01  0.11006812589E+01  0.51100000000E-03 0. -1.
    9000002    1    1    2    0    0 -0.53996841284E+00  0.42530641405E+00  0.33701069921E+00  0.12107318630E+01  0.93800000000E+00 0. -1.
         22    1    1    2    0    0  0.39297558514E+00 -0.31887601373E+00  0.25773720930E+01  0.26265868781E+01  0.00000000000E+00 0. -1.
</event>
<event>
 5    1  0.6172503E+001  0.1599348E+01  0.7818608E-02  0.3354071E+00
         11   -1    0    0    0    0  0.00000000000E+00  0.00000000000E+00  0.39999999674E+01  0.40000000000E+01  0.51100000000E-03 0. -1.
    9000002   -1    0    0    0    0 -0.00000000000E+00 -0.00000000000E+00  0.00000000000E+00  0.93800000000E+00  0.93800000000E+00 0.  1.
         11    1    1    2    0    0  0.50698891741E-02  0.56507209495E-01  0.42330583535E+00  0.42709116106E+00  0.51100000000E-03 0. -1.
    9000002    1    1    2    0    0 -0.84701387354E-01 -0.39936637762E+00  0.11281659335E+00  0.10291935738E+01  0.93800000000E+00 0.  1.
         22    1    1    2    0    0  0.79631498180E-01  0.34285916813E+00  0.34638775387E+01  0.34817152651E+01  0.00000000000E+00 0. -1.
</event>
<event>
 5    1  0.6172503E+001  0.1599661E+01  0.7818608E-02  0.3353731E+00
         11   -1    0    0    0    0  0.00000000000E+00  0.00000000000E+00  0.39999999674E+01  0.40000000000E+01  0.51100000000E-03 0. -1.
    9000002   -1    0    0    0    0 -0.00000000000E+00 -0.00000000000E+00  0.00000000000E+00  0.93800000000E+00  0.93800000000E+00 0.  1.
         11    1    1    2    0    0 -0.22141947284E-01 -0.10471184757E+00  0.10642822961E+01  0.10696503652E+01  0.51100000000E-03 0. -1.
    9000002    1    1    2    0    0  0.93758380575E-01  0.39151561047E+00  0.10937231743E+00  0.10265872642E+01  0.93800000000E+00 0.  1.
         22    1    1    2    0    0 -0.71616433291E-01 -0.28680376290E+00  0.28263453538E+01  0.28417623706E+01  0.00000000000E+00 0. -1.
</event>
<event>
 5    1  0.6172503E+001  0.1599636E+01  0.7818608E-02  0.3353759E+00
         11   -1    0    0    0    0  0.00000000000E+00  0.00000000000E+00  0.39999999674E+01  0.40000000000E+01  0.51100000000E-03 0. -1.
    9000002   -1    0    0    0    0 -0.00000000000E+00 -0.00000000000E+00  0.00000000000E+00  0.93800000000E+00  0.93800000000E+00 0. -1.
         11    1    1    2    0    0  0.41506763839E-01 -0.38241068458E-01  0.50741397286E+00  0.51054323199E+00  0.51100000000E-03 0. -1.
    9000002    1    1    2    0    0 -0.27898872123E+00  0.30176081637E+00  0.11412029903E+00  0.10304182352E+01  0.93800000000E+00 0. -1.
         22    1    1    2    0    0  0.23748195739E+00 -0.26351974791E+00  0.33784656955E+01  0.33970385328E+01  0.00000000000E+00 0. -1.
</event>
<event>
 5    1  0.6172503E+001  0.1599677E+01  0.7818608E-02  0.3353714E+00
         11   -1    0    0    0    0  0.00000000000E+00  0.00000000000E+00  0.39999999674E+01  0.40000000000E+01  0.51100000000E-03 0. -1.
    9000002   -1    0    0    0    0 -0.00000000000E+00 -0.00000000000E+00  0.00000000000E+00  0.93800000000E+00  0.93800000000E+00 0. -1.
         11    1    1    2    0    0 -0.10410076176E+00 -0.12529621783E+00  0.13668553107E+01  0.13765281735E+01  0.51100000000E-03 0.  1.
    9000002    1    1    2    0    0  0.29276813766E+00  0.35332583559E+00  0.14319310558E+00  0.10539926916E+01  0.93800000000E+00 0.  1.
         22    1    1    2    0    0 -0.18866737590E+00 -0.22802961776E+00  0.24899515511E+01  0.25074791349E+01  0.00000000000E+00 0. -1.
</event>
<event>
 5    1  0.6172503E+001  0.1599671E+01  0.7818608E-02  0.3353721E+00
         11   -1    0    0    0    0  0.00000000000E+00  0.00000000000E+00  0.39999999674E+01  0.40000000000E+01  0.51100000000E-03 0. -1.
    9000002   -1    0    0    0    0 -0.00000000000E+00 -0.00000000000E+00  0.00000000000E+00  0.93800000000E+00  0.93800000000E+00 0. -1.
         11    1    1    2    0    0  0.77527884224E-01 -0.43090220053E-01  0.43433491067E+00  0.44329946497E+00  0.51100000000E-03 0. -1.
    9000002    1    1    2    0    0 -0.64962426617E+00  0.34280328610E+00  0.38933739761E+00  0.12533767946E+01  0.93800000000E+00 0. -1.
         22    1    1    2    0    0  0.57209638194E+00 -0.29971306604E+00  0.31763276591E+01  0.32413237404E+01  0.00000000000E+00 0. -1.
</event>
<event>
 5    1  0.6172503E+001  0.1599102E+01  0.7818608E-02  0.3354339E+00
         11   -1    0    0    0    0  0.00000000000E+00  0.00000000000E+00  0.39999999674E+01  0.40000000000E+01  0.51100000000E-03 0. -1.
    9000002   -1    0    0    0    0 -0.00000000000E+00 -0.00000000000E+00  0.00000000000E+00  0.93800000000E+00  0.93800000000E+00 0.  1.
         11    1    1    2    0    0 -0.56893017296E-01 -0.88061234262E-01  0.79966620766E+00  0.80650970310E+00  0.51100000000E-03 0. -1.
    9000002    1    1    2    0    0  0.16314759199E+00  0.40919755039E+00  0.13211361114E+00  0.10446807064E+01  0.93800000000E+00 0.  1.
         22    1    1    2    0    0 -0.10625457469E+00 -0.32113631613E+00  0.30682201486E+01  0.30868095905E+01  0.00000000000E+00 0. -1.
</event>
<event>
 5    1  0.6172503E+001  0.1586266E+01  0.7818608E-02  0.3368406E+00
         11   -1    0    0    0    0  0.00000000000E+00  0.00000000000E+00  0.39999999674E+01  0.40000000000E+01  0.51100000000E-03 0. -1.
    9000002   -1    0    0    0    0 -0.00000000000E+00 -0.00000000000E+00  0.00000000000E+00  0.93800000000E+00  0.93800000000E+00 0. -1.
         11    1    1    2    0    0 -0.30008359960E-01 -0.33036457034E+00  0.14177044945E+01  0.14559970968E+01  0.51100000000E-03 0. -1.
    9000002    1    1    2    0    0 -0.65063363166E-01  0.54718585078E+00  0.22255329273E+00  0.11104141410E+01  0.93800000000E+00 0. -1.
         22    1    1    2    0    0  0.95071723125E-01 -0.21682128044E+00  0.23597421801E+01  0.23715887622E+01  0.00000000000E+00 0. -1.
</event>
<event>
 5    1  0.6548378E+001  0.1599602E+01  0.7818608E-02  0.3353795E+00
         11   -1    0    0    0    0  0.00000000000E+00  0.00000000000E+00  0.39999999674E+01  0.40000000000E+01  0.51100000000E-03 0. -1.
    9000002   -1    0    0    0    0 -0.00000000000E+00 -0.00000000000E+00  0.00000000000E+00  0.93800000000E+00  0.93800000000E+00 0. -1.
         11    1    1    2    0    0 -0.56451654865E-01 -0.10679185359E+00  0.12230036293E+01  0.12289546077E+01  0.51100000000E-03 0. -1.
    9000002    1    1    2    0    0  0.19624541734E+00  0.36487322676E+00  0.11605765949E+00  0.10319680788E+01  0.93800000000E+00 0. -1.
         22    1    1    2    0    0 -0.13979376248E+00 -0.25808137316E+00  0.26609386785E+01  0.26770773134E+01  0.00000000000E+00 0. -1.
</event>
<event>
 5    1  0.6172503E+001  0.1599675E+01  0.7818608E-02  0.3353716E+00
         11   -1    0    0    0    0  0.00000000000E+00  0.00000000000E+00  0.39999999674E+01  0.40000000000E+01  0.51100000000E-03 0. -1.
    9000002   -1    0    0    0    0 -0.00000000000E+00 -0.00000000000E+00  0.00000000000E+00  0.93800000000E+00  0.93800000000E+00 0. -1.
         11    1    1    2    0    0 -0.10711233250E+00  0.11771891810E+00  0.13972929028E+01  0.14063280246E+01  0.51100000000E-03 0. -1.
    9000002    1    1    2    0    0  0.29871262221E+00 -0.32184845662E+00  0.13075199589E+00  0.10439136670E+01  0.93800000000E+00 0. -1.
         22    1    1    2    0    0 -0.19160028971E+00  0.20412953852E+00  0.24719550687E+01  0.24877583084E+01  0.00000000000E+00 0.  1.
</event>
<event>
 5    1  0.6172503E+001  0.1597181E+01  0.7818608E-02  0.3356429E+00
         11   -1    0    0    0    0  0.00000000000E+00  0.00000000000E+00  0.39999999674E+01  0.40000000000E+01  0.51100000000E-03 0. -1.
    9000002   -1    0    0    0    0 -0.00000000000E+00 -0.00000000000E+00  0.00000000000E+00  0.93800000000E+00  0.93800000000E+00 0.  1.
         11    1    1    2    0    0 -0.20424004076E+00 -0.15611503816E-01  0.12751844218E+01  0.12915313717E+01  0.51100000000E-03 0. -1.
    9000002    1    1    2    0    0  0.52013466692E+00  0.19151755949E+00  0.21473931177E+00  0.11104845876E+01  0.93800000000E+00 0.  1.
         22    1    1    2    0    0 -0.31589462616E+00 -0.17590605568E+00  0.25100762338E+01  0.25359840407E+01  0.00000000000E+00 0. -1.
</event>
<event>
 5    1  0.6172503E+001  0.1573808E+01  0.7818608E-02  0.3382291E+00
         11   -1    0    0    0    0  0.00000000000E+00  0.00000000000E+00  0.39999999674E+01  0.40000000000E+01  0.51100000000E-03 0.  1.
    9000002   -1    0    0    0    0 -0.00000000000E+00 -0.00000000000E+00  0.00000000000E+00  0.93800000000E+00  0.93800000000E+00 0. -1.
         11    1    1    2    0    0  0.10901041781E+00  0.25992029661E-01  0.72544412141E+00  0.73404924304E+00  0.51100000000E-03 0.  1.
    9000002    1    1    2    0    0  0.22273100636E+00 -0.12056746054E+00  0.62688063672E-01  0.97361152780E+00  0.93800000000E+00 0. -1.
         22    1    1    2    0    0 -0.33174142417E+00  0.94575430881E-01  0.32118677823E+01  0.32303392292E+01  0.00000000000E+00 0.  1.
</event>
<event>
 5    1  0.6172503E+001  0.1599614E+01  0.7818608E-02  0.3353782E+00
         11   -1    0    0    0    0  0.00000000000E+00  0.00000000000E+00  0.39999999674E+01  0.40000000000E+01  0.51100000000E-03 0.  1.
    9000002   -1    0    0    0    0 -0.00000000000E+00 -0.00000000000E+00  0.00000000000E+00  0.93800000000E+00  0.93800000000E+00 0.  1.
         11    1    1    2    0    0  0.34848747277E-01 -0.21590493192E-01  0.35872046675E+00  0.36105570065E+00  0.51100000000E-03 0.  1.
    9000002    1    1    2    0    0 -0.42544301359E+00  0.25697130328E+00  0.16908209019E+00  0.10749273286E+01  0.93800000000E+00 0.  1.
         22    1    1    2    0    0  0.39059426631E+00 -0.23538081009E+00  0.34721974104E+01  0.35020169708E+01  0.00000000000E+00 0.  1.
</event>
<event>
 5    1  0.6172503E+001  0.1599572E+01  0.7818608E-02  0.3353828E+00
         11   -1    0    0    0    0  0.00000000000E+00  0.00000000000E+00  0.39999999674E+01  0.40000000000E+01  0.51100000000E-03 0.  1.
    9000002   -1    0    0    0    0 -0.00000000000E+00 -0.00000000000E+00  0.00000000000E+00  0.93800000000E+00  0.93800000000E+00 0. -1.
         11    1    1    2    0    0  0.15811674912E-01 -0.19466285263E-01  0.21518497016E+00  0.21664205001E+00  0.51100000000E-03 0.  1.
    9000002    1    1    2    0    0 -0.19219876115E+00  0.31578725336E+00  0.91924220075E-01  0.10124011139E+01  0.93800000000E+00 0. -1.
         22    1    1    2    0    0  0.17638708624E+00 -0.29632096809E+00  0.36928907771E+01  0.37089568361E+01  0.00000000000E+00 0.  1.
</event>
<event>
 5    1  0.6172503E+001  0.1599501E+01  0.7818608E-02  0.3353905E+00
         11   -1    0    0    0    0  0.00000000000E+00  0.00000000000E+00  0.39999999674E+01  0.40000000000E+01  0.51100000000E-03 0. -1.
    9000002   -1    0    0    0    0 -0.00000000000E+00 -0.00000000000E+00  0.00000000000E+00  0.93800000000E+00  0.93800000000E+00 0.  1.
         11    1    1    2    0    0 -0.59022886689E-01 -0.57965644072E-01  0.64793969245E+00  0.65319968097E+00  0.51100000000E-03 0. -1.
    9000002    1    1    2    0    0  0.36372362984E+00  0.27505525230E+00  0.14151575287E+00  0.10525307497E+01  0.93800000000E+00 0.  1.
         22    1    1    2    0    0 -0.30470074316E+00 -0.21708960823E+00  0.32105445220E+01  0.32322695693E+01  0.00000000000E+00 0. -1.
</event>
<event>
 5    1  0.6172503E+001  0.1598406E+01  0.7818608E-02  0.3355095E+00
         11   -1    0    0    0    0  0.00000000000E+00  0.00000000000E+00  0.39999999674E+01  0.40000000000E+01  0.51100000000E-03 0. -1.
    9000002   -1    0    0    0    0 -0.00000000000E+00 -0.00000000000E+00  0.00000000000E+00  0.93800000000E+00  0.93800000000E+00 0. -1.
         11    1    1    2    0    0 -0.63392366264E-01 -0.48511469940E-01  0.11808839786E+01  0.11835789736E+01  0.51100000000E-03 0. -1.
    9000002    1    1    2    0    0  0.22723213953E+00  0.29004248279E+00  0.92254468105E-01  0.10119851649E+01  0.93800000000E+00 0. -1.
         22    1    1    2    0    0 -0.16383977327E+00 -0.24153101285E+00  0.27268615207E+01  0.27424358615E+01  0.00000000000E+00 0. -1.
</event>
<event>
 5    1  0.6172503E+001  0.1599677E+01  0.7818608E-02  0.3353714E+00
         11   -1    0    0    0    0  0.00000000000E+00  0.00000000000E+00  0.39999999674E+01  0.40000000000E+01  0.51100000000E-03 0. -1.
    9000002   -1    0    0    0    0 -0.00000000000E+00 -0.00000000000E+00  0.00000000000E+00  0.93800000000E+00  0.93800000000E+00 0. -1.
         11    1    1    2    0    0 -0.97999666434E-01 -0.54402812499E-01  0.11906830740E+01  0.11959473418E+01  0.51100000000E-03 0. -1.
    9000002    1    1    2    0    0  0.32244423865E+00  0.17786870822E+00  0.91114928982E-01  0.10118070442E+01  0.93800000000E+00 0. -1.
         22    1    1    2    0    0 -0.22444457222E+00 -0.12346589572E+00  0.27182019644E+01  0.27302456140E+01  0.00000000000E+00 0. -1.
</event>
<event>
 5    1  0.6172503E+001  0.1537882E+01  0.7818608E-02  0.3423673E+00
         11   -1    0    0    0    0  0.00000000000E+00  0.00000000000E+00  0.39999999674E+01  0.40000000000E+01  0.51100000000E-03 0. -1.
    9000002   -1    0    0    0    0 -0.00000000000E+00 -0.00000000000E+00  0.00000000000E+00  0.93800000000E+00  0.93800000000E+00 0.  1.
         11    1    1    2    0    0  0.21441027683E+00  0.83800062108E-01  0.78439380384E+00  0.81747667725E+00  0.51100000000E-03 0. -1.
    9000002    1    1    2    0    0  0.15151964233E-01  0.88329094896E-01  0.51758822394E-01  0.94369199780E+00  0.93800000000E+00 0.  1.
         22    1    1    2    0    0 -0.22956224107E+00 -0.17212915700E+00  0.31638473411E+01  0.31768313249E+01  0.00000000000E+00 0.  1.
</event>
<event>
 5    1  0.6172503E+001  0.1493532E+01  0.7818608E-02  0.3477698E+00
         11   -1    0    0    0    0  0.00000000000E+00  0.00000000000E+00  0.39999999674E+01  0.40000000000E+01  0.51100000000E-03 0.  1.
    9000002   -1    0    0    0    0 -0.00000000000E+00 -0.00000000000E+00  0.00000000000E+00  0.93800000000E+00  0.93800000000E+00 0.  1.
         11    1    1    2    0    0  0.28213315499E+00  0.19282240465E+00  0.13387877969E+01  0.13817136546E+01  0.51100000000E-03 0.  1.
    9000002    1    1    2    0    0  0.34668560333E+00  0.33147514427E+00  0.35929181352E+00  0.11131043465E+01  0.93800000000E+00 0.  1.
         22    1    1    2    0    0 -0.62881875832E+00 -0.52429754892E+00  0.23019203569E+01  0.24431819990E+01  0.00000000000E+00 0.  1.
</event>
<event>
 5    1  0.6172503E+001  0.1598261E+01  0.7818608E-02  0.3355253E+00
         11   -1    0    0    0    0  0.00000000000E+00  0.00000000000E+00  0.39999999674E+01  0.40000000000E+01  0.51100000000E-03 0. -1.
    9000002   -1    0    0    0    0 -0.00000000000E+00 -0.00000000000E+00  0.00000000000E+00  0.93800000000E+00  0.93800000000E+00 0.  1.
         11    1    1    2    0    0 -0.18634416356E-01 -0.84426379815E-01  0.41787310367E+00  0.42672385330E+00  0.51100000000E-03 0. -1.
    9000002    1    1    2    0    0  0.55476598958E-02  0.56174562219E+00  0.21982576529E+00  0.11152382201E+01  0.93800000000E+00 0.  1.
         22    1    1    2    0    0  0.13086756460E-01 -0.47731924238E+00  0.33623010984E+01  0.33960379266E+01  0.00000000000E+00 0. -1.
</event>
<event>
 5    1  0.6172503E+001  0.1583781E+01  0.7818608E-02  0.3371157E+00
         11   -1    0    0    0    0  0.00000000000E+00  0.00000000000E+00  0.39999999674E+01  0.40000000000E+01  0.51100000000E-03 0.  1.
    9000002   -1    0    0    0    0 -0.00000000000E+00 -0.00000000000E+00  0.00000000000E+00  0.93800000000E+00  0.93800000000E+00 0. -1.
         11    1    1    2    0    0  0.43774192542E-02 -0.88910667337E-02  0.14722380852E+01  0.14722715284E+01  0.51100000000E-03 0.  1.
    9000002    1    1    2    0    0  0.37116811091E+00 -0.52083315067E-01  0.10757877443E+00  0.10158226376E+01  0.93800000000E+00 0. -1.
         22    1    1    2    0    0 -0.37554553017E+00  0.60974381800E-01  0.24201831077E+01  0.24499058340E+01  0.00000000000E+00 0.  1.
</event>
<event>
 5    1  0.6172503E+001  0.1599673E+01  0.7818608E-02  0.3353718E+00
         11   -1    0    0    0    0  0.00000000000E+00  0.00000000000E+00  0.39999999674E+01  0.40000000000E+01  0.51100000000E-03 0. -1.
    9000002   -1    0    0    0    0 -0.00000000000E+00 -0.00000000000E+00  0.00000000000E+00  0.93800000000E+00  0.93800000000E+00 0.  1.
         11    1    1    2    0    0 -0.37271074206E-01  0.83845316527E-01  0.68319431349E+00  0.68932858724E+00  0.51100000000E-03 0. -1.
    9000002    1    1    2    0    0  0.21688234150E+00 -0.46433833407E+00  0.18018403670E+00  0.10839549463E+01  0.93800000000E+00 0.  1.
         22    1    1    2    0    0 -0.17961126729E+00  0.38049301755E+00  0.31366216172E+01  0.31647164665E+01  0.00000000000E+00 0. -1.
</event>
<event>
 5    1  0.6172503E+001  0.1599672E+01  0.7818608E-02  0.3353720E+00
         11   -1    0    0    0    0  0.00000000000E+00  0.00000000000E+00  0.39999999674E+01  0.40000000000E+01  0.51100000000E-03 0. -1.
    9000002   -1    0    0    0    0 -0.00000000000E+00 -0.00000000000E+00  0.00000000000E+00  0.93800000000E+00  0.93800000000E+00 0. -1.
         11    1    1    2    0    0 -0.65002822642E-03  0.15407306239E-01  0.79091758101E-01  0.80582721118E-01  0.51100000000E-03 0. -1.
    9000002    1    1    2    0    0  0.44337121208E-02 -0.72203441428E+00  0.37487772978E+00  0.12416644738E+01  0.93800000000E+00 0. -1.
         22    1    1    2    0    0 -0.37836838943E-02  0.70662710804E+00  0.35460304795E+01  0.36157528051E+01  0.00000000000E+00 0. -1.
</event>
<event>
 5    1  0.6172503E+001  0.1597230E+01  0.7818608E-02  0.3356376E+00
         11   -1    0    0    0    0  0.00000000000E+00  0.00000000000E+00  0.39999999674E+01  0.40000000000E+01  0.51100000000E-03 0.  1.
    9000002   -1    0    0    0    0 -0.00000000000E+00 -0.00000000000E+00  0.00000000000E+00  0.93800000000E+00  0.93800000000E+00 0.  1.
         11    1    1    2    0    0  0.32014034223E+00 -0.12331287514E+00  0.13167093637E+01  0.13606688479E+01  0.51100000000E-03 0.  1.
    9000002    1    1    2    0    0 -0.74158808440E+00  0.23256446648E+00  0.44467715043E+00  0.12967732593E+01  0.93800000000E+00 0.  1.
         22    1    1    2    0    0  0.42144774217E+00 -0.10925159134E+00  0.22386134532E+01  0.22805578928E+01  0.00000000000E+00 0.  1.
</event>
<event>
 5    1  0.6172503E+001  0.1599526E+01  0.7818608E-02  0.3353878E+00
         11   -1    0    0    0    0  0.00000000000E+00  0.00000000000E+00  0.39999999674E+01  0.40000000000E+01  0.51100000000E-03 0. -1.
    9000002   -1    0    0    0    0 -0.00000000000E+00 -0.00000000000E+00  0.00000000000E+00  0.93800000000E+00  0.93800000000E+00 0. -1.
         11    1    1    2    0    0 -0.54886740502E-01 -0.12359531379E-01  0.49772101044E+00  0.50089098381E+00  0.51100000000E-03 0. -1.
    9000002    1    1    2    0    0  0.35334719917E+00  0.95409852312E-01  0.90105576464E-01  0.10109007360E+01  0.93800000000E+00 0. -1.
         22    1    1    2    0    0 -0.29846045867E+00 -0.83050320933E-01  0.34121733805E+01  0.34262082802E+01  0.00000000000E+00 0. -1.
</event>
<event>
 5    1  0.6172503E+001  0.1599677E+01  0.7818608E-02  0.3353715E+00
         11   -1    0    0    0    0  0.00000000000E+00  0.00000000000E+00  0.39999999674E+01  0.40000000000E+01  0.51100000000E-03 0. -1.
    9000002   -1    0    0    0    0 -0.00000000000E+00 -0.00000000000E+00  0.00000000000E+00  0.93800000000E+00  0.93800000000E+00 0. -1.
         11    1    1    2    0    0 -0.68735424901E-01  0.11291441066E+00  0.12354898299E+01  0.12425415903E+01  0.51100000000E-03 0. -1.
    9000002    1    1    2    0    0  0.21596235470E+00 -0.35258667211E+00  0.11551784765E+00  0.10315742693E+01  0.93800000000E+00 0. -1.
         22    1    1    2    0    0 -0.14722692980E+00  0.23967226146E+00  0.26489922898E+01  0.26638841403E+01  0.00000000000E+00 0. -1.
</event>
<event>
 5    1  0.6172503E+001  0.1598874E+01  0.7818608E-02  0.3354587E+00
         11   -1    0    0    0    0  0.00000000000E+00  0.00000000000E+00  0.39999999674E+01  0.40000000000E+01  0.51100000000E-03 0. -1.
    9000002   -1    0    0    0    0 -0.00000000000E+00 -0.00000000000E+00  0.00000000000E+00  0.93800000000E+00  0.93800000000E+00 0. -1.
         11    1    1    2    0    0  0.74148081168E-01 -0.19153265459E+00  0.12972145476E+01  0.13133729628E+01  0.51100000000E-03 0. -1.
    9000002    1    1    2    0    0 -0.14717142290E+00  0.61576043593E+00  0.28254500528E+00  0.11664030273E+01  0.93800000000E+00 0. -1.
         22    1    1    2    0    0  0.73023341735E-01 -0.42422778134E+00  0.24202404145E+01  0.24582240099E+01  0.00000000000E+00 0. -1.
</event>
<event>
 5    1  0.6172503E+001  0.1599042E+01  0.7818608E-02  0.3354404E+00
         11   -1    0    0    0    0  0.00000000000E+00  0.00000000000E+00  0.39999999674E+01  0.40000000000E+01  0.51100000000E-03 0. -1.
    9000002   -1    0    0    0    0 -0.00000000000E+00 -0.00000000000E+00  0.00000000000E+00  0.93800000000E+00  0.93800000000E+00 0.  1.
         11    1    1    2    0    0  0.82413982134E-01 -0.77799559732E-01  0.83065128641E+00  0.83834757510E+00  0.51100000000E-03 0. -1.
    9000002    1    1    2    0    0 -0.27696056213E+00  0.31847541276E+00  0.12104340249E+00  0.10356781579E+01  0.93800000000E+00 0.  1.
         22    1    1    2    0    0  0.19454658000E+00 -0.24067585303E+00  0.30483052785E+01  0.30639742670E+01  0.00000000000E+00 0. -1.
</event>
<event>
 5    1  0.6172503E+001  0.1582434E+01  0.7818608E-02  0.3372652E+00
         11   -1    0    0    0    0  0.00000000000E+00  0.00000000000E+00  0.39999999674E+01  0.40000000000E+01  0.51100000000E-03 0. -1.
    9000002   -1    0    0    0    0 -0.00000000000E+00 -0.00000000000E+00  0.00000000000E+00  0.93800000000E+00  0.93800000000E+00 0.  1.
         11    1    1    2    0    0 -0.14055207257E-01 -0.57244239489E-01  0.88837964650E+00  0.89033314509E+00  0.51100000000E-03 0. -1.
    9000002    1    1    2    0    0 -0.65038189479E-01 -0.31729608284E+00  0.83947537458E-01  0.99589053581E+00  0.93800000000E+00 0.  1.
         22    1    1    2    0    0  0.79093396736E-01  0.37454032233E+00  0.30276727834E+01  0.30517763191E+01  0.00000000000E+00 0. -1.
</event>
<event>
 5    1  0.6172503E+001  0.1599580E+01  0.7818608E-02  0.3353820E+00
         11   -1    0    0    0    0  0.00000000000E+00  0.00000000000E+00  0.39999999674E+01  0.40000000000E+01  0.51100000000E-03 0. -1.
    9000002   -1    0    0    0    0 -0.00000000000E+00 -0.00000000000E+00  0.00000000000E+00  0.93800000000E+00  0.93800000000E+00 0. -1.
         11    1    1    2    0    0  0.54071723229E-01  0.22928111634E-02  0.24238153025E+00  0.24835071082E+00  0.51100000000E-03 0. -1.
    9000002    1    1    2    0    0 -0.78020186667E+00  0.53123868902E-01  0.44791186124E+00  0.13007713610E+01  0.93800000000E+00 0. -1.
         22    1    1    2    0    0  0.72613014344E+00 -0.55416680065E-01  0.33097065759E+01  0.33888779282E+01  0.00000000000E+00 0. -1.
</event>
<event>
 5    1  0.6172503E+001  0.1599560E+01  0.7818608E-02  0.3353841E+00
         11   -1    0    0    0    0  0.00000000000E+00  0.00000000000E+00  0.39999999674E+01  0.40000000000E+01  0.51100000000E-03 0. -1.
    9000002   -1    0    0    0    0 -0.00000000000E+00 -0.00000000000E+00  0.00000000000E+00  0.93800000000E+00  0.93800000000E+00 0. -1.
         11    1    1    2    0    0 -0.10985768461E+00 -0.11808129842E+00  0.12457264359E+01  0.12561236078E+01  0.51100000000E-03 0. -1.
    9000002    1    1    2    0    0  0.30365984103E+00  0.37785243423E+00  0.16055876839E+00  0.10679910483E+01  0.93800000000E+00 0. -1.
         22    1    1    2    0    0 -0.19380215642E+00 -0.25977113582E+00  0.25937147630E+01  0.26138853439E+01  0.00000000000E+00 0.  1.
</event>
<event>
 5    1  0.6172503E+001  0.1599668E+01  0.7818608E-02  0.3353724E+00
         11   -1    0    0    0    0  0.00000000000E+00  0.00000000000E+00  0.39999999674E+01  0.40000000000E+01  0.51100000000E-03 0.  1.
    9000002   -1    0    0    0    0 -0.00000000000E+00 -0.00000000000E+00  0.00000000000E+00  0.93800000000E+00  0.93800000000E+00 0. -1.
         11    1    1    2    0    0 -0.95477837083E-01  0.19977912169E-01  0.76316360541E+00  0.76937252621E+00  0.51100000000E-03 0.  1.
    9000002    1    1    2    0    0  0.48855922746E+00 -0.89243995076E-01  0.16876226108E+00  0.10746996372E+01  0.93800000000E+00 0. -1.
         22    1    1    2    0    0 -0.39308139038E+00  0.69266082907E-01  0.30680741009E+01  0.30939278366E+01  0.00000000000E+00 0.  1.
</event>
<event>
 5    1  0.6172503E+001  0.1599677E+01  0.7818608E-02  0.3353714E+00
         11   -1    0    0    0    0  0.00000000000E+00  0.00000000000E+00  0.39999999674E+01  0.40000000000E+01  0.51100000000E-03 0. -1.
    9000002   -1    0    0    0    0 -0.00000000000E+00 -0.00000000000E+00  0.00000000000E+00  0.93800000000E+00  0.93800000000E+00 0. -1.
         11    1    1    2    0    0 -0.10901498403E+00  0.33036814101E-01  0.90065879434E+00  0.90783380791E+00  0.51100000000E-03 0.  1.
    9000002    1    1    2    0    0  0.46420972086E+00 -0.14035568167E+00  0.16060281901E+00  0.10680953365E+01  0.93800000000E+00 0. -1.
         22    1    1    2    0    0 -0.35519473683E+00  0.10731886757E+00  0.29387383540E+01  0.29620708556E+01  0.00000000000E+00 0. -1.
</event>
<event>
 5    1  0.6181963E+001  0.1589326E+01  0.7818608E-02  0.3365030E+00
         11   -1    0    0    0    0  0.00000000000E+00  0.00000000000E+00  0.39999999674E+01  0.40000000000E+01  0.51100000000E-03 0.  1.
    9000002   -1    0    0    0    0 -0.00000000000E+00 -0.00000000000E+00  0.00000000000E+00  0.93800000000E+00  0.93800000000E+00 0. -1.
         11    1    1    2    0    0  0.31151496853E-01 -0.33333348173E-01  0.52893817219E+00  0.53090241945E+00  0.51100000000E-03 0.  1.
    9000002    1    1    2    0    0  0.18370570347E+00 -0.21398340450E+00  0.61045693910E-01  0.98138028288E+00  0.93800000000E+00 0. -1.
         22    1    1    2    0    0 -0.21485720032E+00  0.24731675267E+00  0.34100161013E+01  0.34257172977E+01  0.00000000000E+00 0.  1.
</event>
<event>
 5    1  0.6172503E+001  0.1571204E+01  0.7818608E-02  0.3385223E+00
         11   -1    0    0    0    0  0.00000000000E+00  0.00000000000E+00  0.39999999674E+01  0.40000000000E+01  0.51100000000E-03 0. -1.
    9000002   -1    0    0    0    0 -0.00000000000E+00 -0.00000000000E+00  0.00000000000E+00  0.93800000000E+00  0.93800000000E+00 0. -1.
         11    1    1    2    0    0  0.17952457445E+00 -0.16570713954E+00  0.78357644293E+00  0.82078025802E+00  0.51100000000E-03 0. -1.
    9000002    1    1    2    0    0 -0.14735319695E+00  0.45256025256E+00  0.18002851743E+00  0.10671354244E+01  0.93800000000E+00 0. -1.
         22    1    1    2    0    0 -0.32171377499E-01 -0.28685311303E+00  0.30363950070E+01  0.30500843176E+01  0.00000000000E+00 0. -1.
</event>
<event>
 5    1  0.6172503E+001  0.1587290E+01  0.7818608E-02  0.3367275E+00
         11   -1    0    0    0    0  0.00000000000E+00  0.00000000000E+00  0.39999999674E+01  0.40000000000E+01  0.51100000000E-03 0.  1.
    9000002   -1    0    0    0    0 -0.00000000000E+00 -0.00000000000E+00  0.00000000000E+00  0.93800000000E+00  0.93800000000E+00 0.  1.
         11    1    1    2    0    0  0.30022526355E-01  0.67389140641E-01  0.32476253978E+00  0.33303696000E+00  0.51100000000E-03 0.  1.
    9000002    1    1    2    0    0  0.39159624107E+00 -0.32238300736E+00  0.18765426950E+00  0.10827449119E+01  0.93800000000E+00 0.  1.
         22    1    1    2    0    0 -0.42161876743E+00  0.25499386672E+00  0.34875831581E+01  0.35222181281E+01  0.00000000000E+00 0.  1.
</event>
<event>
 5    1  0.6172503E+001  0.1589373E+01  0.7818608E-02  0.3364979E+00
         11   -1    0    0    0    0  0.00000000000E+00  0.00000000000E+00  0.39999999674E+01  0.40000000000E+01  0.51100000000E-03 0. -1.
    9000002   -1    0    0    0    0 -0.00000000000E+00 -0.00000000000E+00  0.00000000000E+00  0.93800000000E+00  0.93800000000E+00 0. -1.
         11    1    1    2    0    0 -0.48929667361E-01 -0.19037133355E-01  0.26731457246E+00  0.27242222113E+00  0.51100000000E-03 0. -1.
    9000002    1    1    2    0    0 -0.15006757755E+00  0.54515337195E+00  0.23143011781E+00  0.11194268070E+01  0.93800000000E+00 0. -1.
         22    1    1    2    0    0  0.19899724491E+00 -0.52611623860E+00  0.35012552771E+01  0.35461509719E+01  0.00000000000E+00 0. -1.
</event>
<event>
 5    1  0.6172503E+001  0.1599572E+01  0.7818608E-02  0.3353828E+00
         11   -1    0    0    0    0  0.00000000000E+00  0.00000000000E+00  0.39999999674E+01  0.40000000000E+01  0.51100000000E-03 0. -1.
    9000002   -1    0    0    0    0 -0.00000000000E+00 -0.00000000000E+00  0.00000000000E+00  0.93800000000E+00  0.93800000000E+00 0.  1.
         11    1    1    2    0    0  0.40330747922E-01  0.36929292079E-01  0.65523326363E+00  0.65751139362E+00  0.51100000000E-03 0. -1.
    9000002    1    1    2    0    0 -0.28919520752E+00 -0.24541188899E+00  0.96873463886E-01  0.10164100213E+01  0.93800000000E+00 0.  1.
         22    1    1    2    0    0  0.24886445960E+00  0.20848259691E+00  0.32478932398E+01  0.32640785851E+01  0.00000000000E+00 0. -1.
</event>
<event>
 5    1  0.6172503E+001  0.1480919E+01  0.7818608E-02  0.3493700E+00
         11   -1    0    0    0    0  0.00000000000E+00  0.00000000000E+00  0.39999999674E+01  0.40000000000E+01  0.51100000000E-03 0.  1.
    9000002   -1    0    0    0    0 -0.00000000000E+00 -0.00000000000E+00  0.00000000000E+00  0.93800000000E+00  0.93800000000E+00 0. -1.
         11    1    1    2    0    0  0.40253960382E+00 -0.16840534818E-01  0.12185510988E+01  0.12834285246E+01  0.51100000000E-03 0.  1.
    9000002    1    1    2    0    0 -0.64691560852E-01 -0.12311280304E+00  0.10590192864E+00  0.95414934827E+00  0.93800000000E+00 0. -1.
         22    1    1    2    0    0 -0.33784804297E+00  0.13995333786E+00  0.26755469400E+01  0.27004221272E+01  0.00000000000E+00 0.  1.
</event>
<event>
 5    1  0.6172503E+001  0.1596086E+01  0.7818608E-02  0.3357623E+00
         11   -1    0    0    0    0  0.00000000000E+00  0.00000000000E+00  0.39999999674E+01  0.40000000000E+01  0.51100000000E-03 0.  1.
    9000002   -1    0    0    0    0 -0.00000000000E+00 -0.00000000000E+00  0.00000000000E+00  0.93800000000E+00  0.93800000000E+00 0.  1.
         11    1    1    2    0    0  0.89517011172E-01 -0.14153324576E+00  0.72048061058E+00  0.73968745176E+00  0.51100000000E-03 0.  1.
    9000002    1    1    2    0    0 -0.33443588065E+00  0.46959696077E+00  0.23425319615E+00  0.11256496896E+01  0.93800000000E+00 0.  1.
         22    1    1    2    0    0  0.24491886947E+00 -0.32806371501E+00  0.30452661606E+01  0.30726628586E+01  0.00000000000E+00 0.  1.
</event>
<event>
 5    1  0.6172503E+001  0.1599672E+01  0.7818608E-02  0.3353720E+00
         11   -1    0    0    0    0  0.00000000000E+00  0.00000000000E+00  0.39999999674E+01  0.40000000000E+01  0.51100000000E-03 0.  1.
    9000002   -1    0    0    0    0 -0.00000000000E+00 -0.00000000000E+00  0.00000000000E+00  0.93800000000E+00  0.93800000000E+00 0. -1.
         11    1    1    2    0    0 -0.14594532357E-01  0.74298503120E-01  0.53142593108E+00  0.53679330220E+00  0.51100000000E-03 0.  1.
    9000002    1    1    2    0    0  0.11624055785E+00 -0.53582195489E+00  0.20757387847E+00  0.11061410171E+01  0.93800000000E+00 0. -1.
         22    1    1    2    0    0 -0.10164602550E+00  0.46152345177E+00  0.32610001578E+01  0.32950656807E+01  0.00000000000E+00 0.  1.
</event>
<event>
 5    1  0.8076669E+001  0.1537182E+01  0.7818608E-02  0.3424499E+00
         11   -1    0    0    0    0  0.00000000000E+00  0.00000000000E+00  0.39999999674E+01  0.40000000000E+01  0.51100000000E-03 0.  1.
    9000002   -1    0    0    0    0 -0.00000000000E+00 -0.00000000000E+00  0.00000000000E+00  0.93800000000E+00  0.93800000000E+00 0.  1.
         11    1    1    2    0    0  0.29211588990E+00 -0.18504152684E-02  0.11990186227E+01  0.12340911781E+01  0.51100000000E-03 0.  1.
    9000002    1    1    2    0    0 -0.52337402912E-01 -0.79930579704E-01  0.53071771241E-01  0.94434565399E+00  0.93800000000E+00 0.  1.
         22    1    1    2    0    0 -0.23977848699E+00  0.81780994972E-01  0.27479095734E+01  0.27595631679E+01  0.00000000000E+00 0.  1.
</event>
<event>
 5    1  0.6172503E+001  0.1599675E+01  0.7818608E-02  0.3353716E+00
         11   -1    0    0    0    0  0.00000000000E+00  0.00000000000E+00  0.39999999674E+01  0.40000000000E+01  0.51100000000E-03 0. -1.
    9000002   -1    0    0    0    0 -0.00000000000E+00 -0.00000000000E+00  0.00000000000E+00  0.93800000000E+00  0.93800000000E+00 0. -1.
         11    1    1    2    0    0  0.10384670616E+00 -0.22449863798E-01  0.89555139588E+00  0.90183185714E+00  0.51100000000E-03 0. -1.
    9000002    1    1    2    0    0 -0.44681546393E+00  0.10191689538E+00  0.14282761398E+00  0.10536958004E+01  0.93800000000E+00 0. -1.
         22    1    1    2    0    0  0.34296875777E+00 -0.79467031579E-01  0.29616209575E+01  0.29824723425E+01  0.00000000000E+00 0. -1.
</event>
<event>
 5    1  0.6172503E+001  0.1599660E+01  0.7818608E-02  0.3353733E+00
         11   -1    0    0    0    0  0.00000000000E+00  0.00000000000E+00  0.39999999674E+01  0.40000000000E+01  0.51100000000E-03 0. -1.
    9000002   -1    0    0    0    0 -0.00000000000E+00 -0.00000000000E+00  0.00000000000E+00  0.93800000000E+00  0.93800000000E+00 0. -1.
         11    1    1    2    0    0 -0.11775045261E+00  0.96967521750E-01  0.10348853584E+01  0.10460668408E+01  0.51100000000E-03 0. -1.
    9000002    1    1    2    0    0  0.41537953071E+00 -0.35807681144E+00  0.20768845494E+00  0.11062267633E+01  0.93800000000E+00 0. -1.
         22    1    1    2    0    0 -0.29762907810E+00  0.26110928969E+00  0.27574261540E+01  0.27857063959E+01  0.00000000000E+00 0. -1.
</event>
<event>
 5    1  0.6172503E+001  0.1599671E+01  0.7818608E-02  0.3353720E+00
         11   -1    0    0    0    0  0.00000000000E+00  0.00000000000E+00  0.39999999674E+01  0.40000000000E+01  0.51100000000E-03 0.  1.
    9000002   -1    0    0    0    0 -0.00000000000E+00 -0.00000000000E+00  0.00000000000E+00  0.93800000000E+00  0.93800000000E+00 0.  1.
         11    1    1    2    0    0 -0.12374002877E-01  0.80531714910E-01  0.65803349355E+00  0.66305867976E+00  0.51100000000E-03 0.  1.
    9000002    1    1    2    0    0  0.61815703000E-01 -0.46437391333E+00  0.14947847676E+00  0.10590807937E+01  0.93800000000E+00 0.  1.
         22    1    1    2    0    0 -0.49441700123E-01  0.38384219842E+00  0.31924879970E+01  0.32158605266E+01  0.00000000000E+00 0.  1.
</event>
<event>
 5    1  0.6172503E+001  0.1599665E+01  0.7818608E-02  0.3353727E+00
         11   -1    0    0    0    0  0.00000000000E+00  0.00000000000E+00  0.39999999674E+01  0.40000000000E+01  0.51100000000E-03 0. -1.
    9000002   -1    0    0    0    0 -0.00000000000E+00 -0.00000000000E+00  0.00000000000E+00  0.93800000000E+00  0.93800000000E+00 0.  1.
         11    1    1    2    0    0 -0.14224195498E-02  0.72722054159E-02  0.53455405171E-01  0.53968969900E-01  0.51100000000E-03 0. -1.
    9000002    1    1    2    0    0  0.82454385523E-01 -0.46540472778E+00  0.15226392219E+00  0.10613334011E+01  0.93800000000E+00 0.  1.
         22    1    1    2    0    0 -0.81031965973E-01  0.45813252236E+00  0.37942806400E+01  0.38226976290E+01  0.00000000000E+00 0. -1.
</event>
<event>
 5    1  0.6172503E+001  0.1584844E+01  0.7818608E-02  0.3369979E+00
         11   -1    0    0    0    0  0.00000000000E+00  0.00000000000E+00  0.39999999674E+01  0.40000000000E+01  0.51100000000E-03 0.  1.
    9000002   -1    0    0    0    0 -0.00000000000E+00 -0.00000000000E+00  0.00000000000E+00  0.93800000000E+00  0.93800000000E+00 0.  1.
         11    1    1    2    0    0  0.10070091697E+00 -0.13373991072E+00  0.63896456743E+00  0.66053237464E+00  0.51100000000E-03 0.  1.
    9000002    1    1    2    0    0  0.17811806445E-03  0.52490241032E+00  0.20322367507E+00  0.10939224992E+01  0.93800000000E+00 0.  1.
         22    1    1    2    0    0 -0.10087903503E+00 -0.39116249960E+00  0.31578117249E+01  0.31835451262E+01  0.00000000000E+00 0.  1.
</event>
<event>
 5    1  0.6172503E+001  0.1558709E+01  0.7818608E-02  0.3399436E+00
         11   -1    0    0    0    0  0.00000000000E+00  0.00000000000E+00  0.39999999674E+01  0.40000000000E+01  0.51100000000E-03 0.  1.
    9000002   -1    0    0    0    0 -0.00000000000E+00 -0.00000000000E+00  0.00000000000E+00  0.93800000000E+00  0.93800000000E+00 0. -1.
         11    1    1    2    0    0  0.17308662762E+00 -0.10140840262E+00  0.98685169851E+00  0.10070348459E+01  0.51100000000E-03 0.  1.
    9000002    1    1    2    0    0 -0.65237892839E-01 -0.16052111133E+00  0.50923748936E-01  0.95522784615E+00  0.93800000000E+00 0. -1.
         22    1    1    2    0    0 -0.10784873478E+00  0.26192951395E+00  0.29622245199E+01  0.29757373080E+01  0.00000000000E+00 0.  1.
</event>
<event>
 5    1  0.6172503E+001  0.1599528E+01  0.7818608E-02  0.3353876E+00
         11   -1    0    0    0    0  0.00000000000E+00  0.00000000000E+00  0.39999999674E+01  0.40000000000E+01  0.51100000000E-03 0. -1.
    9000002   -1    0    0    0    0 -0.00000000000E+00 -0.00000000000E+00  0.00000000000E+00  0.93800000000E+00  0.93800000000E+00 0. -1.
         11    1    1    2    0    0 -0.80267452673E-03  0.55607894256E-01  0.21427013287E+00  0.22137035292E+00  0.51100000000E-03 0. -1.
    9000002    1    1    2    0    0 -0.74437250828E-01 -0.82839657529E+00  0.51550974489E+00  0.13554984645E+01  0.93800000000E+00 0. -1.
         22    1    1    2    0    0  0.75239925355E-01  0.77278868103E+00  0.32702200896E+01  0.33611311826E+01  0.00000000000E+00 0. -1.
</event>
<event>
 5    1  0.6172503E+001  0.1595685E+01  0.7818608E-02  0.3358060E+00
         11   -1    0    0    0    0  0.00000000000E+00  0.00000000000E+00  0.39999999674E+01  0.40000000000E+01  0.51100000000E-03 0.  1.
    9000002   -1    0    0    0    0 -0.00000000000E+00 -0.00000000000E+00  0.00000000000E+00  0.93800000000E+00  0.93800000000E+00 0. -1.
         11    1    1    2    0    0 -0.78558189290E-01  0.77222178147E-01  0.14002246653E+01  0.14045511839E+01  0.51100000000E-03 0.  1.
    9000002    1    1    2    0    0  0.40867695162E+00 -0.26774032367E+00  0.16666398162E+00  0.10706645667E+01  0.93800000000E+00 0. -1.
         22    1    1    2    0    0 -0.33011876233E+00  0.19051814552E+00  0.24331113205E+01  0.24627842493E+01  0.00000000000E+00 0.  1.
</event>
<event>
 5    1  0.6172503E+001  0.1571445E+01  0.7818608E-02  0.3384951E+00
         11   -1    0    0    0    0  0.00000000000E+00  0.00000000000E+00  0.39999999674E+01  0.40000000000E+01  0.51100000000E-03 0. -1.
    9000002   -1    0    0    0    0 -0.00000000000E+00 -0.00000000000E+00  0.00000000000E+00  0.93800000000E+00  0.93800000000E+00 0. -1.
         11    1    1    2    0    0 -0.12013181088E+00 -0.32659151042E-01  0.11447977286E+01  0.11515469477E+01  0.51100000000E-03 0. -1.
    9000002    1    1    2    0    0 -0.10347324053E+00 -0.25073803334E+00  0.71069906742E-01  0.97901542609E+00  0.93800000000E+00 0. -1.
         22    1    1    2    0    0  0.22360505141E+00  0.28339718438E+00  0.27841323320E+01  0.28074376262E+01  0.00000000000E+00 0. -1.
</event>
<event>
 5    1  0.6172503E+001  0.1599676E+01  0.7818608E-02  0.3353715E+00
         11   -1    0    0    0    0  0.00000000000E+00  0.00000000000E+00  0.39999999674E+01  0.40000000000E+01  0.51100000000E-03 0.  1.
    9000002   -1    0    0    0    0 -0.00000000000E+00 -0.00000000000E+00  0.00000000000E+00  0.93800000000E+00  0.93800000000E+00 0.  1.
         11    1    1    2    0    0  0.11435846564E+00 -0.74162937464E-01  0.14895183497E+01  0.14957416806E+01  0.51100000000E-03 0.  1.
    9000002    1    1    2    0    0 -0.29825670287E+00  0.19435977260E+00  0.85032869641E-01  0.10068800181E+01  0.93800000000E+00 0.  1.
         22    1    1    2    0    0  0.18389823723E+00 -0.12019683514E+00  0.24254487480E+01  0.24353783012E+01  0.00000000000E+00 0.  1.
</event>
<event>
 5    1  0.6172503E+001  0.1599673E+01  0.7818608E-02  0.3353718E+00
         11   -1    0    0    0    0  0.00000000000E+00  0.00000000000E+00  0.39999999674E+01  0.40000000000E+01  0.51100000000E-03 0. -1.
    9000002   -1    0    0    0    0 -0.00000000000E+00 -0.00000000000E+00  0.00000000000E+00  0.93800000000E+00  0.93800000000E+00 0.  1.
         11    1    1    2    0    0  0.46069778272E-01 -0.87287195692E-01  0.91662957329E+00  0.92192815054E+00  0.51100000000E-03 0. -1.
    9000002    1    1    2    0    0 -0.19735777518E+00  0.37741515757E+00  0.12277898071E+00  0.10374540812E+01  0.93800000000E+00 0.  1.
         22    1    1    2    0    0  0.15128799691E+00 -0.29012796188E+00  0.29605914134E+01  0.29786177682E+01  0.00000000000E+00 0. -1.
</event>
<event>
 5    1  0.6172503E+001  0.1599676E+01  0.7818608E-02  0.3353715E+00
         11   -1    0    0    0    0  0.00000000000E+00  0.00000000000E+00  0.39999999674E+01  0.40000000000E+01  0.51100000000E-03 0. -1.
    9000002   -1    0    0    0    0 -0.00000000000E+00 -0.00000000000E+00  0.00000000000E+00  0.93800000000E+00  0.93800000000E+00 0.  1.
         11    1    1    2    0    0  0.74336652227E-01  0.80461799149E-01  0.11211806871E+01  0.11265196106E+01  0.51100000000E-03 0. -1.
    9000002    1    1    2    0    0 -0.25893635222E+00 -0.27647712628E+00  0.96531019879E-01  0.10161938170E+01  0.93800000000E+00 0.  1.
         22    1    1    2    0    0  0.18459970000E+00  0.19601532713E+00  0.27822882604E+01  0.27952865724E+01  0.00000000000E+00 0. -1.
</event>
<event>
 5    1  0.6172503E+001  0.1588711E+01  0.7818608E-02  0.3365708E+00
         11   -1    0    0    0    0  0.00000000000E+00  0.00000000000E+00  0.39999999674E+01  0.40000000000E+01  0.51100000000E-03 0.  1.
    9000002   -1    0    0    0    0 -0.00000000000E+00 -0.00000000000E+00  0.00000000000E+00  0.93800000000E+00  0.93800000000E+00 0.  1.
         11    1    1    2    0    0 -0.32613697146E-01 -0.28997287348E+00  0.96324820697E+00  0.10064766713E+01  0.51100000000E-03 0.  1.
    9000002    1    1    2    0    0  0.41395894770E-01  0.67792139580E+00  0.33993951878E+00  0.12069357545E+01  0.93800000000E+00 0.  1.
         22    1    1    2    0    0 -0.87821976239E-02 -0.38794852232E+00  0.26968122416E+01  0.27245875742E+01  0.00000000000E+00 0.  1.
</event>
<event>
 5    1  0.6951035E+001  0.1599673E+01  0.7818608E-02  0.3353718E+00
         11   -1    0    0    0    0  0.00000000000E+00  0.00000000000E+00  0.39999999674E+01  0.40000000000E+01  0.51100000000E-03 0. -1.
    9000002   -1    0    0    0    0 -0.00000000000E+00 -0.00000000000E+00  0.00000000000E+00  0.93800000000E+00  0.93800000000E+00 0.  1.
         11    1    1    2    0    0 -0.83603501241E-01 -0.11448555849E+00  0.14676438029E+01  0.14744745104E+01  0.51100000000E-03 0. -1.
    9000002    1    1    2    0    0  0.22810308174E+00  0.30363352825E+00  0.97040115277E-01  0.10166047016E+01  0.93800000000E+00 0.  1.
         22    1    1    2    0    0 -0.14449958050E+00 -0.18914796977E+00  0.24353160492E+01  0.24469207880E+01  0.00000000000E+00 0. -1.
</event>
<event>
 5    1  0.6172503E+001  0.1457164E+01  0.7818608E-02  0.3524653E+00
         11   -1    0    0    0    0  0.00000000000E+00  0.00000000000E+00  0.39999999674E+01  0.40000000000E+01  0.51100000000E-03 0.  1.
    9000002   -1    0    0    0    0 -0.00000000000E+00 -0.00000000000E+00  0.00000000000E+00  0.93800000000E+00  0.93800000000E+00 0. -1.
         11    1    1    2    0    0 -0.34623824168E+00  0.20096306637E+00  0.85361462032E+00  0.94282832753E+00  0.51100000000E-03 0.  1.
    9000002    1    1    2    0    0  0.52772542359E-01 -0.76233648285E-01  0.11786653131E+00  0.94991211676E+00  0.93800000000E+00 0. -1.
         22    1    1    2    0    0  0.29346569932E+00 -0.12472941809E+00  0.30285188157E+01  0.30452595557E+01  0.00000000000E+00 0. -1.
</event>
<event>
 5    1  0.6172503E+001  0.1598949E+01  0.7818608E-02  0.3354505E+00
         11   -1    0    0    0    0  0.00000000000E+00  0.00000000000E+00  0.39999999674E+01  0.40000000000E+01  0.51100000000E-03 0.  1.
    9000002   -1    0    0    0    0 -0.00000000000E+00 -0.00000000000E+00  0.00000000000E+00  0.93800000000E+00  0.93800000000E+00 0.  1.
         11    1    1    2    0    0  0.19135497012E+00  0.22645558300E+00  0.94222337344E+00  0.98776718018E+00  0.51100000000E-03 0.  1.
    9000002    1    1    2    0    0 -0.65512078753E+00 -0.68693638797E+00  0.70683397977E+00  0.15101401002E+01  0.93800000000E+00 0.  1.
         22    1    1    2    0    0  0.46376581741E+00  0.46048080497E+00  0.23509426142E+01  0.24400927196E+01  0.00000000000E+00 0.  1.
</event>
<event>
 5    1  0.6172503E+001  0.1599669E+01  0.7818608E-02  0.3353723E+00
         11   -1    0    0    0    0  0.00000000000E+00  0.00000000000E+00  0.39999999674E+01  0.40000000000E+01  0.51100000000E-03 0.  1.
    9000002   -1    0    0    0    0 -0.00000000000E+00 -0.00000000000E+00  0.00000000000E+00  0.93800000000E+00  0.93800000000E+00 0. -1.
         11    1    1    2    0    0  0.16715816513E+00  0.32619791390E+00  0.73292845481E+00  0.81947014112E+00  0.51100000000E-03 0.  1.
    9000002    1    1    2    0    0 -0.56556981726E+00 -0.10930267246E+01  0.15181456392E+01  0.21677607849E+01  0.93800000000E+00 0. -1.
         22    1    1    2    0    0  0.39841165213E+00  0.76682881068E+00  0.17489258733E+01  0.19507690740E+01  0.00000000000E+00 0.  1.
</event>
<event>
 5    1  0.6172503E+001  0.1599670E+01  0.7818608E-02  0.3353722E+00
         11   -1    0    0    0    0  0.00000000000E+00  0.00000000000E+00  0.39999999674E+01  0.40000000000E+01  0.51100000000E-03 0.  1.
    9000002   -1    0    0    0    0 -0.00000000000E+00 -0.00000000000E+00  0.00000000000E+00  0.93800000000E+00  0.93800000000E+00 0.  1.
         11    1    1    2    0    0 -0.35455166972E-01 -0.55978519502E-01  0.63630579062E+00  0.63974681227E+00  0.51100000000E-03 0.  1.
    9000002    1    1    2    0    0  0.22893332783E+00  0.34911522767E+00  0.11784047903E+00  0.10334516386E+01  0.93800000000E+00 0.  1.
         22    1    1    2    0    0 -0.19347816086E+00 -0.29313670816E+00  0.32458536977E+01  0.32648015492E+01  0.00000000000E+00 0.  1.
</event>
<event>
 5    1  0.6391453E+001  0.1599676E+01  0.7818608E-02  0.3353715E+00
         11   -1    0    0    0    0  0.00000000000E+00  0.00000000000E+00  0.39999999674E+01  0.40000000000E+01  0.51100000000E-03 0.  1.
    9000002   -1    0    0    0    0 -0.00000000000E+00 -0.00000000000E+00  0.00000000000E+00  0.93800000000E+00  0.93800000000E+00 0.  1.
         11    1    1    2    0    0 -0.59760190355E-01 -0.13496610501E+00  0.14090948074E+01  0.14168047033E+01  0.51100000000E-03 0. -1.
    9000002    1    1    2    0    0  0.16471666962E+00  0.37497118106E+00  0.11328195355E+00  0.10297629673E+01  0.93800000000E+00 0.  1.
         22    1    1    2    0    0 -0.10495647926E+00 -0.24000507605E+00  0.24776232064E+01  0.24914323294E+01  0.00000000000E+00 0.  1.
</event>
<event>
 5    1  0.6172503E+001  0.1599591E+01  0.7818608E-02  0.3353808E+00
         11   -1    0    0    0    0  0.00000000000E+00  0.00000000000E+00  0.39999999674E+01  0.40000000000E+01  0.51100000000E-03 0. -1.
    9000002   -1    0    0    0    0 -0.00000000000E+00 -0.00000000000E+00  0.00000000000E+00  0.93800000000E+00  0.93800000000E+00 0. -1.
         11    1    1    2    0    0 -0.42537397462E+00 -0.25547860586E+00  0.13218845216E+01  0.14119459217E+01  0.51100000000E-03 0. -1.
    9000002    1    1    2    0    0  0.96400887567E+00  0.55693742126E+00  0.10793584527E+01  0.18122778686E+01  0.93800000000E+00 0. -1.
         22    1    1    2    0    0 -0.53863490105E+00 -0.30145881540E+00  0.15987569931E+01  0.17137762097E+01  0.00000000000E+00 0. -1.
</event>
<event>
 5    1  0.6172503E+001  0.1599527E+01  0.7818608E-02  0.3353877E+00
         11   -1    0    0    0    0  0.00000000000E+00  0.00000000000E+00  0.39999999674E+01  0.40000000000E+01  0.51100000000E-03 0. -1.
    9000002   -1    0    0    0    0 -0.00000000000E+00 -0.00000000000E+00  0.00000000000E+00  0.93800000000E+00  0.93800000000E+00 0. -1.
         11    1    1    2    0    0 -0.37856769912E-01  0.61542071211E-03  0.31617840466E+00  0.31843768380E+00  0.51100000000E-03 0. -1.
    9000002    1    1    2    0    0  0.38042305401E+00  0.41367474919E-01  0.98681359000E-01  0.10178482100E+01  0.93800000000E+00 0. -1.
         22    1    1    2    0    0 -0.34256628410E+00 -0.41982895631E-01  0.35851402037E+01  0.36017141062E+01  0.00000000000E+00 0. -1.
</event>
<event>
 5    1  0.6172503E+001  0.1599677E+01  0.7818608E-02  0.3353715E+00
         11   -1    0    0    0    0  0.00000000000E+00  0.00000000000E+00  0.39999999674E+01  0.40000000000E+01  0.51100000000E-03 0.  1.
    9000002   -1    0    0    0    0 -0.00000000000E+00 -0.00000000000E+00  0.00000000000E+00  0.93800000000E+00  0.93800000000E+00 0.  1.
         11    1    1    2    0    0 -0.60220263249E-01  0.74148560238E-02  0.61251680342E+00  0.61551487048E+00  0.51100000000E-03 0.  1.
    9000002    1    1    2    0    0  0.38044262376E+00 -0.46685176140E-01  0.98891088984E-01  0.10181058605E+01  0.93800000000E+00 0.  1.
         22    1    1    2    0    0 -0.32022236051E+00  0.39270320117E-01  0.32885920750E+01  0.33043792690E+01  0.00000000000E+00 0.  1.
</event>
<event>
 5    1  0.6172503E+001  0.1585870E+01  0.7818608E-02  0.3368843E+00
         11   -1    0    0    0    0  0.00000000000E+00  0.00000000000E+00  0.39999999674E+01  0.40000000000E+01  0.51100000000E-03 0.  1.
    9000002   -1    0    0    0    0 -0.00000000000E+00 -0.00000000000E+00  0.00000000000E+00  0.93800000000E+00  0.93800000000E+00 0. -1.
         11    1    1    2    0    0  0.56956426075E-01  0.13611725306E+00  0.72081031684E+00  0.73575791877E+00  0.51100000000E-03 0.  1.
    9000002    1    1    2    0    0 -0.42789603235E+00 -0.14929557308E+00  0.15161339661E+00  0.10527178182E+01  0.93800000000E+00 0. -1.
         22    1    1    2    0    0  0.37093960627E+00  0.13178320026E-01  0.31275762539E+01  0.31495242631E+01  0.00000000000E+00 0.  1.
</event>
<event>
 5    1  0.6172503E+001  0.1599292E+01  0.7818608E-02  0.3354132E+00
         11   -1    0    0    0    0  0.00000000000E+00  0.00000000000E+00  0.39999999674E+01  0.40000000000E+01  0.51100000000E-03 0. -1.
    9000002   -1    0    0    0    0 -0.00000000000E+00 -0.00000000000E+00  0.00000000000E+00  0.93800000000E+00  0.93800000000E+00 0. -1.
         11    1    1    2    0    0  0.10818622932E+00  0.52271998849E-01  0.10019197894E+01  0.10090986808E+01  0.51100000000E-03 0. -1.
    9000002    1    1    2    0    0 -0.34205523292E+00 -0.22354513692E+00  0.11307629067E+00  0.10293709041E+01  0.93800000000E+00 0. -1.
         22    1    1    2    0    0  0.23386900360E+00  0.17127313807E+00  0.28850038873E+01  0.28995304151E+01  0.00000000000E+00 0. -1.
</event>
<event>
 5    1  0.6172503E+001  0.1599568E+01  0.7818608E-02  0.3353832E+00
         11   -1    0    0    0    0  0.00000000000E+00  0.00000000000E+00  0.39999999674E+01  0.40000000000E+01  0.51100000000E-03 0.  1.
    9000002   -1    0    0    0    0 -0.00000000000E+00 -0.00000000000E+00  0.00000000000E+00  0.93800000000E+00  0.93800000000E+00 0.  1.
         11    1    1    2    0    0  0.19956510991E+00  0.96901974794E-01  0.88439821439E+00  0.91179860087E+00  0.51100000000E-03 0.  1.
    9000002    1    1    2    0    0 -0.78687404167E+00 -0.33603712419E+00  0.55041371604E+00  0.13837958538E+01  0.93800000000E+00 0.  1.
         22    1    1    2    0    0  0.58730893176E+00  0.23913514940E+00  0.25651880369E+01  0.26424055453E+01  0.00000000000E+00 0.  1.
</event>
<event>
 5    1  0.6172503E+001  0.1599513E+01  0.7818608E-02  0.3353892E+00
         11   -1    0    0    0    0  0.00000000000E+00  0.00000000000E+00  0.39999999674E+01  0.40000000000E+01  0.51100000000E-03 0.  1.
    9000002   -1    0    0    0    0 -0.00000000000E+00 -0.00000000000E+00  0.00000000000E+00  0.93800000000E+00  0.93800000000E+00 0. -1.
         11    1    1    2    0    0  0.14683431910E-02 -0.12786935393E-01  0.18360943109E+00  0.18406071296E+00  0.51100000000E-03 0.  1.
    9000002    1    1    2    0    0 -0.25566811420E-01  0.40914718331E+00  0.11364088318E+00  0.10299579262E+01  0.93800000000E+00 0. -1.
         22    1    1    2    0    0  0.24098468229E-01 -0.39636024791E+00  0.37027496531E+01  0.37239813608E+01  0.00000000000E+00 0.  1.
</event>
<event>
 5    1  0.6172503E+001  0.1599638E+01  0.7818608E-02  0.3353756E+00
         11   -1    0    0    0    0  0.00000000000E+00  0.00000000000E+00  0.39999999674E+01  0.40000000000E+01  0.51100000000E-03 0.  1.
    9000002   -1    0    0    0    0 -0.00000000000E+00 -0.00000000000E+00  0.00000000000E+00  0.93800000000E+00  0.93800000000E+00 0. -1.
         11    1    1    2    0    0 -0.27274313720E-01 -0.32948732124E-01  0.38242509773E+00  0.38480998380E+00  0.51100000000E-03 0.  1.
    9000002    1    1    2    0    0  0.28317467015E+00  0.29029141095E+00  0.11104116522E+00  0.10279256478E+01  0.93800000000E+00 0. -1.
         22    1    1    2    0    0 -0.25590035643E+00 -0.25734267883E+00  0.35065337044E+01  0.35252643684E+01  0.00000000000E+00 0.  1.
</event>
<event>
 5    1  0.6172503E+001  0.1597540E+01  0.7818608E-02  0.3356038E+00
         11   -1    0    0    0    0  0.00000000000E+00  0.00000000000E+00  0.39999999674E+01  0.40000000000E+01  0.51100000000E-03 0.  1.
    9000002   -1    0    0    0    0 -0.00000000000E+00 -0.00000000000E+00  0.00000000000E+00  0.93800000000E+00  0.93800000000E+00 0.  1.
         11    1    1    2    0    0  0.18661378362E+00 -0.50927417004E-01  0.11020116321E+01  0.11188602256E+01  0.51100000000E-03 0.  1.
    9000002    1    1    2    0    0 -0.47638633903E+00  0.13687818783E+00  0.16997928508E+00  0.10744377784E+01  0.93800000000E+00 0.  1.
         22    1    1    2    0    0  0.28977255541E+00 -0.85950770823E-01  0.27280090502E+01  0.27447019960E+01  0.00000000000E+00 0.  1.
</event>
<event>
 5    1  0.6172503E+001  0.1599169E+01  0.7818608E-02  0.3354266E+00
         11   -1    0    0    0    0  0.00000000000E+00  0.00000000000E+00  0.39999999674E+01  0.40000000000E+01  0.51100000000E-03 0. -1.
    9000002   -1    0    0    0    0 -0.00000000000E+00 -0.00000000000E+00  0.00000000000E+00  0.93800000000E+00  0.93800000000E+00 0. -1.
         11    1    1    2    0    0  0.47960584212E-01 -0.52736010792E-01  0.53077818408E+00  0.53554369223E+00  0.51100000000E-03 0. -1.
    9000002    1    1    2    0    0 -0.47284017057E+00  0.37264304931E+00  0.25349068689E+00  0.11430407681E+01  0.93800000000E+00 0. -1.
         22    1    1    2    0    0  0.42487958636E+00 -0.31990703852E+00  0.32157310964E+01  0.32594155397E+01  0.00000000000E+00 0. -1.
</event>
<event>
 5    1  0.6172503E+001  0.1599381E+01  0.7818608E-02  0.3354035E+00
         11   -1    0    0    0    0  0.00000000000E+00  0.00000000000E+00  0.39999999674E+01  0.40000000000E+01  0.51100000000E-03 0. -1.
    9000002   -1    0    0    0    0 -0.00000000000E+00 -0.00000000000E+00  0.00000000000E+00  0.93800000000E+00  0.93800000000E+00 0. -1.
         11    1    1    2    0    0  0.14935589843E+00  0.15132049652E-01  0.13778374209E+01  0.13859914800E+01  0.51100000000E-03 0. -1.
    9000002    1    1    2    0    0 -0.40563705617E+00  0.10868731886E-01  0.11139633424E+00  0.10280625924E+01  0.93800000000E+00 0. -1.
         22    1    1    2    0    0  0.25628115774E+00 -0.26000781537E-01  0.25107662123E+01  0.25239459275E+01  0.00000000000E+00 0. -1.
</event>
<event>
 5    1  0.6816816E+001  0.1599571E+01  0.7818608E-02  0.3353829E+00
         11   -1    0    0    0    0  0.00000000000E+00  0.00000000000E+00  0.39999999674E+01  0.40000000000E+01  0.51100000000E-03 0.  1.
    9000002   -1    0    0    0    0 -0.00000000000E+00 -0.00000000000E+00  0.00000000000E+00  0.93800000000E+00  0.93800000000E+00 0. -1.
         11    1    1    2    0    0 -0.12432328686E+00 -0.73607549551E-02  0.13848907141E+01  0.13904794179E+01  0.51100000000E-03 0.  1.
    9000002    1    1    2    0    0  0.35456069686E+00 -0.12540148353E-01  0.84527968724E-01  0.10064092212E+01  0.93800000000E+00 0. -1.
         22    1    1    2    0    0 -0.23023740999E+00  0.19900903308E-01  0.25305812845E+01  0.25411113609E+01  0.00000000000E+00 0.  1.
</event>
<event>
 5    1  0.6172503E+001  0.1599610E+01  0.7818608E-02  0.3353787E+00
         11   -1    0    0    0    0  0.00000000000E+00  0.00000000000E+00  0.39999999674E+01  0.40000000000E+01  0.51100000000E-03 0.  1.
    9000002   -1    0    0    0    0 -0.00000000000E+00 -0.00000000000E+00  0.00000000000E+00  0.93800000000E+00  0.93800000000E+00 0. -1.
         11    1    1    2    0    0  0.32631801000E-01 -0.41641795095E-01  0.41761142675E+00  0.42094944876E+00  0.51100000000E-03 0.  1.
    9000002    1    1    2    0    0 -0.25665847340E+00  0.41868096290E+00  0.16490843061E+00  0.10715437981E+01  0.93800000000E+00 0. -1.
         22    1    1    2    0    0  0.22402667240E+00 -0.37703916780E+00  0.34174801100E+01  0.34455067532E+01  0.00000000000E+00 0.  1.
</event>
<event>
 5    1  0.6172503E+001  0.1599633E+01  0.7818608E-02  0.3353762E+00
         11   -1    0    0    0    0  0.00000000000E+00  0.00000000000E+00  0.39999999674E+01  0.40000000000E+01  0.51100000000E-03 0.  1.
    9000002   -1    0    0    0    0 -0.00000000000E+00 -0.00000000000E+00  0.00000000000E+00  0.93800000000E+00  0.93800000000E+00 0. -1.
         11    1    1    2    0    0  0.13160134250E+00 -0.11587567221E+00  0.12904760890E+01  0.13023343972E+01  0.51100000000E-03 0.  1.
    9000002    1    1    2    0    0 -0.41032223224E+00  0.33916380896E+00  0.19514216342E+00  0.10960478491E+01  0.93800000000E+00 0. -1.
         22    1    1    2    0    0  0.27872088974E+00 -0.22328813675E+00  0.25143817150E+01  0.25396177537E+01  0.00000000000E+00 0.  1.
</event>
<event>
 5    1  0.6172503E+001  0.1599555E+01  0.7818608E-02  0.3353846E+00
         11   -1    0    0    0    0  0.00000000000E+00  0.00000000000E+00  0.39999999674E+01  0.40000000000E+01  0.51100000000E-03 0. -1.
    9000002   -1    0    0    0    0 -0.00000000000E+00 -0.00000000000E+00  0.00000000000E+00  0.93800000000E+00  0.93800000000E+00 0. -1.
         11    1    1    2    0    0  0.42019451288E-01  0.11925023904E+00  0.10034039106E+01  0.10113386785E+01  0.51100000000E-03 0. -1.
    9000002    1    1    2    0    0 -0.15814060228E+00 -0.41452940302E+00  0.13367360596E+00  0.10462101648E+01  0.93800000000E+00 0. -1.
         22    1    1    2    0    0  0.11612115100E+00  0.29527916398E+00  0.28629224508E+01  0.28804511567E+01  0.00000000000E+00 0. -1.
</event>
<event>
 5    1  0.6172503E+001  0.1598442E+01  0.7818608E-02  0.3355056E+00
         11   -1    0    0    0    0  0.00000000000E+00  0.00000000000E+00  0.39999999674E+01  0.40000000000E+01  0.51100000000E-03 0.  1.
    9000002   -1    0    0    0    0 -0.00000000000E+00 -0.00000000000E+00  0.00000000000E+00  0.93800000000E+00  0.93800000000E+00 0. -1.
         11    1    1    2    0    0  0.11646011848E-01 -0.52640535547E-01  0.66932306523E+00  0.67149108881E+00  0.51100000000E-03 0.  1.
    9000002    1    1    2    0    0  0.27455227300E-01  0.46223309876E+00  0.14699008330E+00  0.10563443149E+01  0.93800000000E+00 0. -1.
         22    1    1    2    0    0 -0.39101239149E-01 -0.40959256321E+00  0.31836868188E+01  0.32101645963E+01  0.00000000000E+00 0.  1.
</event>
<event>
 5    1  0.6172503E+001  0.1599677E+01  0.7818608E-02  0.3353715E+00
         11   -1    0    0    0    0  0.00000000000E+00  0.00000000000E+00  0.39999999674E+01  0.40000000000E+01  0.51100000000E-03 0. -1.
    9000002   -1    0    0    0    0 -0.00000000000E+00 -0.00000000000E+00  0.00000000000E+00  0.93800000000E+00  0.93800000000E+00 0. -1.
         11    1    1    2    0    0 -0.43425941624E-01  0.89939642896E-01  0.75943096058E+00  0.76597036286E+00  0.51100000000E-03 0. -1.
    9000002    1    1    2    0    0  0.21705735825E+00 -0.45549462133E+00  0.17441554607E+00  0.10792840356E+01  0.93800000000E+00 0. -1.
         22    1    1    2    0    0 -0.17363141663E+00  0.36555497844E+00  0.30661534607E+01  0.30927456015E+01  0.00000000000E+00 0. -1.
</event>
<event>
 5    1  0.6172503E+001  0.1599571E+01  0.7818608E-02  0.3353829E+00
         11   -1    0    0    0    0  0.00000000000E+00  0.00000000000E+00  0.39999999674E+01  0.40000000000E+01  0.51100000000E-03 0. -1.
    9000002   -1    0    0    0    0 -0.00000000000E+00 -0.00000000000E+00  0.00000000000E+00  0.93800000000E+00  0.93800000000E+00 0. -1.
         11    1    1    2    0    0  0.32530090444E-01  0.86473518204E-01  0.86382573067E+00  0.86875257135E+00  0.51100000000E-03 0. -1.
    9000002    1    1    2    0    0 -0.15088199344E+00 -0.34447257573E+00  0.95199080241E-01  0.10150534943E+01  0.93800000000E+00 0. -1.
         22    1    1    2    0    0  0.11835190299E+00  0.25799905752E+00  0.30409751564E+01  0.30541939344E+01  0.00000000000E+00 0. -1.
</event>
<event>
 5    1  0.6172503E+001  0.1599676E+01  0.7818608E-02  0.3353715E+00
         11   -1    0    0    0    0  0.00000000000E+00  0.00000000000E+00  0.39999999674E+01  0.40000000000E+01  0.51100000000E-03 0. -1.
    9000002   -1    0    0    0    0 -0.00000000000E+00 -0.00000000000E+00  0.00000000000E+00  0.93800000000E+00  0.93800000000E+00 0.  1.
         11    1    1    2    0    0  0.53956567070E-01  0.10428486638E+00  0.11917091353E+01  0.11974796736E+01  0.51100000000E-03 0. -1.
    9000002    1    1    2    0    0 -0.17753275410E+00 -0.33840472887E+00  0.98284894528E-01  0.10176146421E+01  0.93800000000E+00 0.  1.
         22    1    1    2    0    0  0.12357618703E+00  0.23411986249E+00  0.27100059375E+01  0.27229056843E+01  0.00000000000E+00 0. -1.
</event>
<event>
 5    1  0.6172503E+001  0.1599668E+01  0.7818608E-02  0.3353724E+00
         11   -1    0    0    0    0  0.00000000000E+00  0.00000000000E+00  0.39999999674E+01  0.40000000000E+01  0.51100000000E-03 0.  1.
    9000002   -1    0    0    0    0 -0.00000000000E+00 -0.00000000000E+00  0.00000000000E+00  0.93800000000E+00  0.93800000000E+00 0.  1.
         11    1    1    2    0    0 -0.10565654033E+00  0.32946714986E-01  0.10662074882E+01  0.10719363132E+01  0.51100000000E-03 0.  1.
    9000002    1    1    2    0    0  0.38434276123E+00 -0.10877869815E+00  0.10762068487E+00  0.10251723636E+01  0.93800000000E+00 0.  1.
         22    1    1    2    0    0 -0.27868622090E+00  0.75831983161E-01  0.28261717943E+01  0.28408913232E+01  0.00000000000E+00 0.  1.
</event>
<event>
 5    1  0.6172503E+001  0.1599672E+01  0.7818608E-02  0.3353720E+00
         11   -1    0    0    0    0  0.00000000000E+00  0.00000000000E+00  0.39999999674E+01  0.40000000000E+01  0.51100000000E-03 0.  1.
    9000002   -1    0    0    0    0 -0.00000000000E+00 -0.00000000000E+00  0.00000000000E+00  0.93800000000E+00  0.93800000000E+00 0.  1.
         11    1    1    2    0    0 -0.18016138152E+00  0.56902931544E-01  0.12092185025E+01  0.12238895844E+01  0.51100000000E-03 0.  1.
    9000002    1    1    2    0    0  0.55996142841E+00 -0.16891646595E+00  0.23792439094E+00  0.11307261338E+01  0.93800000000E+00 0.  1.
         22    1    1    2    0    0 -0.37980004689E+00  0.11201353441E+00  0.25528570739E+01  0.25833842818E+01  0.00000000000E+00 0.  1.
</event>
<event>
 5    1  0.6172503E+001  0.1483232E+01  0.7818608E-02  0.3490743E+00
         11   -1    0    0    0    0  0.00000000000E+00  0.00000000000E+00  0.39999999674E+01  0.40000000000E+01  0.51100000000E-03 0. -1.
    9000002   -1    0    0    0    0 -0.00000000000E+00 -0.00000000000E+00  0.00000000000E+00  0.93800000000E+00  0.93800000000E+00 0.  1.
         11    1    1    2    0    0 -0.33617444904E+00  0.32742892727E+00  0.12201069517E+01  0.13072429757E+01  0.51100000000E-03 0. -1.
    9000002    1    1    2    0    0  0.69921592969E-01 -0.31957668112E+00  0.17065878055E+00  0.10079616578E+01  0.93800000000E+00 0.  1.
         22    1    1    2    0    0  0.26625285607E+00 -0.78522461535E-02  0.26092342351E+01  0.26227953665E+01  0.00000000000E+00 0. -1.
</event>
<event>
 5    1  0.6172503E+001  0.1598417E+01  0.7818608E-02  0.3355084E+00
         11   -1    0    0    0    0  0.00000000000E+00  0.00000000000E+00  0.39999999674E+01  0.40000000000E+01  0.51100000000E-03 0. -1.
    9000002   -1    0    0    0    0 -0.00000000000E+00 -0.00000000000E+00  0.00000000000E+00  0.93800000000E+00  0.93800000000E+00 0. -1.
         11    1    1    2    0    0  0.74897265024E-01  0.11450253377E+00  0.59451212279E+00  0.61005356799E+00  0.51100000000E-03 0. -1.
    9000002    1    1    2    0    0 -0.33087455211E+00 -0.56554198642E+00  0.30466382358E+00  0.11840522594E+01  0.93800000000E+00 0. -1.
         22    1    1    2    0    0  0.25597728708E+00  0.45103945265E+00  0.31008240210E+01  0.31438941726E+01  0.00000000000E+00 0. -1.
</event>
<event>
 5    1  0.6172503E+001  0.1599417E+01  0.7818608E-02  0.3353997E+00
         11   -1    0    0    0    0  0.00000000000E+00  0.00000000000E+00  0.39999999674E+01  0.40000000000E+01  0.51100000000E-03 0. -1.
    9000002   -1    0    0    0    0 -0.00000000000E+00 -0.00000000000E+00  0.00000000000E+00  0.93800000000E+00  0.93800000000E+00 0. -1.
         11    1    1    2    0    0  0.64651674824E-01 -0.65963462381E-01  0.85709051142E+00  0.86205302813E+00  0.51100000000E-03 0. -1.
    9000002    1    1    2    0    0 -0.32401366370E+00  0.23308164088E+00  0.10766383783E+00  0.10250597093E+01  0.93800000000E+00 0. -1.
         22    1    1    2    0    0  0.25936198888E+00 -0.16711817850E+00  0.30352456181E+01  0.30508872626E+01  0.00000000000E+00 0. -1.
</event>
<event>
 5    1  0.6172503E+001  0.1599626E+01  0.7818608E-02  0.3353770E+00
         11   -1    0    0    0    0  0.00000000000E+00  0.00000000000E+00  0.39999999674E+01  0.40000000000E+01  0.51100000000E-03 0. -1.
    9000002   -1    0    0    0    0 -0.00000000000E+00 -0.00000000000E+00  0.00000000000E+00  0.93800000000E+00  0.93800000000E+00 0. -1.
         11    1    1    2    0    0  0.54989651399E-01  0.39249709155E-01  0.72032606238E+00  0.72348759401E+00  0.51100000000E-03 0. -1.
    9000002    1    1    2    0    0 -0.29499010675E+00 -0.24867131287E+00  0.10027028095E+00  0.10191931682E+01  0.93800000000E+00 0. -1.
         22    1    1    2    0    0  0.24000045536E+00  0.20942160371E+00  0.31794036240E+01  0.31953192378E+01  0.00000000000E+00 0. -1.
</event>
<event>
 5    1  0.6172503E+001  0.1599667E+01  0.7818608E-02  0.3353725E+00
         11   -1    0    0    0    0  0.00000000000E+00  0.00000000000E+00  0.39999999674E+01  0.40000000000E+01  0.51100000000E-03 0.  1.
    9000002   -1    0    0    0    0 -0.00000000000E+00 -0.00000000000E+00  0.00000000000E+00  0.93800000000E+00  0.93800000000E+00 0.  1.
         11    1    1    2    0    0 -0.11025641209E-01  0.70570056296E-01  0.62633124035E+00  0.63039097501E+00  0.51100000000E-03 0.  1.
    9000002    1    1    2    0    0  0.84587967584E-01 -0.42992456122E+00  0.13018189177E+00  0.10434469692E+01  0.93800000000E+00 0.  1.
         22    1    1    2    0    0 -0.73562326375E-01  0.35935450492E+00  0.32434868352E+01  0.32641620558E+01  0.00000000000E+00 0.  1.
</event>
<event>
 5    1  0.6172503E+001  0.1599655E+01  0.7818608E-02  0.3353738E+00
         11   -1    0    0    0    0  0.00000000000E+00  0.00000000000E+00  0.39999999674E+01  0.40000000000E+01  0.51100000000E-03 0.  1.
    9000002   -1    0    0    0    0 -0.00000000000E+00 -0.00000000000E+00  0.00000000000E+00  0.93800000000E+00  0.93800000000E+00 0.  1.
         11    1    1    2    0    0  0.81893151708E-01 -0.21889636506E-02  0.82357176013E+00  0.82763638457E+00  0.51100000000E-03 0.  1.
    9000002    1    1    2    0    0 -0.37035994597E+00 -0.13842769426E-02  0.92204043031E-01  0.10126766470E+01  0.93800000000E+00 0.  1.
         22    1    1    2    0    0  0.28846679426E+00  0.35732405932E-02  0.30842241642E+01  0.30976869684E+01  0.00000000000E+00 0.  1.
</event>
<event>
 5    1  0.6172503E+001  0.1599670E+01  0.7818608E-02  0.3353722E+00
         11   -1    0    0    0    0  0.00000000000E+00  0.00000000000E+00  0.39999999674E+01  0.40000000000E+01  0.51100000000E-03 0. -1.
    9000002   -1    0    0    0    0 -0.00000000000E+00 -0.00000000000E+00  0.00000000000E+00  0.93800000000E+00  0.93800000000E+00 0.  1.
         11    1    1    2    0    0  0.70024510354E-01  0.30884778640E-01  0.75633553511E+00  0.76019800341E+00  0.51100000000E-03 0. -1.
    9000002    1    1    2    0    0 -0.36690375209E+00 -0.17009889543E+00  0.11038810729E+00  0.10274149754E+01  0.93800000000E+00 0.  1.
         22    1    1    2    0    0  0.29687924173E+00  0.13921411679E+00  0.31332763250E+01  0.31503870212E+01  0.00000000000E+00 0. -1.
</event>
<event>
 5    1  0.6172503E+001  0.1566273E+01  0.7818608E-02  0.3390803E+00
         11   -1    0    0    0    0  0.00000000000E+00  0.00000000000E+00  0.39999999674E+01  0.40000000000E+01  0.51100000000E-03 0.  1.
    9000002   -1    0    0    0    0 -0.00000000000E+00 -0.00000000000E+00  0.00000000000E+00  0.93800000000E+00  0.93800000000E+00 0. -1.
         11    1    1    2    0    0 -0.10550200763E+00 -0.14200933647E+00  0.67943841317E+00  0.70209268880E+00  0.51100000000E-03 0.  1.
    9000002    1    1    2    0    0 -0.22969812082E+00  0.33264688660E+00  0.13871288751E+00  0.10307766213E+01  0.93800000000E+00 0. -1.
         22    1    1    2    0    0  0.33520012845E+00 -0.19063755012E+00  0.31818486667E+01  0.32051306899E+01  0.00000000000E+00 0.  1.
</event>
<event>
 5    1  0.6172503E+001  0.1599578E+01  0.7818608E-02  0.3353821E+00
         11   -1    0    0    0    0  0.00000000000E+00  0.00000000000E+00  0.39999999674E+01  0.40000000000E+01  0.51100000000E-03 0.  1.
    9000002   -1    0    0    0    0 -0.00000000000E+00 -0.00000000000E+00  0.00000000000E+00  0.93800000000E+00  0.93800000000E+00 0. -1.
         11    1    1    2    0    0  0.82919536219E-02 -0.65415225556E-01  0.67748679638E+00  0.68068827566E+00  0.51100000000E-03 0.  1.
    9000002    1    1    2    0    0  0.31468429052E-02  0.36643935083E+00  0.90289405242E-01  0.10110805493E+01  0.93800000000E+00 0. -1.
         22    1    1    2    0    0 -0.11438796527E-01 -0.30102412527E+00  0.32322237657E+01  0.32462311750E+01  0.00000000000E+00 0.  1.
</event>
<event>
 5    1  0.6172503E+001  0.1599677E+01  0.7818608E-02  0.3353714E+00
         11   -1    0    0    0    0  0.00000000000E+00  0.00000000000E+00  0.39999999674E+01  0.40000000000E+01  0.51100000000E-03 0. -1.
    9000002   -1    0    0    0    0 -0.00000000000E+00 -0.00000000000E+00  0.00000000000E+00  0.93800000000E+00  0.93800000000E+00 0. -1.
         11    1    1    2    0    0  0.15180713397E-01  0.62782181846E-01  0.67516747471E+00  0.67825027567E+00  0.51100000000E-03 0.  1.
    9000002    1    1    2    0    0 -0.90446774169E-01 -0.36417725977E+00  0.94685925946E-01  0.10146995221E+01  0.93800000000E+00 0. -1.
         22    1    1    2    0    0  0.75266060771E-01  0.30139507792E+00  0.32301465667E+01  0.32450502023E+01  0.00000000000E+00 0. -1.
</event>
<event>
 5    1  0.6172503E+001  0.1590868E+01  0.7818608E-02  0.3363335E+00
         11   -1    0    0    0    0  0.00000000000E+00  0.00000000000E+00  0.39999999674E+01  0.40000000000E+01  0.51100000000E-03 0.  1.
    9000002   -1    0    0    0    0 -0.00000000000E+00 -0.00000000000E+00  0.00000000000E+00  0.93800000000E+00  0.93800000000E+00 0.  1.
         11    1    1    2    0    0  0.19502902343E-01  0.19926743127E-02  0.26828534359E-01  0.33231992531E-01  0.51100000000E-03 0.  1.
    9000002    1    1    2    0    0  0.31601312714E-01 -0.44199825642E+00  0.14083815158E+00  0.10469195225E+01  0.93800000000E+00 0.  1.
         22    1    1    2    0    0 -0.51104215057E-01  0.44000558211E+00  0.38323332814E+01  0.38578484850E+01  0.00000000000E+00 0.  1.
</event>
<event>
 5    1  0.6172503E+001  0.1586715E+01  0.7818608E-02  0.3367910E+00
         11   -1    0    0    0    0  0.00000000000E+00  0.00000000000E+00  0.39999999674E+01  0.40000000000E+01  0.51100000000E-03 0. -1.
    9000002   -1    0    0    0    0 -0.00000000000E+00 -0.00000000000E+00  0.00000000000E+00  0.93800000000E+00  0.93800000000E+00 0.  1.
         11    1    1    2    0    0 -0.15244431946E+00 -0.36022801108E-01  0.72177567787E+00  0.73857789232E+00  0.51100000000E-03 0. -1.
    9000002    1    1    2    0    0  0.32852139606E+00  0.50643198196E+00  0.26749477732E+00  0.11470820005E+01  0.93800000000E+00 0.  1.
         22    1    1    2    0    0 -0.17607707659E+00 -0.47040918085E+00  0.30107295122E+01  0.30523401072E+01  0.00000000000E+00 0. -1.
</event>
<event>
 5    1  0.6172503E+001  0.1576887E+01  0.7818608E-02  0.3378837E+00
         11   -1    0    0    0    0  0.00000000000E+00  0.00000000000E+00  0.39999999674E+01  0.40000000000E+01  0.51100000000E-03 0. -1.
    9000002   -1    0    0    0    0 -0.00000000000E+00 -0.00000000000E+00  0.00000000000E+00  0.93800000000E+00  0.93800000000E+00 0. -1.
         11    1    1    2    0    0  0.33956153819E-01 -0.83395048820E-01  0.97278802491E+00  0.97694654771E+00  0.51100000000E-03 0. -1.
    9000002    1    1    2    0    0 -0.16699126366E-01 -0.28496930324E+00  0.72209753310E-01  0.98313000823E+00  0.93800000000E+00 0. -1.
         22    1    1    2    0    0 -0.17257027453E-01  0.36836435206E+00  0.29550021891E+01  0.29779234441E+01  0.00000000000E+00 0.  1.
</event>
<event>
 5    1  0.6172503E+001  0.1599675E+01  0.7818608E-02  0.3353716E+00
         11   -1    0    0    0    0  0.00000000000E+00  0.00000000000E+00  0.39999999674E+01  0.40000000000E+01  0.51100000000E-03 0.  1.
    9000002   -1    0    0    0    0 -0.00000000000E+00 -0.00000000000E+00  0.00000000000E+00  0.93800000000E+00  0.93800000000E+00 0. -1.
         11    1    1    2    0    0  0.13808968029E-01  0.33574726439E-02  0.15120210757E+00  0.15186934739E+00  0.51100000000E-03 0.  1.
    9000002    1    1    2    0    0 -0.34503709453E+00 -0.83006792569E-01  0.84492193198E-01  0.10064410837E+01  0.93800000000E+00 0. -1.
         22    1    1    2    0    0  0.33122812650E+00  0.79649319925E-01  0.37643056666E+01  0.37796895689E+01  0.00000000000E+00 0.  1.
</event>
<event>
 5    1  0.6172503E+001  0.1599667E+01  0.7818608E-02  0.3353725E+00
         11   -1    0    0    0    0  0.00000000000E+00  0.00000000000E+00  0.39999999674E+01  0.40000000000E+01  0.51100000000E-03 0.  1.
    9000002   -1    0    0    0    0 -0.00000000000E+00 -0.00000000000E+00  0.00000000000E+00  0.93800000000E+00  0.93800000000E+00 0. -1.
         11    1    1    2    0    0 -0.92116253406E-01  0.43538959197E-01  0.11605598056E+01  0.11650237631E+01  0.51100000000E-03 0.  1.
    9000002    1    1    2    0    0  0.32180304899E+00 -0.14191320797E+00  0.82963909004E-01  0.10051982745E+01  0.93800000000E+00 0. -1.
         22    1    1    2    0    0 -0.22968679558E+00  0.98374248777E-01  0.27564762528E+01  0.27677779624E+01  0.00000000000E+00 0.  1.
</event>
<event>
 5    1  0.6172503E+001  0.1599461E+01  0.7818608E-02  0.3353949E+00
         11   -1    0    0    0    0  0.00000000000E+00  0.00000000000E+00  0.39999999674E+01  0.40000000000E+01  0.51100000000E-03 0. -1.
    9000002   -1    0    0    0    0 -0.00000000000E+00 -0.00000000000E+00  0.00000000000E+00  0.93800000000E+00  0.93800000000E+00 0. -1.
         11    1    1    2    0    0  0.32087245757E-01 -0.16277438638E+00  0.12190109037E+01  0.12302491360E+01  0.51100000000E-03 0. -1.
    9000002    1    1    2    0    0 -0.54253401728E-01  0.48911391392E+00  0.16575929289E+00  0.10721455104E+01  0.93800000000E+00 0. -1.
         22    1    1    2    0    0  0.22166155971E-01 -0.32633952754E+00  0.26152297708E+01  0.26356053536E+01  0.00000000000E+00 0. -1.
</event>
<event>
 5    1  0.6172503E+001  0.1599666E+01  0.7818608E-02  0.3353726E+00
         11   -1    0    0    0    0  0.00000000000E+00  0.00000000000E+00  0.39999999674E+01  0.40000000000E+01  0.51100000000E-03 0.  1.
    9000002   -1    0    0    0    0 -0.00000000000E+00 -0.00000000000E+00  0.00000000000E+00  0.93800000000E+00  0.93800000000E+00 0.  1.
         11    1    1    2    0    0  0.61892607266E-01  0.49117278946E-01  0.61543676597E+00  0.62048841726E+00  0.51100000000E-03 0.  1.
    9000002    1    1    2    0    0 -0.37879926557E+00 -0.29026674465E+00  0.15533497787E+00  0.10638217059E+01  0.93800000000E+00 0.  1.
         22    1    1    2    0    0  0.31690665831E+00  0.24114946570E+00  0.32292282235E+01  0.32536898768E+01  0.00000000000E+00 0.  1.
</event>
<event>
 5    1  0.6172503E+001  0.1599669E+01  0.7818608E-02  0.3353723E+00
         11   -1    0    0    0    0  0.00000000000E+00  0.00000000000E+00  0.39999999674E+01  0.40000000000E+01  0.51100000000E-03 0. -1.
    9000002   -1    0    0    0    0 -0.00000000000E+00 -0.00000000000E+00  0.00000000000E+00  0.93800000000E+00  0.93800000000E+00 0. -1.
         11    1    1    2    0    0 -0.52095320239E-01  0.55492315758E-01  0.68518811252E+00  0.68940287943E+00  0.51100000000E-03 0. -1.
    9000002    1    1    2    0    0  0.28145584409E+00 -0.32019413484E+00  0.12302596820E+00  0.10376517070E+01  0.93800000000E+00 0. -1.
         22    1    1    2    0    0 -0.22936052385E+00  0.26470181908E+00  0.31917858866E+01  0.32109454136E+01  0.00000000000E+00 0. -1.
</event>
<event>
 5    1  0.6172503E+001  0.1599579E+01  0.7818608E-02  0.3353820E+00
         11   -1    0    0    0    0  0.00000000000E+00  0.00000000000E+00  0.39999999674E+01  0.40000000000E+01  0.51100000000E-03 0.  1.
    9000002   -1    0    0    0    0 -0.00000000000E+00 -0.00000000000E+00  0.00000000000E+00  0.93800000000E+00  0.93800000000E+00 0. -1.
         11    1    1    2    0    0 -0.68738641248E-01 -0.10439889494E+00  0.98111020632E+00  0.98904076161E+00  0.51100000000E-03 0.  1.
    9000002    1    1    2    0    0  0.30400427003E+00  0.42302651347E+00  0.18652904490E+00  0.10890395364E+01  0.93800000000E+00 0. -1.
         22    1    1    2    0    0 -0.23526562878E+00 -0.31862761853E+00  0.28323607161E+01  0.28599197020E+01  0.00000000000E+00 0.  1.
</event>
<event>
 5    1  0.6172503E+001  0.1540562E+01  0.7818608E-02  0.3420515E+00
         11   -1    0    0    0    0  0.00000000000E+00  0.00000000000E+00  0.39999999674E+01  0.40000000000E+01  0.51100000000E-03 0. -1.
    9000002   -1    0    0    0    0 -0.00000000000E+00 -0.00000000000E+00  0.00000000000E+00  0.93800000000E+00  0.93800000000E+00 0. -1.
         11    1    1    2    0    0 -0.15433445163E+00 -0.14950656844E+00  0.73075541109E+00  0.76169224029E+00  0.51100000000E-03 0. -1.
    9000002    1    1    2    0    0  0.20886234017E+00 -0.26191713346E+00  0.12390232012E+00  0.10037030671E+01  0.93800000000E+00 0. -1.
         22    1    1    2    0    0 -0.54527888546E-01  0.41142370190E+00  0.31453422362E+01  0.31726046926E+01  0.00000000000E+00 0. -1.
</event>
<event>
 5    1  0.6172503E+001  0.1598979E+01  0.7818608E-02  0.3354472E+00
         11   -1    0    0    0    0  0.00000000000E+00  0.00000000000E+00  0.39999999674E+01  0.40000000000E+01  0.51100000000E-03 0. -1.
    9000002   -1    0    0    0    0 -0.00000000000E+00 -0.00000000000E+00  0.00000000000E+00  0.93800000000E+00  0.93800000000E+00 0. -1.
         11    1    1    2    0    0 -0.15949437779E+00  0.41513411901E-01  0.11603882507E+01  0.11720336913E+01  0.51100000000E-03 0. -1.
    9000002    1    1    2    0    0  0.50065259703E+00 -0.22913574042E+00  0.21007321909E+00  0.11077594359E+01  0.93800000000E+00 0. -1.
         22    1    1    2    0    0 -0.34115821924E+00  0.18762232852E+00  0.26295384975E+01  0.26582068728E+01  0.00000000000E+00 0. -1.
</event>
<event>
 5    1  0.6188444E+001  0.1598736E+01  0.7818608E-02  0.3354737E+00
         11   -1    0    0    0    0  0.00000000000E+00  0.00000000000E+00  0.39999999674E+01  0.40000000000E+01  0.51100000000E-03 0. -1.
    9000002   -1    0    0    0    0 -0.00000000000E+00 -0.00000000000E+00  0.00000000000E+00  0.93800000000E+00  0.93800000000E+00 0. -1.
         11    1    1    2    0    0 -0.79996243527E-01  0.30363436792E-01  0.97794063103E+00  0.98167686955E+00  0.51100000000E-03 0. -1.
    9000002    1    1    2    0    0  0.25935676665E+00 -0.23412145801E+00  0.82607716291E-01  0.10043638904E+01  0.93800000000E+00 0. -1.
         22    1    1    2    0    0 -0.17936052313E+00  0.20375802122E+00  0.29394516200E+01  0.29519592401E+01  0.00000000000E+00 0. -1.
</event>
<event>
 5    1  0.6172503E+001  0.1599484E+01  0.7818608E-02  0.3353924E+00
         11   -1    0    0    0    0  0.00000000000E+00  0.00000000000E+00  0.39999999674E+01  0.40000000000E+01  0.51100000000E-03 0.  1.
    9000002   -1    0    0    0    0 -0.00000000000E+00 -0.00000000000E+00  0.00000000000E+00  0.93800000000E+00  0.93800000000E+00 0.  1.
         11    1    1    2    0    0  0.10347051210E+00 -0.55721556490E-01  0.78674122638E+00  0.79547033706E+00  0.51100000000E-03 0.  1.
    9000002    1    1    2    0    0 -0.51558876663E+00  0.20533142830E+00  0.21311597699E+00  0.11105202346E+01  0.93800000000E+00 0.  1.
         22    1    1    2    0    0  0.41211825453E+00 -0.14960987181E+00  0.30001427640E+01  0.30320094284E+01  0.00000000000E+00 0.  1.
</event>
<event>
 5    1  0.6172503E+001  0.1597677E+01  0.7818608E-02  0.3355889E+00
         11   -1    0    0    0    0  0.00000000000E+00  0.00000000000E+00  0.39999999674E+01  0.40000000000E+01  0.51100000000E-03 0.  1.
    9000002   -1    0    0    0    0 -0.00000000000E+00 -0.00000000000E+00  0.00000000000E+00  0.93800000000E+00  0.93800000000E+00 0. -1.
         11    1    1    2    0    0  0.40143355076E-01 -0.62677288949E-01  0.45106849630E+00  0.45716843830E+00  0.51100000000E-03 0.  1.
    9000002    1    1    2    0    0 -0.56184944854E-01  0.60853613966E+00  0.26321502529E+00  0.11500430996E+01  0.93800000000E+00 0. -1.
         22    1    1    2    0    0  0.16041589779E-01 -0.54585885071E+00  0.32857164458E+01  0.33307884621E+01  0.00000000000E+00 0.  1.
</event>
<event>
 5    1  0.6172503E+001  0.1599075E+01  0.7818608E-02  0.3354368E+00
         11   -1    0    0    0    0  0.00000000000E+00  0.00000000000E+00  0.39999999674E+01  0.40000000000E+01  0.51100000000E-03 0.  1.
    9000002   -1    0    0    0    0 -0.00000000000E+00 -0.00000000000E+00  0.00000000000E+00  0.93800000000E+00  0.93800000000E+00 0. -1.
         11    1    1    2    0    0  0.67948490510E-01  0.14249739015E+00  0.10516294943E+01  0.10634130703E+01  0.51100000000E-03 0.  1.
    9000002    1    1    2    0    0 -0.16325566868E+00 -0.47165142988E+00  0.17104434632E+00  0.10762005636E+01  0.93800000000E+00 0. -1.
         22    1    1    2    0    0  0.95307178167E-01  0.32915403973E+00  0.27773261267E+01  0.27983863662E+01  0.00000000000E+00 0.  1.
</event>
<event>
 5    1  0.6172503E+001  0.1506931E+01  0.7818608E-02  0.3461016E+00
         11   -1    0    0    0    0  0.00000000000E+00  0.00000000000E+00  0.39999999674E+01  0.40000000000E+01  0.51100000000E-03 0.  1.
    9000002   -1    0    0    0    0 -0.00000000000E+00 -0.00000000000E+00  0.00000000000E+00  0.93800000000E+00  0.93800000000E+00 0.  1.
         11    1    1    2    0    0 -0.58321861527E-01 -0.73631878990E-01  0.49003530643E-01  0.10594668599E+00  0.51100000000E-03 0.  1.
    9000002    1    1    2    0    0 -0.41219748683E+00 -0.27792207289E+00  0.25781133190E+00  0.10924550927E+01  0.93800000000E+00 0.  1.
         22    1    1    2    0    0  0.47051934835E+00  0.35155395188E+00  0.36931851048E+01  0.37395982213E+01  0.00000000000E+00 0.  1.
</event>
<event>
 5    1  0.6172503E+001  0.1599617E+01  0.7818608E-02  0.3353779E+00
         11   -1    0    0    0    0  0.00000000000E+00  0.00000000000E+00  0.39999999674E+01  0.40000000000E+01  0.51100000000E-03 0. -1.
    9000002   -1    0    0    0    0 -0.00000000000E+00 -0.00000000000E+00  0.00000000000E+00  0.93800000000E+00  0.93800000000E+00 0.  1.
         11    1    1    2    0    0  0.37987501133E-01  0.10183664243E+00  0.10588973163E+01  0.10644611498E+01  0.51100000000E-03 0. -1.
    9000002    1    1    2    0    0 -0.14379728624E+00 -0.40298898621E+00  0.12400139109E+00  0.10384113479E+01  0.93800000000E+00 0.  1.
         22    1    1    2    0    0  0.10580978511E+00  0.30115234378E+00  0.28171012600E+01  0.28351275022E+01  0.00000000000E+00 0. -1.
</event>
<event>
 5    1  0.6172503E+001  0.1599676E+01  0.7818608E-02  0.3353715E+00
         11   -1    0    0    0    0  0.00000000000E+00  0.00000000000E+00  0.39999999674E+01  0.40000000000E+01  0.51100000000E-03 0. -1.
    9000002   -1    0    0    0    0 -0.00000000000E+00 -0.00000000000E+00  0.00000000000E+00  0.93800000000E+00  0.93800000000E+00 0. -1.
         11    1    1    2    0    0 -0.73123542898E-01 -0.49883450831E-01  0.61438989083E+00  0.62073392872E+00  0.51100000000E-03 0. -1.
    9000002    1    1    2    0    0  0.44667795524E+00  0.30972672341E+00  0.20382225775E+00  0.11031044156E+01  0.93800000000E+00 0. -1.
         22    1    1    2    0    0 -0.37355441234E+00 -0.25984327258E+00  0.31817878188E+01  0.32141616557E+01  0.00000000000E+00 0. -1.
</event>
<event>
 5    1  0.6172503E+001  0.1599584E+01  0.7818608E-02  0.3353815E+00
         11   -1    0    0    0    0  0.00000000000E+00  0.00000000000E+00  0.39999999674E+01  0.40000000000E+01  0.51100000000E-03 0. -1.
    9000002   -1    0    0    0    0 -0.00000000000E+00 -0.00000000000E+00  0.00000000000E+00  0.93800000000E+00  0.93800000000E+00 0.  1.
         11    1    1    2    0    0 -0.18277794744E+00  0.82618965146E-01  0.14689200227E+01  0.14825518425E+01  0.51100000000E-03 0. -1.
    9000002    1    1    2    0    0  0.48302772263E+00 -0.18639234299E+00  0.18414593394E+00  0.10871115910E+01  0.93800000000E+00 0.  1.
         22    1    1    2    0    0 -0.30024977518E+00  0.10377337784E+00  0.23469340108E+01  0.23683365665E+01  0.00000000000E+00 0. -1.
</event>
<event>
 5    1  0.6172503E+001  0.1599676E+01  0.7818608E-02  0.3353715E+00
         11   -1    0    0    0    0  0.00000000000E+00  0.00000000000E+00  0.39999999674E+01  0.40000000000E+01  0.51100000000E-03 0. -1.
    9000002   -1    0    0    0    0 -0.00000000000E+00 -0.00000000000E+00  0.00000000000E+00  0.93800000000E+00  0.93800000000E+00 0. -1.
         11    1    1    2    0    0  0.78526865940E-01 -0.67335457037E-01  0.11275131535E+01  0.11322485173E+01  0.51100000000E-03 0. -1.
    9000002    1    1    2    0    0 -0.27074751761E+00  0.23184938802E+00  0.85255659012E-01  0.10070605168E+01  0.93800000000E+00 0. -1.
         22    1    1    2    0    0  0.19222065167E+00 -0.16451393098E+00  0.27872311549E+01  0.27986909660E+01  0.00000000000E+00 0. -1.
</event>
<event>
 5    1  0.6172503E+001  0.1599676E+01  0.7818608E-02  0.3353715E+00
         11   -1    0    0    0    0  0.00000000000E+00  0.00000000000E+00  0.39999999674E+01  0.40000000000E+01  0.51100000000E-03 0. -1.
    9000002   -1    0    0    0    0 -0.00000000000E+00 -0.00000000000E+00  0.00000000000E+00  0.93800000000E+00  0.93800000000E+00 0.  1.
         11    1    1    2    0    0  0.38576142286E-01  0.53478028997E-01  0.51081336627E+00  0.51505201157E+00  0.51100000000E-03 0. -1.
    9000002    1    1    2    0    0 -0.28909680342E+00 -0.40530788055E+00  0.16960769228E+00  0.10753893291E+01  0.93800000000E+00 0.  1.
         22    1    1    2    0    0  0.25052066113E+00  0.35182985155E+00  0.33195789088E+01  0.33475586594E+01  0.00000000000E+00 0. -1.
</event>
<event>
 5    1  0.6172503E+001  0.1597677E+01  0.7818608E-02  0.3355889E+00
         11   -1    0    0    0    0  0.00000000000E+00  0.00000000000E+00  0.39999999674E+01  0.40000000000E+01  0.51100000000E-03 0. -1.
    9000002   -1    0    0    0    0 -0.00000000000E+00 -0.00000000000E+00  0.00000000000E+00  0.93800000000E+00  0.93800000000E+00 0.  1.
         11    1    1    2    0    0 -0.52395311700E-01  0.11132991727E+00  0.75560350563E+00  0.76555635848E+00  0.51100000000E-03 0. -1.
    9000002    1    1    2    0    0  0.43369670542E+00 -0.62634942916E+00  0.42472931275E+00  0.12808768203E+01  0.93800000000E+00 0.  1.
         22    1    1    2    0    0 -0.38130139372E+00  0.51501951189E+00  0.28196671490E+01  0.28915668212E+01  0.00000000000E+00 0. -1.
</event>
<event>
 5    1  0.6828130E+001  0.1599675E+01  0.7818608E-02  0.3353716E+00
         11   -1    0    0    0    0  0.00000000000E+00  0.00000000000E+00  0.39999999674E+01  0.40000000000E+01  0.51100000000E-03 0.  1.
    9000002   -1    0    0    0    0 -0.00000000000E+00 -0.00000000000E+00  0.00000000000E+00  0.93800000000E+00  0.93800000000E+00 0. -1.
         11    1    1    2    0    0 -0.11129248947E+00 -0.72031085713E-01  0.14303935522E+01  0.14365237453E+01  0.51100000000E-03 0.  1.
    9000002    1    1    2    0    0  0.30488274033E+00  0.19262211455E+00  0.87310068490E-01  0.10087238534E+01  0.93800000000E+00 0. -1.
         22    1    1    2    0    0 -0.19359025087E+00 -0.12059102883E+00  0.24822963467E+01  0.24927524013E+01  0.00000000000E+00 0. -1.
</event>
<event>
 5    1  0.6172503E+001  0.1599616E+01  0.7818608E-02  0.3353780E+00
         11   -1    0    0    0    0  0.00000000000E+00  0.00000000000E+00  0.39999999674E+01  0.40000000000E+01  0.51100000000E-03 0. -1.
    9000002   -1    0    0    0    0 -0.00000000000E+00 -0.00000000000E+00  0.00000000000E+00  0.93800000000E+00  0.93800000000E+00 0.  1.
         11    1    1    2    0    0  0.11699246978E-01 -0.33715541293E-02  0.97754619260E-01  0.98511250447E-01  0.51100000000E-03 0. -1.
    9000002    1    1    2    0    0 -0.45138809578E+00  0.18597464334E-01  0.13870857090E+00  0.10503243053E+01  0.93800000000E+00 0.  1.
         22    1    1    2    0    0  0.43968884881E+00 -0.15225910205E-01  0.37635367772E+01  0.37891644442E+01  0.00000000000E+00 0. -1.
</event>
<event>
 5    1  0.6172503E+001  0.1599383E+01  0.7818608E-02  0.3354033E+00
         11   -1    0    0    0    0  0.00000000000E+00  0.00000000000E+00  0.39999999674E+01  0.40000000000E+01  0.51100000000E-03 0.  1.
    9000002   -1    0    0    0    0 -0.00000000000E+00 -0.00000000000E+00  0.00000000000E+00  0.93800000000E+00  0.93800000000E+00 0. -1.
         11    1    1    2    0    0  0.51827253853E-01  0.11263733516E+00  0.10748351352E+01  0.10819630596E+01  0.51100000000E-03 0.  1.
    9000002    1    1    2    0    0 -0.12843270757E+00 -0.37667237897E+00  0.10704506952E+00  0.10245387686E+01  0.93800000000E+00 0. -1.
         22    1    1    2    0    0  0.76605453715E-01  0.26403504381E+00  0.28181197627E+01  0.28314981718E+01  0.00000000000E+00 0.  1.
</event>
<event>
 5    1  0.6207202E+001  0.1586193E+01  0.7818608E-02  0.3368487E+00
         11   -1    0    0    0    0  0.00000000000E+00  0.00000000000E+00  0.39999999674E+01  0.40000000000E+01  0.51100000000E-03 0.  1.
    9000002   -1    0    0    0    0 -0.00000000000E+00 -0.00000000000E+00  0.00000000000E+00  0.93800000000E+00  0.93800000000E+00 0.  1.
         11    1    1    2    0    0  0.62055077650E-01 -0.18516072138E-01  0.67960121137E+00  0.68267982627E+00  0.51100000000E-03 0.  1.
    9000002    1    1    2    0    0  0.21791920418E+00 -0.94850426223E-01  0.47810235783E-01  0.96882155300E+00  0.93800000000E+00 0.  1.
         22    1    1    2    0    0 -0.27997428183E+00  0.11336649836E+00  0.32725885202E+01  0.32864986207E+01  0.00000000000E+00 0.  1.
</event>
<event>
 5    1  0.6172503E+001  0.1599677E+01  0.7818608E-02  0.3353714E+00
         11   -1    0    0    0    0  0.00000000000E+00  0.00000000000E+00  0.39999999674E+01  0.40000000000E+01  0.51100000000E-03 0. -1.
    9000002   -1    0    0    0    0 -0.00000000000E+00 -0.00000000000E+00  0.00000000000E+00  0.93800000000E+00  0.93800000000E+00 0.  1.
         11    1    1    2    0    0 -0.12107925971E+00 -0.61668813935E-01  0.14404589577E+01  0.14468536552E+01  0.51100000000E-03 0. -1.
    9000002    1    1    2    0    0  0.32682024267E+00  0.16721442101E+00  0.90541788616E-01  0.10113426467E+01  0.93800000000E+00 0.  1.
         22    1    1    2    0    0 -0.20574098296E+00 -0.10554560708E+00  0.24689992211E+01  0.24798036981E+01  0.00000000000E+00 0. -1.
</event>
<event>
 5    1  0.6172503E+001  0.1483278E+01  0.7818608E-02  0.3490684E+00
         11   -1    0    0    0    0  0.00000000000E+00  0.00000000000E+00  0.39999999674E+01  0.40000000000E+01  0.51100000000E-03 0. -1.
    9000002   -1    0    0    0    0 -0.00000000000E+00 -0.00000000000E+00  0.00000000000E+00  0.93800000000E+00  0.93800000000E+00 0.  1.
         11    1    1    2    0    0 -0.30140374648E+00 -0.49426567360E-01  0.98705283199E+00  0.10332283185E+01  0.51100000000E-03 0. -1.
    9000002    1    1    2    0    0 -0.22465069987E+00  0.16225645391E+00  0.14736330266E+00  0.98911831282E+00  0.93800000000E+00 0.  1.
         22    1    1    2    0    0  0.52605444635E+00 -0.11282988655E+00  0.28655838327E+01  0.29156533686E+01  0.00000000000E+00 0. -1.
</event>
<event>
 5    1  0.6172503E+001  0.1599677E+01  0.7818608E-02  0.3353714E+00
         11   -1    0    0    0    0  0.00000000000E+00  0.00000000000E+00  0.39999999674E+01  0.40000000000E+01  0.51100000000E-03 0.  1.
    9000002   -1    0    0    0    0 -0.00000000000E+00 -0.00000000000E+00  0.00000000000E+00  0.93800000000E+00  0.93800000000E+00 0.  1.
         11    1    1    2    0    0 -0.62563227303E-01  0.54873998179E-01  0.86149927546E+00  0.86550943139E+00  0.51100000000E-03 0.  1.
    9000002    1    1    2    0    0  0.28320103910E+00 -0.25057094264E+00  0.96187104474E-01  0.10159156387E+01  0.93800000000E+00 0.  1.
         22    1    1    2    0    0 -0.22063781179E+00  0.19569694446E+00  0.30423135874E+01  0.30565749299E+01  0.00000000000E+00 0.  1.
</event>
<event>
 5    1  0.6172503E+001  0.1526847E+01  0.7818608E-02  0.3436800E+00
         11   -1    0    0    0    0  0.00000000000E+00  0.00000000000E+00  0.39999999674E+01  0.40000000000E+01  0.51100000000E-03 0.  1.
    9000002   -1    0    0    0    0 -0.00000000000E+00 -0.00000000000E+00  0.00000000000E+00  0.93800000000E+00  0.93800000000E+00 0.  1.
         11    1    1    2    0    0 -0.20449865536E-01  0.27862644396E+00  0.37226993838E+00  0.46544179057E+00  0.51100000000E-03 0.  1.
    9000002    1    1    2    0    0 -0.27502237232E-02 -0.64587866246E+00  0.37490506495E+00  0.11989848281E+01  0.93800000000E+00 0.  1.
         22    1    1    2    0    0  0.23200089259E-01  0.36725221850E+00  0.32528249640E+01  0.32735733813E+01  0.00000000000E+00 0.  1.
</event>
<event>
 5    1  0.6172503E+001  0.1599677E+01  0.7818608E-02  0.3353714E+00
         11   -1    0    0    0    0  0.00000000000E+00  0.00000000000E+00  0.39999999674E+01  0.40000000000E+01  0.51100000000E-03 0.  1.
    9000002   -1    0    0    0    0 -0.00000000000E+00 -0.00000000000E+00  0.00000000000E+00  0.93800000000E+00  0.93800000000E+00 0.  1.
         11    1    1    2    0    0  0.13409504032E+00  0.72165810844E-01  0.13529784363E+01  0.13615213161E+01  0.51100000000E-03 0.  1.
    9000002    1    1    2    0    0 -0.38460682172E+00 -0.20540912513E+00  0.12886251860E+00  0.10423842212E+01  0.93800000000E+00 0.  1.
         22    1    1    2    0    0  0.25051178140E+00  0.13324331429E+00  0.25181590125E+01  0.25340944626E+01  0.00000000000E+00 0. -1.
</event>
<event>
 5    1  0.6172503E+001  0.1599310E+01  0.7818608E-02  0.3354113E+00
         11   -1    0    0    0    0  0.00000000000E+00  0.00000000000E+00  0.39999999674E+01  0.40000000000E+01  0.51100000000E-03 0. -1.
    9000002   -1    0    0    0    0 -0.00000000000E+00 -0.00000000000E+00  0.00000000000E+00  0.93800000000E+00  0.93800000000E+00 0. -1.
         11    1    1    2    0    0 -0.23277309136E-01 -0.95808883343E-01  0.11364679021E+01  0.11407369236E+01  0.51100000000E-03 0. -1.
    9000002    1    1    2    0    0  0.71640332586E-01  0.39943469923E+00  0.11147047594E+00  0.10280807766E+01  0.93800000000E+00 0. -1.
         22    1    1    2    0    0 -0.48363023449E-01 -0.30362581588E+00  0.27520615893E+01  0.27691822998E+01  0.00000000000E+00 0. -1.
</event>
<event>
 5    1  0.6172503E+001  0.1599664E+01  0.7818608E-02  0.3353728E+00
         11   -1    0    0    0    0  0.00000000000E+00  0.00000000000E+00  0.39999999674E+01  0.40000000000E+01  0.51100000000E-03 0. -1.
    9000002   -1    0    0    0    0 -0.00000000000E+00 -0.00000000000E+00  0.00000000000E+00  0.93800000000E+00  0.93800000000E+00 0. -1.
         11    1    1    2    0    0 -0.12237220180E-01 -0.66591109989E-01  0.63805751221E+00  0.64163991108E+00  0.51100000000E-03 0. -1.
    9000002    1    1    2    0    0  0.55420837110E-01  0.40622780526E+00  0.11353988214E+00  0.10299649527E+01  0.93800000000E+00 0. -1.
         22    1    1    2    0    0 -0.43183616930E-01 -0.33963669527E+00  0.32484025730E+01  0.32663951362E+01  0.00000000000E+00 0. -1.
</event>
<event>
 5    1  0.6172503E+001  0.1598659E+01  0.7818608E-02  0.3354820E+00
         11   -1    0    0    0    0  0.00000000000E+00  0.00000000000E+00  0.39999999674E+01  0.40000000000E+01  0.51100000000E-03 0. -1.
    9000002   -1    0    0    0    0 -0.00000000000E+00 -0.00000000000E+00  0.00000000000E+00  0.93800000000E+00  0.93800000000E+00 0.  1.
         11    1    1    2    0    0  0.50866208292E-01  0.60704005250E-01  0.58771305329E+00  0.59302549821E+00  0.51100000000E-03 0. -1.
    9000002    1    1    2    0    0 -0.38074292803E+00 -0.22379548725E+00  0.13318694299E+00  0.10452905621E+01  0.93800000000E+00 0.  1.
         22    1    1    2    0    0  0.32987671974E+00  0.16309148200E+00  0.32790999711E+01  0.32996839397E+01  0.00000000000E+00 0. -1.
</event>
<event>
 5    1  0.6172503E+001  0.1599665E+01  0.7818608E-02  0.3353727E+00
         11   -1    0    0    0    0  0.00000000000E+00  0.00000000000E+00  0.39999999674E+01  0.40000000000E+01  0.51100000000E-03 0. -1.
    9000002   -1    0    0    0    0 -0.00000000000E+00 -0.00000000000E+00  0.00000000000E+00  0.93800000000E+00  0.93800000000E+00 0.  1.
         11    1    1    2    0    0 -0.50694858652E-01  0.11995648840E+00  0.12777160897E+01  0.12843357018E+01  0.51100000000E-03 0. -1.
    9000002    1    1    2    0    0  0.14256235779E+00 -0.36616927280E+00  0.10406530204E+00  0.10222903449E+01  0.93800000000E+00 0.  1.
         22    1    1    2    0    0 -0.91867499133E-01  0.24621278440E+00  0.26182185756E+01  0.26313739533E+01  0.00000000000E+00 0. -1.
</event>
<event>
 5    1  0.6172503E+001  0.1598719E+01  0.7818608E-02  0.3354755E+00
         11   -1    0    0    0    0  0.00000000000E+00  0.00000000000E+00  0.39999999674E+01  0.40000000000E+01  0.51100000000E-03 0. -1.
    9000002   -1    0    0    0    0 -0.00000000000E+00 -0.00000000000E+00  0.00000000000E+00  0.93800000000E+00  0.93800000000E+00 0. -1.
         11    1    1    2    0    0 -0.47290948672E-01 -0.34410292216E-01  0.37555211998E+00  0.38007914699E+00  0.51100000000E-03 0. -1.
    9000002    1    1    2    0    0  0.33313159752E+00  0.19050544710E+00  0.99922326118E-01  0.10183798201E+01  0.93800000000E+00 0. -1.
         22    1    1    2    0    0 -0.28584064885E+00 -0.15609515489E+00  0.35245255213E+01  0.35395410330E+01  0.00000000000E+00 0. -1.
</event>
<event>
 5    1  0.6172503E+001  0.1579012E+01  0.7818608E-02  0.3376463E+00
         11   -1    0    0    0    0  0.00000000000E+00  0.00000000000E+00  0.39999999674E+01  0.40000000000E+01  0.51100000000E-03 0.  1.
    9000002   -1    0    0    0    0 -0.00000000000E+00 -0.00000000000E+00  0.00000000000E+00  0.93800000000E+00  0.93800000000E+00 0. -1.
         11    1    1    2    0    0  0.18108946648E-01  0.11150236581E+00  0.87516602271E+00  0.88242650683E+00  0.51100000000E-03 0.  1.
    9000002    1    1    2    0    0 -0.26185882650E+00  0.11992754484E+00  0.71530863368E-01  0.98382586134E+00  0.93800000000E+00 0. -1.
         22    1    1    2    0    0  0.24374987986E+00 -0.23142991066E+00  0.30533030813E+01  0.30717476318E+01  0.00000000000E+00 0.  1.
</event>
<event>
 5    1  0.6172503E+001  0.1592901E+01  0.7818608E-02  0.3361105E+00
         11   -1    0    0    0    0  0.00000000000E+00  0.00000000000E+00  0.39999999674E+01  0.40000000000E+01  0.51100000000E-03 0.  1.
    9000002   -1    0    0    0    0 -0.00000000000E+00 -0.00000000000E+00  0.00000000000E+00  0.93800000000E+00  0.93800000000E+00 0. -1.
         11    1    1    2    0    0  0.16683721448E-01  0.57979761931E-01  0.29944981348E+00  0.30546759447E+00  0.51100000000E-03 0.  1.
    9000002    1    1    2    0    0  0.27415124927E+00 -0.27152149386E+00  0.10585042751E+00  0.10197701418E+01  0.93800000000E+00 0. -1.
         22    1    1    2    0    0 -0.29083497071E+00  0.21354173193E+00  0.35946997264E+01  0.36127622637E+01  0.00000000000E+00 0.  1.
</event>
<event>
 5    1  0.6172503E+001  0.1599229E+01  0.7818608E-02  0.3354201E+00
         11   -1    0    0    0    0  0.00000000000E+00  0.00000000000E+00  0.39999999674E+01  0.40000000000E+01  0.51100000000E-03 0. -1.
    9000002   -1    0    0    0    0 -0.00000000000E+00 -0.00000000000E+00  0.00000000000E+00  0.93800000000E+00  0.93800000000E+00 0.  1.
         11    1    1    2    0    0 -0.66854022826E-02 -0.37857703723E-01  0.30020726354E+00  0.30265915241E+00  0.51100000000E-03 0. -1.
    9000002    1    1    2    0    0  0.19785216449E+00  0.35352522836E+00  0.11115381203E+00  0.10277765983E+01  0.93800000000E+00 0.  1.
         22    1    1    2    0    0 -0.19116676220E+00 -0.31566752464E+00  0.35886388918E+01  0.36075642493E+01  0.00000000000E+00 0. -1.
</event>
<event>
 5    1  0.6172503E+001  0.1598634E+01  0.7818608E-02  0.3354847E+00
         11   -1    0    0    0    0  0.00000000000E+00  0.00000000000E+00  0.39999999674E+01  0.40000000000E+01  0.51100000000E-03 0. -1.
    9000002   -1    0    0    0    0 -0.00000000000E+00 -0.00000000000E+00  0.00000000000E+00  0.93800000000E+00  0.93800000000E+00 0. -1.
         11    1    1    2    0    0  0.61711366077E-01  0.49247728745E-01  0.59132546306E+00  0.59657329464E+00  0.51100000000E-03 0. -1.
    9000002    1    1    2    0    0 -0.34944062778E+00 -0.48742718464E+00  0.25198117975E+00  0.11415045018E+01  0.93800000000E+00 0. -1.
         22    1    1    2    0    0  0.28772926171E+00  0.43817945590E+00  0.31566933245E+01  0.31999222036E+01  0.00000000000E+00 0. -1.
</event>
<event>
 5    1  0.6172503E+001  0.1599550E+01  0.7818608E-02  0.3353852E+00
         11   -1    0    0    0    0  0.00000000000E+00  0.00000000000E+00  0.39999999674E+01  0.40000000000E+01  0.51100000000E-03 0.  1.
    9000002   -1    0    0    0    0 -0.00000000000E+00 -0.00000000000E+00  0.00000000000E+00  0.93800000000E+00  0.93800000000E+00 0. -1.
         11    1    1    2    0    0 -0.11448877148E+00 -0.12581604942E+00  0.10733365349E+01  0.10867331482E+01  0.51100000000E-03 0.  1.
    9000002    1    1    2    0    0  0.38392443617E+00  0.40475285351E+00  0.21540769237E+00  0.11124150840E+01  0.93800000000E+00 0. -1.
         22    1    1    2    0    0 -0.26943566469E+00 -0.27893680409E+00  0.27112557400E+01  0.27388517678E+01  0.00000000000E+00 0.  1.
</event>
<event>
 5    1  0.6172503E+001  0.1567381E+01  0.7818608E-02  0.3389546E+00
         11   -1    0    0    0    0  0.00000000000E+00  0.00000000000E+00  0.39999999674E+01  0.40000000000E+01  0.51100000000E-03 0.  1.
    9000002   -1    0    0    0    0 -0.00000000000E+00 -0.00000000000E+00  0.00000000000E+00  0.93800000000E+00  0.93800000000E+00 0. -1.
         11    1    1    2    0    0  0.88814887235E-01 -0.50064199531E-01  0.36577301284E+00  0.37971656049E+00  0.51100000000E-03 0.  1.
    9000002    1    1    2    0    0  0.32590476115E+00  0.87093016086E-01  0.10247202892E+00  0.10020696700E+01  0.93800000000E+00 0. -1.
         22    1    1    2    0    0 -0.41471964839E+00 -0.37028816555E-01  0.35317549256E+01  0.35562137695E+01  0.00000000000E+00 0.  1.
</event>
<event>
 5    1  0.7067562E+001  0.1599672E+01  0.7818608E-02  0.3353720E+00
         11   -1    0    0    0    0  0.00000000000E+00  0.00000000000E+00  0.39999999674E+01  0.40000000000E+01  0.51100000000E-03 0.  1.
    9000002   -1    0    0    0    0 -0.00000000000E+00 -0.00000000000E+00  0.00000000000E+00  0.93800000000E+00  0.93800000000E+00 0. -1.
         11    1    1    2    0    0 -0.13580807175E+00  0.21259857780E-01  0.14142784457E+01  0.14209432068E+01  0.51100000000E-03 0.  1.
    9000002    1    1    2    0    0  0.37324013606E+00 -0.65951526837E-01  0.96651790582E-01  0.10162890198E+01  0.93800000000E+00 0. -1.
         22    1    1    2    0    0 -0.23743206431E+00  0.44691669056E-01  0.24890697311E+01  0.25007677735E+01  0.00000000000E+00 0.  1.
</event>
<event>
 5    1  0.6172503E+001  0.1599668E+01  0.7818608E-02  0.3353724E+00
         11   -1    0    0    0    0  0.00000000000E+00  0.00000000000E+00  0.39999999674E+01  0.40000000000E+01  0.51100000000E-03 0. -1.
    9000002   -1    0    0    0    0 -0.00000000000E+00 -0.00000000000E+00  0.00000000000E+00  0.93800000000E+00  0.93800000000E+00 0. -1.
         11    1    1    2    0    0  0.20279730572E-01 -0.63538110905E-01  0.53378550198E+00  0.53793641098E+00  0.51100000000E-03 0. -1.
    9000002    1    1    2    0    0 -0.13447639392E+00  0.44540743281E+00  0.14737007457E+00  0.10573710894E+01  0.93800000000E+00 0. -1.
         22    1    1    2    0    0  0.11419666334E+00 -0.38186932190E+00  0.33188443908E+01  0.33426924997E+01  0.00000000000E+00 0. -1.
</event>
<event>
 5    1  0.6172503E+001  0.1595263E+01  0.7818608E-02  0.3358521E+00
         11   -1    0    0    0    0  0.00000000000E+00  0.00000000000E+00  0.39999999674E+01  0.40000000000E+01  0.51100000000E-03 0. -1.
    9000002   -1    0    0    0    0 -0.00000000000E+00 -0.00000000000E+00  0.00000000000E+00  0.93800000000E+00  0.93800000000E+00 0. -1.
         11    1    1    2    0    0 -0.30750831825E-01 -0.61668964027E-01  0.12875562575E+01  0.12893991050E+01  0.51100000000E-03 0. -1.
    9000002    1    1    2    0    0  0.31741320993E+00  0.22741199920E+00  0.10637602312E+00  0.10215807464E+01  0.93800000000E+00 0. -1.
         22    1    1    2    0    0 -0.28666237810E+00 -0.16574303518E+00  0.26060676868E+01  0.26270201485E+01  0.00000000000E+00 0. -1.
</event>
<event>
 5    1  0.6172503E+001  0.1584754E+01  0.7818608E-02  0.3370079E+00
         11   -1    0    0    0    0  0.00000000000E+00  0.00000000000E+00  0.39999999674E+01  0.40000000000E+01  0.51100000000E-03 0.  1.
    9000002   -1    0    0    0    0 -0.00000000000E+00 -0.00000000000E+00  0.00000000000E+00  0.93800000000E+00  0.93800000000E+00 0.  1.
         11    1    1    2    0    0  0.51654216260E-01 -0.77322597170E-01  0.81159972191E+00  0.81690961056E+00  0.51100000000E-03 0.  1.
    9000002    1    1    2    0    0  0.32295331512E+00  0.33917409817E+00  0.16258466393E+00  0.10609503690E+01  0.93800000000E+00 0.  1.
         22    1    1    2    0    0 -0.37460753138E+00 -0.26185150100E+00  0.30258155815E+01  0.30601400204E+01  0.00000000000E+00 0.  1.
</event>
<event>
 5    1  0.6172503E+001  0.1591030E+01  0.7818608E-02  0.3363157E+00
         11   -1    0    0    0    0  0.00000000000E+00  0.00000000000E+00  0.39999999674E+01  0.40000000000E+01  0.51100000000E-03 0.  1.
    9000002   -1    0    0    0    0 -0.00000000000E+00 -0.00000000000E+00  0.00000000000E+00  0.93800000000E+00  0.93800000000E+00 0. -1.
         11    1    1    2    0    0  0.62041101964E-01 -0.29690259328E-01  0.11125114810E+01  0.11146356653E+01  0.51100000000E-03 0.  1.
    9000002    1    1    2    0    0 -0.31053227181E+00 -0.23764688749E+00  0.11020624658E+00  0.10222014243E+01  0.93800000000E+00 0. -1.
         22    1    1    2    0    0  0.24849116984E+00  0.26733714681E+00  0.27772822398E+01  0.28011629105E+01  0.00000000000E+00 0.  1.
</event>
<event>
 5    1  0.6172503E+001  0.1588932E+01  0.7818608E-02  0.3365464E+00
         11   -1    0    0    0    0  0.00000000000E+00  0.00000000000E+00  0.39999999674E+01  0.40000000000E+01  0.51100000000E-03 0.  1.
    9000002   -1    0    0    0    0 -0.00000000000E+00 -0.00000000000E+00  0.00000000000E+00  0.93800000000E+00  0.93800000000E+00 0. -1.
         11    1    1    2    0    0 -0.18177049951E+00  0.52793773312E-01  0.14155909979E+01  0.14281897043E+01  0.51100000000E-03 0.  1.
    9000002    1    1    2    0    0  0.23220041605E+00 -0.33864544788E+00  0.12294315388E+00  0.10312888983E+01  0.93800000000E+00 0. -1.
         22    1    1    2    0    0 -0.50429916537E-01  0.28585167457E+00  0.24614658156E+01  0.24785213974E+01  0.00000000000E+00 0.  1.
</event>
<event>
 5    1  0.6172503E+001  0.1527845E+01  0.7818608E-02  0.3435605E+00
         11   -1    0    0    0    0  0.00000000000E+00  0.00000000000E+00  0.39999999674E+01  0.40000000000E+01  0.51100000000E-03 0.  1.
    9000002   -1    0    0    0    0 -0.00000000000E+00 -0.00000000000E+00  0.00000000000E+00  0.93800000000E+00  0.93800000000E+00 0.  1.
         11    1    1    2    0    0 -0.29453523882E+00 -0.12186086867E+00  0.11593347844E+01  0.12023553891E+01  0.51100000000E-03 0.  1.
    9000002    1    1    2    0    0  0.32973785693E-01  0.14808372222E+00  0.70246613981E-01  0.95278258071E+00  0.93800000000E+00 0.  1.
         22    1    1    2    0    0  0.26156145313E+00 -0.26222853553E-01  0.27704185690E+01  0.27828620302E+01  0.00000000000E+00 0.  1.
</event>
<event>
 5    1  0.6172503E+001  0.1599668E+01  0.7818608E-02  0.3353724E+00
         11   -1    0    0    0    0  0.00000000000E+00  0.00000000000E+00  0.39999999674E+01  0.40000000000E+01  0.51100000000E-03 0. -1.
    9000002   -1    0    0    0    0 -0.00000000000E+00 -0.00000000000E+00  0.00000000000E+00  0.93800000000E+00  0.93800000000E+00 0. -1.
         11    1    1    2    0    0  0.13679331714E-01  0.66264370118E-02  0.13475411794E+00  0.13560961325E+00  0.51100000000E-03 0. -1.
    9000002    1    1    2    0    0 -0.36222677945E+00 -0.17574502791E+00  0.10938047535E+00  0.10265976052E+01  0.93800000000E+00 0. -1.
         22    1    1    2    0    0  0.34854744774E+00  0.16911859090E+00  0.37558653741E+01  0.37757927816E+01  0.00000000000E+00 0. -1.
</event>
<event>
 5    1  0.6172503E+001  0.1591994E+01  0.7818608E-02  0.3362099E+00
         11   -1    0    0    0    0  0.00000000000E+00  0.00000000000E+00  0.39999999674E+01  0.40000000000E+01  0.51100000000E-03 0. -1.
    9000002   -1    0    0    0    0 -0.00000000000E+00 -0.00000000000E+00  0.00000000000E+00  0.93800000000E+00  0.93800000000E+00 0.  1.
         11    1    1    2    0    0 -0.36747555797E-02  0.71882744921E-01  0.97925396702E+00  0.98189573066E+00  0.51100000000E-03 0. -1.
    9000002    1    1    2    0    0  0.37466536974E+00 -0.24469554619E+00  0.14260896815E+00  0.10490144744E+01  0.93800000000E+00 0.  1.
         22    1    1    2    0    0 -0.37099061416E+00  0.17281280126E+00  0.28781370322E+01  0.29070897950E+01  0.00000000000E+00 0. -1.
</event>
<event>
 5    1  0.6172503E+001  0.1599665E+01  0.7818608E-02  0.3353727E+00
         11   -1    0    0    0    0  0.00000000000E+00  0.00000000000E+00  0.39999999674E+01  0.40000000000E+01  0.51100000000E-03 0.  1.
    9000002   -1    0    0    0    0 -0.00000000000E+00 -0.00000000000E+00  0.00000000000E+00  0.93800000000E+00  0.93800000000E+00 0. -1.
         11    1    1    2    0    0  0.41437463818E-01 -0.48012301102E-01  0.44225484649E+00  0.44677942525E+00  0.51100000000E-03 0.  1.
    9000002    1    1    2    0    0 -0.37655054522E+00  0.41440576464E+00  0.21697486241E+00  0.11137524598E+01  0.93800000000E+00 0. -1.
         22    1    1    2    0    0  0.33511308140E+00 -0.36639346353E+00  0.33407702585E+01  0.33774681149E+01  0.00000000000E+00 0.  1.
</event>
<event>
 5    1  0.6172503E+001  0.1598752E+01  0.7818608E-02  0.3354719E+00
         11   -1    0    0    0    0  0.00000000000E+00  0.00000000000E+00  0.39999999674E+01  0.40000000000E+01  0.51100000000E-03 0.  1.
    9000002   -1    0    0    0    0 -0.00000000000E+00 -0.00000000000E+00  0.00000000000E+00  0.93800000000E+00  0.93800000000E+00 0.  1.
         11    1    1    2    0    0  0.68420050702E-01 -0.37768167063E-01  0.96819825342E+00  0.97134744392E+00  0.51100000000E-03 0.  1.
    9000002    1    1    2    0    0 -0.26726677080E+00  0.27932526237E+00  0.10140256290E+00  0.10195982585E+01  0.93800000000E+00 0.  1.
         22    1    1    2    0    0  0.19884672010E+00 -0.24155709531E+00  0.29303991510E+01  0.29470542976E+01  0.00000000000E+00 0.  1.
</event>
<event>
 5    1  0.6172503E+001  0.1451460E+01  0.7818608E-02  0.3532250E+00
         11   -1    0    0    0    0  0.00000000000E+00  0.00000000000E+00  0.39999999674E+01  0.40000000000E+01  0.51100000000E-03 0. -1.
    9000002   -1    0    0    0    0 -0.00000000000E+00 -0.00000000000E+00  0.00000000000E+00  0.93800000000E+00  0.93800000000E+00 0. -1.
         11    1    1    2    0    0 -0.11409704600E+00  0.16222254772E+00  0.13469296849E+00  0.23974308702E+00  0.51100000000E-03 0. -1.
    9000002    1    1    2    0    0  0.53160927401E+00  0.52447422773E+00  0.61001669964E+00  0.13452308388E+01  0.93800000000E+00 0. -1.
         22    1    1    2    0    0 -0.41751222801E+00 -0.68669677545E+00  0.32552902992E+01  0.33530260742E+01  0.00000000000E+00 0. -1.
</event>
<event>
 5    1  0.6722962E+001  0.1599565E+01  0.7818608E-02  0.3353836E+00
         11   -1    0    0    0    0  0.00000000000E+00  0.00000000000E+00  0.39999999674E+01  0.40000000000E+01  0.51100000000E-03 0.  1.
    9000002   -1    0    0    0    0 -0.00000000000E+00 -0.00000000000E+00  0.00000000000E+00  0.93800000000E+00  0.93800000000E+00 0. -1.
         11    1    1    2    0    0 -0.46695745926E-01 -0.12348719413E+00  0.14422847665E+01  0.14483146028E+01  0.51100000000E-03 0.  1.
    9000002    1    1    2    0    0  0.15767006511E+00  0.34573112192E+00  0.97243338718E-01  0.10167055252E+01  0.93800000000E+00 0. -1.
         22    1    1    2    0    0 -0.11097431919E+00 -0.22224392779E+00  0.24604718621E+01  0.24729798720E+01  0.00000000000E+00 0.  1.
</event>
<event>
 5    1  0.6172503E+001  0.1599591E+01  0.7818608E-02  0.3353808E+00
         11   -1    0    0    0    0  0.00000000000E+00  0.00000000000E+00  0.39999999674E+01  0.40000000000E+01  0.51100000000E-03 0.  1.
    9000002   -1    0    0    0    0 -0.00000000000E+00 -0.00000000000E+00  0.00000000000E+00  0.93800000000E+00  0.93800000000E+00 0.  1.
         11    1    1    2    0    0  0.43486734821E-01  0.21903945928E-01  0.43431125461E+00  0.43703249988E+00  0.51100000000E-03 0.  1.
    9000002    1    1    2    0    0 -0.35391395507E+00 -0.14526950067E+00  0.98577293906E-01  0.10178014533E+01  0.93800000000E+00 0.  1.
         22    1    1    2    0    0  0.31042722025E+00  0.12336555474E+00  0.34671114188E+01  0.34831660468E+01  0.00000000000E+00 0.  1.
</event>
<event>
 5    1  0.6172503E+001  0.1599606E+01  0.7818608E-02  0.3353791E+00
         11   -1    0    0    0    0  0.00000000000E+00  0.00000000000E+00  0.39999999674E+01  0.40000000000E+01  0.51100000000E-03 0.  1.
    9000002   -1    0    0    0    0 -0.00000000000E+00 -0.00000000000E+00  0.00000000000E+00  0.93800000000E+00  0.93800000000E+00 0.  1.
         11    1    1    2    0    0 -0.17698914351E+00  0.15123031848E+00  0.11395469901E+01  0.11630835610E+01  0.51100000000E-03 0.  1.
    9000002    1    1    2    0    0  0.55701604711E+00 -0.45226797135E+00  0.36977699885E+00  0.12374943327E+01  0.93800000000E+00 0.  1.
         22    1    1    2    0    0 -0.38002690360E+00  0.30103765287E+00  0.24906759784E+01  0.25374221063E+01  0.00000000000E+00 0.  1.
</event>
<event>
 5    1  0.6172503E+001  0.1599675E+01  0.7818608E-02  0.3353716E+00
         11   -1    0    0    0    0  0.00000000000E+00  0.00000000000E+00  0.39999999674E+01  0.40000000000E+01  0.51100000000E-03 0.  1.
    9000002   -1    0    0    0    0 -0.00000000000E+00 -0.00000000000E+00  0.00000000000E+00  0.93800000000E+00  0.93800000000E+00 0. -1.
         11    1    1    2    0    0  0.98824768040E-01 -0.67140941419E-01  0.11180611920E+01  0.11244266677E+01  0.51100000000E-03 0.  1.
    9000002    1    1    2    0    0 -0.34794922191E+00  0.23168380394E+00  0.11815144147E+00  0.10337068294E+01  0.93800000000E+00 0. -1.
         22    1    1    2    0    0  0.24912445387E+00 -0.16454286252E+00  0.27637873339E+01  0.27798665029E+01  0.00000000000E+00 0.  1.
</event>
<event>
 5    1  0.6172503E+001  0.1599007E+01  0.7818608E-02  0.3354442E+00
         11   -1    0    0    0    0  0.00000000000E+00  0.00000000000E+00  0.39999999674E+01  0.40000000000E+01  0.51100000000E-03 0.  1.
    9000002   -1    0    0    0    0 -0.00000000000E+00 -0.00000000000E+00  0.00000000000E+00  0.93800000000E+00  0.93800000000E+00 0.  1.
         11    1    1    2    0    0 -0.12187902819E-01  0.12639323250E+00  0.12101529524E+01  0.12167967059E+01  0.51100000000E-03 0.  1.
    9000002    1    1    2    0    0 -0.43404074405E-01 -0.36565498156E+00  0.91646702129E-01  0.10118451449E+01  0.93800000000E+00 0.  1.
         22    1    1    2    0    0  0.55591977225E-01  0.23926174906E+00  0.26982003128E+01  0.27093581492E+01  0.00000000000E+00 0.  1.
</event>
<event>
 5    1  0.6172503E+001  0.1599672E+01  0.7818608E-02  0.3353720E+00
         11   -1    0    0    0    0  0.00000000000E+00  0.00000000000E+00  0.39999999674E+01  0.40000000000E+01  0.51100000000E-03 0. -1.
    9000002   -1    0    0    0    0 -0.00000000000E+00 -0.00000000000E+00  0.00000000000E+00  0.93800000000E+00  0.93800000000E+00 0.  1.
         11    1    1    2    0    0 -0.49522540600E-01 -0.39758682573E-01  0.57912364964E+00  0.58259565529E+00  0.51100000000E-03 0. -1.
    9000002    1    1    2    0    0  0.31972549044E+00  0.27166432088E+00  0.11904449419E+00  0.10344280952E+01  0.93800000000E+00 0.  1.
         22    1    1    2    0    0 -0.27020294984E+00 -0.23190563830E+00  0.33018318235E+01  0.33209762495E+01  0.00000000000E+00 0. -1.
</event>
<event>
 5    1  0.6172503E+001  0.1599676E+01  0.7818608E-02  0.3353715E+00
         11   -1    0    0    0    0  0.00000000000E+00  0.00000000000E+00  0.39999999674E+01  0.40000000000E+01  0.51100000000E-03 0. -1.
    9000002   -1    0    0    0    0 -0.00000000000E+00 -0.00000000000E+00  0.00000000000E+00  0.93800000000E+00  0.93800000000E+00 0.  1.
         11    1    1    2    0    0 -0.68359912230E-02  0.16852019032E+00  0.12244234076E+01  0.12359849220E+01  0.51100000000E-03 0. -1.
    9000002    1    1    2    0    0  0.17447250544E-01 -0.52455798959E+00  0.18938601624E+00  0.10914103509E+01  0.93800000000E+00 0.  1.
         22    1    1    2    0    0 -0.10611259321E-01  0.35603779927E+00  0.25861905435E+01  0.26106047270E+01  0.00000000000E+00 0. -1.
</event>
<event>
 5    1  0.6172503E+001  0.1582789E+01  0.7818608E-02  0.3372258E+00
         11   -1    0    0    0    0  0.00000000000E+00  0.00000000000E+00  0.39999999674E+01  0.40000000000E+01  0.51100000000E-03 0.  1.
    9000002   -1    0    0    0    0 -0.00000000000E+00 -0.00000000000E+00  0.00000000000E+00  0.93800000000E+00  0.93800000000E+00 0. -1.
         11    1    1    2    0    0 -0.14842133041E+00 -0.15055031751E-01  0.12366305102E+01  0.12455965740E+01  0.51100000000E-03 0.  1.
    9000002    1    1    2    0    0  0.14700689480E+00  0.37507863889E+00  0.12372801054E+00  0.10283227281E+01  0.93800000000E+00 0. -1.
         22    1    1    2    0    0  0.14144356019E-02 -0.36002360714E+00  0.26396414466E+01  0.26640806979E+01  0.00000000000E+00 0.  1.
</event>
<event>
 5    1  0.6172503E+001  0.1537749E+01  0.7818608E-02  0.3423829E+00
         11   -1    0    0    0    0  0.00000000000E+00  0.00000000000E+00  0.39999999674E+01  0.40000000000E+01  0.51100000000E-03 0.  1.
    9000002   -1    0    0    0    0 -0.00000000000E+00 -0.00000000000E+00  0.00000000000E+00  0.93800000000E+00  0.93800000000E+00 0. -1.
         11    1    1    2    0    0  0.75056650809E-01 -0.25545918820E+00  0.10938737450E+01  0.11258121197E+01  0.51100000000E-03 0.  1.
    9000002    1    1    2    0    0  0.10521856471E+00  0.27962725571E-01  0.54544443740E-01  0.94587100427E+00  0.93800000000E+00 0. -1.
         22    1    1    2    0    0 -0.18027521551E+00  0.22749646263E+00  0.28515817786E+01  0.28663168761E+01  0.00000000000E+00 0.  1.
</event>
<event>
 5    1  0.6172503E+001  0.1599476E+01  0.7818608E-02  0.3353933E+00
         11   -1    0    0    0    0  0.00000000000E+00  0.00000000000E+00  0.39999999674E+01  0.40000000000E+01  0.51100000000E-03 0. -1.
    9000002   -1    0    0    0    0 -0.00000000000E+00 -0.00000000000E+00  0.00000000000E+00  0.93800000000E+00  0.93800000000E+00 0.  1.
         11    1    1    2    0    0 -0.19967642518E+00 -0.37668195016E-01  0.14672045988E+01  0.14812086833E+01  0.51100000000E-03 0. -1.
    9000002    1    1    2    0    0  0.47937066929E+00  0.89737632012E-01  0.16266962049E+00  0.10696515725E+01  0.93800000000E+00 0.  1.
         22    1    1    2    0    0 -0.27969424411E+00 -0.52069436995E-01  0.23701257481E+01  0.23871397441E+01  0.00000000000E+00 0. -1.
</event>
<event>
 5    1  0.6172503E+001  0.1599664E+01  0.7818608E-02  0.3353728E+00
         11   -1    0    0    0    0  0.00000000000E+00  0.00000000000E+00  0.39999999674E+01  0.40000000000E+01  0.51100000000E-03 0. -1.
    9000002   -1    0    0    0    0 -0.00000000000E+00 -0.00000000000E+00  0.00000000000E+00  0.93800000000E+00  0.93800000000E+00 0.  1.
         11    1    1    2    0    0 -0.12582558021E+00 -0.25266244704E-02  0.12426228338E+01  0.12489796750E+01  0.51100000000E-03 0. -1.
    9000002    1    1    2    0    0  0.40242589498E+00 -0.17147910779E-02  0.10928345268E+00  0.10265166411E+01  0.93800000000E+00 0.  1.
         22    1    1    2    0    0 -0.27660031478E+00  0.42414155483E-02  0.26480936809E+01  0.26625036838E+01  0.00000000000E+00 0. -1.
</event>
<event>
 5    1  0.6172503E+001  0.1564195E+01  0.7818608E-02  0.3393166E+00
         11   -1    0    0    0    0  0.00000000000E+00  0.00000000000E+00  0.39999999674E+01  0.40000000000E+01  0.51100000000E-03 0.  1.
    9000002   -1    0    0    0    0 -0.00000000000E+00 -0.00000000000E+00  0.00000000000E+00  0.93800000000E+00  0.93800000000E+00 0. -1.
         11    1    1    2    0    0 -0.14399890740E+00  0.98046374101E-01  0.40311298311E+00  0.43914589270E+00  0.51100000000E-03 0.  1.
    9000002    1    1    2    0    0  0.44382562938E+00  0.55726873070E-01  0.16708984743E+00  0.10525443890E+01  0.93800000000E+00 0. -1.
         22    1    1    2    0    0 -0.29982672198E+00 -0.15377324717E+00  0.34297971368E+01  0.34463097183E+01  0.00000000000E+00 0.  1.
</event>
<event>
 5    1  0.6172503E+001  0.1599595E+01  0.7818608E-02  0.3353803E+00
         11   -1    0    0    0    0  0.00000000000E+00  0.00000000000E+00  0.39999999674E+01  0.40000000000E+01  0.51100000000E-03 0.  1.
    9000002   -1    0    0    0    0 -0.00000000000E+00 -0.00000000000E+00  0.00000000000E+00  0.93800000000E+00  0.93800000000E+00 0. -1.
         11    1    1    2    0    0 -0.16464523706E-01 -0.32657414578E-02  0.10691161705E+00  0.10822245881E+00  0.51100000000E-03 0.  1.
    9000002    1    1    2    0    0  0.47685066159E+00  0.58516968750E-01  0.15757020272E+00  0.10655905207E+01  0.93800000000E+00 0. -1.
         22    1    1    2    0    0 -0.46038613788E+00 -0.55251227293E-01  0.37355181476E+01  0.37641870205E+01  0.00000000000E+00 0.  1.
</event>
<event>
 5    1  0.6172503E+001  0.1599677E+01  0.7818608E-02  0.3353714E+00
         11   -1    0    0    0    0  0.00000000000E+00  0.00000000000E+00  0.39999999674E+01  0.40000000000E+01  0.51100000000E-03 0.  1.
    9000002   -1    0    0    0    0 -0.00000000000E+00 -0.00000000000E+00  0.00000000000E+00  0.93800000000E+00  0.93800000000E+00 0. -1.
         11    1    1    2    0    0  0.13563784967E+00  0.47391825085E-01  0.72152320457E+00  0.73568988521E+00  0.51100000000E-03 0. -1.
    9000002    1    1    2    0    0 -0.67960143721E+00 -0.23943810188E+00  0.37315734545E+00  0.12402738095E+01  0.93800000000E+00 0. -1.
         22    1    1    2    0    0  0.54396358755E+00  0.19204627679E+00  0.29053194173E+01  0.29620363053E+01  0.00000000000E+00 0.  1.
</event>
<event>
 5    1  0.6172503E+001  0.1599644E+01  0.7818608E-02  0.3353750E+00
         11   -1    0    0    0    0  0.00000000000E+00  0.00000000000E+00  0.39999999674E+01  0.40000000000E+01  0.51100000000E-03 0. -1.
    9000002   -1    0    0    0    0 -0.00000000000E+00 -0.00000000000E+00  0.00000000000E+00  0.93800000000E+00  0.93800000000E+00 0. -1.
         11    1    1    2    0    0 -0.19306611745E-01  0.88131029199E-01  0.82628079466E+00  0.83119193710E+00  0.51100000000E-03 0. -1.
    9000002    1    1    2    0    0  0.10701951571E+00 -0.43293081916E+00  0.13502610059E+00  0.10473577797E+01  0.93800000000E+00 0. -1.
         22    1    1    2    0    0 -0.87712903965E-01  0.34479978996E+00  0.30386930721E+01  0.30594502832E+01  0.00000000000E+00 0.  1.
</event>
<event>
 5    1  0.6172503E+001  0.1599662E+01  0.7818608E-02  0.3353730E+00
         11   -1    0    0    0    0  0.00000000000E+00  0.00000000000E+00  0.39999999674E+01  0.40000000000E+01  0.51100000000E-03 0.  1.
    9000002   -1    0    0    0    0 -0.00000000000E+00 -0.00000000000E+00  0.00000000000E+00  0.93800000000E+00  0.93800000000E+00 0. -1.
         11    1    1    2    0    0 -0.20091602106E-01  0.30766011030E-01  0.36349886086E+00  0.36535175226E+00  0.51100000000E-03 0.  1.
    9000002    1    1    2    0    0  0.19668638447E+00 -0.35095833066E+00  0.10922077091E+00  0.10264650313E+01  0.93800000000E+00 0. -1.
         22    1    1    2    0    0 -0.17659478237E+00  0.32019231963E+00  0.35272803356E+01  0.35461832164E+01  0.00000000000E+00 0.  1.
</event>
<event>
 5    1  0.6172503E+001  0.1599620E+01  0.7818608E-02  0.3353775E+00
         11   -1    0    0    0    0  0.00000000000E+00  0.00000000000E+00  0.39999999674E+01  0.40000000000E+01  0.51100000000E-03 0. -1.
    9000002   -1    0    0    0    0 -0.00000000000E+00 -0.00000000000E+00  0.00000000000E+00  0.93800000000E+00  0.93800000000E+00 0. -1.
         11    1    1    2    0    0 -0.89021256511E-01  0.28715898152E-01  0.95185548690E+00  0.95644054493E+00  0.51100000000E-03 0. -1.
    9000002    1    1    2    0    0  0.39217384106E+00 -0.13076354956E+00  0.11552489065E+00  0.10315471040E+01  0.93800000000E+00 0. -1.
         22    1    1    2    0    0 -0.30315258455E+00  0.10204765141E+00  0.29326195898E+01  0.29500123510E+01  0.00000000000E+00 0. -1.
</event>
<event>
 5    1  0.6172503E+001  0.1579510E+01  0.7818608E-02  0.3375907E+00
         11   -1    0    0    0    0  0.00000000000E+00  0.00000000000E+00  0.39999999674E+01  0.40000000000E+01  0.51100000000E-03 0.  1.
    9000002   -1    0    0    0    0 -0.00000000000E+00 -0.00000000000E+00  0.00000000000E+00  0.93800000000E+00  0.93800000000E+00 0. -1.
         11    1    1    2    0    0  0.13616459589E+00  0.33699600141E-01  0.58659789862E+00  0.60313664787E+00  0.51100000000E-03 0.  1.
    9000002    1    1    2    0    0 -0.17895125848E+00 -0.61155171825E+00  0.30686004507E+00  0.11747451401E+01  0.93800000000E+00 0. -1.
         22    1    1    2    0    0  0.42786662588E-01  0.57785211811E+00  0.31065420237E+01  0.31601182120E+01  0.00000000000E+00 0.  1.
</event>
<event>
 5    1  0.6172503E+001  0.1590462E+01  0.7818608E-02  0.3363781E+00
         11   -1    0    0    0    0  0.00000000000E+00  0.00000000000E+00  0.39999999674E+01  0.40000000000E+01  0.51100000000E-03 0. -1.
    9000002   -1    0    0    0    0 -0.00000000000E+00 -0.00000000000E+00  0.00000000000E+00  0.93800000000E+00  0.93800000000E+00 0. -1.
         11    1    1    2    0    0 -0.68355449592E-01  0.12832459898E+00  0.70042315517E+00  0.71535482637E+00  0.51100000000E-03 0. -1.
    9000002    1    1    2    0    0  0.42629276555E+00 -0.21473874678E+00  0.16357601832E+00  0.10651006361E+01  0.93800000000E+00 0. -1.
         22    1    1    2    0    0 -0.35793731596E+00  0.86414147809E-01  0.31360007939E+01  0.31575445375E+01  0.00000000000E+00 0. -1.
</event>
<event>
 5    1  0.6172503E+001  0.1599547E+01  0.7818608E-02  0.3353855E+00
         11   -1    0    0    0    0  0.00000000000E+00  0.00000000000E+00  0.39999999674E+01  0.40000000000E+01  0.51100000000E-03 0. -1.
    9000002   -1    0    0    0    0 -0.00000000000E+00 -0.00000000000E+00  0.00000000000E+00  0.93800000000E+00  0.93800000000E+00 0.  1.
         11    1    1    2    0    0 -0.13681289289E+00 -0.10904735569E-01  0.13102685533E+01  0.13174371423E+01  0.51100000000E-03 0. -1.
    9000002    1    1    2    0    0  0.42368033111E+00  0.65711842328E-01  0.12458052718E+00  0.10388394375E+01  0.93800000000E+00 0.  1.
         22    1    1    2    0    0 -0.28686743823E+00 -0.54807106759E-01  0.25651508869E+01  0.25817234202E+01  0.00000000000E+00 0. -1.
</event>
<event>
 5    1  0.6172503E+001  0.1573893E+01  0.7818608E-02  0.3382196E+00
         11   -1    0    0    0    0  0.00000000000E+00  0.00000000000E+00  0.39999999674E+01  0.40000000000E+01  0.51100000000E-03 0. -1.
    9000002   -1    0    0    0    0 -0.00000000000E+00 -0.00000000000E+00  0.00000000000E+00  0.93800000000E+00  0.93800000000E+00 0. -1.
         11    1    1    2    0    0  0.26976843593E-01  0.89710577999E-01  0.25968199638E+00  0.27606292445E+00  0.51100000000E-03 0. -1.
    9000002    1    1    2    0    0  0.34005381179E+00 -0.88717979708E-01  0.10390577727E+00  0.10070490978E+01  0.93800000000E+00 0. -1.
         22    1    1    2    0    0 -0.36703065538E+00 -0.99259829044E-03  0.36364121937E+01  0.36548879777E+01  0.00000000000E+00 0. -1.
</event>
<event>
 5    1  0.6172503E+001  0.1599588E+01  0.7818608E-02  0.3353811E+00
         11   -1    0    0    0    0  0.00000000000E+00  0.00000000000E+00  0.39999999674E+01  0.40000000000E+01  0.51100000000E-03 0.  1.
    9000002   -1    0    0    0    0 -0.00000000000E+00 -0.00000000000E+00  0.00000000000E+00  0.93800000000E+00  0.93800000000E+00 0.  1.
         11    1    1    2    0    0 -0.72247149375E-01  0.45950134480E-01  0.10512042872E+01  0.10546856309E+01  0.51100000000E-03 0.  1.
    9000002    1    1    2    0    0  0.30682915498E+00 -0.16874748439E+00  0.82291398664E-01  0.10046072457E+01  0.93800000000E+00 0.  1.
         22    1    1    2    0    0 -0.23458200561E+00  0.12279734992E+00  0.28665042815E+01  0.28787071234E+01  0.00000000000E+00 0.  1.
</event>
<event>
 5    1  0.6172503E+001  0.1599172E+01  0.7818608E-02  0.3354263E+00
         11   -1    0    0    0    0  0.00000000000E+00  0.00000000000E+00  0.39999999674E+01  0.40000000000E+01  0.51100000000E-03 0.  1.
    9000002   -1    0    0    0    0 -0.00000000000E+00 -0.00000000000E+00  0.00000000000E+00  0.93800000000E+00  0.93800000000E+00 0.  1.
         11    1    1    2    0    0  0.83199072499E-01  0.70536947657E-01  0.11529388815E+01  0.11580871609E+01  0.51100000000E-03 0.  1.
    9000002    1    1    2    0    0 -0.32276724380E+00 -0.16611744726E+00  0.88895132742E-01  0.10097128525E+01  0.93800000000E+00 0.  1.
         22    1    1    2    0    0  0.23956817130E+00  0.95580499604E-01  0.27581659531E+01  0.27701999865E+01  0.00000000000E+00 0. -1.
</event>
<event>
 5    1  0.6172503E+001  0.1583281E+01  0.7818608E-02  0.3371712E+00
         11   -1    0    0    0    0  0.00000000000E+00  0.00000000000E+00  0.39999999674E+01  0.40000000000E+01  0.51100000000E-03 0.  1.
    9000002   -1    0    0    0    0 -0.00000000000E+00 -0.00000000000E+00  0.00000000000E+00  0.93800000000E+00  0.93800000000E+00 0. -1.
         11    1    1    2    0    0 -0.21512922556E-01 -0.32093965911E-01  0.89456149407E-01  0.97444816550E-01  0.51100000000E-03 0.  1.
    9000002    1    1    2    0    0 -0.20985970984E+00 -0.28219459969E+00  0.96276244412E-01  0.10063736906E+01  0.93800000000E+00 0. -1.
         22    1    1    2    0    0  0.23137263239E+00  0.31428856560E+00  0.38142675735E+01  0.38341814928E+01  0.00000000000E+00 0.  1.
</event>
<event>
 5    1  0.6172503E+001  0.1599676E+01  0.7818608E-02  0.3353715E+00
         11   -1    0    0    0    0  0.00000000000E+00  0.00000000000E+00  0.39999999674E+01  0.40000000000E+01  0.51100000000E-03 0. -1.
    9000002   -1    0    0    0    0 -0.00000000000E+00 -0.00000000000E+00  0.00000000000E+00  0.93800000000E+00  0.93800000000E+00 0. -1.
         11    1    1    2    0    0  0.26040452066E-01  0.20085836700E-01  0.32036250550E+00  0.32204649049E+00  0.51100000000E-03 0.  1.
    9000002    1    1    2    0    0 -0.31129183949E+00 -0.24103427222E+00  0.10446780023E+00  0.10226229271E+01  0.93800000000E+00 0. -1.
         22    1    1    2    0    0  0.28525138742E+00  0.22094843552E+00  0.35751696616E+01  0.35933305824E+01  0.00000000000E+00 0. -1.
</event>
<event>
 5    1  0.6172503E+001  0.1543564E+01  0.7818608E-02  0.3416991E+00
         11   -1    0    0    0    0  0.00000000000E+00  0.00000000000E+00  0.39999999674E+01  0.40000000000E+01  0.51100000000E-03 0. -1.
    9000002   -1    0    0    0    0 -0.00000000000E+00 -0.00000000000E+00  0.00000000000E+00  0.93800000000E+00  0.93800000000E+00 0.  1.
         11    1    1    2    0    0  0.84556299014E-01  0.62943339857E-02  0.51231577812E-01  0.99067260129E-01  0.51100000000E-03 0. -1.
    9000002    1    1    2    0    0 -0.23678374662E+00 -0.54055055134E+00  0.29995842538E+00  0.11480768695E+01  0.93800000000E+00 0.  1.
         22    1    1    2    0    0  0.15222744761E+00  0.53425621735E+00  0.36488099642E+01  0.36908558704E+01  0.00000000000E+00 0. -1.
</event>
<event>
 5    1  0.6172503E+001  0.1545981E+01  0.7818608E-02  0.3414164E+00
         11   -1    0    0    0    0  0.00000000000E+00  0.00000000000E+00  0.39999999674E+01  0.40000000000E+01  0.51100000000E-03 0. -1.
    9000002   -1    0    0    0    0 -0.00000000000E+00 -0.00000000000E+00  0.00000000000E+00  0.93800000000E+00  0.93800000000E+00 0.  1.
         11    1    1    2    0    0 -0.30247230128E+00  0.46815255704E+00  0.10908075088E+01  0.12249561593E+01  0.51100000000E-03 0. -1.
    9000002    1    1    2    0    0  0.45488542345E+00 -0.74008674996E+00  0.65331157439E+00  0.14357260042E+01  0.93800000000E+00 0.  1.
         22    1    1    2    0    0 -0.15241312217E+00  0.27193419292E+00  0.22558808841E+01  0.22773178365E+01  0.00000000000E+00 0. -1.
</event>
<event>
 5    1  0.6172503E+001  0.1597865E+01  0.7818608E-02  0.3355683E+00
         11   -1    0    0    0    0  0.00000000000E+00  0.00000000000E+00  0.39999999674E+01  0.40000000000E+01  0.51100000000E-03 0.  1.
    9000002   -1    0    0    0    0 -0.00000000000E+00 -0.00000000000E+00  0.00000000000E+00  0.93800000000E+00  0.93800000000E+00 0. -1.
         11    1    1    2    0    0 -0.88522656656E-02 -0.33587310180E-01  0.37730358082E+00  0.37889935766E+00  0.51100000000E-03 0.  1.
    9000002    1    1    2    0    0  0.34678625575E+00  0.49901863922E+00  0.25989165302E+00  0.11474615378E+01  0.93800000000E+00 0. -1.
         22    1    1    2    0    0 -0.33793399009E+00 -0.46543132904E+00  0.33628047335E+01  0.34116391045E+01  0.00000000000E+00 0.  1.
</event>
<event>
 5    1  0.6172503E+001  0.1506247E+01  0.7818608E-02  0.3461859E+00
         11   -1    0    0    0    0  0.00000000000E+00  0.00000000000E+00  0.39999999674E+01  0.40000000000E+01  0.51100000000E-03 0. -1.
    9000002   -1    0    0    0    0 -0.00000000000E+00 -0.00000000000E+00  0.00000000000E+00  0.93800000000E+00  0.93800000000E+00 0. -1.
         11    1    1    2    0    0 -0.25188225534E-01 -0.39914675168E+00  0.54516037907E+00  0.67613066497E+00  0.51100000000E-03 0. -1.
    9000002    1    1    2    0    0 -0.29349935631E-01 -0.42723454849E-02  0.17226473856E+00  0.95414821270E+00  0.93800000000E+00 0.  1.
         22    1    1    2    0    0  0.54538161165E-01  0.40341909716E+00  0.32825748497E+01  0.33077211223E+01  0.00000000000E+00 0. -1.
</event>
<event>
 5    1  0.6172503E+001  0.1599292E+01  0.7818608E-02  0.3354132E+00
         11   -1    0    0    0    0  0.00000000000E+00  0.00000000000E+00  0.39999999674E+01  0.40000000000E+01  0.51100000000E-03 0. -1.
    9000002   -1    0    0    0    0 -0.00000000000E+00 -0.00000000000E+00  0.00000000000E+00  0.93800000000E+00  0.93800000000E+00 0.  1.
         11    1    1    2    0    0 -0.17301200377E-02 -0.15016532164E+00  0.11145550063E+01  0.11246269338E+01  0.51100000000E-03 0. -1.
    9000002    1    1    2    0    0 -0.55047137499E-01  0.55119267011E+00  0.21246088892E+00  0.11098770996E+01  0.93800000000E+00 0.  1.
         22    1    1    2    0    0  0.56777257537E-01 -0.40102734847E+00  0.26729840722E+01  0.27034959666E+01  0.00000000000E+00 0. -1.
</event>
<event>
 5    1  0.6172503E+001  0.1599675E+01  0.7818608E-02  0.3353716E+00
         11   -1    0    0    0    0  0.00000000000E+00  0.00000000000E+00  0.39999999674E+01  0.40000000000E+01  0.51100000000E-03 0. -1.
    9000002   -1    0    0    0    0 -0.00000000000E+00 -0.00000000000E+00  0.00000000000E+00  0.93800000000E+00  0.93800000000E+00 0.  1.
         11    1    1    2    0    0 -0.18875010903E-02  0.31965802207E-01  0.24119868388E+00  0.24331551820E+00  0.51100000000E-03 0.  1.
    9000002    1    1    2    0    0  0.23118607649E-01 -0.49894295162E+00  0.17076888162E+00  0.10763292015E+01  0.93800000000E+00 0.  1.
         22    1    1    2    0    0 -0.21231106559E-01  0.46697714941E+00  0.35880324019E+01  0.36183552803E+01  0.00000000000E+00 0. -1.
</event>
<event>
 5    1  0.6172503E+001  0.1599537E+01  0.7818608E-02  0.3353867E+00
         11   -1    0    0    0    0  0.00000000000E+00  0.00000000000E+00  0.39999999674E+01  0.40000000000E+01  0.51100000000E-03 0.  1.
    9000002   -1    0    0    0    0 -0.00000000000E+00 -0.00000000000E+00  0.00000000000E+00  0.93800000000E+00  0.93800000000E+00 0.  1.
         11    1    1    2    0    0  0.10085655980E+00 -0.14101119699E-01  0.61863895929E+00  0.62696515877E+00  0.51100000000E-03 0.  1.
    9000002    1    1    2    0    0 -0.55909887993E+00  0.55409252997E-01  0.21865955399E+00  0.11150415882E+01  0.93800000000E+00 0.  1.
         22    1    1    2    0    0  0.45824232013E+00 -0.41308133299E-01  0.31627014541E+01  0.31959932530E+01  0.00000000000E+00 0.  1.
</event>
<event>
 5    1  0.6172503E+001  0.1597176E+01  0.7818608E-02  0.3356434E+00
         11   -1    0    0    0    0  0.00000000000E+00  0.00000000000E+00  0.39999999674E+01  0.40000000000E+01  0.51100000000E-03 0.  1.
    9000002   -1    0    0    0    0 -0.00000000000E+00 -0.00000000000E+00  0.00000000000E+00  0.93800000000E+00  0.93800000000E+00 0. -1.
         11    1    1    2    0    0  0.10774289219E+00  0.16735081478E+00  0.12088186665E+01  0.12250949578E+01  0.51100000000E-03 0.  1.
    9000002    1    1    2    0    0 -0.41084662683E+00 -0.36439806466E+00  0.21063139601E+00  0.11071542283E+01  0.93800000000E+00 0. -1.
         22    1    1    2    0    0  0.30310373464E+00  0.19704724988E+00  0.25805499048E+01  0.26057508139E+01  0.00000000000E+00 0.  1.
</event>
<event>
 5    1  0.6172503E+001  0.1539146E+01  0.7818608E-02  0.3422181E+00
         11   -1    0    0    0    0  0.00000000000E+00  0.00000000000E+00  0.39999999674E+01  0.40000000000E+01  0.51100000000E-03 0.  1.
    9000002   -1    0    0    0    0 -0.00000000000E+00 -0.00000000000E+00  0.00000000000E+00  0.93800000000E+00  0.93800000000E+00 0.  1.
         11    1    1    2    0    0  0.85404414122E-01 -0.22667148242E+00  0.86905115821E+00  0.90217739476E+00  0.51100000000E-03 0.  1.
    9000002    1    1    2    0    0 -0.21148105247E+00 -0.77698152128E-01  0.80935411895E-01  0.96806806543E+00  0.93800000000E+00 0.  1.
         22    1    1    2    0    0  0.12607663835E+00  0.30436963455E+00  0.30500133973E+01  0.30677545398E+01  0.00000000000E+00 0.  1.
</event>
<event>
 5    1  0.6172503E+001  0.1494586E+01  0.7818608E-02  0.3476374E+00
         11   -1    0    0    0    0  0.00000000000E+00  0.00000000000E+00  0.39999999674E+01  0.40000000000E+01  0.51100000000E-03 0. -1.
    9000002   -1    0    0    0    0 -0.00000000000E+00 -0.00000000000E+00  0.00000000000E+00  0.93800000000E+00  0.93800000000E+00 0.  1.
         11    1    1    2    0    0  0.90201148388E-01  0.30476353937E+00  0.97669843266E+00  0.10271110707E+01  0.51100000000E-03 0. -1.
    9000002    1    1    2    0    0 -0.14285598194E+00  0.12098705937E+00  0.10615962940E+00  0.96237184447E+00  0.93800000000E+00 0.  1.
         22    1    1    2    0    0  0.52654833554E-01 -0.42575059874E+00  0.29171419053E+01  0.29485170848E+01  0.00000000000E+00 0. -1.
</event>
<event>
 5    1  0.6172503E+001  0.1599677E+01  0.7818608E-02  0.3353714E+00
         11   -1    0    0    0    0  0.00000000000E+00  0.00000000000E+00  0.39999999674E+01  0.40000000000E+01  0.51100000000E-03 0. -1.
    9000002   -1    0    0    0    0 -0.00000000000E+00 -0.00000000000E+00  0.00000000000E+00  0.93800000000E+00  0.93800000000E+00 0. -1.
         11    1    1    2    0    0  0.27126021335E-01  0.37244256545E-01  0.46657959611E+00  0.46884937486E+00  0.51100000000E-03 0.  1.
    9000002    1    1    2    0    0 -0.22660178481E+00 -0.31172946297E+00  0.99998587324E-01  0.10190031131E+01  0.93800000000E+00 0. -1.
         22    1    1    2    0    0  0.19947576348E+00  0.27448520643E+00  0.34334217839E+01  0.34501475121E+01  0.00000000000E+00 0. -1.
</event>
<event>
 5    1  0.6172503E+001  0.1599675E+01  0.7818608E-02  0.3353716E+00
         11   -1    0    0    0    0  0.00000000000E+00  0.00000000000E+00  0.39999999674E+01  0.40000000000E+01  0.51100000000E-03 0. -1.
    9000002   -1    0    0    0    0 -0.00000000000E+00 -0.00000000000E+00  0.00000000000E+00  0.93800000000E+00  0.93800000000E+00 0.  1.
         11    1    1    2    0    0  0.15797226951E+00  0.23945045560E-01  0.14639268004E+01  0.14726202977E+01  0.51100000000E-03 0. -1.
    9000002    1    1    2    0    0 -0.41881004894E+00 -0.59248808669E-01  0.12104993564E+00  0.10360547116E+01  0.93800000000E+00 0.  1.
         22    1    1    2    0    0  0.26083777943E+00  0.35303763110E-01  0.24150232313E+01  0.24293249907E+01  0.00000000000E+00 0. -1.
</event>
<event>
 5    1  0.6172503E+001  0.1573857E+01  0.7818608E-02  0.3382236E+00
         11   -1    0    0    0    0  0.00000000000E+00  0.00000000000E+00  0.39999999674E+01  0.40000000000E+01  0.51100000000E-03 0. -1.
    9000002   -1    0    0    0    0 -0.00000000000E+00 -0.00000000000E+00  0.00000000000E+00  0.93800000000E+00  0.93800000000E+00 0. -1.
         11    1    1    2    0    0  0.72342792067E-01  0.40477306461E-01  0.10959242719E+00  0.13741416638E+00  0.51100000000E-03 0. -1.
    9000002    1    1    2    0    0 -0.47963396191E+00 -0.88662832093E-01  0.18591702169E+00  0.10734612122E+01  0.93800000000E+00 0. -1.
         22    1    1    2    0    0  0.40729116984E+00  0.48185525632E-01  0.37044905185E+01  0.37271246214E+01  0.00000000000E+00 0. -1.
</event>
<event>
 5    1  0.6172503E+001  0.1550020E+01  0.7818608E-02  0.3409463E+00
         11   -1    0    0    0    0  0.00000000000E+00  0.00000000000E+00  0.39999999674E+01  0.40000000000E+01  0.51100000000E-03 0. -1.
    9000002   -1    0    0    0    0 -0.00000000000E+00 -0.00000000000E+00  0.00000000000E+00  0.93800000000E+00  0.93800000000E+00 0.  1.
         11    1    1    2    0    0 -0.17157837119E+00 -0.12905656882E+00  0.14570314448E+01  0.14727646206E+01  0.51100000000E-03 0. -1.
    9000002    1    1    2    0    0 -0.14705429036E+00  0.74496871084E-02  0.51873276721E-01  0.95090236039E+00  0.93800000000E+00 0.  1.
         22    1    1    2    0    0  0.31863266155E+00  0.12160688171E+00  0.24910952458E+01  0.25143330190E+01  0.00000000000E+00 0.  1.
</event>
<event>
 5    1  0.6172503E+001  0.1593152E+01  0.7818608E-02  0.3360829E+00
         11   -1    0    0    0    0  0.00000000000E+00  0.00000000000E+00  0.39999999674E+01  0.40000000000E+01  0.51100000000E-03 0. -1.
    9000002   -1    0    0    0    0 -0.00000000000E+00 -0.00000000000E+00  0.00000000000E+00  0.93800000000E+00  0.93800000000E+00 0. -1.
         11    1    1    2    0    0  0.17852680052E+00 -0.82435210376E-01  0.11679047541E+01  0.11843433447E+01  0.51100000000E-03 0. -1.
    9000002    1    1    2    0    0 -0.45731997483E+00  0.72411391622E-02  0.14792786094E+00  0.10540022038E+01  0.93800000000E+00 0. -1.
         22    1    1    2    0    0  0.27879317431E+00  0.75194071214E-01  0.26841673523E+01  0.26996544516E+01  0.00000000000E+00 0. -1.
</event>
<event>
 5    1  0.6172503E+001  0.1583829E+01  0.7818608E-02  0.3371104E+00
         11   -1    0    0    0    0  0.00000000000E+00  0.00000000000E+00  0.39999999674E+01  0.40000000000E+01  0.51100000000E-03 0. -1.
    9000002   -1    0    0    0    0 -0.00000000000E+00 -0.00000000000E+00  0.00000000000E+00  0.93800000000E+00  0.93800000000E+00 0. -1.
         11    1    1    2    0    0  0.29319942860E-01 -0.66249224078E-01  0.34314272052E+00  0.35070757977E+00  0.51100000000E-03 0. -1.
    9000002    1    1    2    0    0  0.31563938233E+00  0.23903315632E-01  0.79572422030E-01  0.99316431597E+00  0.93800000000E+00 0. -1.
         22    1    1    2    0    0 -0.34495932519E+00  0.42345908446E-01  0.35772848248E+01  0.35941281043E+01  0.00000000000E+00 0. -1.
</event>
<event>
 5    1  0.6172503E+001  0.1599677E+01  0.7818608E-02  0.3353714E+00
         11   -1    0    0    0    0  0.00000000000E+00  0.00000000000E+00  0.39999999674E+01  0.40000000000E+01  0.51100000000E-03 0.  1.
    9000002   -1    0    0    0    0 -0.00000000000E+00 -0.00000000000E+00  0.00000000000E+00  0.93800000000E+00  0.93800000000E+00 0.  1.
         11    1    1    2    0    0  0.14003436480E-01 -0.18853347153E+00  0.14532503586E+01  0.14654957632E+01  0.51100000000E-03 0.  1.
    9000002    1    1    2    0    0 -0.37685093362E-01  0.49735383694E+00  0.17026979819E+00  0.10759260242E+01  0.93800000000E+00 0.  1.
         22    1    1    2    0    0  0.23681656882E-01 -0.30882036541E+00  0.23764798106E+01  0.23965782126E+01  0.00000000000E+00 0.  1.
</event>
<event>
 5    1  0.6172503E+001  0.1553291E+01  0.7818608E-02  0.3405674E+00
         11   -1    0    0    0    0  0.00000000000E+00  0.00000000000E+00  0.39999999674E+01  0.40000000000E+01  0.51100000000E-03 0. -1.
    9000002   -1    0    0    0    0 -0.00000000000E+00 -0.00000000000E+00  0.00000000000E+00  0.93800000000E+00  0.93800000000E+00 0. -1.
         11    1    1    2    0    0  0.14408342415E+00  0.54205648323E-01  0.60214789106E+00  0.62151478603E+00  0.51100000000E-03 0. -1.
    9000002    1    1    2    0    0  0.17920614901E+00  0.13443354587E+00  0.69206801201E-01  0.96686131551E+00  0.93800000000E+00 0. -1.
         22    1    1    2    0    0 -0.32328957316E+00 -0.18863919420E+00  0.33286452751E+01  0.33496238985E+01  0.00000000000E+00 0. -1.
</event>
<event>
 5    1  0.6172503E+001  0.1598757E+01  0.7818608E-02  0.3354714E+00
         11   -1    0    0    0    0  0.00000000000E+00  0.00000000000E+00  0.39999999674E+01  0.40000000000E+01  0.51100000000E-03 0. -1.
    9000002   -1    0    0    0    0 -0.00000000000E+00 -0.00000000000E+00  0.00000000000E+00  0.93800000000E+00  0.93800000000E+00 0. -1.
         11    1    1    2    0    0 -0.13479892218E+00  0.11990194884E+00  0.14809847843E+01  0.14919327797E+01  0.51100000000E-03 0. -1.
    9000002    1    1    2    0    0  0.36892723668E+00 -0.22217771800E+00  0.12640234901E+00  0.10398518155E+01  0.93800000000E+00 0. -1.
         22    1    1    2    0    0 -0.23412831450E+00  0.10227576916E+00  0.23926128341E+01  0.24062154048E+01  0.00000000000E+00 0. -1.
</event>
<event>
 5    1  0.6172503E+001  0.1598428E+01  0.7818608E-02  0.3355071E+00
         11   -1    0    0    0    0  0.00000000000E+00  0.00000000000E+00  0.39999999674E+01  0.40000000000E+01  0.51100000000E-03 0. -1.
    9000002   -1    0    0    0    0 -0.00000000000E+00 -0.00000000000E+00  0.00000000000E+00  0.93800000000E+00  0.93800000000E+00 0. -1.
         11    1    1    2    0    0 -0.24591994040E-02 -0.28186336257E-01  0.36418026579E+00  0.36527803701E+00  0.51100000000E-03 0. -1.
    9000002    1    1    2    0    0  0.28874226251E+00  0.26518080790E+00  0.10459842921E+00  0.10219969601E+01  0.93800000000E+00 0. -1.
         22    1    1    2    0    0 -0.28628306310E+00 -0.23699447164E+00  0.35312212724E+01  0.35507250029E+01  0.00000000000E+00 0. -1.
</event>
<event>
 5    1  0.6172503E+001  0.1599076E+01  0.7818608E-02  0.3354367E+00
         11   -1    0    0    0    0  0.00000000000E+00  0.00000000000E+00  0.39999999674E+01  0.40000000000E+01  0.51100000000E-03 0. -1.
    9000002   -1    0    0    0    0 -0.00000000000E+00 -0.00000000000E+00  0.00000000000E+00  0.93800000000E+00  0.93800000000E+00 0.  1.
         11    1    1    2    0    0  0.83156844010E-01  0.23127307379E-01  0.74568925556E+00  0.75066814242E+00  0.51100000000E-03 0. -1.
    9000002    1    1    2    0    0 -0.49837541227E+00 -0.22105881977E-01  0.17087150317E+00  0.10760612400E+01  0.93800000000E+00 0.  1.
         22    1    1    2    0    0  0.41521856826E+00 -0.10214254024E-02  0.30834392086E+01  0.31112706176E+01  0.00000000000E+00 0. -1.
</event>
<event>
 5    1  0.6172503E+001  0.1597893E+01  0.7818608E-02  0.3355654E+00
         11   -1    0    0    0    0  0.00000000000E+00  0.00000000000E+00  0.39999999674E+01  0.40000000000E+01  0.51100000000E-03 0.  1.
    9000002   -1    0    0    0    0 -0.00000000000E+00 -0.00000000000E+00  0.00000000000E+00  0.93800000000E+00  0.93800000000E+00 0. -1.
         11    1    1    2    0    0 -0.11335624284E-01  0.54594617198E-01  0.95622402736E+00  0.95784848500E+00  0.51100000000E-03 0.  1.
    9000002    1    1    2    0    0  0.22447217019E+00 -0.24605992205E+00  0.75670502348E-01  0.99825010160E+00  0.93800000000E+00 0. -1.
         22    1    1    2    0    0 -0.21313654591E+00  0.19146530485E+00  0.29681054377E+01  0.29819014134E+01  0.00000000000E+00 0.  1.
</event>
<event>
 5    1  0.6172503E+001  0.1578859E+01  0.7818608E-02  0.3376633E+00
         11   -1    0    0    0    0  0.00000000000E+00  0.00000000000E+00  0.39999999674E+01  0.40000000000E+01  0.51100000000E-03 0. -1.
    9000002   -1    0    0    0    0 -0.00000000000E+00 -0.00000000000E+00  0.00000000000E+00  0.93800000000E+00  0.93800000000E+00 0.  1.
         11    1    1    2    0    0  0.16915946754E+00  0.39121666272E-01  0.12273459471E+01  0.12395659584E+01  0.51100000000E-03 0. -1.
    9000002    1    1    2    0    0 -0.44935543662E-01 -0.26223235676E+00  0.63280989962E-01  0.97705347638E+00  0.93800000000E+00 0.  1.
         22    1    1    2    0    0 -0.12422392388E+00  0.22311069049E+00  0.27093730303E+01  0.27213805652E+01  0.00000000000E+00 0. -1.
</event>
<event>
 5    1  0.6172503E+001  0.1599607E+01  0.7818608E-02  0.3353790E+00
         11   -1    0    0    0    0  0.00000000000E+00  0.00000000000E+00  0.39999999674E+01  0.40000000000E+01  0.51100000000E-03 0.  1.
    9000002   -1    0    0    0    0 -0.00000000000E+00 -0.00000000000E+00  0.00000000000E+00  0.93800000000E+00  0.93800000000E+00 0.  1.
         11    1    1    2    0    0  0.91811877534E-01 -0.12849379181E+00  0.10306768456E+01  0.10427056615E+01  0.51100000000E-03 0.  1.
    9000002    1    1    2    0    0 -0.36585999740E+00  0.45757939186E+00  0.23883075058E+00  0.11314223637E+01  0.93800000000E+00 0.  1.
         22    1    1    2    0    0  0.27404811986E+00 -0.32908560005E+00  0.27304923712E+01  0.27638719748E+01  0.00000000000E+00 0.  1.
</event>
<event>
 5    1  0.6172503E+001  0.1599645E+01  0.7818608E-02  0.3353748E+00
         11   -1    0    0    0    0  0.00000000000E+00  0.00000000000E+00  0.39999999674E+01  0.40000000000E+01  0.51100000000E-03 0. -1.
    9000002   -1    0    0    0    0 -0.00000000000E+00 -0.00000000000E+00  0.00000000000E+00  0.93800000000E+00  0.93800000000E+00 0.  1.
         11    1    1    2    0    0 -0.23710045613E-01 -0.82187584470E-01  0.33916173018E+00  0.34978265487E+00  0.51100000000E-03 0. -1.
    9000002    1    1    2    0    0  0.26522716991E+00  0.80474208185E+00  0.53796263640E+00  0.13737550976E+01  0.93800000000E+00 0.  1.
         22    1    1    2    0    0 -0.24151712430E+00 -0.72255449738E+00  0.31228756008E+01  0.32144622476E+01  0.00000000000E+00 0. -1.
</event>
<event>
 5    1  0.6172503E+001  0.1599677E+01  0.7818608E-02  0.3353714E+00
         11   -1    0    0    0    0  0.00000000000E+00  0.00000000000E+00  0.39999999674E+01  0.40000000000E+01  0.51100000000E-03 0.  1.
    9000002   -1    0    0    0    0 -0.00000000000E+00 -0.00000000000E+00  0.00000000000E+00  0.93800000000E+00  0.93800000000E+00 0.  1.
         11    1    1    2    0    0 -0.34786859793E-01  0.13885314453E+00  0.14023781387E+01  0.14096648632E+01  0.51100000000E-03 0.  1.
    9000002    1    1    2    0    0  0.97573408018E-01 -0.38404089405E+00  0.10585449834E+00  0.10237466254E+01  0.93800000000E+00 0.  1.
         22    1    1    2    0    0 -0.62786548226E-01  0.24518774952E+00  0.24917673303E+01  0.25045885114E+01  0.00000000000E+00 0.  1.
</event>
<event>
 5    1  0.6172503E+001  0.1599630E+01  0.7818608E-02  0.3353765E+00
         11   -1    0    0    0    0  0.00000000000E+00  0.00000000000E+00  0.39999999674E+01  0.40000000000E+01  0.51100000000E-03 0.  1.
    9000002   -1    0    0    0    0 -0.00000000000E+00 -0.00000000000E+00  0.00000000000E+00  0.93800000000E+00  0.93800000000E+00 0. -1.
         11    1    1    2    0    0 -0.60207506890E-01  0.10261234977E+00  0.10001176810E+01  0.10071692386E+01  0.51100000000E-03 0.  1.
    9000002    1    1    2    0    0  0.23672882028E+00 -0.36923186679E+00  0.13048063936E+00  0.10436675252E+01  0.93800000000E+00 0. -1.
         22    1    1    2    0    0 -0.17652131339E+00  0.26661951702E+00  0.28694016470E+01  0.28871632363E+01  0.00000000000E+00 0.  1.
</event>
<event>
 5    1  0.6172503E+001  0.1535948E+01  0.7818608E-02  0.3425959E+00
         11   -1    0    0    0    0  0.00000000000E+00  0.00000000000E+00  0.39999999674E+01  0.40000000000E+01  0.51100000000E-03 0. -1.
    9000002   -1    0    0    0    0 -0.00000000000E+00 -0.00000000000E+00  0.00000000000E+00  0.93800000000E+00  0.93800000000E+00 0.  1.
         11    1    1    2    0    0  0.31679057053E+00  0.88266782454E-01  0.13851211663E+01  0.14236250198E+01  0.51100000000E-03 0. -1.
    9000002    1    1    2    0    0 -0.13035016335E+00  0.49697696528E-01  0.61312251248E-01  0.95029691059E+00  0.93800000000E+00 0.  1.
         22    1    1    2    0    0 -0.18644040718E+00 -0.13796447898E+00  0.25535665498E+01  0.25640780696E+01  0.00000000000E+00 0. -1.
</event>
<event>
 5    1  0.6172503E+001  0.1598908E+01  0.7818608E-02  0.3354550E+00
         11   -1    0    0    0    0  0.00000000000E+00  0.00000000000E+00  0.39999999674E+01  0.40000000000E+01  0.51100000000E-03 0.  1.
    9000002   -1    0    0    0    0 -0.00000000000E+00 -0.00000000000E+00  0.00000000000E+00  0.93800000000E+00  0.93800000000E+00 0. -1.
         11    1    1    2    0    0 -0.14533593498E-01 -0.18359969980E+00  0.13226496758E+01  0.13354109858E+01  0.51100000000E-03 0.  1.
    9000002    1    1    2    0    0  0.81817040591E-01  0.60110622757E+00  0.25790727762E+00  0.11464653893E+01  0.93800000000E+00 0. -1.
         22    1    1    2    0    0 -0.67283447093E-01 -0.41750652777E+00  0.24194430139E+01  0.24561236249E+01  0.00000000000E+00 0.  1.
</event>
<event>
 5    1  0.6172503E+001  0.1460479E+01  0.7818608E-02  0.3520268E+00
         11   -1    0    0    0    0  0.00000000000E+00  0.00000000000E+00  0.39999999674E+01  0.40000000000E+01  0.51100000000E-03 0.  1.
    9000002   -1    0    0    0    0 -0.00000000000E+00 -0.00000000000E+00  0.00000000000E+00  0.93800000000E+00  0.93800000000E+00 0. -1.
         11    1    1    2    0    0 -0.40569996176E+00  0.87179017637E-01  0.72175042103E+00  0.83253622832E+00  0.51100000000E-03 0.  1.
    9000002    1    1    2    0    0  0.12164671773E+00 -0.48081778945E-01  0.14380519006E+00  0.95793199868E+00  0.93800000000E+00 0. -1.
         22    1    1    2    0    0  0.28405324403E+00 -0.39097238692E-01  0.31344443563E+01  0.31475317730E+01  0.00000000000E+00 0.  1.
</event>
<event>
 5    1  0.6172503E+001  0.1599674E+01  0.7818608E-02  0.3353717E+00
         11   -1    0    0    0    0  0.00000000000E+00  0.00000000000E+00  0.39999999674E+01  0.40000000000E+01  0.51100000000E-03 0. -1.
    9000002   -1    0    0    0    0 -0.00000000000E+00 -0.00000000000E+00  0.00000000000E+00  0.93800000000E+00  0.93800000000E+00 0. -1.
         11    1    1    2    0    0  0.39273716750E-01 -0.17155802387E-01  0.18506685440E+00  0.18996512338E+00  0.51100000000E-03 0. -1.
    9000002    1    1    2    0    0 -0.73460332636E+00  0.33638324332E+00  0.48217836912E+00  0.13285841009E+01  0.93800000000E+00 0. -1.
         22    1    1    2    0    0  0.69532960961E+00 -0.31922744093E+00  0.33327547438E+01  0.34194507757E+01  0.00000000000E+00 0. -1.
</event>
<event>
 5    1  0.6172503E+001  0.1599588E+01  0.7818608E-02  0.3353811E+00
         11   -1    0    0    0    0  0.00000000000E+00  0.00000000000E+00  0.39999999674E+01  0.40000000000E+01  0.51100000000E-03 0.  1.
    9000002   -1    0    0    0    0 -0.00000000000E+00 -0.00000000000E+00  0.00000000000E+00  0.93800000000E+00  0.93800000000E+00 0.  1.
         11    1    1    2    0    0 -0.74819958599E-01  0.25775873905E+00  0.13733227632E+01  0.13993045654E+01  0.51100000000E-03 0.  1.
    9000002    1    1    2    0    0  0.21372938007E+00 -0.66050163780E+00  0.34399976487E+00  0.12166028521E+01  0.93800000000E+00 0.  1.
         22    1    1    2    0    0 -0.13890942147E+00  0.40274289875E+00  0.22826774393E+01  0.23220925825E+01  0.00000000000E+00 0.  1.
</event>
<event>
 5    1  0.6172503E+001  0.1599676E+01  0.7818608E-02  0.3353715E+00
         11   -1    0    0    0    0  0.00000000000E+00  0.00000000000E+00  0.39999999674E+01  0.40000000000E+01  0.51100000000E-03 0. -1.
    9000002   -1    0    0    0    0 -0.00000000000E+00 -0.00000000000E+00  0.00000000000E+00  0.93800000000E+00  0.93800000000E+00 0.  1.
         11    1    1    2    0    0  0.13557415111E+00 -0.52015399052E-01  0.11710655327E+01  0.11800341924E+01  0.51100000000E-03 0. -1.
    9000002    1    1    2    0    0 -0.44274712126E+00  0.17057746228E+00  0.15347065266E+00  0.10623177139E+01  0.93800000000E+00 0.  1.
         22    1    1    2    0    0  0.30717297015E+00 -0.11856206323E+00  0.26754637820E+01  0.26956480937E+01  0.00000000000E+00 0. -1.
</event>
<event>
 5    1  0.6172503E+001  0.1599606E+01  0.7818608E-02  0.3353791E+00
         11   -1    0    0    0    0  0.00000000000E+00  0.00000000000E+00  0.39999999674E+01  0.40000000000E+01  0.51100000000E-03 0. -1.
    9000002   -1    0    0    0    0 -0.00000000000E+00 -0.00000000000E+00  0.00000000000E+00  0.93800000000E+00  0.93800000000E+00 0. -1.
         11    1    1    2    0    0  0.75275267839E-01 -0.86857686148E-01  0.69364165448E+00  0.70310001390E+00  0.51100000000E-03 0. -1.
    9000002    1    1    2    0    0 -0.38813962777E+00  0.43335942606E+00  0.23530833452E+00  0.11285684627E+01  0.93800000000E+00 0. -1.
         22    1    1    2    0    0  0.31286435993E+00 -0.34650173991E+00  0.30710499784E+01  0.31063315234E+01  0.00000000000E+00 0. -1.
</event>
<event>
 5    1  0.6172503E+001  0.1568229E+01  0.7818608E-02  0.3388585E+00
         11   -1    0    0    0    0  0.00000000000E+00  0.00000000000E+00  0.39999999674E+01  0.40000000000E+01  0.51100000000E-03 0. -1.
    9000002   -1    0    0    0    0 -0.00000000000E+00 -0.00000000000E+00  0.00000000000E+00  0.93800000000E+00  0.93800000000E+00 0. -1.
         11    1    1    2    0    0 -0.16068544472E+00 -0.52686912632E+00  0.79109284060E+00  0.96397045182E+00  0.51100000000E-03 0. -1.
    9000002    1    1    2    0    0 -0.25004082469E-03  0.11243690448E+00  0.24364926260E+00  0.97562855800E+00  0.93800000000E+00 0. -1.
         22    1    1    2    0    0  0.16093548554E+00  0.41443222184E+00  0.29652578642E+01  0.29984009902E+01  0.00000000000E+00 0. -1.
</event>
<event>
 5    1  0.6172503E+001  0.1486834E+01  0.7818608E-02  0.3486159E+00
         11   -1    0    0    0    0  0.00000000000E+00  0.00000000000E+00  0.39999999674E+01  0.40000000000E+01  0.51100000000E-03 0. -1.
    9000002   -1    0    0    0    0 -0.00000000000E+00 -0.00000000000E+00  0.00000000000E+00  0.93800000000E+00  0.93800000000E+00 0. -1.
         11    1    1    2    0    0 -0.82525350715E-03  0.21133564905E+00  0.49991765998E+00  0.54275350343E+00  0.51100000000E-03 0. -1.
    9000002    1    1    2    0    0 -0.15587945949E+00  0.48286640364E+00  0.28713078822E+00  0.11044213232E+01  0.93800000000E+00 0. -1.
         22    1    1    2    0    0  0.15670471300E+00 -0.69420205270E+00  0.32129515192E+01  0.32908251733E+01  0.00000000000E+00 0. -1.
</event>
<event>
 5    1  0.6172503E+001  0.1599642E+01  0.7818608E-02  0.3353752E+00
         11   -1    0    0    0    0  0.00000000000E+00  0.00000000000E+00  0.39999999674E+01  0.40000000000E+01  0.51100000000E-03 0.  1.
    9000002   -1    0    0    0    0 -0.00000000000E+00 -0.00000000000E+00  0.00000000000E+00  0.93800000000E+00  0.93800000000E+00 0. -1.
         11    1    1    2    0    0  0.27621419832E+00 -0.11833000682E+00  0.13988594528E+01  0.14307705279E+01  0.51100000000E-03 0.  1.
    9000002    1    1    2    0    0 -0.69101365998E+00  0.29895444055E+00  0.41134933586E+00  0.12711907457E+01  0.93800000000E+00 0. -1.
         22    1    1    2    0    0  0.41479946165E+00 -0.18062443373E+00  0.21897911787E+01  0.22360387264E+01  0.00000000000E+00 0.  1.
</event>
<event>
 5    1  0.6172503E+001  0.1594286E+01  0.7818608E-02  0.3359589E+00
         11   -1    0    0    0    0  0.00000000000E+00  0.00000000000E+00  0.39999999674E+01  0.40000000000E+01  0.51100000000E-03 0.  1.
    9000002   -1    0    0    0    0 -0.00000000000E+00 -0.00000000000E+00  0.00000000000E+00  0.93800000000E+00  0.93800000000E+00 0. -1.
         11    1    1    2    0    0  0.72027555548E-02  0.12758383231E-01  0.89851220169E+00  0.89863178986E+00  0.51100000000E-03 0.  1.
    9000002    1    1    2    0    0 -0.33892434300E+00 -0.15623688663E+00  0.98054825739E-01  0.10142674321E+01  0.93800000000E+00 0. -1.
         22    1    1    2    0    0  0.33172158744E+00  0.14347850340E+00  0.30034329399E+01  0.30251007780E+01  0.00000000000E+00 0.  1.
</event>
<event>
 5    1  0.6172503E+001  0.1543867E+01  0.7818608E-02  0.3416636E+00
         11   -1    0    0    0    0  0.00000000000E+00  0.00000000000E+00  0.39999999674E+01  0.40000000000E+01  0.51100000000E-03 0. -1.
    9000002   -1    0    0    0    0 -0.00000000000E+00 -0.00000000000E+00  0.00000000000E+00  0.93800000000E+00  0.93800000000E+00 0. -1.
         11    1    1    2    0    0 -0.39216406144E-01  0.32275868002E+00  0.11216197674E+01  0.11677937557E+01  0.51100000000E-03 0. -1.
    9000002    1    1    2    0    0 -0.41323195573E+00 -0.39352295029E+00  0.28176175366E+00  0.11335142908E+01  0.93800000000E+00 0. -1.
         22    1    1    2    0    0  0.45244836187E+00  0.70764270269E-01  0.25966184463E+01  0.26366919535E+01  0.00000000000E+00 0. -1.
</event>
<event>
 5    1  0.6172503E+001  0.1599372E+01  0.7818608E-02  0.3354045E+00
         11   -1    0    0    0    0  0.00000000000E+00  0.00000000000E+00  0.39999999674E+01  0.40000000000E+01  0.51100000000E-03 0.  1.
    9000002   -1    0    0    0    0 -0.00000000000E+00 -0.00000000000E+00  0.00000000000E+00  0.93800000000E+00  0.93800000000E+00 0.  1.
         11    1    1    2    0    0 -0.16075130430E-01 -0.22985521343E-01  0.29633353216E+00  0.29765847445E+00  0.51100000000E-03 0.  1.
    9000002    1    1    2    0    0  0.95032031217E-01  0.39073112062E+00  0.10935478158E+00  0.10264036067E+01  0.93800000000E+00 0.  1.
         22    1    1    2    0    0 -0.78956900787E-01 -0.36774559928E+00  0.35943116536E+01  0.36139379189E+01  0.00000000000E+00 0.  1.
</event>
<event>
 5    1  0.6172503E+001  0.1599675E+01  0.7818608E-02  0.3353716E+00
         11   -1    0    0    0    0  0.00000000000E+00  0.00000000000E+00  0.39999999674E+01  0.40000000000E+01  0.51100000000E-03 0. -1.
    9000002   -1    0    0    0    0 -0.00000000000E+00 -0.00000000000E+00  0.00000000000E+00  0.93800000000E+00  0.93800000000E+00 0.  1.
         11    1    1    2    0    0 -0.23492919256E-01 -0.39405074787E-01  0.37355706466E+00  0.37636394468E+00  0.51100000000E-03 0. -1.
    9000002    1    1    2    0    0  0.24955792332E+00  0.40729977069E+00  0.15562990984E+00  0.10640662240E+01  0.93800000000E+00 0.  1.
         22    1    1    2    0    0 -0.22606500407E+00 -0.36789469591E+00  0.34708129929E+01  0.34975698313E+01  0.00000000000E+00 0. -1.
</event>
<event>
 5    1  0.6172503E+001  0.1599641E+01  0.7818608E-02  0.3353753E+00
         11   -1    0    0    0    0  0.00000000000E+00  0.00000000000E+00  0.39999999674E+01  0.40000000000E+01  0.51100000000E-03 0.  1.
    9000002   -1    0    0    0    0 -0.00000000000E+00 -0.00000000000E+00  0.00000000000E+00  0.93800000000E+00  0.93800000000E+00 0. -1.
         11    1    1    2    0    0 -0.21513744359E+00  0.16457844974E+00  0.14024263047E+01  0.14283451918E+01  0.51100000000E-03 0.  1.
    9000002    1    1    2    0    0  0.55886272139E+00 -0.41075234431E+00  0.34324145429E+00  0.12160196239E+01  0.93800000000E+00 0. -1.
         22    1    1    2    0    0 -0.34372527781E+00  0.24617389457E+00  0.22543322084E+01  0.22936351843E+01  0.00000000000E+00 0.  1.
</event>
<event>
 5    1  0.6172503E+001  0.1599457E+01  0.7818608E-02  0.3353953E+00
         11   -1    0    0    0    0  0.00000000000E+00  0.00000000000E+00  0.39999999674E+01  0.40000000000E+01  0.51100000000E-03 0. -1.
    9000002   -1    0    0    0    0 -0.00000000000E+00 -0.00000000000E+00  0.00000000000E+00  0.93800000000E+00  0.93800000000E+00 0.  1.
         11    1    1    2    0    0  0.10312650392E+00 -0.19845142541E-01  0.12366983644E+01  0.12411494717E+01  0.51100000000E-03 0. -1.
    9000002    1    1    2    0    0 -0.36404808021E+00  0.26361229003E-01  0.89659800043E-01  0.10104992820E+01  0.93800000000E+00 0.  1.
         22    1    1    2    0    0  0.26092157629E+00 -0.65160864621E-02  0.26736418029E+01  0.26863512463E+01  0.00000000000E+00 0. -1.
</event>
<event>
 5    1  0.6172503E+001  0.1599091E+01  0.7818608E-02  0.3354350E+00
         11   -1    0    0    0    0  0.00000000000E+00  0.00000000000E+00  0.39999999674E+01  0.40000000000E+01  0.51100000000E-03 0. -1.
    9000002   -1    0    0    0    0 -0.00000000000E+00 -0.00000000000E+00  0.00000000000E+00  0.93800000000E+00  0.93800000000E+00 0. -1.
         11    1    1    2    0    0  0.31059708351E-01 -0.24527309566E-01  0.43799622123E+00  0.43978090605E+00  0.51100000000E-03 0. -1.
    9000002    1    1    2    0    0 -0.38485274542E+00  0.95828033449E-01  0.10653853523E+00  0.10239575710E+01  0.93800000000E+00 0. -1.
         22    1    1    2    0    0  0.35379303707E+00 -0.71300723883E-01  0.34554652109E+01  0.34742615230E+01  0.00000000000E+00 0. -1.
</event>
<event>
 5    1  0.7137750E+001  0.1575978E+01  0.7818608E-02  0.3379856E+00
         11   -1    0    0    0    0  0.00000000000E+00  0.00000000000E+00  0.39999999674E+01  0.40000000000E+01  0.51100000000E-03 0. -1.
    9000002   -1    0    0    0    0 -0.00000000000E+00 -0.00000000000E+00  0.00000000000E+00  0.93800000000E+00  0.93800000000E+00 0.  1.
         11    1    1    2    0    0 -0.95881998781E-01 -0.10866648135E+00  0.14403870349E+01  0.14476590874E+01  0.51100000000E-03 0. -1.
    9000002    1    1    2    0    0 -0.13883420079E+00  0.19283621403E-01  0.30622106732E-01  0.94890911408E+00  0.93800000000E+00 0.  1.
         22    1    1    2    0    0  0.23471619957E+00  0.89382859948E-01  0.25289908257E+01  0.25414317985E+01  0.00000000000E+00 0.  1.
</event>
<event>
 5    1  0.6172503E+001  0.1599496E+01  0.7818608E-02  0.3353910E+00
         11   -1    0    0    0    0  0.00000000000E+00  0.00000000000E+00  0.39999999674E+01  0.40000000000E+01  0.51100000000E-03 0. -1.
    9000002   -1    0    0    0    0 -0.00000000000E+00 -0.00000000000E+00  0.00000000000E+00  0.93800000000E+00  0.93800000000E+00 0. -1.
         11    1    1    2    0    0 -0.27292764886E-01  0.51511793955E-01  0.65736809063E+00  0.65994804919E+00  0.51100000000E-03 0. -1.
    9000002    1    1    2    0    0  0.22968612465E+00 -0.32814933398E+00  0.10837656347E+00  0.10256837626E+01  0.93800000000E+00 0. -1.
         22    1    1    2    0    0 -0.20239335977E+00  0.27663754003E+00  0.32342553133E+01  0.32523681883E+01  0.00000000000E+00 0. -1.
</event>
<event>
 5    1  0.6172503E+001  0.1599052E+01  0.7818608E-02  0.3354393E+00
         11   -1    0    0    0    0  0.00000000000E+00  0.00000000000E+00  0.39999999674E+01  0.40000000000E+01  0.51100000000E-03 0.  1.
    9000002   -1    0    0    0    0 -0.00000000000E+00 -0.00000000000E+00  0.00000000000E+00  0.93800000000E+00  0.93800000000E+00 0. -1.
         11    1    1    2    0    0 -0.94441763184E-01  0.22756286577E+00  0.14064781283E+01  0.14278953362E+01  0.51100000000E-03 0.  1.
    9000002    1    1    2    0    0  0.23733843521E+00 -0.66582417382E+00  0.35846042438E+00  0.12280021332E+01  0.93800000000E+00 0. -1.
         22    1    1    2    0    0 -0.14289667203E+00  0.43826130805E+00  0.22350614146E+01  0.22821025306E+01  0.00000000000E+00 0.  1.
</event>
<event>
 5    1  0.6172503E+001  0.1468016E+01  0.7818608E-02  0.3510378E+00
         11   -1    0    0    0    0  0.00000000000E+00  0.00000000000E+00  0.39999999674E+01  0.40000000000E+01  0.51100000000E-03 0.  1.
    9000002   -1    0    0    0    0 -0.00000000000E+00 -0.00000000000E+00  0.00000000000E+00  0.93800000000E+00  0.93800000000E+00 0.  1.
         11    1    1    2    0    0 -0.44575354568E+00 -0.20654468970E+00  0.40445214715E+00  0.63634796518E+00  0.51100000000E-03 0.  1.
    9000002    1    1    2    0    0  0.82462093837E+00  0.16392295573E+00  0.82674978347E+00  0.15067281214E+01  0.93800000000E+00 0.  1.
         22    1    1    2    0    0 -0.37886739269E+00  0.42621733970E-01  0.27687980367E+01  0.27949239134E+01  0.00000000000E+00 0.  1.
</event>
<event>
 5    1  0.6172503E+001  0.1571003E+01  0.7818608E-02  0.3385450E+00
         11   -1    0    0    0    0  0.00000000000E+00  0.00000000000E+00  0.39999999674E+01  0.40000000000E+01  0.51100000000E-03 0.  1.
    9000002   -1    0    0    0    0 -0.00000000000E+00 -0.00000000000E+00  0.00000000000E+00  0.93800000000E+00  0.93800000000E+00 0.  1.
         11    1    1    2    0    0  0.40591598870E-02 -0.79088091957E-01  0.27772014462E+00  0.28879082901E+00  0.51100000000E-03 0.  1.
    9000002    1    1    2    0    0 -0.36759796482E-01 -0.36669669907E+00  0.11499862927E+00  0.10143403948E+01  0.93800000000E+00 0.  1.
         22    1    1    2    0    0  0.32700636595E-01  0.44578479103E+00  0.36072811935E+01  0.36348687762E+01  0.00000000000E+00 0.  1.
</event>
<event>
 5    1  0.6172503E+001  0.1592860E+01  0.7818608E-02  0.3361150E+00
         11   -1    0    0    0    0  0.00000000000E+00  0.00000000000E+00  0.39999999674E+01  0.40000000000E+01  0.51100000000E-03 0.  1.
    9000002   -1    0    0    0    0 -0.00000000000E+00 -0.00000000000E+00  0.00000000000E+00  0.93800000000E+00  0.93800000000E+00 0.  1.
         11    1    1    2    0    0 -0.10571024208E+00 -0.21576557129E+00  0.10918267670E+01  0.11179514244E+01  0.51100000000E-03 0.  1.
    9000002    1    1    2    0    0  0.48188919170E-01  0.71224347726E+00  0.37341458610E+00  0.12364850973E+01  0.93800000000E+00 0.  1.
         22    1    1    2    0    0  0.57521322908E-01 -0.49647790597E+00  0.25347586143E+01  0.25835634783E+01  0.00000000000E+00 0.  1.
</event>
<event>
 5    1  0.6172503E+001  0.1599022E+01  0.7818608E-02  0.3354426E+00
         11   -1    0    0    0    0  0.00000000000E+00  0.00000000000E+00  0.39999999674E+01  0.40000000000E+01  0.51100000000E-03 0.  1.
    9000002   -1    0    0    0    0 -0.00000000000E+00 -0.00000000000E+00  0.00000000000E+00  0.93800000000E+00  0.93800000000E+00 0.  1.
         11    1    1    2    0    0 -0.72505523336E-02 -0.10868933673E+00  0.80068242221E+00  0.80805850331E+00  0.51100000000E-03 0.  1.
    9000002    1    1    2    0    0 -0.18578035958E-01  0.41787440348E+00  0.11885417937E+00  0.10338928747E+01  0.93800000000E+00 0.  1.
         22    1    1    2    0    0  0.25828588292E-01 -0.30918506675E+00  0.30804633658E+01  0.30960486219E+01  0.00000000000E+00 0.  1.
</event>
<event>
 5    1  0.6172503E+001  0.1599578E+01  0.7818608E-02  0.3353822E+00
         11   -1    0    0    0    0  0.00000000000E+00  0.00000000000E+00  0.39999999674E+01  0.40000000000E+01  0.51100000000E-03 0.  1.
    9000002   -1    0    0    0    0 -0.00000000000E+00 -0.00000000000E+00  0.00000000000E+00  0.93800000000E+00  0.93800000000E+00 0.  1.
         11    1    1    2    0    0 -0.75160229645E-01 -0.17296794541E+00  0.11570047902E+01  0.11722744201E+01  0.51100000000E-03 0.  1.
    9000002    1    1    2    0    0  0.26299438891E+00  0.53079694396E+00  0.24453338583E+00  0.11360246569E+01  0.93800000000E+00 0.  1.
         22    1    1    2    0    0 -0.18783415926E+00 -0.35782899855E+00  0.25984617913E+01  0.26297009230E+01  0.00000000000E+00 0.  1.
</event>
<event>
 5    1  0.6172503E+001  0.1597233E+01  0.7818608E-02  0.3356372E+00
         11   -1    0    0    0    0  0.00000000000E+00  0.00000000000E+00  0.39999999674E+01  0.40000000000E+01  0.51100000000E-03 0.  1.
    9000002   -1    0    0    0    0 -0.00000000000E+00 -0.00000000000E+00  0.00000000000E+00  0.93800000000E+00  0.93800000000E+00 0.  1.
         11    1    1    2    0    0 -0.10422351756E+00 -0.21699302655E+00  0.13215219683E+01  0.13432680630E+01  0.51100000000E-03 0.  1.
    9000002    1    1    2    0    0  0.24047926221E+00  0.47110715471E+00  0.19475042543E+00  0.10943235148E+01  0.93800000000E+00 0.  1.
         22    1    1    2    0    0 -0.13625574466E+00 -0.25411412817E+00  0.24837275736E+01  0.25004084222E+01  0.00000000000E+00 0. -1.
</event>
<event>
 5    1  0.6172503E+001  0.1599632E+01  0.7818608E-02  0.3353763E+00
         11   -1    0    0    0    0  0.00000000000E+00  0.00000000000E+00  0.39999999674E+01  0.40000000000E+01  0.51100000000E-03 0. -1.
    9000002   -1    0    0    0    0 -0.00000000000E+00 -0.00000000000E+00  0.00000000000E+00  0.93800000000E+00  0.93800000000E+00 0.  1.
         11    1    1    2    0    0 -0.53979197829E-01  0.73790569916E-01  0.96950431235E+00  0.97380576852E+00  0.51100000000E-03 0. -1.
    9000002    1    1    2    0    0  0.23400332793E+00 -0.27461893759E+00  0.87425032428E-01  0.10087914823E+01  0.93800000000E+00 0.  1.
         22    1    1    2    0    0 -0.18002413010E+00  0.20082836768E+00  0.29430706226E+01  0.29554027492E+01  0.00000000000E+00 0. -1.
</event>
<event>
 5    1  0.6172503E+001  0.1463795E+01  0.7818608E-02  0.3515903E+00
         11   -1    0    0    0    0  0.00000000000E+00  0.00000000000E+00  0.39999999674E+01  0.40000000000E+01  0.51100000000E-03 0. -1.
    9000002   -1    0    0    0    0 -0.00000000000E+00 -0.00000000000E+00  0.00000000000E+00  0.93800000000E+00  0.93800000000E+00 0. -1.
         11    1    1    2    0    0 -0.41645044671E+00  0.75537036843E-01  0.13554341897E+01  0.14199784936E+01  0.51100000000E-03 0. -1.
    9000002    1    1    2    0    0 -0.14724232074E+00 -0.38863554087E+00  0.27481932773E+00  0.10621146584E+01  0.93800000000E+00 0. -1.
         22    1    1    2    0    0  0.56369276745E+00  0.31309850403E+00  0.23697464499E+01  0.24559068480E+01  0.00000000000E+00 0. -1.
</event>
<event>
 5    1  0.6172503E+001  0.1594302E+01  0.7818608E-02  0.3359571E+00
         11   -1    0    0    0    0  0.00000000000E+00  0.00000000000E+00  0.39999999674E+01  0.40000000000E+01  0.51100000000E-03 0. -1.
    9000002   -1    0    0    0    0 -0.00000000000E+00 -0.00000000000E+00  0.00000000000E+00  0.93800000000E+00  0.93800000000E+00 0.  1.
         11    1    1    2    0    0 -0.18961378482E-01 -0.24078926634E-01  0.45491631528E+00  0.45594785185E+00  0.51100000000E-03 0. -1.
    9000002    1    1    2    0    0 -0.32306801268E+00  0.20203077394E+00  0.10212935909E+00  0.10175774076E+01  0.93800000000E+00 0.  1.
         22    1    1    2    0    0  0.34202939116E+00 -0.17795184730E+00  0.34429542930E+01  0.34644747406E+01  0.00000000000E+00 0. -1.
</event>
<event>
 5    1  0.6172503E+001  0.1599677E+01  0.7818608E-02  0.3353714E+00
         11   -1    0    0    0    0  0.00000000000E+00  0.00000000000E+00  0.39999999674E+01  0.40000000000E+01  0.51100000000E-03 0. -1.
    9000002   -1    0    0    0    0 -0.00000000000E+00 -0.00000000000E+00  0.00000000000E+00  0.93800000000E+00  0.93800000000E+00 0.  1.
         11    1    1    2    0    0  0.10896890849E+00 -0.72874092875E-01  0.14144639876E+01  0.14205257793E+01  0.51100000000E-03 0. -1.
    9000002    1    1    2    0    0 -0.30023296861E+00  0.20222122300E+00  0.87977743812E-01  0.10092657439E+01  0.93800000000E+00 0.  1.
         22    1    1    2    0    0  0.19126406012E+00 -0.12934713013E+00  0.24975582360E+01  0.25082084768E+01  0.00000000000E+00 0. -1.
</event>
<event>
 5    1  0.6172503E+001  0.1599631E+01  0.7818608E-02  0.3353764E+00
         11   -1    0    0    0    0  0.00000000000E+00  0.00000000000E+00  0.39999999674E+01  0.40000000000E+01  0.51100000000E-03 0. -1.
    9000002   -1    0    0    0    0 -0.00000000000E+00 -0.00000000000E+00  0.00000000000E+00  0.93800000000E+00  0.93800000000E+00 0.  1.
         11    1    1    2    0    0  0.63670023993E-01  0.70176508976E-01  0.78895323611E+00  0.79462323415E+00  0.51100000000E-03 0. -1.
    9000002    1    1    2    0    0 -0.29229700334E+00 -0.31917974156E+00  0.12694436735E+00  0.10408035924E+01  0.93800000000E+00 0.  1.
         22    1    1    2    0    0  0.22862697934E+00  0.24900323258E+00  0.30841023639E+01  0.31025731734E+01  0.00000000000E+00 0. -1.
</event>
<event>
 5    1  0.6172503E+001  0.1531864E+01  0.7818608E-02  0.3430807E+00
         11   -1    0    0    0    0  0.00000000000E+00  0.00000000000E+00  0.39999999674E+01  0.40000000000E+01  0.51100000000E-03 0. -1.
    9000002   -1    0    0    0    0 -0.00000000000E+00 -0.00000000000E+00  0.00000000000E+00  0.93800000000E+00  0.93800000000E+00 0.  1.
         11    1    1    2    0    0  0.13759973505E+00 -0.13630944389E+00  0.47876047595E+00  0.51645503777E+00  0.51100000000E-03 0. -1.
    9000002    1    1    2    0    0  0.49884159358E-02 -0.14916180507E+00  0.66526355699E-01  0.95212598136E+00  0.93800000000E+00 0.  1.
         22    1    1    2    0    0 -0.14258815098E+00  0.28547124896E+00  0.34547131357E+01  0.34694189809E+01  0.00000000000E+00 0. -1.
</event>
<event>
 5    1  0.6172503E+001  0.1597371E+01  0.7818608E-02  0.3356222E+00
         11   -1    0    0    0    0  0.00000000000E+00  0.00000000000E+00  0.39999999674E+01  0.40000000000E+01  0.51100000000E-03 0.  1.
    9000002   -1    0    0    0    0 -0.00000000000E+00 -0.00000000000E+00  0.00000000000E+00  0.93800000000E+00  0.93800000000E+00 0.  1.
         11    1    1    2    0    0 -0.36402926566E-01  0.10859450802E+00  0.13876861382E+01  0.13924047614E+01  0.51100000000E-03 0.  1.
    9000002    1    1    2    0    0  0.24600144267E+00 -0.24456928073E+00  0.82511107334E-01  0.10034853889E+01  0.93800000000E+00 0.  1.
         22    1    1    2    0    0 -0.20959851610E+00  0.13597477271E+00  0.25298027218E+01  0.25421098498E+01  0.00000000000E+00 0.  1.
</event>
<event>
 5    1  0.6172503E+001  0.1590633E+01  0.7818608E-02  0.3363593E+00
         11   -1    0    0    0    0  0.00000000000E+00  0.00000000000E+00  0.39999999674E+01  0.40000000000E+01  0.51100000000E-03 0.  1.
    9000002   -1    0    0    0    0 -0.00000000000E+00 -0.00000000000E+00  0.00000000000E+00  0.93800000000E+00  0.93800000000E+00 0.  1.
         11    1    1    2    0    0 -0.62862984727E-01 -0.63494912590E-01  0.39740682089E+00  0.40732763371E+00  0.51100000000E-03 0.  1.
    9000002    1    1    2    0    0  0.46952310032E+00 -0.48484529691E-01  0.15982649100E+00  0.10621634519E+01  0.93800000000E+00 0.  1.
         22    1    1    2    0    0 -0.40666011559E+00  0.11197944228E+00  0.34427666555E+01  0.34685089144E+01  0.00000000000E+00 0.  1.
</event>
<event>
 5    1  0.6172503E+001  0.1540701E+01  0.7818608E-02  0.3420351E+00
         11   -1    0    0    0    0  0.00000000000E+00  0.00000000000E+00  0.39999999674E+01  0.40000000000E+01  0.51100000000E-03 0.  1.
    9000002   -1    0    0    0    0 -0.00000000000E+00 -0.00000000000E+00  0.00000000000E+00  0.93800000000E+00  0.93800000000E+00 0. -1.
         11    1    1    2    0    0 -0.10383085079E+00 -0.82373343501E-01  0.23906963789E+00  0.27335099447E+00  0.51100000000E-03 0.  1.
    9000002    1    1    2    0    0 -0.24586966739E+00  0.35042949563E-01  0.87446279014E-01  0.97425394706E+00  0.93800000000E+00 0. -1.
         22    1    1    2    0    0  0.34970051818E+00  0.47330393939E-01  0.36734840505E+01  0.36903950585E+01  0.00000000000E+00 0.  1.
</event>
<event>
 5    1  0.6172503E+001  0.1513827E+01  0.7818608E-02  0.3452554E+00
         11   -1    0    0    0    0  0.00000000000E+00  0.00000000000E+00  0.39999999674E+01  0.40000000000E+01  0.51100000000E-03 0. -1.
    9000002   -1    0    0    0    0 -0.00000000000E+00 -0.00000000000E+00  0.00000000000E+00  0.93800000000E+00  0.93800000000E+00 0.  1.
         11    1    1    2    0    0  0.21311638283E+00 -0.15966022095E+00  0.70267498165E+00  0.75144019705E+00  0.51100000000E-03 0. -1.
    9000002    1    1    2    0    0 -0.15254308595E-01 -0.77766362936E-01  0.69425991553E-01  0.94389844233E+00  0.93800000000E+00 0.  1.
         22    1    1    2    0    0 -0.19786207424E+00  0.23742658388E+00  0.32278989942E+01  0.32426613606E+01  0.00000000000E+00 0. -1.
</event>
<event>
 5    1  0.6172503E+001  0.1599490E+01  0.7818608E-02  0.3353918E+00
         11   -1    0    0    0    0  0.00000000000E+00  0.00000000000E+00  0.39999999674E+01  0.40000000000E+01  0.51100000000E-03 0. -1.
    9000002   -1    0    0    0    0 -0.00000000000E+00 -0.00000000000E+00  0.00000000000E+00  0.93800000000E+00  0.93800000000E+00 0. -1.
         11    1    1    2    0    0  0.81950865598E-01 -0.57089245994E-01  0.10410167853E+01  0.10457969855E+01  0.51100000000E-03 0. -1.
    9000002    1    1    2    0    0 -0.28101735598E+00  0.26189350937E+00  0.99487817124E-01  0.10184796465E+01  0.93800000000E+00 0. -1.
         22    1    1    2    0    0  0.19906649038E+00 -0.20480426338E+00  0.28594953649E+01  0.28737233680E+01  0.00000000000E+00 0.  1.
</event>
<event>
 5    1  0.6237832E+001  0.1599266E+01  0.7818608E-02  0.3354160E+00
         11   -1    0    0    0    0  0.00000000000E+00  0.00000000000E+00  0.39999999674E+01  0.40000000000E+01  0.51100000000E-03 0. -1.
    9000002   -1    0    0    0    0 -0.00000000000E+00 -0.00000000000E+00  0.00000000000E+00  0.93800000000E+00  0.93800000000E+00 0. -1.
         11    1    1    2    0    0  0.43762014449E-01  0.29162759606E-01  0.87022188637E+00  0.87180959681E+00  0.51100000000E-03 0. -1.
    9000002    1    1    2    0    0 -0.27587533208E+00 -0.17909141407E+00  0.72700039386E-01  0.99664950167E+00  0.93800000000E+00 0. -1.
         22    1    1    2    0    0  0.23211331763E+00  0.14992865447E+00  0.30570780416E+01  0.30695409015E+01  0.00000000000E+00 0. -1.
</event>
<event>
 5    1  0.6172503E+001  0.1593744E+01  0.7818608E-02  0.3360182E+00
         11   -1    0    0    0    0  0.00000000000E+00  0.00000000000E+00  0.39999999674E+01  0.40000000000E+01  0.51100000000E-03 0. -1.
    9000002   -1    0    0    0    0 -0.00000000000E+00 -0.00000000000E+00  0.00000000000E+00  0.93800000000E+00  0.93800000000E+00 0.  1.
         11    1    1    2    0    0  0.10784536377E+00 -0.16102794666E+00  0.95577908654E+00  0.97523050890E+00  0.51100000000E-03 0. -1.
    9000002    1    1    2    0    0 -0.22849146277E+00  0.39643859119E+00  0.14753625732E+00  0.10540317132E+01  0.93800000000E+00 0.  1.
         22    1    1    2    0    0  0.12064609899E+00 -0.23541064452E+00  0.28966846235E+01  0.29087377779E+01  0.00000000000E+00 0.  1.
</event>
<event>
 5    1  0.1359001E+002  0.1595944E+01  0.7818608E-02  0.3357778E+00
         11   -1    0    0    0    0  0.00000000000E+00  0.00000000000E+00  0.39999999674E+01  0.40000000000E+01  0.51100000000E-03 0. -1.
    9000002   -1    0    0    0    0 -0.00000000000E+00 -0.00000000000E+00  0.00000000000E+00  0.93800000000E+00  0.93800000000E+00 0. -1.
         11    1    1    2    0    0 -0.23664065877E-01 -0.10165639634E-01  0.13361698583E+01  0.13364181530E+01  0.51100000000E-03 0. -1.
    9000002    1    1    2    0    0  0.27009204544E+00  0.77492799183E-01  0.55481481954E-01  0.98075330322E+00  0.93800000000E+00 0. -1.
         22    1    1    2    0    0 -0.24642797956E+00 -0.67327159549E-01  0.26083486271E+01  0.26208285438E+01  0.00000000000E+00 0. -1.
</event>
<event>
 5    1  0.6172503E+001  0.1599664E+01  0.7818608E-02  0.3353728E+00
         11   -1    0    0    0    0  0.00000000000E+00  0.00000000000E+00  0.39999999674E+01  0.40000000000E+01  0.51100000000E-03 0. -1.
    9000002   -1    0    0    0    0 -0.00000000000E+00 -0.00000000000E+00  0.00000000000E+00  0.93800000000E+00  0.93800000000E+00 0. -1.
         11    1    1    2    0    0 -0.10521392448E-02 -0.18072310876E-01  0.16767205996E+00  0.16864725385E+00  0.51100000000E-03 0. -1.
    9000002    1    1    2    0    0  0.54490853972E-01  0.39522080039E+00  0.10735858721E+00  0.10249578530E+01  0.93800000000E+00 0. -1.
         22    1    1    2    0    0 -0.53438714727E-01 -0.37714848951E+00  0.37249693202E+01  0.37443948931E+01  0.00000000000E+00 0. -1.
</event>
<event>
 5    1  0.6172503E+001  0.1599662E+01  0.7818608E-02  0.3353730E+00
         11   -1    0    0    0    0  0.00000000000E+00  0.00000000000E+00  0.39999999674E+01  0.40000000000E+01  0.51100000000E-03 0.  1.
    9000002   -1    0    0    0    0 -0.00000000000E+00 -0.00000000000E+00  0.00000000000E+00  0.93800000000E+00  0.93800000000E+00 0. -1.
         11    1    1    2    0    0 -0.11677185209E+00 -0.67472459174E-01  0.13437570024E+01  0.13505078085E+01  0.51100000000E-03 0.  1.
    9000002    1    1    2    0    0  0.32943264572E+00  0.18783258457E+00  0.96761886016E-01  0.10163728698E+01  0.93800000000E+00 0. -1.
         22    1    1    2    0    0 -0.21266079363E+00 -0.12036012539E+00  0.25594810789E+01  0.25711193217E+01  0.00000000000E+00 0.  1.
</event>
<event>
 5    1  0.6474258E+001  0.1599666E+01  0.7818608E-02  0.3353726E+00
         11   -1    0    0    0    0  0.00000000000E+00  0.00000000000E+00  0.39999999674E+01  0.40000000000E+01  0.51100000000E-03 0.  1.
    9000002   -1    0    0    0    0 -0.00000000000E+00 -0.00000000000E+00  0.00000000000E+00  0.93800000000E+00  0.93800000000E+00 0.  1.
         11    1    1    2    0    0 -0.17522561475E+00 -0.39127003851E-01  0.14589667446E+01  0.14699725036E+01  0.51100000000E-03 0.  1.
    9000002    1    1    2    0    0  0.47030005675E+00  0.10776581623E+00  0.15891359842E+00  0.10667207443E+01  0.93800000000E+00 0.  1.
         22    1    1    2    0    0 -0.29507444200E+00 -0.68638812377E-01  0.23821196244E+01  0.24013067521E+01  0.00000000000E+00 0.  1.
</event>
<event>
 5    1  0.6172503E+001  0.1597578E+01  0.7818608E-02  0.3355997E+00
         11   -1    0    0    0    0  0.00000000000E+00  0.00000000000E+00  0.39999999674E+01  0.40000000000E+01  0.51100000000E-03 0. -1.
    9000002   -1    0    0    0    0 -0.00000000000E+00 -0.00000000000E+00  0.00000000000E+00  0.93800000000E+00  0.93800000000E+00 0.  1.
         11    1    1    2    0    0  0.52738945964E-02  0.14376918239E-01  0.27054700709E+00  0.27098054157E+00  0.51100000000E-03 0. -1.
    9000002    1    1    2    0    0  0.32293787865E+00 -0.14131573942E+00  0.85034972876E-01  0.10056510122E+01  0.93800000000E+00 0.  1.
         22    1    1    2    0    0 -0.32821177324E+00  0.12693882118E+00  0.36444179874E+01  0.36613684463E+01  0.00000000000E+00 0. -1.
</event>
<event>
 5    1  0.6172503E+001  0.1599676E+01  0.7818608E-02  0.3353715E+00
         11   -1    0    0    0    0  0.00000000000E+00  0.00000000000E+00  0.39999999674E+01  0.40000000000E+01  0.51100000000E-03 0.  1.
    9000002   -1    0    0    0    0 -0.00000000000E+00 -0.00000000000E+00  0.00000000000E+00  0.93800000000E+00  0.93800000000E+00 0.  1.
         11    1    1    2    0    0 -0.48298262891E-01 -0.66552366322E-01  0.84304566640E+00  0.84704674984E+00  0.51100000000E-03 0.  1.
    9000002    1    1    2    0    0  0.22747482888E+00  0.30784736101E+00  0.98614951059E-01  0.10178819696E+01  0.93800000000E+00 0.  1.
         22    1    1    2    0    0 -0.17917656599E+00 -0.24129499469E+00  0.30583393499E+01  0.30730712806E+01  0.00000000000E+00 0. -1.
</event>
<event>
 5    1  0.6172503E+001  0.1595077E+01  0.7818608E-02  0.3358724E+00
         11   -1    0    0    0    0  0.00000000000E+00  0.00000000000E+00  0.39999999674E+01  0.40000000000E+01  0.51100000000E-03 0.  1.
    9000002   -1    0    0    0    0 -0.00000000000E+00 -0.00000000000E+00  0.00000000000E+00  0.93800000000E+00  0.93800000000E+00 0.  1.
         11    1    1    2    0    0 -0.43708226777E-01  0.30881934158E-01  0.43231925379E+00  0.43561944547E+00  0.51100000000E-03 0.  1.
    9000002    1    1    2    0    0  0.43144612672E+00  0.18189107638E+00  0.15335060519E+00  0.10595237289E+01  0.93800000000E+00 0.  1.
         22    1    1    2    0    0 -0.38773789994E+00 -0.21277301054E+00  0.34143301084E+01  0.34428568257E+01  0.00000000000E+00 0.  1.
</event>
<event>
 5    1  0.6172503E+001  0.1598745E+01  0.7818608E-02  0.3354727E+00
         11   -1    0    0    0    0  0.00000000000E+00  0.00000000000E+00  0.39999999674E+01  0.40000000000E+01  0.51100000000E-03 0. -1.
    9000002   -1    0    0    0    0 -0.00000000000E+00 -0.00000000000E+00  0.00000000000E+00  0.93800000000E+00  0.93800000000E+00 0.  1.
         11    1    1    2    0    0  0.67042530249E-01  0.64441007891E-01  0.89300265889E+00  0.89783147320E+00  0.51100000000E-03 0. -1.
    9000002    1    1    2    0    0 -0.24719946575E+00 -0.40484174630E+00  0.15420911679E+00  0.10623694589E+01  0.93800000000E+00 0.  1.
         22    1    1    2    0    0  0.18015693550E+00  0.34040073841E+00  0.29527881917E+01  0.29777990679E+01  0.00000000000E+00 0. -1.
</event>
<event>
 5    1  0.6172503E+001  0.1599676E+01  0.7818608E-02  0.3353715E+00
         11   -1    0    0    0    0  0.00000000000E+00  0.00000000000E+00  0.39999999674E+01  0.40000000000E+01  0.51100000000E-03 0. -1.
    9000002   -1    0    0    0    0 -0.00000000000E+00 -0.00000000000E+00  0.00000000000E+00  0.93800000000E+00  0.93800000000E+00 0. -1.
         11    1    1    2    0    0 -0.12602506284E+00  0.55155117997E-01  0.73618567701E+00  0.74892857847E+00  0.51100000000E-03 0. -1.
    9000002    1    1    2    0    0  0.63048577984E+00 -0.27375143711E+00  0.33651976915E+00  0.12105956067E+01  0.93800000000E+00 0. -1.
         22    1    1    2    0    0 -0.50446071700E+00  0.21859631911E+00  0.29272945212E+01  0.29784758148E+01  0.00000000000E+00 0. -1.
</event>
<event>
 5    1  0.6172503E+001  0.1599646E+01  0.7818608E-02  0.3353747E+00
         11   -1    0    0    0    0  0.00000000000E+00  0.00000000000E+00  0.39999999674E+01  0.40000000000E+01  0.51100000000E-03 0. -1.
    9000002   -1    0    0    0    0 -0.00000000000E+00 -0.00000000000E+00  0.00000000000E+00  0.93800000000E+00  0.93800000000E+00 0. -1.
         11    1    1    2    0    0 -0.20618968500E+00  0.26893261075E-01  0.13550608822E+01  0.13709222040E+01  0.51100000000E-03 0. -1.
    9000002    1    1    2    0    0  0.55784686219E+00 -0.70777073878E-01  0.21894959940E+00  0.11153409537E+01  0.93800000000E+00 0. -1.
         22    1    1    2    0    0 -0.35165717719E+00  0.43883812803E-01  0.24259894857E+01  0.24517368424E+01  0.00000000000E+00 0. -1.
</event>
<event>
 5    1  0.6172503E+001  0.1599674E+01  0.7818608E-02  0.3353718E+00
         11   -1    0    0    0    0  0.00000000000E+00  0.00000000000E+00  0.39999999674E+01  0.40000000000E+01  0.51100000000E-03 0.  1.
    9000002   -1    0    0    0    0 -0.00000000000E+00 -0.00000000000E+00  0.00000000000E+00  0.93800000000E+00  0.93800000000E+00 0.  1.
         11    1    1    2    0    0  0.71294338462E-01  0.13203739117E-01  0.66576267202E+00  0.66969949828E+00  0.51100000000E-03 0.  1.
    9000002    1    1    2    0    0 -0.42407370476E+00 -0.78933723176E-01  0.12603956167E+00  0.10400956739E+01  0.93800000000E+00 0.  1.
         22    1    1    2    0    0  0.35277936630E+00  0.65729984058E-01  0.32081977337E+01  0.32282048278E+01  0.00000000000E+00 0.  1.
</event>
<event>
 5    1  0.6172503E+001  0.1599643E+01  0.7818608E-02  0.3353751E+00
         11   -1    0    0    0    0  0.00000000000E+00  0.00000000000E+00  0.39999999674E+01  0.40000000000E+01  0.51100000000E-03 0.  1.
    9000002   -1    0    0    0    0 -0.00000000000E+00 -0.00000000000E+00  0.00000000000E+00  0.93800000000E+00  0.93800000000E+00 0.  1.
         11    1    1    2    0    0 -0.61201063433E-01 -0.29060794076E-01  0.55216272637E+00  0.55630390744E+00  0.51100000000E-03 0.  1.
    9000002    1    1    2    0    0  0.43093966642E+00  0.23569888806E+00  0.16494714390E+00  0.10715943832E+01  0.93800000000E+00 0.  1.
         22    1    1    2    0    0 -0.36973860299E+00 -0.20663809398E+00  0.32828900971E+01  0.33101017093E+01  0.00000000000E+00 0.  1.
</event>
<event>
 5    1  0.8402262E+001  0.1595071E+01  0.7818608E-02  0.3358731E+00
         11   -1    0    0    0    0  0.00000000000E+00  0.00000000000E+00  0.39999999674E+01  0.40000000000E+01  0.51100000000E-03 0. -1.
    9000002   -1    0    0    0    0 -0.00000000000E+00 -0.00000000000E+00  0.00000000000E+00  0.93800000000E+00  0.93800000000E+00 0.  1.
         11    1    1    2    0    0  0.23647515355E-01 -0.16430587850E-01  0.13738150064E+01  0.13741168444E+01  0.51100000000E-03 0. -1.
    9000002    1    1    2    0    0 -0.26429951337E+00 -0.60293182336E-01  0.52463025367E-01  0.97779643568E+00  0.93800000000E+00 0.  1.
         22    1    1    2    0    0  0.24065199801E+00  0.76723770186E-01  0.25737219356E+01  0.25860867199E+01  0.00000000000E+00 0. -1.
</event>
<event>
 5    1  0.6172503E+001  0.1599677E+01  0.7818608E-02  0.3353714E+00
         11   -1    0    0    0    0  0.00000000000E+00  0.00000000000E+00  0.39999999674E+01  0.40000000000E+01  0.51100000000E-03 0. -1.
    9000002   -1    0    0    0    0 -0.00000000000E+00 -0.00000000000E+00  0.00000000000E+00  0.93800000000E+00  0.93800000000E+00 0.  1.
         11    1    1    2    0    0  0.32558066272E-01  0.17737179673E+00  0.11708034067E+01  0.11846103411E+01  0.51100000000E-03 0. -1.
    9000002    1    1    2    0    0 -0.10600995476E+00 -0.57036508020E+00  0.23384160996E+00  0.11274219857E+01  0.93800000000E+00 0.  1.
         22    1    1    2    0    0  0.73451888491E-01  0.39299328347E+00  0.25953549507E+01  0.26259676732E+01  0.00000000000E+00 0.  1.
</event>
<event>
 5    1  0.6172503E+001  0.1599305E+01  0.7818608E-02  0.3354118E+00
         11   -1    0    0    0    0  0.00000000000E+00  0.00000000000E+00  0.39999999674E+01  0.40000000000E+01  0.51100000000E-03 0. -1.
    9000002   -1    0    0    0    0 -0.00000000000E+00 -0.00000000000E+00  0.00000000000E+00  0.93800000000E+00  0.93800000000E+00 0.  1.
         11    1    1    2    0    0 -0.10327589888E-01 -0.68990778726E-01  0.55376027096E+00  0.55813715651E+00  0.51100000000E-03 0. -1.
    9000002    1    1    2    0    0 -0.41339793981E-01  0.47702300770E+00  0.15672730665E+00  0.10647381730E+01  0.93800000000E+00 0.  1.
         22    1    1    2    0    0  0.51667383870E-01 -0.40803222897E+00  0.32895123897E+01  0.33151246705E+01  0.00000000000E+00 0. -1.
</event>
<event>
 5    1  0.6172503E+001  0.1599676E+01  0.7818608E-02  0.3353715E+00
         11   -1    0    0    0    0  0.00000000000E+00  0.00000000000E+00  0.39999999674E+01  0.40000000000E+01  0.51100000000E-03 0. -1.
    9000002   -1    0    0    0    0 -0.00000000000E+00 -0.00000000000E+00  0.00000000000E+00  0.93800000000E+00  0.93800000000E+00 0. -1.
         11    1    1    2    0    0 -0.35419713972E-01 -0.13296464676E+00  0.11715226463E+01  0.11795760786E+01  0.51100000000E-03 0. -1.
    9000002    1    1    2    0    0  0.11965636912E+00  0.43937312421E+00  0.14095319635E+00  0.10521778331E+01  0.93800000000E+00 0. -1.
         22    1    1    2    0    0 -0.84236655152E-01 -0.30640847745E+00  0.26875241248E+01  0.27062460883E+01  0.00000000000E+00 0. -1.
</event>
<event>
 5    1  0.6172503E+001  0.1598471E+01  0.7818608E-02  0.3355025E+00
         11   -1    0    0    0    0  0.00000000000E+00  0.00000000000E+00  0.39999999674E+01  0.40000000000E+01  0.51100000000E-03 0.  1.
    9000002   -1    0    0    0    0 -0.00000000000E+00 -0.00000000000E+00  0.00000000000E+00  0.93800000000E+00  0.93800000000E+00 0.  1.
         11    1    1    2    0    0  0.69620635352E-01  0.20692239453E-01  0.64200006650E+00  0.64609561842E+00  0.51100000000E-03 0.  1.
    9000002    1    1    2    0    0 -0.43303350474E+00  0.62183062694E-01  0.13078188560E+00  0.10432318300E+01  0.93800000000E+00 0.  1.
         22    1    1    2    0    0  0.36341286939E+00 -0.82875302147E-01  0.32272180153E+01  0.32486725516E+01  0.00000000000E+00 0.  1.
</event>
<event>
 5    1  0.6172503E+001  0.1598131E+01  0.7818608E-02  0.3355395E+00
         11   -1    0    0    0    0  0.00000000000E+00  0.00000000000E+00  0.39999999674E+01  0.40000000000E+01  0.51100000000E-03 0. -1.
    9000002   -1    0    0    0    0 -0.00000000000E+00 -0.00000000000E+00  0.00000000000E+00  0.93800000000E+00  0.93800000000E+00 0.  1.
         11    1    1    2    0    0 -0.10896260208E+00 -0.98421232516E-01  0.12647863730E+01  0.12732809659E+01  0.51100000000E-03 0. -1.
    9000002    1    1    2    0    0  0.45583885794E+00  0.25287693511E+00  0.18812351230E+00  0.10894816495E+01  0.93800000000E+00 0.  1.
         22    1    1    2    0    0 -0.34687625586E+00 -0.15445570260E+00  0.25470900820E+01  0.25752373846E+01  0.00000000000E+00 0. -1.
</event>
<event>
 5    1  0.6258435E+001  0.1584097E+01  0.7818608E-02  0.3370807E+00
         11   -1    0    0    0    0  0.00000000000E+00  0.00000000000E+00  0.39999999674E+01  0.40000000000E+01  0.51100000000E-03 0. -1.
    9000002   -1    0    0    0    0 -0.00000000000E+00 -0.00000000000E+00  0.00000000000E+00  0.93800000000E+00  0.93800000000E+00 0.  1.
         11    1    1    2    0    0 -0.17719908873E+00 -0.27833633913E+00  0.12586329354E+01  0.13011640027E+01  0.51100000000E-03 0. -1.
    9000002    1    1    2    0    0  0.32913499050E+00  0.45272272413E+00  0.23179608057E+00  0.11166293610E+01  0.93800000000E+00 0.  1.
         22    1    1    2    0    0 -0.15193590177E+00 -0.17438638500E+00  0.25095709514E+01  0.25202066363E+01  0.00000000000E+00 0. -1.
</event>
<event>
 5    1  0.6172503E+001  0.1599590E+01  0.7818608E-02  0.3353809E+00
         11   -1    0    0    0    0  0.00000000000E+00  0.00000000000E+00  0.39999999674E+01  0.40000000000E+01  0.51100000000E-03 0.  1.
    9000002   -1    0    0    0    0 -0.00000000000E+00 -0.00000000000E+00  0.00000000000E+00  0.93800000000E+00  0.93800000000E+00 0. -1.
         11    1    1    2    0    0  0.30386559573E-02  0.46665477177E-01  0.43385153883E+00  0.43636489210E+00  0.51100000000E-03 0.  1.
    9000002    1    1    2    0    0 -0.54054770681E-01 -0.36265395328E+00  0.90384425055E-01  0.10111642559E+01  0.93800000000E+00 0. -1.
         22    1    1    2    0    0  0.51016114724E-01  0.31598847611E+00  0.34757640035E+01  0.34904708520E+01  0.00000000000E+00 0.  1.
</event>
<event>
 5    1  0.6172503E+001  0.1599668E+01  0.7818608E-02  0.3353723E+00
         11   -1    0    0    0    0  0.00000000000E+00  0.00000000000E+00  0.39999999674E+01  0.40000000000E+01  0.51100000000E-03 0. -1.
    9000002   -1    0    0    0    0 -0.00000000000E+00 -0.00000000000E+00  0.00000000000E+00  0.93800000000E+00  0.93800000000E+00 0. -1.
         11    1    1    2    0    0  0.74821348290E-01  0.17186225835E+00  0.11657555364E+01  0.11807290552E+01  0.51100000000E-03 0. -1.
    9000002    1    1    2    0    0 -0.24445053090E+00 -0.54332921110E+00  0.24744369499E+00  0.11384353631E+01  0.93800000000E+00 0. -1.
         22    1    1    2    0    0  0.16962918261E+00  0.37146695274E+00  0.25868007360E+01  0.26188355818E+01  0.00000000000E+00 0. -1.
</event>
<event>
 5    1  0.6172503E+001  0.1599677E+01  0.7818608E-02  0.3353714E+00
         11   -1    0    0    0    0  0.00000000000E+00  0.00000000000E+00  0.39999999674E+01  0.40000000000E+01  0.51100000000E-03 0.  1.
    9000002   -1    0    0    0    0 -0.00000000000E+00 -0.00000000000E+00  0.00000000000E+00  0.93800000000E+00  0.93800000000E+00 0. -1.
         11    1    1    2    0    0  0.91215403986E-01  0.10256868384E+00  0.12728158693E+01  0.12801957206E+01  0.51100000000E-03 0.  1.
    9000002    1    1    2    0    0 -0.27674236002E+00 -0.31216301503E+00  0.11765382244E+00  0.10333046519E+01  0.93800000000E+00 0. -1.
         22    1    1    2    0    0  0.18552695603E+00  0.20959433119E+00  0.26095302756E+01  0.26244996274E+01  0.00000000000E+00 0.  1.
</event>
<event>
 5    1  0.6172503E+001  0.1599402E+01  0.7818608E-02  0.3354013E+00
         11   -1    0    0    0    0  0.00000000000E+00  0.00000000000E+00  0.39999999674E+01  0.40000000000E+01  0.51100000000E-03 0. -1.
    9000002   -1    0    0    0    0 -0.00000000000E+00 -0.00000000000E+00  0.00000000000E+00  0.93800000000E+00  0.93800000000E+00 0. -1.
         11    1    1    2    0    0  0.16603023548E+00  0.12956119118E+00  0.12868294687E+01  0.13039488042E+01  0.51100000000E-03 0. -1.
    9000002    1    1    2    0    0 -0.43702234025E+00 -0.40691876408E+00  0.24890062045E+00  0.11394590494E+01  0.93800000000E+00 0. -1.
         22    1    1    2    0    0  0.27099210478E+00  0.27735757290E+00  0.24642698782E+01  0.24945921464E+01  0.00000000000E+00 0. -1.
</event>
<event>
 5    1  0.6172503E+001  0.1563441E+01  0.7818608E-02  0.3394025E+00
         11   -1    0    0    0    0  0.00000000000E+00  0.00000000000E+00  0.39999999674E+01  0.40000000000E+01  0.51100000000E-03 0. -1.
    9000002   -1    0    0    0    0 -0.00000000000E+00 -0.00000000000E+00  0.00000000000E+00  0.93800000000E+00  0.93800000000E+00 0. -1.
         11    1    1    2    0    0  0.76706973703E-02 -0.74742595910E-03 -0.14051240430E-01  0.16034235945E-01  0.51100000000E-03 0. -1.
    9000002    1    1    2    0    0 -0.57673770437E+00  0.41991803004E+00  0.40769412842E+00  0.12470028203E+01  0.93800000000E+00 0. -1.
         22    1    1    2    0    0  0.56906700700E+00 -0.41917060408E+00  0.36063570794E+01  0.36749629437E+01  0.00000000000E+00 0. -1.
</event>
<event>
 5    1  0.6172503E+001  0.1599674E+01  0.7818608E-02  0.3353718E+00
         11   -1    0    0    0    0  0.00000000000E+00  0.00000000000E+00  0.39999999674E+01  0.40000000000E+01  0.51100000000E-03 0. -1.
    9000002   -1    0    0    0    0 -0.00000000000E+00 -0.00000000000E+00  0.00000000000E+00  0.93800000000E+00  0.93800000000E+00 0.  1.
         11    1    1    2    0    0  0.25049411923E-01  0.10735249951E-01  0.25839368179E+00  0.25982739374E+00  0.51100000000E-03 0. -1.
    9000002    1    1    2    0    0 -0.37585921029E+00 -0.14680667179E+00  0.10987943246E+00  0.10270052748E+01  0.93800000000E+00 0.  1.
         22    1    1    2    0    0  0.35080979837E+00  0.13607142184E+00  0.36317268531E+01  0.36511673314E+01  0.00000000000E+00 0. -1.
</event>
<event>
 5    1  0.6172503E+001  0.1599262E+01  0.7818608E-02  0.3354165E+00
         11   -1    0    0    0    0  0.00000000000E+00  0.00000000000E+00  0.39999999674E+01  0.40000000000E+01  0.51100000000E-03 0. -1.
    9000002   -1    0    0    0    0 -0.00000000000E+00 -0.00000000000E+00  0.00000000000E+00  0.93800000000E+00  0.93800000000E+00 0.  1.
         11    1    1    2    0    0 -0.11943657046E-02  0.63040001242E-03  0.11315585116E-01  0.11407344175E-01  0.51100000000E-03 0. -1.
    9000002    1    1    2    0    0  0.99041898997E-01  0.61432025062E+00  0.27189310032E+00  0.11580019543E+01  0.93800000000E+00 0.  1.
         22    1    1    2    0    0 -0.97847533292E-01 -0.61495065064E+00  0.37167912819E+01  0.37685907016E+01  0.00000000000E+00 0. -1.
</event>
<event>
 5    1  0.6172503E+001  0.1568735E+01  0.7818608E-02  0.3388013E+00
         11   -1    0    0    0    0  0.00000000000E+00  0.00000000000E+00  0.39999999674E+01  0.40000000000E+01  0.51100000000E-03 0. -1.
    9000002   -1    0    0    0    0 -0.00000000000E+00 -0.00000000000E+00  0.00000000000E+00  0.93800000000E+00  0.93800000000E+00 0. -1.
         11    1    1    2    0    0 -0.68220418929E-01 -0.89507304689E-01  0.16624738809E+00  0.20075865690E+00  0.51100000000E-03 0. -1.
    9000002    1    1    2    0    0  0.40789743577E+00  0.27903155148E+00  0.19531151599E+00  0.10780674900E+01  0.93800000000E+00 0. -1.
         22    1    1    2    0    0 -0.33967701684E+00 -0.18952424679E+00  0.36384410633E+01  0.36591738531E+01  0.00000000000E+00 0. -1.
</event>
<event>
 5    1  0.6172503E+001  0.1583075E+01  0.7818608E-02  0.3371941E+00
         11   -1    0    0    0    0  0.00000000000E+00  0.00000000000E+00  0.39999999674E+01  0.40000000000E+01  0.51100000000E-03 0. -1.
    9000002   -1    0    0    0    0 -0.00000000000E+00 -0.00000000000E+00  0.00000000000E+00  0.93800000000E+00  0.93800000000E+00 0. -1.
         11    1    1    2    0    0 -0.24950639376E+00 -0.82913636152E-01  0.99157138322E+00  0.10258373071E+01  0.51100000000E-03 0. -1.
    9000002    1    1    2    0    0  0.47639476959E+00  0.56734600200E+00  0.41673315116E+00  0.12658372651E+01  0.93800000000E+00 0. -1.
         22    1    1    2    0    0 -0.22688837583E+00 -0.48443236585E+00  0.25916954330E+01  0.26463254277E+01  0.00000000000E+00 0. -1.
</event>
<event>
 5    1  0.6172503E+001  0.1599676E+01  0.7818608E-02  0.3353715E+00
         11   -1    0    0    0    0  0.00000000000E+00  0.00000000000E+00  0.39999999674E+01  0.40000000000E+01  0.51100000000E-03 0.  1.
    9000002   -1    0    0    0    0 -0.00000000000E+00 -0.00000000000E+00  0.00000000000E+00  0.93800000000E+00  0.93800000000E+00 0.  1.
         11    1    1    2    0    0 -0.54914111198E-02  0.61733609109E-01  0.62593277609E+00  0.62899387548E+00  0.51100000000E-03 0.  1.
    9000002    1    1    2    0    0  0.37803899371E-01 -0.38428066987E+00  0.10039668325E+00  0.10193253956E+01  0.93800000000E+00 0.  1.
         22    1    1    2    0    0 -0.32312488251E-01  0.32254706076E+00  0.32736705080E+01  0.32896807290E+01  0.00000000000E+00 0.  1.
</event>
<event>
 5    1  0.6172503E+001  0.1595942E+01  0.7818608E-02  0.3357780E+00
         11   -1    0    0    0    0  0.00000000000E+00  0.00000000000E+00  0.39999999674E+01  0.40000000000E+01  0.51100000000E-03 0.  1.
    9000002   -1    0    0    0    0 -0.00000000000E+00 -0.00000000000E+00  0.00000000000E+00  0.93800000000E+00  0.93800000000E+00 0.  1.
         11    1    1    2    0    0  0.18526209867E-01 -0.93135249837E-01  0.14494174745E+01  0.14525249298E+01  0.51100000000E-03 0.  1.
    9000002    1    1    2    0    0 -0.24107960889E+00  0.26879268465E+00  0.90556571468E-01  0.10091646931E+01  0.93800000000E+00 0.  1.
         22    1    1    2    0    0  0.22255339902E+00 -0.17565743481E+00  0.24600259214E+01  0.24763103771E+01  0.00000000000E+00 0.  1.
</event>
<event>
 5    1  0.6172503E+001  0.1498275E+01  0.7818608E-02  0.3471757E+00
         11   -1    0    0    0    0  0.00000000000E+00  0.00000000000E+00  0.39999999674E+01  0.40000000000E+01  0.51100000000E-03 0. -1.
    9000002   -1    0    0    0    0 -0.00000000000E+00 -0.00000000000E+00  0.00000000000E+00  0.93800000000E+00  0.93800000000E+00 0.  1.
         11    1    1    2    0    0 -0.13068834721E+00 -0.22952200224E+00  0.63182978370E+00  0.68481306230E+00  0.51100000000E-03 0. -1.
    9000002    1    1    2    0    0 -0.36547240410E-01 -0.12734687635E+00  0.90183486873E-01  0.95159339479E+00  0.93800000000E+00 0.  1.
         22    1    1    2    0    0  0.16723558762E+00  0.35686887859E+00  0.32779866968E+01  0.33015935429E+01  0.00000000000E+00 0.  1.
</event>
<event>
 5    1  0.6172503E+001  0.1598922E+01  0.7818608E-02  0.3354534E+00
         11   -1    0    0    0    0  0.00000000000E+00  0.00000000000E+00  0.39999999674E+01  0.40000000000E+01  0.51100000000E-03 0. -1.
    9000002   -1    0    0    0    0 -0.00000000000E+00 -0.00000000000E+00  0.00000000000E+00  0.93800000000E+00  0.93800000000E+00 0. -1.
         11    1    1    2    0    0  0.76740093924E-02 -0.47884987368E-01  0.34587310237E+00  0.34925682026E+00  0.51100000000E-03 0. -1.
    9000002    1    1    2    0    0  0.69642820813E-01  0.39468610042E+00  0.10898580092E+00  0.10258407016E+01  0.93800000000E+00 0. -1.
         22    1    1    2    0    0 -0.77316830206E-01 -0.34680111305E+00  0.35451410641E+01  0.35629024781E+01  0.00000000000E+00 0. -1.
</event>
<event>
 5    1  0.6172503E+001  0.1599675E+01  0.7818608E-02  0.3353716E+00
         11   -1    0    0    0    0  0.00000000000E+00  0.00000000000E+00  0.39999999674E+01  0.40000000000E+01  0.51100000000E-03 0. -1.
    9000002   -1    0    0    0    0 -0.00000000000E+00 -0.00000000000E+00  0.00000000000E+00  0.93800000000E+00  0.93800000000E+00 0. -1.
         11    1    1    2    0    0 -0.11575949206E+00  0.89569861709E-01  0.97893184945E+00  0.98981354160E+00  0.51100000000E-03 0. -1.
    9000002    1    1    2    0    0  0.44592456698E+00 -0.35154410380E+00  0.22347778423E+00  0.11190256013E+01  0.93800000000E+00 0. -1.
         22    1    1    2    0    0 -0.33016507492E+00  0.26197424209E+00  0.27975903337E+01  0.28291608571E+01  0.00000000000E+00 0. -1.
</event>
<event>
 5    1  0.6172503E+001  0.1599654E+01  0.7818608E-02  0.3353739E+00
         11   -1    0    0    0    0  0.00000000000E+00  0.00000000000E+00  0.39999999674E+01  0.40000000000E+01  0.51100000000E-03 0. -1.
    9000002   -1    0    0    0    0 -0.00000000000E+00 -0.00000000000E+00  0.00000000000E+00  0.93800000000E+00  0.93800000000E+00 0.  1.
         11    1    1    2    0    0  0.11780381518E-01  0.12882542357E-01  0.10396193408E+00  0.10541860436E+00  0.51100000000E-03 0. -1.
    9000002    1    1    2    0    0 -0.45195828628E+00 -0.40448131427E+00  0.25704693406E+00  0.11462061562E+01  0.93800000000E+00 0.  1.
         22    1    1    2    0    0  0.44017790476E+00  0.39159877192E+00  0.36389910992E+01  0.36863752395E+01  0.00000000000E+00 0. -1.
</event>
<event>
 5    1  0.6172503E+001  0.1599045E+01  0.7818608E-02  0.3354400E+00
         11   -1    0    0    0    0  0.00000000000E+00  0.00000000000E+00  0.39999999674E+01  0.40000000000E+01  0.51100000000E-03 0. -1.
    9000002   -1    0    0    0    0 -0.00000000000E+00 -0.00000000000E+00  0.00000000000E+00  0.93800000000E+00  0.93800000000E+00 0.  1.
         11    1    1    2    0    0  0.61717950658E-01  0.62001226667E-01  0.11813840957E+01  0.11846188839E+01  0.51100000000E-03 0. -1.
    9000002    1    1    2    0    0 -0.27077726262E+00 -0.26810804167E+00  0.98229342675E-01  0.10171997108E+01  0.93800000000E+00 0.  1.
         22    1    1    2    0    0  0.20905931196E+00  0.20610681500E+00  0.27203865290E+01  0.27361814052E+01  0.00000000000E+00 0. -1.
</event>
<event>
 5    1  0.6172503E+001  0.1599673E+01  0.7818608E-02  0.3353718E+00
         11   -1    0    0    0    0  0.00000000000E+00  0.00000000000E+00  0.39999999674E+01  0.40000000000E+01  0.51100000000E-03 0. -1.
    9000002   -1    0    0    0    0 -0.00000000000E+00 -0.00000000000E+00  0.00000000000E+00  0.93800000000E+00  0.93800000000E+00 0. -1.
         11    1    1    2    0    0  0.10537531220E+00 -0.35860751913E-01  0.11535731534E+01  0.11589310728E+01  0.51100000000E-03 0. -1.
    9000002    1    1    2    0    0 -0.36011177331E+00  0.12751597658E+00  0.98222080973E-01  0.10175619837E+01  0.93800000000E+00 0. -1.
         22    1    1    2    0    0  0.25473646111E+00 -0.91655224665E-01  0.27482047329E+01  0.27615069435E+01  0.00000000000E+00 0. -1.
</event>
<event>
 5    1  0.6172503E+001  0.1599493E+01  0.7818608E-02  0.3353914E+00
         11   -1    0    0    0    0  0.00000000000E+00  0.00000000000E+00  0.39999999674E+01  0.40000000000E+01  0.51100000000E-03 0. -1.
    9000002   -1    0    0    0    0 -0.00000000000E+00 -0.00000000000E+00  0.00000000000E+00  0.93800000000E+00  0.93800000000E+00 0. -1.
         11    1    1    2    0    0  0.54347713874E-01 -0.88024379548E-01  0.75491720617E+00  0.76197258132E+00  0.51100000000E-03 0. -1.
    9000002    1    1    2    0    0 -0.33694063299E+00  0.42704777646E+00  0.20431770982E+00  0.11033986225E+01  0.93800000000E+00 0. -1.
         22    1    1    2    0    0  0.28259291912E+00 -0.33902339691E+00  0.30407650514E+01  0.30726287962E+01  0.00000000000E+00 0. -1.
</event>
<event>
 5    1  0.6172503E+001  0.1485795E+01  0.7818608E-02  0.3487479E+00
         11   -1    0    0    0    0  0.00000000000E+00  0.00000000000E+00  0.39999999674E+01  0.40000000000E+01  0.51100000000E-03 0. -1.
    9000002   -1    0    0    0    0 -0.00000000000E+00 -0.00000000000E+00  0.00000000000E+00  0.93800000000E+00  0.93800000000E+00 0. -1.
         11    1    1    2    0    0 -0.21079615782E+00  0.20076612841E+00  0.65774491748E+00  0.71928485043E+00  0.51100000000E-03 0. -1.
    9000002    1    1    2    0    0 -0.72021324997E-01  0.66105900531E-01  0.94543759477E-01  0.94780777787E+00  0.93800000000E+00 0. -1.
         22    1    1    2    0    0  0.28281748281E+00 -0.26687202894E+00  0.32477112904E+01  0.32709073717E+01  0.00000000000E+00 0. -1.
</event>
<event>
 5    1  0.6172503E+001  0.1599676E+01  0.7818608E-02  0.3353715E+00
         11   -1    0    0    0    0  0.00000000000E+00  0.00000000000E+00  0.39999999674E+01  0.40000000000E+01  0.51100000000E-03 0. -1.
    9000002   -1    0    0    0    0 -0.00000000000E+00 -0.00000000000E+00  0.00000000000E+00  0.93800000000E+00  0.93800000000E+00 0.  1.
         11    1    1    2    0    0  0.10331685593E+00 -0.10958117212E+00  0.10973129509E+01  0.11076002796E+01  0.51100000000E-03 0. -1.
    9000002    1    1    2    0    0 -0.35938344092E+00  0.38384307791E+00  0.19012459904E+00  0.10920088503E+01  0.93800000000E+00 0.  1.
         22    1    1    2    0    0  0.25606658498E+00 -0.27426190579E+00  0.27125624174E+01  0.27383908701E+01  0.00000000000E+00 0. -1.
</event>
<event>
 5    1  0.6172503E+001  0.1599637E+01  0.7818608E-02  0.3353757E+00
         11   -1    0    0    0    0  0.00000000000E+00  0.00000000000E+00  0.39999999674E+01  0.40000000000E+01  0.51100000000E-03 0. -1.
    9000002   -1    0    0    0    0 -0.00000000000E+00 -0.00000000000E+00  0.00000000000E+00  0.93800000000E+00  0.93800000000E+00 0. -1.
         11    1    1    2    0    0  0.14519239950E+00 -0.69677669210E-01  0.14144439594E+01  0.14235827289E+01  0.51100000000E-03 0. -1.
    9000002    1    1    2    0    0 -0.41438282564E+00  0.19785267768E+00  0.14344340191E+00  0.10541721007E+01  0.93800000000E+00 0. -1.
         22    1    1    2    0    0  0.26919042614E+00 -0.12817500847E+00  0.24421126060E+01  0.24602451705E+01  0.00000000000E+00 0. -1.
</event>
<event>
 5    1  0.6172503E+001  0.1593219E+01  0.7818608E-02  0.3360756E+00
         11   -1    0    0    0    0  0.00000000000E+00  0.00000000000E+00  0.39999999674E+01  0.40000000000E+01  0.51100000000E-03 0. -1.
    9000002   -1    0    0    0    0 -0.00000000000E+00 -0.00000000000E+00  0.00000000000E+00  0.93800000000E+00  0.93800000000E+00 0. -1.
         11    1    1    2    0    0 -0.34268713947E-01  0.96940712108E-01  0.87078427094E+00  0.87683370947E+00  0.51100000000E-03 0. -1.
    9000002    1    1    2    0    0  0.32703154767E+00 -0.11821429958E+00  0.86271519558E-01  0.10040971212E+01  0.93800000000E+00 0. -1.
         22    1    1    2    0    0 -0.29276283373E+00  0.21273587472E-01  0.30429441769E+01  0.30570691693E+01  0.00000000000E+00 0. -1.
</event>
<event>
 5    1  0.6172503E+001  0.1599615E+01  0.7818608E-02  0.3353781E+00
         11   -1    0    0    0    0  0.00000000000E+00  0.00000000000E+00  0.39999999674E+01  0.40000000000E+01  0.51100000000E-03 0. -1.
    9000002   -1    0    0    0    0 -0.00000000000E+00 -0.00000000000E+00  0.00000000000E+00  0.93800000000E+00  0.93800000000E+00 0.  1.
         11    1    1    2    0    0 -0.80816806714E-01  0.28952454890E-01  0.10202852233E+01  0.10238905209E+01  0.51100000000E-03 0. -1.
    9000002    1    1    2    0    0  0.33648637741E+00 -0.12879721737E+00  0.87190701830E-01  0.10085920998E+01  0.93800000000E+00 0.  1.
         22    1    1    2    0    0 -0.25566957069E+00  0.99844762485E-01  0.28925240422E+01  0.29055173792E+01  0.00000000000E+00 0. -1.
</event>
<event>
 5    1  0.6172503E+001  0.1598917E+01  0.7818608E-02  0.3354540E+00
         11   -1    0    0    0    0  0.00000000000E+00  0.00000000000E+00  0.39999999674E+01  0.40000000000E+01  0.51100000000E-03 0. -1.
    9000002   -1    0    0    0    0 -0.00000000000E+00 -0.00000000000E+00  0.00000000000E+00  0.93800000000E+00  0.93800000000E+00 0. -1.
         11    1    1    2    0    0 -0.40994384814E-01  0.12989431589E+00  0.13333410687E+01  0.13402804705E+01  0.51100000000E-03 0. -1.
    9000002    1    1    2    0    0  0.21045324906E+00 -0.36854695998E+00  0.12253128607E+00  0.10368101793E+01  0.93800000000E+00 0. -1.
         22    1    1    2    0    0 -0.16945886424E+00  0.23865264409E+00  0.25441276126E+01  0.25609093503E+01  0.00000000000E+00 0. -1.
</event>
<event>
 5    1  0.6172503E+001  0.1599677E+01  0.7818608E-02  0.3353715E+00
         11   -1    0    0    0    0  0.00000000000E+00  0.00000000000E+00  0.39999999674E+01  0.40000000000E+01  0.51100000000E-03 0. -1.
    9000002   -1    0    0    0    0 -0.00000000000E+00 -0.00000000000E+00  0.00000000000E+00  0.93800000000E+00  0.93800000000E+00 0.  1.
         11    1    1    2    0    0 -0.42194945832E-01 -0.46912225452E-01  0.58540927473E+00  0.58880000884E+00  0.51100000000E-03 0. -1.
    9000002    1    1    2    0    0  0.27785511508E+00  0.30886905794E+00  0.11666135124E+00  0.10325005718E+01  0.93800000000E+00 0.  1.
         22    1    1    2    0    0 -0.23566016925E+00 -0.26195683248E+00  0.32979293414E+01  0.33166994193E+01  0.00000000000E+00 0. -1.
</event>
<event>
 5    1  0.6172503E+001  0.1598421E+01  0.7818608E-02  0.3355079E+00
         11   -1    0    0    0    0  0.00000000000E+00  0.00000000000E+00  0.39999999674E+01  0.40000000000E+01  0.51100000000E-03 0. -1.
    9000002   -1    0    0    0    0 -0.00000000000E+00 -0.00000000000E+00  0.00000000000E+00  0.93800000000E+00  0.93800000000E+00 0.  1.
         11    1    1    2    0    0 -0.36103427924E-02 -0.51674353489E-02  0.33650860240E-01  0.34240012837E-01  0.51100000000E-03 0. -1.
    9000002    1    1    2    0    0  0.21432608409E+00 -0.29104889874E+00  0.88730700419E-01  0.10091393704E+01  0.93800000000E+00 0.  1.
         22    1    1    2    0    0 -0.21071574130E+00  0.29621633409E+00  0.38776184067E+01  0.38946206167E+01  0.00000000000E+00 0. -1.
</event>
<event>
 5    1  0.6172503E+001  0.1599653E+01  0.7818608E-02  0.3353740E+00
         11   -1    0    0    0    0  0.00000000000E+00  0.00000000000E+00  0.39999999674E+01  0.40000000000E+01  0.51100000000E-03 0. -1.
    9000002   -1    0    0    0    0 -0.00000000000E+00 -0.00000000000E+00  0.00000000000E+00  0.93800000000E+00  0.93800000000E+00 0. -1.
         11    1    1    2    0    0 -0.10596409624E-01 -0.63573736619E-01  0.58705917042E+00  0.59058668676E+00  0.51100000000E-03 0. -1.
    9000002    1    1    2    0    0  0.81591281025E-01  0.39594592773E+00  0.11031743920E+00  0.10273481650E+01  0.93800000000E+00 0. -1.
         22    1    1    2    0    0 -0.70994871401E-01 -0.33237219111E+00  0.33026233577E+01  0.33200651482E+01  0.00000000000E+00 0. -1.
</event>
<event>
 5    1  0.6172503E+001  0.1591088E+01  0.7818608E-02  0.3363094E+00
         11   -1    0    0    0    0  0.00000000000E+00  0.00000000000E+00  0.39999999674E+01  0.40000000000E+01  0.51100000000E-03 0. -1.
    9000002   -1    0    0    0    0 -0.00000000000E+00 -0.00000000000E+00  0.00000000000E+00  0.93800000000E+00  0.93800000000E+00 0.  1.
         11    1    1    2    0    0  0.18938130878E+00 -0.47949677098E-01  0.12171500884E+01  0.12327282954E+01  0.51100000000E-03 0. -1.
    9000002    1    1    2    0    0 -0.46218938301E+00 -0.14744383968E+00  0.16839900284E+00  0.10693740860E+01  0.93800000000E+00 0.  1.
         22    1    1    2    0    0  0.27280807423E+00  0.19539351678E+00  0.26144508762E+01  0.26358976186E+01  0.00000000000E+00 0. -1.
</event>
<event>
 5    1  0.6172503E+001  0.1599664E+01  0.7818608E-02  0.3353728E+00
         11   -1    0    0    0    0  0.00000000000E+00  0.00000000000E+00  0.39999999674E+01  0.40000000000E+01  0.51100000000E-03 0. -1.
    9000002   -1    0    0    0    0 -0.00000000000E+00 -0.00000000000E+00  0.00000000000E+00  0.93800000000E+00  0.93800000000E+00 0.  1.
         11    1    1    2    0    0 -0.15969247363E+00  0.85136331155E-01  0.14627464070E+01  0.14738986374E+01  0.51100000000E-03 0. -1.
    9000002    1    1    2    0    0  0.40981719413E+00 -0.22084785720E+00  0.14755177945E+00  0.10575156908E+01  0.93800000000E+00 0.  1.
         22    1    1    2    0    0 -0.25012472050E+00  0.13571152604E+00  0.23897017809E+01  0.24065856719E+01  0.00000000000E+00 0. -1.
</event>
<event>
 5    1  0.6172503E+001  0.1599382E+01  0.7818608E-02  0.3354035E+00
         11   -1    0    0    0    0  0.00000000000E+00  0.00000000000E+00  0.39999999674E+01  0.40000000000E+01  0.51100000000E-03 0.  1.
    9000002   -1    0    0    0    0 -0.00000000000E+00 -0.00000000000E+00  0.00000000000E+00  0.93800000000E+00  0.93800000000E+00 0.  1.
         11    1    1    2    0    0  0.27295509804E-01  0.63723271442E-01  0.57726138444E+00  0.58140920810E+00  0.51100000000E-03 0.  1.
    9000002    1    1    2    0    0 -0.11197285290E+00 -0.36252190074E+00  0.97097606456E-01  0.10164801983E+01  0.93800000000E+00 0.  1.
         22    1    1    2    0    0  0.84677343092E-01  0.29879862930E+00  0.33256409765E+01  0.33401105936E+01  0.00000000000E+00 0.  1.
</event>
<event>
 5    1  0.6172503E+001  0.1592900E+01  0.7818608E-02  0.3361106E+00
         11   -1    0    0    0    0  0.00000000000E+00  0.00000000000E+00  0.39999999674E+01  0.40000000000E+01  0.51100000000E-03 0. -1.
    9000002   -1    0    0    0    0 -0.00000000000E+00 -0.00000000000E+00  0.00000000000E+00  0.93800000000E+00  0.93800000000E+00 0.  1.
         11    1    1    2    0    0 -0.82159263281E-02 -0.58774559909E-02  0.12707721093E+01  0.12708123626E+01  0.51100000000E-03 0. -1.
    9000002    1    1    2    0    0 -0.23746861258E+00 -0.99056083369E-01  0.49217036245E-01  0.97389412477E+00  0.93800000000E+00 0.  1.
         22    1    1    2    0    0  0.24568453890E+00  0.10493353936E+00  0.26800108218E+01  0.26932935126E+01  0.00000000000E+00 0. -1.
</event>
<event>
 5    1  0.6172503E+001  0.1595199E+01  0.7818608E-02  0.3358591E+00
         11   -1    0    0    0    0  0.00000000000E+00  0.00000000000E+00  0.39999999674E+01  0.40000000000E+01  0.51100000000E-03 0. -1.
    9000002   -1    0    0    0    0 -0.00000000000E+00 -0.00000000000E+00  0.00000000000E+00  0.93800000000E+00  0.93800000000E+00 0. -1.
         11    1    1    2    0    0 -0.56600996063E-01 -0.30806657592E-01  0.98285610078E+00  0.98496654708E+00  0.51100000000E-03 0. -1.
    9000002    1    1    2    0    0  0.73375309360E-01  0.35554286572E+00  0.92143685632E-01  0.10100144178E+01  0.93800000000E+00 0. -1.
         22    1    1    2    0    0 -0.16774313297E-01 -0.32473620813E+00  0.29250001809E+01  0.29430190351E+01  0.00000000000E+00 0. -1.
</event>
<event>
 5    1  0.6172503E+001  0.1599158E+01  0.7818608E-02  0.3354278E+00
         11   -1    0    0    0    0  0.00000000000E+00  0.00000000000E+00  0.39999999674E+01  0.40000000000E+01  0.51100000000E-03 0. -1.
    9000002   -1    0    0    0    0 -0.00000000000E+00 -0.00000000000E+00  0.00000000000E+00  0.93800000000E+00  0.93800000000E+00 0. -1.
         11    1    1    2    0    0  0.15804741903E-02 -0.69821472567E-01  0.44713755618E+00  0.45255915768E+00  0.51100000000E-03 0. -1.
    9000002    1    1    2    0    0 -0.14912571176E+00  0.52814821358E+00  0.20846657054E+00  0.11065628425E+01  0.93800000000E+00 0. -1.
         22    1    1    2    0    0  0.14754523757E+00 -0.45832674102E+00  0.33443958406E+01  0.33788779998E+01  0.00000000000E+00 0. -1.
</event>
<event>
 5    1  0.6172503E+001  0.1599673E+01  0.7818608E-02  0.3353718E+00
         11   -1    0    0    0    0  0.00000000000E+00  0.00000000000E+00  0.39999999674E+01  0.40000000000E+01  0.51100000000E-03 0. -1.
    9000002   -1    0    0    0    0 -0.00000000000E+00 -0.00000000000E+00  0.00000000000E+00  0.93800000000E+00  0.93800000000E+00 0.  1.
         11    1    1    2    0    0  0.31667553967E-01  0.42139921277E-01  0.58946546596E+00  0.59181788045E+00  0.51100000000E-03 0. -1.
    9000002    1    1    2    0    0 -0.20822022704E+00 -0.29089577382E+00  0.85886683984E-01  0.10075696188E+01  0.93800000000E+00 0.  1.
         22    1    1    2    0    0  0.17655267307E+00  0.24875585254E+00  0.33246478174E+01  0.33386125008E+01  0.00000000000E+00 0. -1.
</event>
<event>
 5    1  0.6172503E+001  0.1598728E+01  0.7818608E-02  0.3354745E+00
         11   -1    0    0    0    0  0.00000000000E+00  0.00000000000E+00  0.39999999674E+01  0.40000000000E+01  0.51100000000E-03 0. -1.
    9000002   -1    0    0    0    0 -0.00000000000E+00 -0.00000000000E+00  0.00000000000E+00  0.93800000000E+00  0.93800000000E+00 0. -1.
         11    1    1    2    0    0 -0.41624396370E-02  0.96974230381E-02  0.44174940410E-01  0.45420836612E-01  0.51100000000E-03 0. -1.
    9000002    1    1    2    0    0  0.35765714114E+00 -0.15877881516E+00  0.10396028538E+00  0.10216560496E+01  0.93800000000E+00 0. -1.
         22    1    1    2    0    0 -0.35349470150E+00  0.14908139212E+00  0.38518647416E+01  0.38709231138E+01  0.00000000000E+00 0. -1.
</event>
<event>
 5    1  0.6172503E+001  0.1556608E+01  0.7818608E-02  0.3401850E+00
         11   -1    0    0    0    0  0.00000000000E+00  0.00000000000E+00  0.39999999674E+01  0.40000000000E+01  0.51100000000E-03 0.  1.
    9000002   -1    0    0    0    0 -0.00000000000E+00 -0.00000000000E+00  0.00000000000E+00  0.93800000000E+00  0.93800000000E+00 0.  1.
         11    1    1    2    0    0 -0.27454349721E+00 -0.37339755380E+00  0.11650384401E+01  0.12538399790E+01  0.51100000000E-03 0.  1.
    9000002    1    1    2    0    0  0.26140885786E+00  0.68686290733E+00  0.44236473409E+00  0.12710805649E+01  0.93800000000E+00 0.  1.
         22    1    1    2    0    0  0.13134639348E-01 -0.31346535353E+00  0.23925967932E+01  0.24130794561E+01  0.00000000000E+00 0.  1.
</event>
<event>
 5    1  0.6172503E+001  0.1598466E+01  0.7818608E-02  0.3355030E+00
         11   -1    0    0    0    0  0.00000000000E+00  0.00000000000E+00  0.39999999674E+01  0.40000000000E+01  0.51100000000E-03 0. -1.
    9000002   -1    0    0    0    0 -0.00000000000E+00 -0.00000000000E+00  0.00000000000E+00  0.93800000000E+00  0.93800000000E+00 0.  1.
         11    1    1    2    0    0  0.27200915131E+00  0.10580692957E+00  0.14559370763E+01  0.14849030662E+01  0.51100000000E-03 0. -1.
    9000002    1    1    2    0    0 -0.58772281405E+00 -0.25861981293E+00  0.29165894218E+00  0.11735464423E+01  0.93800000000E+00 0.  1.
         22    1    1    2    0    0  0.31571366274E+00  0.15281288336E+00  0.22524039489E+01  0.22795504915E+01  0.00000000000E+00 0. -1.
</event>
<event>
 5    1  0.6172503E+001  0.1515516E+01  0.7818608E-02  0.3450494E+00
         11   -1    0    0    0    0  0.00000000000E+00  0.00000000000E+00  0.39999999674E+01  0.40000000000E+01  0.51100000000E-03 0. -1.
    9000002   -1    0    0    0    0 -0.00000000000E+00 -0.00000000000E+00  0.00000000000E+00  0.93800000000E+00  0.93800000000E+00 0.  1.
         11    1    1    2    0    0  0.17502056995E+00 -0.23892136566E+00  0.95873735290E+00  0.10034406768E+01  0.51100000000E-03 0. -1.
    9000002    1    1    2    0    0  0.10111000746E+00  0.54404939440E-01  0.73044684790E-01  0.94781994969E+00  0.93800000000E+00 0.  1.
         22    1    1    2    0    0 -0.27613057742E+00  0.18451642622E+00  0.29682179297E+01  0.29867393735E+01  0.00000000000E+00 0. -1.
</event>
<event>
 5    1  0.6172503E+001  0.1599343E+01  0.7818608E-02  0.3354077E+00
         11   -1    0    0    0    0  0.00000000000E+00  0.00000000000E+00  0.39999999674E+01  0.40000000000E+01  0.51100000000E-03 0. -1.
    9000002   -1    0    0    0    0 -0.00000000000E+00 -0.00000000000E+00  0.00000000000E+00  0.93800000000E+00  0.93800000000E+00 0.  1.
         11    1    1    2    0    0  0.28441542250E-01  0.10306184218E+00  0.12848997835E+01  0.12893402884E+01  0.51100000000E-03 0. -1.
    9000002    1    1    2    0    0 -0.14683184208E+00 -0.33215422917E+00  0.88833641422E-01  0.10097630602E+01  0.93800000000E+00 0.  1.
         22    1    1    2    0    0  0.11839029983E+00  0.22909238699E+00  0.26262665425E+01  0.26388966514E+01  0.00000000000E+00 0. -1.
</event>
<event>
 5    1  0.6172503E+001  0.1507703E+01  0.7818608E-02  0.3460064E+00
         11   -1    0    0    0    0  0.00000000000E+00  0.00000000000E+00  0.39999999674E+01  0.40000000000E+01  0.51100000000E-03 0. -1.
    9000002   -1    0    0    0    0 -0.00000000000E+00 -0.00000000000E+00  0.00000000000E+00  0.93800000000E+00  0.93800000000E+00 0. -1.
         11    1    1    2    0    0 -0.32764207222E+00  0.23594288704E-01  0.89623928416E+00  0.95454236865E+00  0.51100000000E-03 0. -1.
    9000002    1    1    2    0    0  0.12184051516E+00  0.25122448142E+00  0.12690457425E+00  0.98686758087E+00  0.93800000000E+00 0. -1.
         22    1    1    2    0    0  0.20580155706E+00 -0.27481877013E+00  0.29768561089E+01  0.29965900505E+01  0.00000000000E+00 0. -1.
</event>
<event>
 5    1  0.6172503E+001  0.1599667E+01  0.7818608E-02  0.3353725E+00
         11   -1    0    0    0    0  0.00000000000E+00  0.00000000000E+00  0.39999999674E+01  0.40000000000E+01  0.51100000000E-03 0.  1.
    9000002   -1    0    0    0    0 -0.00000000000E+00 -0.00000000000E+00  0.00000000000E+00  0.93800000000E+00  0.93800000000E+00 0.  1.
         11    1    1    2    0    0 -0.14778558421E-01  0.95117362002E-02  0.11047562372E+00  0.11186600678E+00  0.51100000000E-03 0.  1.
    9000002    1    1    2    0    0  0.50153490115E+00 -0.36202069371E+00  0.26803040896E+00  0.11551106180E+01  0.93800000000E+00 0.  1.
         22    1    1    2    0    0 -0.48675634273E+00  0.35250895751E+00  0.36214939347E+01  0.36710233752E+01  0.00000000000E+00 0.  1.
</event>
<event>
 5    1  0.6172503E+001  0.1598228E+01  0.7818608E-02  0.3355289E+00
         11   -1    0    0    0    0  0.00000000000E+00  0.00000000000E+00  0.39999999674E+01  0.40000000000E+01  0.51100000000E-03 0.  1.
    9000002   -1    0    0    0    0 -0.00000000000E+00 -0.00000000000E+00  0.00000000000E+00  0.93800000000E+00  0.93800000000E+00 0. -1.
         11    1    1    2    0    0  0.92895882792E-01 -0.30283318442E-01  0.75564178162E+00  0.76193273172E+00  0.51100000000E-03 0.  1.
    9000002    1    1    2    0    0 -0.41047038973E+00 -0.18500201947E-01  0.11525590788E+00  0.10305125534E+01  0.93800000000E+00 0. -1.
         22    1    1    2    0    0  0.31757450693E+00  0.48783520389E-01  0.31291022779E+01  0.31455547149E+01  0.00000000000E+00 0.  1.
</event>
<event>
 5    1  0.6172503E+001  0.1599437E+01  0.7818608E-02  0.3353975E+00
         11   -1    0    0    0    0  0.00000000000E+00  0.00000000000E+00  0.39999999674E+01  0.40000000000E+01  0.51100000000E-03 0. -1.
    9000002   -1    0    0    0    0 -0.00000000000E+00 -0.00000000000E+00  0.00000000000E+00  0.93800000000E+00  0.93800000000E+00 0.  1.
         11    1    1    2    0    0  0.12962153508E+00  0.11330645874E-01  0.13049912409E+01  0.13114619803E+01  0.51100000000E-03 0. -1.
    9000002    1    1    2    0    0 -0.42185076279E+00  0.40743598263E-02  0.12059882667E+00  0.10355494887E+01  0.93800000000E+00 0.  1.
         22    1    1    2    0    0  0.29222922771E+00 -0.15405005700E-01  0.25744098998E+01  0.25909885310E+01  0.00000000000E+00 0.  1.
</event>
<event>
 5    1  0.6920986E+001  0.1599056E+01  0.7818608E-02  0.3354389E+00
         11   -1    0    0    0    0  0.00000000000E+00  0.00000000000E+00  0.39999999674E+01  0.40000000000E+01  0.51100000000E-03 0. -1.
    9000002   -1    0    0    0    0 -0.00000000000E+00 -0.00000000000E+00  0.00000000000E+00  0.93800000000E+00  0.93800000000E+00 0. -1.
         11    1    1    2    0    0  0.77645188110E-01  0.44963054562E-01  0.13097172634E+01  0.13127871201E+01  0.51100000000E-03 0. -1.
    9000002    1    1    2    0    0 -0.31363389655E+00 -0.10891959468E+00  0.74262842835E-01  0.99779189664E+00  0.93800000000E+00 0. -1.
         22    1    1    2    0    0  0.23598870844E+00  0.63956540114E-01  0.26160198612E+01  0.26274209833E+01  0.00000000000E+00 0. -1.
</event>
<event>
 5    1  0.6172503E+001  0.1599670E+01  0.7818608E-02  0.3353722E+00
         11   -1    0    0    0    0  0.00000000000E+00  0.00000000000E+00  0.39999999674E+01  0.40000000000E+01  0.51100000000E-03 0.  1.
    9000002   -1    0    0    0    0 -0.00000000000E+00 -0.00000000000E+00  0.00000000000E+00  0.93800000000E+00  0.93800000000E+00 0. -1.
         11    1    1    2    0    0 -0.35305229587E-01 -0.12322387721E-01  0.37053981750E+00  0.37242223074E+00  0.51100000000E-03 0.  1.
    9000002    1    1    2    0    0  0.35475450768E+00  0.12077975817E+00  0.94439077248E-01  0.10144955643E+01  0.93800000000E+00 0. -1.
         22    1    1    2    0    0 -0.31944927809E+00 -0.10845737045E+00  0.35350210726E+01  0.35510822049E+01  0.00000000000E+00 0.  1.
</event>
<event>
 5    1  0.6172503E+001  0.1599677E+01  0.7818608E-02  0.3353714E+00
         11   -1    0    0    0    0  0.00000000000E+00  0.00000000000E+00  0.39999999674E+01  0.40000000000E+01  0.51100000000E-03 0. -1.
    9000002   -1    0    0    0    0 -0.00000000000E+00 -0.00000000000E+00  0.00000000000E+00  0.93800000000E+00  0.93800000000E+00 0.  1.
         11    1    1    2    0    0  0.57602085567E-01 -0.85597449557E-01  0.85792625006E+00  0.86410799978E+00  0.51100000000E-03 0.  1.
    9000002    1    1    2    0    0 -0.25899683153E+00  0.38463936415E+00  0.14634392459E+00  0.10565450030E+01  0.93800000000E+00 0.  1.
         22    1    1    2    0    0  0.20139474597E+00 -0.29904191459E+00  0.29957297927E+01  0.30173469972E+01  0.00000000000E+00 0. -1.
</event>
<event>
 5    1  0.6172503E+001  0.1599619E+01  0.7818608E-02  0.3353777E+00
         11   -1    0    0    0    0  0.00000000000E+00  0.00000000000E+00  0.39999999674E+01  0.40000000000E+01  0.51100000000E-03 0.  1.
    9000002   -1    0    0    0    0 -0.00000000000E+00 -0.00000000000E+00  0.00000000000E+00  0.93800000000E+00  0.93800000000E+00 0.  1.
         11    1    1    2    0    0 -0.42130710755E-01  0.49822990747E-01  0.54899921425E+00  0.55286320692E+00  0.51100000000E-03 0.  1.
    9000002    1    1    2    0    0  0.29999768178E+00 -0.30655413410E+00  0.12462464333E+00  0.10389173923E+01  0.93800000000E+00 0.  1.
         22    1    1    2    0    0 -0.25786697103E+00  0.25673114336E+00  0.33263761098E+01  0.33462194008E+01  0.00000000000E+00 0.  1.
</event>
<event>
 5    1  0.6172503E+001  0.1599667E+01  0.7818608E-02  0.3353725E+00
         11   -1    0    0    0    0  0.00000000000E+00  0.00000000000E+00  0.39999999674E+01  0.40000000000E+01  0.51100000000E-03 0. -1.
    9000002   -1    0    0    0    0 -0.00000000000E+00 -0.00000000000E+00  0.00000000000E+00  0.93800000000E+00  0.93800000000E+00 0. -1.
         11    1    1    2    0    0 -0.28044729035E-01  0.52501180205E-01  0.28529459393E+00  0.29143806752E+00  0.51100000000E-03 0. -1.
    9000002    1    1    2    0    0  0.32831376138E+00 -0.66328388079E+00  0.39591158433E+00  0.12586998908E+01  0.93800000000E+00 0. -1.
         22    1    1    2    0    0 -0.30026903234E+00  0.61078270058E+00  0.33187937891E+01  0.33878620417E+01  0.00000000000E+00 0. -1.
</event>
<event>
 5    1  0.6172503E+001  0.1462307E+01  0.7818608E-02  0.3517858E+00
         11   -1    0    0    0    0  0.00000000000E+00  0.00000000000E+00  0.39999999674E+01  0.40000000000E+01  0.51100000000E-03 0. -1.
    9000002   -1    0    0    0    0 -0.00000000000E+00 -0.00000000000E+00  0.00000000000E+00  0.93800000000E+00  0.93800000000E+00 0.  1.
         11    1    1    2    0    0 -0.33009329153E+00 -0.27284793409E+00  0.75898170901E+00  0.87147063748E+00  0.51100000000E-03 0. -1.
    9000002    1    1    2    0    0  0.98893671008E-01  0.10319048125E+00  0.14806473868E+00  0.96031005432E+00  0.93800000000E+00 0.  1.
         22    1    1    2    0    0  0.23119962053E+00  0.16965745284E+00  0.30929535197E+01  0.31062193082E+01  0.00000000000E+00 0. -1.
</event>
<event>
 5    1  0.6172503E+001  0.1599506E+01  0.7818608E-02  0.3353899E+00
         11   -1    0    0    0    0  0.00000000000E+00  0.00000000000E+00  0.39999999674E+01  0.40000000000E+01  0.51100000000E-03 0. -1.
    9000002   -1    0    0    0    0 -0.00000000000E+00 -0.00000000000E+00  0.00000000000E+00  0.93800000000E+00  0.93800000000E+00 0.  1.
         11    1    1    2    0    0 -0.12049489340E+00  0.11783382788E+00  0.13295314769E+01  0.13401708994E+01  0.51100000000E-03 0. -1.
    9000002    1    1    2    0    0  0.30634453699E+00 -0.34809842092E+00  0.14648763428E+00  0.10565614573E+01  0.93800000000E+00 0.  1.
         22    1    1    2    0    0 -0.18584964359E+00  0.23026459304E+00  0.25239808562E+01  0.25412676434E+01  0.00000000000E+00 0. -1.
</event>
<event>
 5    1  0.6172503E+001  0.1598875E+01  0.7818608E-02  0.3354585E+00
         11   -1    0    0    0    0  0.00000000000E+00  0.00000000000E+00  0.39999999674E+01  0.40000000000E+01  0.51100000000E-03 0. -1.
    9000002   -1    0    0    0    0 -0.00000000000E+00 -0.00000000000E+00  0.00000000000E+00  0.93800000000E+00  0.93800000000E+00 0. -1.
         11    1    1    2    0    0  0.17979284030E-02 -0.60338318345E-03  0.14323130259E+00  0.14324476877E+00  0.51100000000E-03 0. -1.
    9000002    1    1    2    0    0 -0.22778935021E+00 -0.28402153460E+00  0.89673071675E-01  0.10101690353E+01  0.93800000000E+00 0. -1.
         22    1    1    2    0    0  0.22599142181E+00  0.28462491778E+00  0.37670955931E+01  0.37845861959E+01  0.00000000000E+00 0. -1.
</event>
<event>
 5    1  0.6172503E+001  0.1571814E+01  0.7818608E-02  0.3384536E+00
         11   -1    0    0    0    0  0.00000000000E+00  0.00000000000E+00  0.39999999674E+01  0.40000000000E+01  0.51100000000E-03 0.  1.
    9000002   -1    0    0    0    0 -0.00000000000E+00 -0.00000000000E+00  0.00000000000E+00  0.93800000000E+00  0.93800000000E+00 0.  1.
         11    1    1    2    0    0 -0.14685780611E+00 -0.53998540076E-02  0.12983783795E+01  0.13066686845E+01  0.51100000000E-03 0.  1.
    9000002    1    1    2    0    0 -0.12337528517E+00 -0.49627740208E-01  0.32433873186E-01  0.94793477081E+00  0.93800000000E+00 0.  1.
         22    1    1    2    0    0  0.27023309128E+00  0.55027594216E-01  0.26691877146E+01  0.26833965446E+01  0.00000000000E+00 0.  1.
</event>
<event>
 5    1  0.6172503E+001  0.1593009E+01  0.7818608E-02  0.3360986E+00
         11   -1    0    0    0    0  0.00000000000E+00  0.00000000000E+00  0.39999999674E+01  0.40000000000E+01  0.51100000000E-03 0.  1.
    9000002   -1    0    0    0    0 -0.00000000000E+00 -0.00000000000E+00  0.00000000000E+00  0.93800000000E+00  0.93800000000E+00 0.  1.
         11    1    1    2    0    0  0.38132405736E-01  0.23238235628E-01  0.19242648458E+00  0.19754065164E+00  0.51100000000E-03 0.  1.
    9000002    1    1    2    0    0 -0.27520317181E+00  0.23754802536E+00  0.94188238308E-01  0.10103866955E+01  0.93800000000E+00 0.  1.
         22    1    1    2    0    0  0.23707076607E+00 -0.26078626099E+00  0.37133852445E+01  0.37300726529E+01  0.00000000000E+00 0.  1.
</event>
<event>
 5    1  0.6172503E+001  0.1599249E+01  0.7818608E-02  0.3354179E+00
         11   -1    0    0    0    0  0.00000000000E+00  0.00000000000E+00  0.39999999674E+01  0.40000000000E+01  0.51100000000E-03 0.  1.
    9000002   -1    0    0    0    0 -0.00000000000E+00 -0.00000000000E+00  0.00000000000E+00  0.93800000000E+00  0.93800000000E+00 0. -1.
         11    1    1    2    0    0 -0.12849165271E+00  0.12541426330E-01  0.11019178614E+01  0.11094551035E+01  0.51100000000E-03 0.  1.
    9000002    1    1    2    0    0  0.38497924253E+00 -0.83515935700E-01  0.10494869241E+00  0.10227620235E+01  0.93800000000E+00 0. -1.
         22    1    1    2    0    0 -0.25648758982E+00  0.70974509370E-01  0.27931334135E+01  0.28057828730E+01  0.00000000000E+00 0.  1.
</event>
<event>
 5    1  0.6172503E+001  0.1599333E+01  0.7818608E-02  0.3354087E+00
         11   -1    0    0    0    0  0.00000000000E+00  0.00000000000E+00  0.39999999674E+01  0.40000000000E+01  0.51100000000E-03 0.  1.
    9000002   -1    0    0    0    0 -0.00000000000E+00 -0.00000000000E+00  0.00000000000E+00  0.93800000000E+00  0.93800000000E+00 0. -1.
         11    1    1    2    0    0  0.12918373824E-01 -0.60693003110E-01  0.46488961274E+00  0.46901294029E+00  0.51100000000E-03 0.  1.
    9000002    1    1    2    0    0 -0.22363306845E-01  0.42031351146E+00  0.12012155755E+00  0.10351022916E+01  0.93800000000E+00 0. -1.
         22    1    1    2    0    0  0.94449330206E-02 -0.35962050835E+00  0.34149887971E+01  0.34338847681E+01  0.00000000000E+00 0.  1.
</event>
<event>
 5    1  0.6172503E+001  0.1599677E+01  0.7818608E-02  0.3353714E+00
         11   -1    0    0    0    0  0.00000000000E+00  0.00000000000E+00  0.39999999674E+01  0.40000000000E+01  0.51100000000E-03 0.  1.
    9000002   -1    0    0    0    0 -0.00000000000E+00 -0.00000000000E+00  0.00000000000E+00  0.93800000000E+00  0.93800000000E+00 0. -1.
         11    1    1    2    0    0  0.18837944381E-01 -0.12410331471E+00  0.11891041543E+01  0.11957112744E+01  0.51100000000E-03 0. -1.
    9000002    1    1    2    0    0 -0.62319877782E-01  0.40510039786E+00  0.11345840139E+00  0.10299062619E+01  0.93800000000E+00 0. -1.
         22    1    1    2    0    0  0.43481933401E-01 -0.28099708314E+00  0.26974374117E+01  0.27123824636E+01  0.00000000000E+00 0.  1.
</event>
<event>
 5    1  0.6172503E+001  0.1599676E+01  0.7818608E-02  0.3353715E+00
         11   -1    0    0    0    0  0.00000000000E+00  0.00000000000E+00  0.39999999674E+01  0.40000000000E+01  0.51100000000E-03 0. -1.
    9000002   -1    0    0    0    0 -0.00000000000E+00 -0.00000000000E+00  0.00000000000E+00  0.93800000000E+00  0.93800000000E+00 0. -1.
         11    1    1    2    0    0  0.13449466332E+00  0.57625871932E-02  0.12006059330E+01  0.12081295002E+01  0.51100000000E-03 0. -1.
    9000002    1    1    2    0    0 -0.43661948482E+00 -0.20672841086E-01  0.12952627135E+00  0.10429213757E+01  0.93800000000E+00 0. -1.
         22    1    1    2    0    0  0.30212482151E+00  0.14910253893E-01  0.26698677630E+01  0.26869491241E+01  0.00000000000E+00 0. -1.
</event>
<event>
 5    1  0.6172503E+001  0.1576156E+01  0.7818608E-02  0.3379656E+00
         11   -1    0    0    0    0  0.00000000000E+00  0.00000000000E+00  0.39999999674E+01  0.40000000000E+01  0.51100000000E-03 0. -1.
    9000002   -1    0    0    0    0 -0.00000000000E+00 -0.00000000000E+00  0.00000000000E+00  0.93800000000E+00  0.93800000000E+00 0. -1.
         11    1    1    2    0    0  0.23875177843E+00 -0.16635939055E+00  0.98586890237E-01  0.30724175266E+00  0.51100000000E-03 0. -1.
    9000002    1    1    2    0    0  0.30594482726E+00  0.41883671859E+00  0.51069481652E+00  0.11872993008E+01  0.93800000000E+00 0. -1.
         22    1    1    2    0    0 -0.54469660569E+00 -0.25247732804E+00  0.33907182606E+01  0.34434589465E+01  0.00000000000E+00 0. -1.
</event>
<event>
 5    1  0.6172503E+001  0.1599449E+01  0.7818608E-02  0.3353962E+00
         11   -1    0    0    0    0  0.00000000000E+00  0.00000000000E+00  0.39999999674E+01  0.40000000000E+01  0.51100000000E-03 0. -1.
    9000002   -1    0    0    0    0 -0.00000000000E+00 -0.00000000000E+00  0.00000000000E+00  0.93800000000E+00  0.93800000000E+00 0. -1.
         11    1    1    2    0    0  0.99850494748E-02  0.45499860574E-01  0.44853845810E+00  0.45095115927E+00  0.51100000000E-03 0. -1.
    9000002    1    1    2    0    0 -0.41894482838E-01 -0.48008878292E+00  0.15871282210E+00  0.10664305636E+01  0.93800000000E+00 0. -1.
         22    1    1    2    0    0  0.31909433363E-01  0.43458892235E+00  0.33927486872E+01  0.34206182771E+01  0.00000000000E+00 0. -1.
</event>
<event>
 5    1  0.6172503E+001  0.1599664E+01  0.7818608E-02  0.3353728E+00
         11   -1    0    0    0    0  0.00000000000E+00  0.00000000000E+00  0.39999999674E+01  0.40000000000E+01  0.51100000000E-03 0. -1.
    9000002   -1    0    0    0    0 -0.00000000000E+00 -0.00000000000E+00  0.00000000000E+00  0.93800000000E+00  0.93800000000E+00 0.  1.
         11    1    1    2    0    0  0.20983600540E-01 -0.40932229190E-01  0.43359677589E+00  0.43603002656E+00  0.51100000000E-03 0. -1.
    9000002    1    1    2    0    0 -0.18785541111E+00  0.34379520648E+00  0.10343107326E+00  0.10217762898E+01  0.93800000000E+00 0.  1.
         22    1    1    2    0    0  0.16687181057E+00 -0.30286297729E+00  0.34629721182E+01  0.34801936836E+01  0.00000000000E+00 0. -1.
</event>
<event>
 5    1  0.6172503E+001  0.1599674E+01  0.7818608E-02  0.3353717E+00
         11   -1    0    0    0    0  0.00000000000E+00  0.00000000000E+00  0.39999999674E+01  0.40000000000E+01  0.51100000000E-03 0. -1.
    9000002   -1    0    0    0    0 -0.00000000000E+00 -0.00000000000E+00  0.00000000000E+00  0.93800000000E+00  0.93800000000E+00 0.  1.
         11    1    1    2    0    0 -0.56100278948E-01  0.26494084273E+00  0.11686083882E+01  0.11995777247E+01  0.51100000000E-03 0. -1.
    9000002    1    1    2    0    0  0.17330287389E+00 -0.79299206870E+00  0.48729863614E+00  0.13327318815E+01  0.93800000000E+00 0.  1.
         22    1    1    2    0    0 -0.11720259494E+00  0.52805122597E+00  0.23440929430E+01  0.24056903938E+01  0.00000000000E+00 0. -1.
</event>
<event>
 5    1  0.6400567E+001  0.1588237E+01  0.7818608E-02  0.3366230E+00
         11   -1    0    0    0    0  0.00000000000E+00  0.00000000000E+00  0.39999999674E+01  0.40000000000E+01  0.51100000000E-03 0.  1.
    9000002   -1    0    0    0    0 -0.00000000000E+00 -0.00000000000E+00  0.00000000000E+00  0.93800000000E+00  0.93800000000E+00 0.  1.
         11    1    1    2    0    0 -0.43625824173E-01  0.31056371282E-01  0.12217637654E+01  0.12229369036E+01  0.51100000000E-03 0.  1.
    9000002    1    1    2    0    0 -0.20230555832E-01  0.24897967163E+00  0.50244135142E-01  0.97199209122E+00  0.93800000000E+00 0.  1.
         22    1    1    2    0    0  0.63856380005E-01 -0.28003604291E+00  0.27279920668E+01  0.27430710051E+01  0.00000000000E+00 0.  1.
</event>
<event>
 5    1  0.6172503E+001  0.1599601E+01  0.7818608E-02  0.3353796E+00
         11   -1    0    0    0    0  0.00000000000E+00  0.00000000000E+00  0.39999999674E+01  0.40000000000E+01  0.51100000000E-03 0.  1.
    9000002   -1    0    0    0    0 -0.00000000000E+00 -0.00000000000E+00  0.00000000000E+00  0.93800000000E+00  0.93800000000E+00 0.  1.
         11    1    1    2    0    0 -0.16175044221E+00  0.72990725738E-01  0.14669301006E+01  0.14776247943E+01  0.51100000000E-03 0.  1.
    9000002    1    1    2    0    0  0.41819043481E+00 -0.21747005966E+00  0.15145507454E+00  0.10606408941E+01  0.93800000000E+00 0.  1.
         22    1    1    2    0    0 -0.25643999260E+00  0.14447933392E+00  0.23816147922E+01  0.23997343116E+01  0.00000000000E+00 0.  1.
</event>
<event>
 5    1  0.6172503E+001  0.1592808E+01  0.7818608E-02  0.3361206E+00
         11   -1    0    0    0    0  0.00000000000E+00  0.00000000000E+00  0.39999999674E+01  0.40000000000E+01  0.51100000000E-03 0.  1.
    9000002   -1    0    0    0    0 -0.00000000000E+00 -0.00000000000E+00  0.00000000000E+00  0.93800000000E+00  0.93800000000E+00 0.  1.
         11    1    1    2    0    0  0.67834946083E-01 -0.17389429856E-01  0.67552101539E+00  0.67914127803E+00  0.51100000000E-03 0.  1.
    9000002    1    1    2    0    0 -0.40251654840E-01  0.35807727360E+00  0.92746570562E-01  0.10091013110E+01  0.93800000000E+00 0.  1.
         22    1    1    2    0    0 -0.27583291243E-01 -0.34068784374E+00  0.32317323814E+01  0.32497574109E+01  0.00000000000E+00 0.  1.
</event>
<event>
 5    1  0.6172503E+001  0.1573101E+01  0.7818608E-02  0.3383087E+00
         11   -1    0    0    0    0  0.00000000000E+00  0.00000000000E+00  0.39999999674E+01  0.40000000000E+01  0.51100000000E-03 0. -1.
    9000002   -1    0    0    0    0 -0.00000000000E+00 -0.00000000000E+00  0.00000000000E+00  0.93800000000E+00  0.93800000000E+00 0. -1.
         11    1    1    2    0    0  0.64536429680E-01 -0.96076133045E-01  0.27858358028E+00  0.30166976384E+00  0.51100000000E-03 0. -1.
    9000002    1    1    2    0    0 -0.45858518405E+00 -0.39197566288E-01  0.16761874557E+00  0.10581950974E+01  0.93800000000E+00 0. -1.
         22    1    1    2    0    0  0.39404875437E+00  0.13527369933E+00  0.35537976415E+01  0.35781351388E+01  0.00000000000E+00 0. -1.
</event>
<event>
 5    1  0.6172503E+001  0.1598118E+01  0.7818608E-02  0.3355409E+00
         11   -1    0    0    0    0  0.00000000000E+00  0.00000000000E+00  0.39999999674E+01  0.40000000000E+01  0.51100000000E-03 0.  1.
    9000002   -1    0    0    0    0 -0.00000000000E+00 -0.00000000000E+00  0.00000000000E+00  0.93800000000E+00  0.93800000000E+00 0. -1.
         11    1    1    2    0    0 -0.12878814711E+00 -0.15321127416E+00  0.12909045715E+01  0.13063288082E+01  0.51100000000E-03 0.  1.
    9000002    1    1    2    0    0  0.25138234263E+00  0.48768960842E+00  0.20934303819E+00  0.11066628863E+01  0.93800000000E+00 0. -1.
         22    1    1    2    0    0 -0.12259419552E+00 -0.33447833426E+00  0.24997523577E+01  0.25250083055E+01  0.00000000000E+00 0.  1.
</event>
<event>
 5    1  0.6172503E+001  0.1593761E+01  0.7818608E-02  0.3360163E+00
         11   -1    0    0    0    0  0.00000000000E+00  0.00000000000E+00  0.39999999674E+01  0.40000000000E+01  0.51100000000E-03 0. -1.
    9000002   -1    0    0    0    0 -0.00000000000E+00 -0.00000000000E+00  0.00000000000E+00  0.93800000000E+00  0.93800000000E+00 0. -1.
         11    1    1    2    0    0  0.20325093977E+00  0.27562176454E+00  0.10068275602E+01  0.10634755750E+01  0.51100000000E-03 0. -1.
    9000002    1    1    2    0    0 -0.47752917101E+00 -0.72821322658E+00  0.58211284414E+00  0.14060682686E+01  0.93800000000E+00 0. -1.
         22    1    1    2    0    0  0.27427823124E+00  0.45259146204E+00  0.24110595630E+01  0.24684561564E+01  0.00000000000E+00 0. -1.
</event>
<event>
 5    1  0.6172503E+001  0.1598654E+01  0.7818608E-02  0.3354825E+00
         11   -1    0    0    0    0  0.00000000000E+00  0.00000000000E+00  0.39999999674E+01  0.40000000000E+01  0.51100000000E-03 0.  1.
    9000002   -1    0    0    0    0 -0.00000000000E+00 -0.00000000000E+00  0.00000000000E+00  0.93800000000E+00  0.93800000000E+00 0.  1.
         11    1    1    2    0    0 -0.53809087385E-01  0.16465487862E+00  0.12987849595E+01  0.13102859531E+01  0.51100000000E-03 0.  1.
    9000002    1    1    2    0    0  0.82009561430E-01 -0.41617255403E+00  0.12261991877E+00  0.10367279331E+01  0.93800000000E+00 0.  1.
         22    1    1    2    0    0 -0.28200474045E-01  0.25151767541E+00  0.25785950891E+01  0.25909861137E+01  0.00000000000E+00 0.  1.
</event>
<event>
 5    1  0.6688136E+001  0.1599342E+01  0.7818608E-02  0.3354078E+00
         11   -1    0    0    0    0  0.00000000000E+00  0.00000000000E+00  0.39999999674E+01  0.40000000000E+01  0.51100000000E-03 0.  1.
    9000002   -1    0    0    0    0 -0.00000000000E+00 -0.00000000000E+00  0.00000000000E+00  0.93800000000E+00  0.93800000000E+00 0.  1.
         11    1    1    2    0    0  0.78166839017E-01 -0.99405918203E-01  0.14797465996E+01  0.14851403474E+01  0.51100000000E-03 0.  1.
    9000002    1    1    2    0    0 -0.26129357992E+00  0.24815723348E+00  0.87442884742E-01  0.10086360124E+01  0.93800000000E+00 0.  1.
         22    1    1    2    0    0  0.18312674091E+00 -0.14875131528E+00  0.24328104830E+01  0.24442236402E+01  0.00000000000E+00 0.  1.
</event>
<event>
 5    1  0.6172503E+001  0.1599663E+01  0.7818608E-02  0.3353729E+00
         11   -1    0    0    0    0  0.00000000000E+00  0.00000000000E+00  0.39999999674E+01  0.40000000000E+01  0.51100000000E-03 0. -1.
    9000002   -1    0    0    0    0 -0.00000000000E+00 -0.00000000000E+00  0.00000000000E+00  0.93800000000E+00  0.93800000000E+00 0.  1.
         11    1    1    2    0    0 -0.85053235977E-02  0.76961304037E-02  0.76452684205E-01  0.77310057533E-01  0.51100000000E-03 0. -1.
    9000002    1    1    2    0    0  0.37302100721E+00 -0.35807442170E+00  0.18357347125E+00  0.10866946133E+01  0.93800000000E+00 0.  1.
         22    1    1    2    0    0 -0.36451568362E+00  0.35037829130E+00  0.37399738119E+01  0.37739953291E+01  0.00000000000E+00 0. -1.
</event>
<event>
 5    1  0.6172503E+001  0.1458747E+01  0.7818608E-02  0.3522557E+00
         11   -1    0    0    0    0  0.00000000000E+00  0.00000000000E+00  0.39999999674E+01  0.40000000000E+01  0.51100000000E-03 0.  1.
    9000002   -1    0    0    0    0 -0.00000000000E+00 -0.00000000000E+00  0.00000000000E+00  0.93800000000E+00  0.93800000000E+00 0. -1.
         11    1    1    2    0    0 -0.48720561436E+00  0.17792059684E+00  0.13986888114E+01  0.14917626158E+01  0.51100000000E-03 0.  1.
    9000002    1    1    2    0    0  0.19812263750E+00 -0.10909656768E+00  0.14939549312E+00  0.97637987174E+00  0.93800000000E+00 0. -1.
         22    1    1    2    0    0  0.28908297686E+00 -0.68824029161E-01  0.24519156628E+01  0.24698575125E+01  0.00000000000E+00 0.  1.
</event>
<event>
 5    1  0.6172503E+001  0.1599674E+01  0.7818608E-02  0.3353717E+00
         11   -1    0    0    0    0  0.00000000000E+00  0.00000000000E+00  0.39999999674E+01  0.40000000000E+01  0.51100000000E-03 0. -1.
    9000002   -1    0    0    0    0 -0.00000000000E+00 -0.00000000000E+00  0.00000000000E+00  0.93800000000E+00  0.93800000000E+00 0. -1.
         11    1    1    2    0    0  0.57007393208E-01 -0.12631391197E+00  0.86189928335E+00  0.87296946281E+00  0.51100000000E-03 0. -1.
    9000002    1    1    2    0    0 -0.24711889083E+00  0.55609013047E+00  0.25883972754E+00  0.11476698062E+01  0.93800000000E+00 0. -1.
         22    1    1    2    0    0  0.19011149762E+00 -0.42977621849E+00  0.28792609565E+01  0.29173607310E+01  0.00000000000E+00 0. -1.
</event>
<event>
 5    1  0.6172503E+001  0.1599347E+01  0.7818608E-02  0.3354073E+00
         11   -1    0    0    0    0  0.00000000000E+00  0.00000000000E+00  0.39999999674E+01  0.40000000000E+01  0.51100000000E-03 0.  1.
    9000002   -1    0    0    0    0 -0.00000000000E+00 -0.00000000000E+00  0.00000000000E+00  0.93800000000E+00  0.93800000000E+00 0. -1.
         11    1    1    2    0    0  0.13183293819E+00 -0.52362929665E-01  0.13545731655E+01  0.13619803676E+01  0.51100000000E-03 0.  1.
    9000002    1    1    2    0    0 -0.43396453767E+00  0.15967513537E+00  0.14578287405E+00  0.10558967824E+01  0.93800000000E+00 0. -1.
         22    1    1    2    0    0  0.30213159948E+00 -0.10731220571E+00  0.24996439278E+01  0.25201228499E+01  0.00000000000E+00 0.  1.
</event>
<event>
 5    1  0.6172503E+001  0.1599642E+01  0.7818608E-02  0.3353752E+00
         11   -1    0    0    0    0  0.00000000000E+00  0.00000000000E+00  0.39999999674E+01  0.40000000000E+01  0.51100000000E-03 0. -1.
    9000002   -1    0    0    0    0 -0.00000000000E+00 -0.00000000000E+00  0.00000000000E+00  0.93800000000E+00  0.93800000000E+00 0. -1.
         11    1    1    2    0    0  0.18277962385E-01  0.13072428032E+00  0.86725594216E+00  0.87724343925E+00  0.51100000000E-03 0. -1.
    9000002    1    1    2    0    0 -0.10313027181E+00 -0.57709827797E+00  0.23912501599E+00  0.11316815138E+01  0.93800000000E+00 0. -1.
         22    1    1    2    0    0  0.84852309429E-01  0.44637399765E+00  0.28936190092E+01  0.29290750470E+01  0.00000000000E+00 0. -1.
</event>
<event>
 5    1  0.6172503E+001  0.1599574E+01  0.7818608E-02  0.3353826E+00
         11   -1    0    0    0    0  0.00000000000E+00  0.00000000000E+00  0.39999999674E+01  0.40000000000E+01  0.51100000000E-03 0.  1.
    9000002   -1    0    0    0    0 -0.00000000000E+00 -0.00000000000E+00  0.00000000000E+00  0.93800000000E+00  0.93800000000E+00 0. -1.
         11    1    1    2    0    0  0.93109503516E-01  0.13262003388E+00  0.10770905703E+01  0.10892115547E+01  0.51100000000E-03 0.  1.
    9000002    1    1    2    0    0 -0.32344030965E+00 -0.42925302838E+00  0.19915267966E+00  0.10992622918E+01  0.93800000000E+00 0. -1.
         22    1    1    2    0    0  0.23033080613E+00  0.29663299450E+00  0.27237567174E+01  0.27495261536E+01  0.00000000000E+00 0.  1.
</event>
<event>
 5    1  0.6172503E+001  0.1599665E+01  0.7818608E-02  0.3353727E+00
         11   -1    0    0    0    0  0.00000000000E+00  0.00000000000E+00  0.39999999674E+01  0.40000000000E+01  0.51100000000E-03 0. -1.
    9000002   -1    0    0    0    0 -0.00000000000E+00 -0.00000000000E+00  0.00000000000E+00  0.93800000000E+00  0.93800000000E+00 0.  1.
         11    1    1    2    0    0  0.30260233977E-01 -0.11249847238E+00  0.12680560999E+01  0.12733962940E+01  0.51100000000E-03 0. -1.
    9000002    1    1    2    0    0 -0.10159248846E+00  0.35529498711E+00  0.91775199042E-01  0.10123350477E+01  0.93800000000E+00 0.  1.
         22    1    1    2    0    0  0.71332254483E-01 -0.24279651473E+00  0.26401686684E+01  0.26522686583E+01  0.00000000000E+00 0.  1.
</event>
<event>
 5    1  0.6172503E+001  0.1599464E+01  0.7818608E-02  0.3353945E+00
         11   -1    0    0    0    0  0.00000000000E+00  0.00000000000E+00  0.39999999674E+01  0.40000000000E+01  0.51100000000E-03 0. -1.
    9000002   -1    0    0    0    0 -0.00000000000E+00 -0.00000000000E+00  0.00000000000E+00  0.93800000000E+00  0.93800000000E+00 0.  1.
         11    1    1    2    0    0  0.28694305232E-01 -0.19745020785E-02  0.23160135530E+00  0.23338104188E+00  0.51100000000E-03 0. -1.
    9000002    1    1    2    0    0 -0.40851620813E+00 -0.86017062099E-01  0.11800847847E+00  0.10334671878E+01  0.93800000000E+00 0.  1.
         22    1    1    2    0    0  0.37982190290E+00  0.87991564177E-01  0.36503901336E+01  0.36711517703E+01  0.00000000000E+00 0. -1.
</event>
<event>
 5    1  0.6172503E+001  0.1599677E+01  0.7818608E-02  0.3353715E+00
         11   -1    0    0    0    0  0.00000000000E+00  0.00000000000E+00  0.39999999674E+01  0.40000000000E+01  0.51100000000E-03 0. -1.
    9000002   -1    0    0    0    0 -0.00000000000E+00 -0.00000000000E+00  0.00000000000E+00  0.93800000000E+00  0.93800000000E+00 0. -1.
         11    1    1    2    0    0 -0.12506064869E+00  0.10100602062E+00  0.10153506721E+01  0.10279978747E+01  0.51100000000E-03 0. -1.
    9000002    1    1    2    0    0  0.46035517558E+00 -0.37244155842E+00  0.24423480347E+00  0.11358407641E+01  0.93800000000E+00 0. -1.
         22    1    1    2    0    0 -0.33529452689E+00  0.27143553779E+00  0.27404144918E+01  0.27741613612E+01  0.00000000000E+00 0. -1.
</event>
<event>
 5    1  0.6172503E+001  0.1561422E+01  0.7818608E-02  0.3396329E+00
         11   -1    0    0    0    0  0.00000000000E+00  0.00000000000E+00  0.39999999674E+01  0.40000000000E+01  0.51100000000E-03 0.  1.
    9000002   -1    0    0    0    0 -0.00000000000E+00 -0.00000000000E+00  0.00000000000E+00  0.93800000000E+00  0.93800000000E+00 0. -1.
         11    1    1    2    0    0 -0.13223519302E+00 -0.20407603764E+00  0.13441234048E+01  0.13659433238E+01  0.51100000000E-03 0.  1.
    9000002    1    1    2    0    0 -0.18971267905E+00  0.28670910320E+00  0.11054599804E+00  0.10051156292E+01  0.93800000000E+00 0. -1.
         22    1    1    2    0    0  0.32194787207E+00 -0.82633065556E-01  0.25453305645E+01  0.25669410470E+01  0.00000000000E+00 0.  1.
</event>
<event>
 5    1  0.6172503E+001  0.1599675E+01  0.7818608E-02  0.3353716E+00
         11   -1    0    0    0    0  0.00000000000E+00  0.00000000000E+00  0.39999999674E+01  0.40000000000E+01  0.51100000000E-03 0.  1.
    9000002   -1    0    0    0    0 -0.00000000000E+00 -0.00000000000E+00  0.00000000000E+00  0.93800000000E+00  0.93800000000E+00 0.  1.
         11    1    1    2    0    0  0.64736134010E-01 -0.67813635809E-01  0.83377356589E+00  0.83902805468E+00  0.51100000000E-03 0.  1.
    9000002    1    1    2    0    0 -0.30416104094E+00  0.31071577740E+00  0.12812509073E+00  0.10417860971E+01  0.93800000000E+00 0.  1.
         22    1    1    2    0    0  0.23942490693E+00 -0.24290214160E+00  0.30381013107E+01  0.30571858483E+01  0.00000000000E+00 0.  1.
</event>
<event>
 5    1  0.6172503E+001  0.1597128E+01  0.7818608E-02  0.3356486E+00
         11   -1    0    0    0    0  0.00000000000E+00  0.00000000000E+00  0.39999999674E+01  0.40000000000E+01  0.51100000000E-03 0.  1.
    9000002   -1    0    0    0    0 -0.00000000000E+00 -0.00000000000E+00  0.00000000000E+00  0.93800000000E+00  0.93800000000E+00 0.  1.
         11    1    1    2    0    0 -0.16099969263E-01 -0.40001908707E-01  0.60565887734E+00  0.60719214301E+00  0.51100000000E-03 0.  1.
    9000002    1    1    2    0    0  0.37485660682E+00  0.17742716147E+00  0.11838649950E+00  0.10324036210E+01  0.93800000000E+00 0.  1.
         22    1    1    2    0    0 -0.35875663756E+00 -0.13742525276E+00  0.32759545905E+01  0.32984042360E+01  0.00000000000E+00 0.  1.
</event>
<event>
 5    1  0.6172503E+001  0.1595933E+01  0.7818608E-02  0.3357789E+00
         11   -1    0    0    0    0  0.00000000000E+00  0.00000000000E+00  0.39999999674E+01  0.40000000000E+01  0.51100000000E-03 0. -1.
    9000002   -1    0    0    0    0 -0.00000000000E+00 -0.00000000000E+00  0.00000000000E+00  0.93800000000E+00  0.93800000000E+00 0.  1.
         11    1    1    2    0    0  0.37162813225E-01 -0.20237556777E-01  0.38597936388E+00  0.38829236904E+00  0.51100000000E-03 0. -1.
    9000002    1    1    2    0    0 -0.25608742431E+00 -0.22318471428E+00  0.80286901802E-01  0.10008407327E+01  0.93800000000E+00 0.  1.
         22    1    1    2    0    0  0.21892461109E+00  0.24342227106E+00  0.35337337017E+01  0.35488668983E+01  0.00000000000E+00 0. -1.
</event>
<event>
 5    1  0.6172503E+001  0.1561579E+01  0.7818608E-02  0.3396150E+00
         11   -1    0    0    0    0  0.00000000000E+00  0.00000000000E+00  0.39999999674E+01  0.40000000000E+01  0.51100000000E-03 0. -1.
    9000002   -1    0    0    0    0 -0.00000000000E+00 -0.00000000000E+00  0.00000000000E+00  0.93800000000E+00  0.93800000000E+00 0.  1.
         11    1    1    2    0    0 -0.26253988677E+00  0.38175710574E-01  0.85868236164E+00  0.89873257220E+00  0.51100000000E-03 0. -1.
    9000002    1    1    2    0    0  0.38373149326E+00  0.22818944450E+00  0.16888812373E+00  0.10524673296E+01  0.93800000000E+00 0.  1.
         22    1    1    2    0    0 -0.12119160650E+00 -0.26636515508E+00  0.29724294820E+01  0.29868000982E+01  0.00000000000E+00 0. -1.
</event>
<event>
 5    1  0.6172503E+001  0.1599673E+01  0.7818608E-02  0.3353718E+00
         11   -1    0    0    0    0  0.00000000000E+00  0.00000000000E+00  0.39999999674E+01  0.40000000000E+01  0.51100000000E-03 0. -1.
    9000002   -1    0    0    0    0 -0.00000000000E+00 -0.00000000000E+00  0.00000000000E+00  0.93800000000E+00  0.93800000000E+00 0. -1.
         11    1    1    2    0    0 -0.20523181594E-01  0.11924299879E+00  0.11913429116E+01  0.11974716230E+01  0.51100000000E-03 0. -1.
    9000002    1    1    2    0    0  0.67746232018E-01 -0.38314048332E+00  0.10197538183E+00  0.10206023518E+01  0.93800000000E+00 0. -1.
         22    1    1    2    0    0 -0.47223050424E-01  0.26389748453E+00  0.27066816740E+01  0.27199260253E+01  0.00000000000E+00 0. -1.
</event>
<event>
 5    1  0.6172503E+001  0.1500866E+01  0.7818608E-02  0.3468527E+00
         11   -1    0    0    0    0  0.00000000000E+00  0.00000000000E+00  0.39999999674E+01  0.40000000000E+01  0.51100000000E-03 0.  1.
    9000002   -1    0    0    0    0 -0.00000000000E+00 -0.00000000000E+00  0.00000000000E+00  0.93800000000E+00  0.93800000000E+00 0. -1.
         11    1    1    2    0    0 -0.15124709956E+00 -0.29005843108E+00  0.95169729730E+00  0.10063486401E+01  0.51100000000E-03 0.  1.
    9000002    1    1    2    0    0 -0.68140158108E-01  0.41431242310E-01  0.79880083722E-01  0.94476687959E+00  0.93800000000E+00 0. -1.
         22    1    1    2    0    0  0.21938725767E+00  0.24862718877E+00  0.29684225863E+01  0.29868844803E+01  0.00000000000E+00 0.  1.
</event>
<event>
 5    1  0.6172503E+001  0.1569691E+01  0.7818608E-02  0.3386931E+00
         11   -1    0    0    0    0  0.00000000000E+00  0.00000000000E+00  0.39999999674E+01  0.40000000000E+01  0.51100000000E-03 0.  1.
    9000002   -1    0    0    0    0 -0.00000000000E+00 -0.00000000000E+00  0.00000000000E+00  0.93800000000E+00  0.93800000000E+00 0. -1.
         11    1    1    2    0    0  0.57793489830E-01 -0.12381602507E+00  0.67533546388E+00  0.68902013427E+00  0.51100000000E-03 0.  1.
    9000002    1    1    2    0    0 -0.38332740301E+00 -0.19663841544E+00  0.15169050156E+00  0.10432931384E+01  0.93800000000E+00 0.  1.
         22    1    1    2    0    0  0.32553391318E+00  0.32045444051E+00  0.31729740019E+01  0.32056867274E+01  0.00000000000E+00 0.  1.
</event>
<event>
 5    1  0.6172503E+001  0.1599661E+01  0.7818608E-02  0.3353731E+00
         11   -1    0    0    0    0  0.00000000000E+00  0.00000000000E+00  0.39999999674E+01  0.40000000000E+01  0.51100000000E-03 0. -1.
    9000002   -1    0    0    0    0 -0.00000000000E+00 -0.00000000000E+00  0.00000000000E+00  0.93800000000E+00  0.93800000000E+00 0. -1.
         11    1    1    2    0    0 -0.79658222430E-01 -0.69912525601E-01  0.10559329378E+01  0.10612388157E+01  0.51100000000E-03 0. -1.
    9000002    1    1    2    0    0  0.28487314538E+00  0.24623081813E+00  0.95369877997E-01  0.10152446692E+01  0.93800000000E+00 0. -1.
         22    1    1    2    0    0 -0.20521492295E+00 -0.17631829253E+00  0.28486971515E+01  0.28615165151E+01  0.00000000000E+00 0. -1.
</event>
<event>
 5    1  0.6172503E+001  0.1599675E+01  0.7818608E-02  0.3353716E+00
         11   -1    0    0    0    0  0.00000000000E+00  0.00000000000E+00  0.39999999674E+01  0.40000000000E+01  0.51100000000E-03 0. -1.
    9000002   -1    0    0    0    0 -0.00000000000E+00 -0.00000000000E+00  0.00000000000E+00  0.93800000000E+00  0.93800000000E+00 0. -1.
         11    1    1    2    0    0 -0.17267024526E-01 -0.14696536343E-01  0.22661415450E+00  0.22774629406E+00  0.51100000000E-03 0.  1.
    9000002    1    1    2    0    0  0.28861360630E+00  0.24832302959E+00  0.97546485358E-01  0.10170159574E+01  0.93800000000E+00 0. -1.
         22    1    1    2    0    0 -0.27134658177E+00 -0.23362649324E+00  0.36758393275E+01  0.36932377486E+01  0.00000000000E+00 0. -1.
</event>
<event>
 5    1  0.6172503E+001  0.1599676E+01  0.7818608E-02  0.3353715E+00
         11   -1    0    0    0    0  0.00000000000E+00  0.00000000000E+00  0.39999999674E+01  0.40000000000E+01  0.51100000000E-03 0.  1.
    9000002   -1    0    0    0    0 -0.00000000000E+00 -0.00000000000E+00  0.00000000000E+00  0.93800000000E+00  0.93800000000E+00 0. -1.
         11    1    1    2    0    0 -0.87054133365E-01  0.42590428289E-01  0.50509451674E+00  0.51430836925E+00  0.51100000000E-03 0.  1.
    9000002    1    1    2    0    0  0.62957922788E+00 -0.30256274631E+00  0.34856142824E+00  0.12203496585E+01  0.93800000000E+00 0. -1.
         22    1    1    2    0    0 -0.54252509451E+00  0.25997231802E+00  0.31463440224E+01  0.32033419723E+01  0.00000000000E+00 0.  1.
</event>
<event>
 5    1  0.6172503E+001  0.1599674E+01  0.7818608E-02  0.3353717E+00
         11   -1    0    0    0    0  0.00000000000E+00  0.00000000000E+00  0.39999999674E+01  0.40000000000E+01  0.51100000000E-03 0. -1.
    9000002   -1    0    0    0    0 -0.00000000000E+00 -0.00000000000E+00  0.00000000000E+00  0.93800000000E+00  0.93800000000E+00 0. -1.
         11    1    1    2    0    0  0.11515720137E-01 -0.52227510872E-01  0.53854658937E+00  0.54119591161E+00  0.51100000000E-03 0. -1.
    9000002    1    1    2    0    0 -0.78987430145E-01  0.36946312604E+00  0.96019722559E-01  0.10157784221E+01  0.93800000000E+00 0. -1.
         22    1    1    2    0    0  0.67471710008E-01 -0.31723561517E+00  0.33654336554E+01  0.33810256663E+01  0.00000000000E+00 0. -1.
</event>
<event>
 5    1  0.6209097E+001  0.1599321E+01  0.7818608E-02  0.3354100E+00
         11   -1    0    0    0    0  0.00000000000E+00  0.00000000000E+00  0.39999999674E+01  0.40000000000E+01  0.51100000000E-03 0. -1.
    9000002   -1    0    0    0    0 -0.00000000000E+00 -0.00000000000E+00  0.00000000000E+00  0.93800000000E+00  0.93800000000E+00 0.  1.
         11    1    1    2    0    0  0.74676955825E-01 -0.12497863727E+00  0.14748939226E+01  0.14820622968E+01  0.51100000000E-03 0. -1.
    9000002    1    1    2    0    0 -0.13997395307E+00  0.33777638739E+00  0.90085483329E-01  0.10107645570E+01  0.93800000000E+00 0.  1.
         22    1    1    2    0    0  0.65296997243E-01 -0.21279775012E+00  0.24350205614E+01  0.24451731462E+01  0.00000000000E+00 0. -1.
</event>
<event>
 5    1  0.6172503E+001  0.1592834E+01  0.7818608E-02  0.3361178E+00
         11   -1    0    0    0    0  0.00000000000E+00  0.00000000000E+00  0.39999999674E+01  0.40000000000E+01  0.51100000000E-03 0. -1.
    9000002   -1    0    0    0    0 -0.00000000000E+00 -0.00000000000E+00  0.00000000000E+00  0.93800000000E+00  0.93800000000E+00 0.  1.
         11    1    1    2    0    0  0.13238816960E-01 -0.49266514144E-01  0.60176594194E+00  0.60392463577E+00  0.51100000000E-03 0. -1.
    9000002    1    1    2    0    0 -0.28411319816E+00 -0.10264855812E+00  0.66271442271E-01  0.98767046119E+00  0.93800000000E+00 0.  1.
         22    1    1    2    0    0  0.27087438120E+00  0.15191507227E+00  0.33319625831E+01  0.33464049030E+01  0.00000000000E+00 0. -1.
</event>
<event>
 5    1  0.6172503E+001  0.1599672E+01  0.7818608E-02  0.3353719E+00
         11   -1    0    0    0    0  0.00000000000E+00  0.00000000000E+00  0.39999999674E+01  0.40000000000E+01  0.51100000000E-03 0.  1.
    9000002   -1    0    0    0    0 -0.00000000000E+00 -0.00000000000E+00  0.00000000000E+00  0.93800000000E+00  0.93800000000E+00 0.  1.
         11    1    1    2    0    0 -0.23827147771E-01 -0.18241411118E+00  0.26087028197E+00  0.31921185139E+00  0.51100000000E-03 0.  1.
    9000002    1    1    2    0    0  0.15705590496E+00  0.12857947514E+01  0.21514888415E+01  0.26807989360E+01  0.93800000000E+00 0.  1.
         22    1    1    2    0    0 -0.13322875719E+00 -0.11033806403E+01  0.15876408438E+01  0.19379892126E+01  0.00000000000E+00 0.  1.
</event>
<event>
 5    1  0.6172503E+001  0.1599676E+01  0.7818608E-02  0.3353715E+00
         11   -1    0    0    0    0  0.00000000000E+00  0.00000000000E+00  0.39999999674E+01  0.40000000000E+01  0.51100000000E-03 0. -1.
    9000002   -1    0    0    0    0 -0.00000000000E+00 -0.00000000000E+00  0.00000000000E+00  0.93800000000E+00  0.93800000000E+00 0.  1.
         11    1    1    2    0    0 -0.13049264272E+00  0.14226719694E+00  0.13951433643E+01  0.14084365634E+01  0.51100000000E-03 0. -1.
    9000002    1    1    2    0    0  0.35893536569E+00 -0.38702066736E+00  0.19165711970E+00  0.10932502208E+01  0.93800000000E+00 0.  1.
         22    1    1    2    0    0 -0.22844272298E+00  0.24475347041E+00  0.24131994833E+01  0.24363132158E+01  0.00000000000E+00 0. -1.
</event>
<event>
 5    1  0.6172503E+001  0.1599571E+01  0.7818608E-02  0.3353829E+00
         11   -1    0    0    0    0  0.00000000000E+00  0.00000000000E+00  0.39999999674E+01  0.40000000000E+01  0.51100000000E-03 0. -1.
    9000002   -1    0    0    0    0 -0.00000000000E+00 -0.00000000000E+00  0.00000000000E+00  0.93800000000E+00  0.93800000000E+00 0. -1.
         11    1    1    2    0    0  0.44421256444E-01 -0.23125241891E-01  0.48859886675E+00  0.49115897482E+00  0.51100000000E-03 0. -1.
    9000002    1    1    2    0    0 -0.30424746614E+00  0.22618036291E+00  0.96779782653E-01  0.10163338052E+01  0.93800000000E+00 0. -1.
         22    1    1    2    0    0  0.25982620970E+00 -0.20305512102E+00  0.34146213180E+01  0.34305072200E+01  0.00000000000E+00 0. -1.
</event>
<event>
 5    1  0.6172503E+001  0.1599668E+01  0.7818608E-02  0.3353724E+00
         11   -1    0    0    0    0  0.00000000000E+00  0.00000000000E+00  0.39999999674E+01  0.40000000000E+01  0.51100000000E-03 0.  1.
    9000002   -1    0    0    0    0 -0.00000000000E+00 -0.00000000000E+00  0.00000000000E+00  0.93800000000E+00  0.93800000000E+00 0. -1.
         11    1    1    2    0    0 -0.68621468670E-01 -0.48135464357E-01  0.57939740916E+00  0.58542937042E+00  0.51100000000E-03 0.  1.
    9000002    1    1    2    0    0  0.43932881815E+00  0.32878684123E+00  0.20793602940E+00  0.11064320990E+01  0.93800000000E+00 0. -1.
         22    1    1    2    0    0 -0.37070734948E+00 -0.28065137687E+00  0.32126665288E+01  0.32461385306E+01  0.00000000000E+00 0.  1.
</event>
<event>
 5    1  0.6172503E+001  0.1598439E+01  0.7818608E-02  0.3355059E+00
         11   -1    0    0    0    0  0.00000000000E+00  0.00000000000E+00  0.39999999674E+01  0.40000000000E+01  0.51100000000E-03 0.  1.
    9000002   -1    0    0    0    0 -0.00000000000E+00 -0.00000000000E+00  0.00000000000E+00  0.93800000000E+00  0.93800000000E+00 0. -1.
         11    1    1    2    0    0 -0.75605035637E-01  0.83840076749E-02  0.44265847411E+00  0.44914719059E+00  0.51100000000E-03 0.  1.
    9000002    1    1    2    0    0  0.42414882376E+00 -0.61463658563E-01  0.12542247885E+00  0.10388718902E+01  0.93800000000E+00 0. -1.
         22    1    1    2    0    0 -0.34854378812E+00  0.53079650888E-01  0.34319190144E+01  0.34499809192E+01  0.00000000000E+00 0.  1.
</event>
<event>
 5    1  0.6172503E+001  0.1597622E+01  0.7818608E-02  0.3355949E+00
         11   -1    0    0    0    0  0.00000000000E+00  0.00000000000E+00  0.39999999674E+01  0.40000000000E+01  0.51100000000E-03 0.  1.
    9000002   -1    0    0    0    0 -0.00000000000E+00 -0.00000000000E+00  0.00000000000E+00  0.93800000000E+00  0.93800000000E+00 0. -1.
         11    1    1    2    0    0  0.18113711000E-01 -0.58381578133E-01  0.11388641404E+01  0.11405035320E+01  0.51100000000E-03 0.  1.
    9000002    1    1    2    0    0 -0.53801247809E-01  0.37049524356E+00  0.95925188304E-01  0.10144983694E+01  0.93800000000E+00 0. -1.
         22    1    1    2    0    0  0.35687536809E-01 -0.31211366543E+00  0.27652106387E+01  0.27829980986E+01  0.00000000000E+00 0.  1.
</event>
<event>
 5    1  0.6172503E+001  0.1599675E+01  0.7818608E-02  0.3353716E+00
         11   -1    0    0    0    0  0.00000000000E+00  0.00000000000E+00  0.39999999674E+01  0.40000000000E+01  0.51100000000E-03 0. -1.
    9000002   -1    0    0    0    0 -0.00000000000E+00 -0.00000000000E+00  0.00000000000E+00  0.93800000000E+00  0.93800000000E+00 0.  1.
         11    1    1    2    0    0 -0.64998905051E-01 -0.15257148887E+00  0.14723316677E+01  0.14816422367E+01  0.51100000000E-03 0. -1.
    9000002    1    1    2    0    0  0.16990909520E+00  0.40506769833E+00  0.13084502614E+00  0.10439891579E+01  0.93800000000E+00 0.  1.
         22    1    1    2    0    0 -0.10491019015E+00 -0.25249620946E+00  0.23968232735E+01  0.24123686054E+01  0.00000000000E+00 0. -1.
</event>
<event>
 5    1  0.6173881E+001  0.1599675E+01  0.7818608E-02  0.3353716E+00
         11   -1    0    0    0    0  0.00000000000E+00  0.00000000000E+00  0.39999999674E+01  0.40000000000E+01  0.51100000000E-03 0. -1.
    9000002   -1    0    0    0    0 -0.00000000000E+00 -0.00000000000E+00  0.00000000000E+00  0.93800000000E+00  0.93800000000E+00 0.  1.
         11    1    1    2    0    0  0.60125352421E-01  0.92362390281E-01  0.12009704061E+01  0.12060166030E+01  0.51100000000E-03 0. -1.
    9000002    1    1    2    0    0 -0.19099152679E+00 -0.30201183496E+00  0.85688455208E-01  0.10074102556E+01  0.93800000000E+00 0.  1.
         22    1    1    2    0    0  0.13086617437E+00  0.20964944468E+00  0.27133411060E+01  0.27245731414E+01  0.00000000000E+00 0. -1.
</event>
<event>
 5    1  0.6172503E+001  0.1597028E+01  0.7818608E-02  0.3356595E+00
         11   -1    0    0    0    0  0.00000000000E+00  0.00000000000E+00  0.39999999674E+01  0.40000000000E+01  0.51100000000E-03 0.  1.
    9000002   -1    0    0    0    0 -0.00000000000E+00 -0.00000000000E+00  0.00000000000E+00  0.93800000000E+00  0.93800000000E+00 0.  1.
         11    1    1    2    0    0  0.16831561680E-01  0.11028113433E+00  0.12847253343E+01  0.12895598768E+01  0.51100000000E-03 0.  1.
    9000002    1    1    2    0    0 -0.21169007637E+00 -0.26055726345E+00  0.77569597586E-01  0.99928165121E+00  0.93800000000E+00 0.  1.
         22    1    1    2    0    0  0.19485851469E+00  0.15027612913E+00  0.26377050355E+01  0.26491584720E+01  0.00000000000E+00 0.  1.
</event>
<event>
 5    1  0.6172503E+001  0.1538116E+01  0.7818608E-02  0.3423397E+00
         11   -1    0    0    0    0  0.00000000000E+00  0.00000000000E+00  0.39999999674E+01  0.40000000000E+01  0.51100000000E-03 0.  1.
    9000002   -1    0    0    0    0 -0.00000000000E+00 -0.00000000000E+00  0.00000000000E+00  0.93800000000E+00  0.93800000000E+00 0. -1.
         11    1    1    2    0    0 -0.22965916098E+00  0.15194890412E+00  0.88061778297E+00  0.92266989790E+00  0.51100000000E-03 0.  1.
    9000002    1    1    2    0    0  0.31378742632E+00  0.19512551358E+00  0.14376145865E+00  0.10183554743E+01  0.93800000000E+00 0. -1.
         22    1    1    2    0    0 -0.84128265340E-01 -0.34707441770E+00  0.29756207257E+01  0.29969746278E+01  0.00000000000E+00 0.  1.
</event>
<event>
 5    1  0.6172503E+001  0.1598660E+01  0.7818608E-02  0.3354819E+00
         11   -1    0    0    0    0  0.00000000000E+00  0.00000000000E+00  0.39999999674E+01  0.40000000000E+01  0.51100000000E-03 0.  1.
    9000002   -1    0    0    0    0 -0.00000000000E+00 -0.00000000000E+00  0.00000000000E+00  0.93800000000E+00  0.93800000000E+00 0. -1.
         11    1    1    2    0    0  0.89367347650E-02  0.26294353038E-02  0.42124321084E-01  0.43145089015E-01  0.51100000000E-03 0.  1.
    9000002    1    1    2    0    0 -0.35476227051E+00  0.32705060016E+00  0.15982279702E+00  0.10668672317E+01  0.93800000000E+00 0. -1.
         22    1    1    2    0    0  0.34582553575E+00 -0.32968003546E+00  0.37980528493E+01  0.38279876793E+01  0.00000000000E+00 0.  1.
</event>
<event>
 5    1  0.6172503E+001  0.1599675E+01  0.7818608E-02  0.3353716E+00
         11   -1    0    0    0    0  0.00000000000E+00  0.00000000000E+00  0.39999999674E+01  0.40000000000E+01  0.51100000000E-03 0.  1.
    9000002   -1    0    0    0    0 -0.00000000000E+00 -0.00000000000E+00  0.00000000000E+00  0.93800000000E+00  0.93800000000E+00 0. -1.
         11    1    1    2    0    0 -0.49297251093E-01 -0.18136487821E-01  0.52906153443E+00  0.53166297547E+00  0.51100000000E-03 0.  1.
    9000002    1    1    2    0    0  0.35555859371E+00  0.13679182539E+00  0.97665161073E-01  0.10171117936E+01  0.93800000000E+00 0. -1.
         22    1    1    2    0    0 -0.30626134262E+00 -0.11865533757E+00  0.33732732719E+01  0.33892252309E+01  0.00000000000E+00 0.  1.
</event>
<event>
 5    1  0.6172503E+001  0.1599639E+01  0.7818608E-02  0.3353755E+00
         11   -1    0    0    0    0  0.00000000000E+00  0.00000000000E+00  0.39999999674E+01  0.40000000000E+01  0.51100000000E-03 0.  1.
    9000002   -1    0    0    0    0 -0.00000000000E+00 -0.00000000000E+00  0.00000000000E+00  0.93800000000E+00  0.93800000000E+00 0. -1.
         11    1    1    2    0    0 -0.66201232933E-01  0.21251045459E-01  0.80270420612E+00  0.80570994397E+00  0.51100000000E-03 0.  1.
    9000002    1    1    2    0    0  0.33704277313E+00 -0.12907062591E+00  0.87476581157E-01  0.10088375536E+01  0.93800000000E+00 0. -1.
         22    1    1    2    0    0 -0.27084154020E+00  0.10781958045E+00  0.31098191801E+01  0.31234525024E+01  0.00000000000E+00 0.  1.
</event>
<event>
 5    1  0.6172503E+001  0.1599676E+01  0.7818608E-02  0.3353715E+00
         11   -1    0    0    0    0  0.00000000000E+00  0.00000000000E+00  0.39999999674E+01  0.40000000000E+01  0.51100000000E-03 0. -1.
    9000002   -1    0    0    0    0 -0.00000000000E+00 -0.00000000000E+00  0.00000000000E+00  0.93800000000E+00  0.93800000000E+00 0.  1.
         11    1    1    2    0    0  0.64568470519E-01  0.24375889798E-01  0.74908951246E+00  0.75226234134E+00  0.51100000000E-03 0. -1.
    9000002    1    1    2    0    0 -0.34111887008E+00 -0.12830021668E+00  0.89205206770E-01  0.10102596686E+01  0.93800000000E+00 0.  1.
         22    1    1    2    0    0  0.27655039956E+00  0.10392432688E+00  0.31617052481E+01  0.31754779900E+01  0.00000000000E+00 0. -1.
</event>
<event>
 5    1  0.6172503E+001  0.1599676E+01  0.7818608E-02  0.3353715E+00
         11   -1    0    0    0    0  0.00000000000E+00  0.00000000000E+00  0.39999999674E+01  0.40000000000E+01  0.51100000000E-03 0. -1.
    9000002   -1    0    0    0    0 -0.00000000000E+00 -0.00000000000E+00  0.00000000000E+00  0.93800000000E+00  0.93800000000E+00 0.  1.
         11    1    1    2    0    0  0.66749208357E-01  0.41543981044E-01  0.82128800230E+00  0.82504278859E+00  0.51100000000E-03 0. -1.
    9000002    1    1    2    0    0 -0.31516317428E+00 -0.19397560814E+00  0.92040225747E-01  0.10125560558E+01  0.93800000000E+00 0.  1.
         22    1    1    2    0    0  0.24841396592E+00  0.15243162710E+00  0.30866717393E+01  0.31004011556E+01  0.00000000000E+00 0. -1.
</event>
<event>
 5    1  0.6172503E+001  0.1599584E+01  0.7818608E-02  0.3353815E+00
         11   -1    0    0    0    0  0.00000000000E+00  0.00000000000E+00  0.39999999674E+01  0.40000000000E+01  0.51100000000E-03 0. -1.
    9000002   -1    0    0    0    0 -0.00000000000E+00 -0.00000000000E+00  0.00000000000E+00  0.93800000000E+00  0.93800000000E+00 0.  1.
         11    1    1    2    0    0 -0.33271595001E-01 -0.41214409983E-02  0.34710354556E+00  0.34871925351E+00  0.51100000000E-03 0. -1.
    9000002    1    1    2    0    0  0.38661569690E+00  0.11905041547E+00  0.11052412099E+00  0.10274747101E+01  0.93800000000E+00 0.  1.
         22    1    1    2    0    0 -0.35334410190E+00 -0.11492897448E+00  0.35423723008E+01  0.35618060364E+01  0.00000000000E+00 0. -1.
</event>
<event>
 5    1  0.6172503E+001  0.1596688E+01  0.7818608E-02  0.3356966E+00
         11   -1    0    0    0    0  0.00000000000E+00  0.00000000000E+00  0.39999999674E+01  0.40000000000E+01  0.51100000000E-03 0. -1.
    9000002   -1    0    0    0    0 -0.00000000000E+00 -0.00000000000E+00  0.00000000000E+00  0.93800000000E+00  0.93800000000E+00 0. -1.
         11    1    1    2    0    0 -0.76736915005E-01  0.23816104700E+00  0.13186133023E+01  0.13421440089E+01  0.51100000000E-03 0. -1.
    9000002    1    1    2    0    0  0.10568720867E+00 -0.54280255730E+00  0.21417432815E+00  0.11097382778E+01  0.93800000000E+00 0. -1.
         22    1    1    2    0    0 -0.28950293660E-01  0.30464151030E+00  0.24672123369E+01  0.24861177133E+01  0.00000000000E+00 0. -1.
</event>
<event>
 5    1  0.6172503E+001  0.1599676E+01  0.7818608E-02  0.3353715E+00
         11   -1    0    0    0    0  0.00000000000E+00  0.00000000000E+00  0.39999999674E+01  0.40000000000E+01  0.51100000000E-03 0. -1.
    9000002   -1    0    0    0    0 -0.00000000000E+00 -0.00000000000E+00  0.00000000000E+00  0.93800000000E+00  0.93800000000E+00 0. -1.
         11    1    1    2    0    0  0.19604747429E+00  0.97689759812E-02  0.86035536598E+00  0.88246340545E+00  0.51100000000E-03 0. -1.
    9000002    1    1    2    0    0 -0.80020640343E+00 -0.39390774502E-01  0.47301341147E+00  0.13211614620E+01  0.93800000000E+00 0. -1.
         22    1    1    2    0    0  0.60415892913E+00  0.29621798521E-01  0.26666311899E+01  0.27343751326E+01  0.00000000000E+00 0. -1.
</event>
<event>
 5    1  0.6172503E+001  0.1599676E+01  0.7818608E-02  0.3353715E+00
         11   -1    0    0    0    0  0.00000000000E+00  0.00000000000E+00  0.39999999674E+01  0.40000000000E+01  0.51100000000E-03 0.  1.
    9000002   -1    0    0    0    0 -0.00000000000E+00 -0.00000000000E+00  0.00000000000E+00  0.93800000000E+00  0.93800000000E+00 0.  1.
         11    1    1    2    0    0 -0.27060377748E-01  0.47228063044E-02  0.27704869931E+00  0.27840763613E+00  0.51100000000E-03 0.  1.
    9000002    1    1    2    0    0  0.38453516510E+00 -0.72167007794E-01  0.10313888928E+00  0.10215463772E+01  0.93800000000E+00 0.  1.
         22    1    1    2    0    0 -0.35747478735E+00  0.67444201490E-01  0.36198123788E+01  0.36380459867E+01  0.00000000000E+00 0.  1.
</event>
<event>
 5    1  0.6172503E+001  0.1596869E+01  0.7818608E-02  0.3356768E+00
         11   -1    0    0    0    0  0.00000000000E+00  0.00000000000E+00  0.39999999674E+01  0.40000000000E+01  0.51100000000E-03 0.  1.
    9000002   -1    0    0    0    0 -0.00000000000E+00 -0.00000000000E+00  0.00000000000E+00  0.93800000000E+00  0.93800000000E+00 0.  1.
         11    1    1    2    0    0  0.21247308005E+00  0.24370377984E-01  0.84554910414E+00  0.87217674454E+00  0.51100000000E-03 0.  1.
    9000002    1    1    2    0    0 -0.69077094672E+00 -0.18414540760E+00  0.36995954624E+00  0.12360372558E+01  0.93800000000E+00 0.  1.
         22    1    1    2    0    0  0.47829786667E+00  0.15977502961E+00  0.27844913170E+01  0.28297859996E+01  0.00000000000E+00 0.  1.
</event>
<event>
 5    1  0.6172503E+001  0.1599675E+01  0.7818608E-02  0.3353716E+00
         11   -1    0    0    0    0  0.00000000000E+00  0.00000000000E+00  0.39999999674E+01  0.40000000000E+01  0.51100000000E-03 0.  1.
    9000002   -1    0    0    0    0 -0.00000000000E+00 -0.00000000000E+00  0.00000000000E+00  0.93800000000E+00  0.93800000000E+00 0. -1.
         11    1    1    2    0    0  0.93906092606E-01 -0.54368493463E-01  0.44185571358E+00  0.45498463717E+00  0.51100000000E-03 0.  1.
    9000002    1    1    2    0    0 -0.73284935969E+00  0.43397881978E+00  0.54441422973E+00  0.13789984241E+01  0.93800000000E+00 0. -1.
         22    1    1    2    0    0  0.63894326708E+00 -0.37961032631E+00  0.30137300241E+01  0.31040169388E+01  0.00000000000E+00 0.  1.
</event>
<event>
 5    1  0.6172503E+001  0.1599534E+01  0.7818608E-02  0.3353869E+00
         11   -1    0    0    0    0  0.00000000000E+00  0.00000000000E+00  0.39999999674E+01  0.40000000000E+01  0.51100000000E-03 0. -1.
    9000002   -1    0    0    0    0 -0.00000000000E+00 -0.00000000000E+00  0.00000000000E+00  0.93800000000E+00  0.93800000000E+00 0. -1.
         11    1    1    2    0    0 -0.85844581810E-01  0.12172296335E+00  0.13433501228E+01  0.13515826225E+01  0.51100000000E-03 0. -1.
    9000002    1    1    2    0    0  0.25113661879E+00 -0.31296162740E+00  0.10874406428E+00  0.10260038270E+01  0.93800000000E+00 0. -1.
         22    1    1    2    0    0 -0.16529203698E+00  0.19123866404E+00  0.25479057803E+01  0.25604135505E+01  0.00000000000E+00 0. -1.
</event>
<event>
 5    1  0.6172503E+001  0.1599544E+01  0.7818608E-02  0.3353859E+00
         11   -1    0    0    0    0  0.00000000000E+00  0.00000000000E+00  0.39999999674E+01  0.40000000000E+01  0.51100000000E-03 0. -1.
    9000002   -1    0    0    0    0 -0.00000000000E+00 -0.00000000000E+00  0.00000000000E+00  0.93800000000E+00  0.93800000000E+00 0. -1.
         11    1    1    2    0    0  0.32118027938E-01  0.89223545604E-01  0.89215006102E+00  0.89717579175E+00  0.51100000000E-03 0. -1.
    9000002    1    1    2    0    0 -0.90175312320E-01 -0.38014681027E+00  0.10294984959E+00  0.10213157474E+01  0.93800000000E+00 0. -1.
         22    1    1    2    0    0  0.58057284382E-01  0.29092326467E+00  0.30049000568E+01  0.30195084609E+01  0.00000000000E+00 0. -1.
</event>
<event>
 5    1  0.6172503E+001  0.1597755E+01  0.7818608E-02  0.3355804E+00
         11   -1    0    0    0    0  0.00000000000E+00  0.00000000000E+00  0.39999999674E+01  0.40000000000E+01  0.51100000000E-03 0.  1.
    9000002   -1    0    0    0    0 -0.00000000000E+00 -0.00000000000E+00  0.00000000000E+00  0.93800000000E+00  0.93800000000E+00 0. -1.
         11    1    1    2    0    0  0.42207573836E-02 -0.12550732227E-01  0.96694275798E-01  0.97598052058E-01  0.51100000000E-03 0.  1.
    9000002    1    1    2    0    0  0.37126223948E+00  0.12586937820E+00  0.10514673573E+00  0.10220462743E+01  0.93800000000E+00 0. -1.
         22    1    1    2    0    0 -0.37548299686E+00 -0.11331864598E+00  0.37981589558E+01  0.38183556736E+01  0.00000000000E+00 0.  1.
</event>
<event>
 5    1  0.6172503E+001  0.1599065E+01  0.7818608E-02  0.3354379E+00
         11   -1    0    0    0    0  0.00000000000E+00  0.00000000000E+00  0.39999999674E+01  0.40000000000E+01  0.51100000000E-03 0.  1.
    9000002   -1    0    0    0    0 -0.00000000000E+00 -0.00000000000E+00  0.00000000000E+00  0.93800000000E+00  0.93800000000E+00 0.  1.
         11    1    1    2    0    0 -0.10485953304E+00 -0.75703176540E-01  0.12916660953E+01  0.12981248228E+01  0.51100000000E-03 0.  1.
    9000002    1    1    2    0    0  0.34523332136E+00  0.30388317248E+00  0.14441486475E+00  0.10546234787E+01  0.93800000000E+00 0.  1.
         22    1    1    2    0    0 -0.24037378832E+00 -0.22817999595E+00  0.25639190073E+01  0.25852516985E+01  0.00000000000E+00 0.  1.
</event>
<event>
 5    1  0.6172503E+001  0.1599676E+01  0.7818608E-02  0.3353715E+00
         11   -1    0    0    0    0  0.00000000000E+00  0.00000000000E+00  0.39999999674E+01  0.40000000000E+01  0.51100000000E-03 0. -1.
    9000002   -1    0    0    0    0 -0.00000000000E+00 -0.00000000000E+00  0.00000000000E+00  0.93800000000E+00  0.93800000000E+00 0.  1.
         11    1    1    2    0    0 -0.95212429720E-02 -0.30326610116E-01  0.27296629618E+00  0.27481123943E+00  0.51100000000E-03 0.  1.
    9000002    1    1    2    0    0  0.13244127086E+00  0.43411460642E+00  0.13999041856E+00  0.10513978786E+01  0.93800000000E+00 0.  1.
         22    1    1    2    0    0 -0.12292002789E+00 -0.40378799631E+00  0.35870432526E+01  0.36117908820E+01  0.00000000000E+00 0. -1.
</event>
<event>
 5    1  0.6172503E+001  0.1599673E+01  0.7818608E-02  0.3353718E+00
         11   -1    0    0    0    0  0.00000000000E+00  0.00000000000E+00  0.39999999674E+01  0.40000000000E+01  0.51100000000E-03 0.  1.
    9000002   -1    0    0    0    0 -0.00000000000E+00 -0.00000000000E+00  0.00000000000E+00  0.93800000000E+00  0.93800000000E+00 0. -1.
         11    1    1    2    0    0 -0.75438808248E-02 -0.20581280435E+00  0.11719038784E+01  0.11898633458E+01  0.51100000000E-03 0.  1.
    9000002    1    1    2    0    0  0.27071215239E-01  0.64474594332E+00  0.29352904260E+00  0.11757693145E+01  0.93800000000E+00 0. -1.
         22    1    1    2    0    0 -0.19527334414E-01 -0.43893313897E+00  0.25345670464E+01  0.25723673396E+01  0.00000000000E+00 0.  1.
</event>
<event>
 5    1  0.6172503E+001  0.1599562E+01  0.7818608E-02  0.3353839E+00
         11   -1    0    0    0    0  0.00000000000E+00  0.00000000000E+00  0.39999999674E+01  0.40000000000E+01  0.51100000000E-03 0.  1.
    9000002   -1    0    0    0    0 -0.00000000000E+00 -0.00000000000E+00  0.00000000000E+00  0.93800000000E+00  0.93800000000E+00 0. -1.
         11    1    1    2    0    0 -0.49331445415E-01  0.72977658455E-01  0.85862958846E+00  0.86313635159E+00  0.51100000000E-03 0.  1.
    9000002    1    1    2    0    0  0.23351894174E+00 -0.37588538189E+00  0.13295200526E+00  0.10456295483E+01  0.93800000000E+00 0. -1.
         22    1    1    2    0    0 -0.18418749632E+00  0.30290772344E+00  0.30084183736E+01  0.30292341002E+01  0.00000000000E+00 0.  1.
</event>
<event>
 5    1  0.6172503E+001  0.1599673E+01  0.7818608E-02  0.3353718E+00
         11   -1    0    0    0    0  0.00000000000E+00  0.00000000000E+00  0.39999999674E+01  0.40000000000E+01  0.51100000000E-03 0. -1.
    9000002   -1    0    0    0    0 -0.00000000000E+00 -0.00000000000E+00  0.00000000000E+00  0.93800000000E+00  0.93800000000E+00 0. -1.
         11    1    1    2    0    0  0.21605325957E-01 -0.39942679666E-01  0.49029547298E+00  0.49239427262E+00  0.51100000000E-03 0.  1.
    9000002    1    1    2    0    0 -0.18067372171E+00  0.32690505442E+00  0.93798075888E-01  0.10139782973E+01  0.93800000000E+00 0. -1.
         22    1    1    2    0    0  0.15906839575E+00 -0.28696237476E+00  0.34159064185E+01  0.34316274301E+01  0.00000000000E+00 0. -1.
</event>
<event>
 5    1  0.6172503E+001  0.1599512E+01  0.7818608E-02  0.3353893E+00
         11   -1    0    0    0    0  0.00000000000E+00  0.00000000000E+00  0.39999999674E+01  0.40000000000E+01  0.51100000000E-03 0. -1.
    9000002   -1    0    0    0    0 -0.00000000000E+00 -0.00000000000E+00  0.00000000000E+00  0.93800000000E+00  0.93800000000E+00 0. -1.
         11    1    1    2    0    0  0.12259935080E+00 -0.19613121987E-01  0.11985242473E+01  0.12049381344E+01  0.51100000000E-03 0. -1.
    9000002    1    1    2    0    0 -0.37651546407E+00  0.10454956055E+00  0.10301143898E+00  0.10213470820E+01  0.93800000000E+00 0. -1.
         22    1    1    2    0    0  0.25391611327E+00 -0.84936438568E-01  0.26984642811E+01  0.27117147836E+01  0.00000000000E+00 0. -1.
</event>
<event>
 5    1  0.6172503E+001  0.1593267E+01  0.7818608E-02  0.3360704E+00
         11   -1    0    0    0    0  0.00000000000E+00  0.00000000000E+00  0.39999999674E+01  0.40000000000E+01  0.51100000000E-03 0.  1.
    9000002   -1    0    0    0    0 -0.00000000000E+00 -0.00000000000E+00  0.00000000000E+00  0.93800000000E+00  0.93800000000E+00 0. -1.
         11    1    1    2    0    0 -0.31232477943E-01 -0.46810720631E-01  0.22103861963E+00  0.22808999043E+00  0.51100000000E-03 0.  1.
    9000002    1    1    2    0    0  0.40146787003E+00  0.46064868314E-01  0.11557434746E+00  0.10278617867E+01  0.93800000000E+00 0. -1.
         22    1    1    2    0    0 -0.37023539208E+00  0.74585231691E-03  0.36633870003E+01  0.36820482229E+01  0.00000000000E+00 0.  1.
</event>
<event>
 5    1  0.6172503E+001  0.1599284E+01  0.7818608E-02  0.3354141E+00
         11   -1    0    0    0    0  0.00000000000E+00  0.00000000000E+00  0.39999999674E+01  0.40000000000E+01  0.51100000000E-03 0. -1.
    9000002   -1    0    0    0    0 -0.00000000000E+00 -0.00000000000E+00  0.00000000000E+00  0.93800000000E+00  0.93800000000E+00 0.  1.
         11    1    1    2    0    0 -0.57827327554E-02 -0.36528105481E-01  0.21088556734E+00  0.21410447478E+00  0.51100000000E-03 0. -1.
    9000002    1    1    2    0    0  0.23975517125E+00  0.51246603910E+00  0.22214913882E+00  0.11177201006E+01  0.93800000000E+00 0.  1.
         22    1    1    2    0    0 -0.23397243849E+00 -0.47593793362E+00  0.35669652612E+01  0.36061754246E+01  0.00000000000E+00 0. -1.
</event>
<event>
 5    1  0.6172503E+001  0.1599677E+01  0.7818608E-02  0.3353714E+00
         11   -1    0    0    0    0  0.00000000000E+00  0.00000000000E+00  0.39999999674E+01  0.40000000000E+01  0.51100000000E-03 0. -1.
    9000002   -1    0    0    0    0 -0.00000000000E+00 -0.00000000000E+00  0.00000000000E+00  0.93800000000E+00  0.93800000000E+00 0. -1.
         11    1    1    2    0    0  0.39265668014E-01 -0.17985683474E+00  0.14630173341E+01  0.14745542563E+01  0.51100000000E-03 0. -1.
    9000002    1    1    2    0    0 -0.10221519538E+00  0.47171418188E+00  0.15902228042E+00  0.10668150267E+01  0.93800000000E+00 0. -1.
         22    1    1    2    0    0  0.62949527364E-01 -0.29185734714E+00  0.23779603529E+01  0.23966307170E+01  0.00000000000E+00 0. -1.
</event>
<event>
 5    1  0.6172503E+001  0.1466138E+01  0.7818608E-02  0.3512831E+00
         11   -1    0    0    0    0  0.00000000000E+00  0.00000000000E+00  0.39999999674E+01  0.40000000000E+01  0.51100000000E-03 0. -1.
    9000002   -1    0    0    0    0 -0.00000000000E+00 -0.00000000000E+00  0.00000000000E+00  0.93800000000E+00  0.93800000000E+00 0. -1.
         11    1    1    2    0    0  0.34779871448E-01  0.40184521520E+00  0.65162108077E+00  0.76635468973E+00  0.51100000000E-03 0. -1.
    9000002    1    1    2    0    0 -0.60553713256E+00 -0.88131217271E-01  0.45998309849E+00  0.12107315067E+01  0.93800000000E+00 0. -1.
         22    1    1    2    0    0  0.57075726112E+00 -0.31371399793E+00  0.28883957881E+01  0.29609138036E+01  0.00000000000E+00 0. -1.
</event>
<event>
 5    1  0.6172503E+001  0.1599648E+01  0.7818608E-02  0.3353745E+00
         11   -1    0    0    0    0  0.00000000000E+00  0.00000000000E+00  0.39999999674E+01  0.40000000000E+01  0.51100000000E-03 0. -1.
    9000002   -1    0    0    0    0 -0.00000000000E+00 -0.00000000000E+00  0.00000000000E+00  0.93800000000E+00  0.93800000000E+00 0.  1.
         11    1    1    2    0    0 -0.22891290563E-01 -0.52241914351E-01  0.38287114970E+00  0.38709663806E+00  0.51100000000E-03 0. -1.
    9000002    1    1    2    0    0  0.25341653385E+00  0.53759010630E+00  0.24617509135E+00  0.11373958140E+01  0.93800000000E+00 0.  1.
         22    1    1    2    0    0 -0.23052524329E+00 -0.48534819194E+00  0.33709537263E+01  0.34135075480E+01  0.00000000000E+00 0. -1.
</event>
<event>
 5    1  0.6172503E+001  0.1598931E+01  0.7818608E-02  0.3354524E+00
         11   -1    0    0    0    0  0.00000000000E+00  0.00000000000E+00  0.39999999674E+01  0.40000000000E+01  0.51100000000E-03 0.  1.
    9000002   -1    0    0    0    0 -0.00000000000E+00 -0.00000000000E+00  0.00000000000E+00  0.93800000000E+00  0.93800000000E+00 0.  1.
         11    1    1    2    0    0  0.26030122860E-01  0.24517965114E-01  0.31228550765E+00  0.31432657749E+00  0.51100000000E-03 0.  1.
    9000002    1    1    2    0    0 -0.13514737416E+00 -0.42230984295E+00  0.13404703982E+00  0.10461467512E+01  0.93800000000E+00 0.  1.
         22    1    1    2    0    0  0.10911725130E+00  0.39779187783E+00  0.35536674199E+01  0.35775266713E+01  0.00000000000E+00 0.  1.
</event>
<event>
 5    1  0.6172503E+001  0.1599202E+01  0.7818608E-02  0.3354230E+00
         11   -1    0    0    0    0  0.00000000000E+00  0.00000000000E+00  0.39999999674E+01  0.40000000000E+01  0.51100000000E-03 0. -1.
    9000002   -1    0    0    0    0 -0.00000000000E+00 -0.00000000000E+00  0.00000000000E+00  0.93800000000E+00  0.93800000000E+00 0.  1.
         11    1    1    2    0    0  0.70717427967E-03 -0.79590376139E-02  0.96747938812E-01  0.97078685408E-01  0.51100000000E-03 0. -1.
    9000002    1    1    2    0    0 -0.29349404650E+00  0.49531820532E+00  0.23056999022E+00  0.11244933972E+01  0.93800000000E+00 0.  1.
         22    1    1    2    0    0  0.29278687222E+00 -0.48735916770E+00  0.36726820383E+01  0.37164279174E+01  0.00000000000E+00 0. -1.
</event>
<event>
 5    1  0.6172503E+001  0.1599660E+01  0.7818608E-02  0.3353732E+00
         11   -1    0    0    0    0  0.00000000000E+00  0.00000000000E+00  0.39999999674E+01  0.40000000000E+01  0.51100000000E-03 0.  1.
    9000002   -1    0    0    0    0 -0.00000000000E+00 -0.00000000000E+00  0.00000000000E+00  0.93800000000E+00  0.93800000000E+00 0.  1.
         11    1    1    2    0    0 -0.45665697263E-02  0.13103081915E-01  0.87210016285E-01  0.88308506816E-01  0.51100000000E-03 0.  1.
    9000002    1    1    2    0    0  0.13735393172E+00 -0.57159957407E+00  0.24051995983E+00  0.11328221514E+01  0.93800000000E+00 0.  1.
         22    1    1    2    0    0 -0.13278736200E+00  0.55849649215E+00  0.36722699912E+01  0.37168693418E+01  0.00000000000E+00 0.  1.
</event>
<event>
 5    1  0.6172503E+001  0.1599635E+01  0.7818608E-02  0.3353759E+00
         11   -1    0    0    0    0  0.00000000000E+00  0.00000000000E+00  0.39999999674E+01  0.40000000000E+01  0.51100000000E-03 0.  1.
    9000002   -1    0    0    0    0 -0.00000000000E+00 -0.00000000000E+00  0.00000000000E+00  0.93800000000E+00  0.93800000000E+00 0. -1.
         11    1    1    2    0    0  0.27586645790E-01 -0.14986563961E+00  0.14823518251E+01  0.14901637250E+01  0.51100000000E-03 0.  1.
    9000002    1    1    2    0    0 -0.91981319469E-01  0.39017275665E+00  0.10843909595E+00  0.10258159585E+01  0.93800000000E+00 0. -1.
         22    1    1    2    0    0  0.64394673678E-01 -0.24030711704E+00  0.24092090463E+01  0.24220203165E+01  0.00000000000E+00 0.  1.
</event>
<event>
 5    1  0.6172503E+001  0.1599677E+01  0.7818608E-02  0.3353714E+00
         11   -1    0    0    0    0  0.00000000000E+00  0.00000000000E+00  0.39999999674E+01  0.40000000000E+01  0.51100000000E-03 0.  1.
    9000002   -1    0    0    0    0 -0.00000000000E+00 -0.00000000000E+00  0.00000000000E+00  0.93800000000E+00  0.93800000000E+00 0. -1.
         11    1    1    2    0    0 -0.10030418338E+00  0.25038784686E-01  0.10237203760E+01  0.10289273732E+01  0.51100000000E-03 0.  1.
    9000002    1    1    2    0    0  0.37966123046E+00 -0.96128735809E-01  0.10335086762E+00  0.10217185452E+01  0.93800000000E+00 0. -1.
         22    1    1    2    0    0 -0.27935704708E+00  0.71089951122E-01  0.28729287237E+01  0.28873540816E+01  0.00000000000E+00 0.  1.
</event>
<event>
 5    1  0.6172503E+001  0.1599677E+01  0.7818608E-02  0.3353714E+00
         11   -1    0    0    0    0  0.00000000000E+00  0.00000000000E+00  0.39999999674E+01  0.40000000000E+01  0.51100000000E-03 0. -1.
    9000002   -1    0    0    0    0 -0.00000000000E+00 -0.00000000000E+00  0.00000000000E+00  0.93800000000E+00  0.93800000000E+00 0.  1.
         11    1    1    2    0    0  0.12119913893E+00  0.98149946880E-01  0.12481601805E+01  0.12578659470E+01  0.51100000000E-03 0. -1.
    9000002    1    1    2    0    0 -0.37482167960E+00 -0.30091399874E+00  0.15766036847E+00  0.10657116486E+01  0.93800000000E+00 0.  1.
         22    1    1    2    0    0  0.25362254067E+00  0.20276405186E+00  0.25941794184E+01  0.26144224044E+01  0.00000000000E+00 0. -1.
</event>
<event>
 5    1  0.6172503E+001  0.1597683E+01  0.7818608E-02  0.3355882E+00
         11   -1    0    0    0    0  0.00000000000E+00  0.00000000000E+00  0.39999999674E+01  0.40000000000E+01  0.51100000000E-03 0. -1.
    9000002   -1    0    0    0    0 -0.00000000000E+00 -0.00000000000E+00  0.00000000000E+00  0.93800000000E+00  0.93800000000E+00 0.  1.
         11    1    1    2    0    0  0.14417666562E+00 -0.27293945556E+00  0.13882438629E+01  0.14221477213E+01  0.51100000000E-03 0. -1.
    9000002    1    1    2    0    0 -0.49351802222E+00  0.67075197326E+00  0.51948392798E+00  0.13576361071E+01  0.93800000000E+00 0.  1.
         22    1    1    2    0    0  0.34934135660E+00 -0.39781251770E+00  0.20922721765E+01  0.21582161716E+01  0.00000000000E+00 0. -1.
</event>
<event>
 5    1  0.6172503E+001  0.1594229E+01  0.7818608E-02  0.3359651E+00
         11   -1    0    0    0    0  0.00000000000E+00  0.00000000000E+00  0.39999999674E+01  0.40000000000E+01  0.51100000000E-03 0. -1.
    9000002   -1    0    0    0    0 -0.00000000000E+00 -0.00000000000E+00  0.00000000000E+00  0.93800000000E+00  0.93800000000E+00 0. -1.
         11    1    1    2    0    0  0.14251359155E+00  0.97379861841E-01  0.89885467873E+00  0.91527752942E+00  0.51100000000E-03 0. -1.
    9000002    1    1    2    0    0 -0.57604586114E+00 -0.90375009165E-01  0.24171382354E+00  0.11306042848E+01  0.93800000000E+00 0. -1.
         22    1    1    2    0    0  0.43353226959E+00 -0.70048526763E-02  0.28594314651E+01  0.28921181857E+01  0.00000000000E+00 0. -1.
</event>
<event>
 5    1  0.6172503E+001  0.1484077E+01  0.7818608E-02  0.3489666E+00
         11   -1    0    0    0    0  0.00000000000E+00  0.00000000000E+00  0.39999999674E+01  0.40000000000E+01  0.51100000000E-03 0. -1.
    9000002   -1    0    0    0    0 -0.00000000000E+00 -0.00000000000E+00  0.00000000000E+00  0.93800000000E+00  0.93800000000E+00 0.  1.
         11    1    1    2    0    0  0.93080960903E-01 -0.15045832990E+00  0.16492119975E+00  0.24186987734E+00  0.51100000000E-03 0. -1.
    9000002    1    1    2    0    0 -0.18936392936E+00 -0.21841222735E+00  0.15183212797E+00  0.99320672263E+00  0.93800000000E+00 0.  1.
         22    1    1    2    0    0  0.96282968455E-01  0.36887055725E+00  0.36832466396E+01  0.37029234000E+01  0.00000000000E+00 0. -1.
</event>
<event>
 5    1  0.6172503E+001  0.1599513E+01  0.7818608E-02  0.3353893E+00
         11   -1    0    0    0    0  0.00000000000E+00  0.00000000000E+00  0.39999999674E+01  0.40000000000E+01  0.51100000000E-03 0. -1.
    9000002   -1    0    0    0    0 -0.00000000000E+00 -0.00000000000E+00  0.00000000000E+00  0.93800000000E+00  0.93800000000E+00 0. -1.
         11    1    1    2    0    0 -0.15057757486E-01 -0.57679889643E-01  0.57885622260E+00  0.58191794378E+00  0.51100000000E-03 0. -1.
    9000002    1    1    2    0    0  0.15265269309E+00  0.43597988747E+00  0.14532793382E+00  0.10556256511E+01  0.93800000000E+00 0. -1.
         22    1    1    2    0    0 -0.13759493560E+00 -0.37829999783E+00  0.32758158109E+01  0.33004564051E+01  0.00000000000E+00 0. -1.
</event>
<event>
 5    1  0.6172503E+001  0.1578202E+01  0.7818608E-02  0.3377368E+00
         11   -1    0    0    0    0  0.00000000000E+00  0.00000000000E+00  0.39999999674E+01  0.40000000000E+01  0.51100000000E-03 0.  1.
    9000002   -1    0    0    0    0 -0.00000000000E+00 -0.00000000000E+00  0.00000000000E+00  0.93800000000E+00  0.93800000000E+00 0.  1.
         11    1    1    2    0    0 -0.20388072581E-01 -0.14958950227E+00  0.85976285424E+00  0.87291759024E+00  0.51100000000E-03 0.  1.
    9000002    1    1    2    0    0 -0.31684783843E+00  0.15601060929E+00  0.10119642266E+00  0.10073810495E+01  0.93800000000E+00 0.  1.
         22    1    1    2    0    0  0.33723591101E+00 -0.64211070166E-02  0.30390406905E+01  0.30577013603E+01  0.00000000000E+00 0.  1.
</event>
<event>
 5    1  0.6172503E+001  0.1599660E+01  0.7818608E-02  0.3353733E+00
         11   -1    0    0    0    0  0.00000000000E+00  0.00000000000E+00  0.39999999674E+01  0.40000000000E+01  0.51100000000E-03 0.  1.
    9000002   -1    0    0    0    0 -0.00000000000E+00 -0.00000000000E+00  0.00000000000E+00  0.93800000000E+00  0.93800000000E+00 0.  1.
         11    1    1    2    0    0 -0.14272267575E+00  0.15136536966E+00  0.13492106580E+01  0.13651559977E+01  0.51100000000E-03 0.  1.
    9000002    1    1    2    0    0  0.40761720461E+00 -0.43001423395E+00  0.24456543901E+00  0.11360987109E+01  0.93800000000E+00 0.  1.
         22    1    1    2    0    0 -0.26489452886E+00  0.27864886429E+00  0.24062238703E+01  0.24367452914E+01  0.00000000000E+00 0.  1.
</event>
<event>
 5    1  0.6172503E+001  0.1599677E+01  0.7818608E-02  0.3353714E+00
         11   -1    0    0    0    0  0.00000000000E+00  0.00000000000E+00  0.39999999674E+01  0.40000000000E+01  0.51100000000E-03 0. -1.
    9000002   -1    0    0    0    0 -0.00000000000E+00 -0.00000000000E+00  0.00000000000E+00  0.93800000000E+00  0.93800000000E+00 0. -1.
         11    1    1    2    0    0  0.23693235315E-02 -0.19288096104E+00  0.14250970526E+01  0.14380926776E+01  0.51100000000E-03 0.  1.
    9000002    1    1    2    0    0 -0.67256734415E-02  0.51629377977E+00  0.18301743977E+00  0.10862522198E+01  0.93800000000E+00 0. -1.
         22    1    1    2    0    0  0.43563499100E-02 -0.32341281873E+00  0.23918854750E+01  0.24136551026E+01  0.00000000000E+00 0. -1.
</event>
<event>
 5    1  0.6172503E+001  0.1531581E+01  0.7818608E-02  0.3431144E+00
         11   -1    0    0    0    0  0.00000000000E+00  0.00000000000E+00  0.39999999674E+01  0.40000000000E+01  0.51100000000E-03 0.  1.
    9000002   -1    0    0    0    0 -0.00000000000E+00 -0.00000000000E+00  0.00000000000E+00  0.93800000000E+00  0.93800000000E+00 0.  1.
         11    1    1    2    0    0 -0.35074285991E+00 -0.50237669910E-01  0.10203956768E+01  0.10801629394E+01  0.51100000000E-03 0.  1.
    9000002    1    1    2    0    0  0.47820709614E+00 -0.47852230133E+00  0.40340198729E+00  0.12248439831E+01  0.93800000000E+00 0.  1.
         22    1    1    2    0    0 -0.12746423623E+00  0.52875997124E+00  0.25762023032E+01  0.26329930774E+01  0.00000000000E+00 0.  1.
</event>
<event>
 5    1  0.6172503E+001  0.1599673E+01  0.7818608E-02  0.3353718E+00
         11   -1    0    0    0    0  0.00000000000E+00  0.00000000000E+00  0.39999999674E+01  0.40000000000E+01  0.51100000000E-03 0. -1.
    9000002   -1    0    0    0    0 -0.00000000000E+00 -0.00000000000E+00  0.00000000000E+00  0.93800000000E+00  0.93800000000E+00 0. -1.
         11    1    1    2    0    0 -0.84742495875E-01 -0.74910925647E-01  0.77898993149E+00  0.78715850492E+00  0.51100000000E-03 0. -1.
    9000002    1    1    2    0    0  0.40427609843E+00  0.36736347529E+00  0.20595928305E+00  0.11048340658E+01  0.93800000000E+00 0. -1.
         22    1    1    2    0    0 -0.31953360255E+00 -0.29245254964E+00  0.30150507528E+01  0.30460074293E+01  0.00000000000E+00 0. -1.
</event>
<event>
 5    1  0.6172503E+001  0.1599661E+01  0.7818608E-02  0.3353732E+00
         11   -1    0    0    0    0  0.00000000000E+00  0.00000000000E+00  0.39999999674E+01  0.40000000000E+01  0.51100000000E-03 0. -1.
    9000002   -1    0    0    0    0 -0.00000000000E+00 -0.00000000000E+00  0.00000000000E+00  0.93800000000E+00  0.93800000000E+00 0.  1.
         11    1    1    2    0    0  0.40548299130E-01 -0.62536877418E-01  0.67282986126E+00  0.67694557309E+00  0.51100000000E-03 0. -1.
    9000002    1    1    2    0    0 -0.23941724840E+00  0.34040556816E+00  0.11708671307E+00  0.10328358379E+01  0.93800000000E+00 0.  1.
         22    1    1    2    0    0  0.19886894927E+00 -0.27786869075E+00  0.32100833930E+01  0.32282185890E+01  0.00000000000E+00 0. -1.
</event>
<event>
 5    1  0.6172503E+001  0.1594359E+01  0.7818608E-02  0.3359509E+00
         11   -1    0    0    0    0  0.00000000000E+00  0.00000000000E+00  0.39999999674E+01  0.40000000000E+01  0.51100000000E-03 0.  1.
    9000002   -1    0    0    0    0 -0.00000000000E+00 -0.00000000000E+00  0.00000000000E+00  0.93800000000E+00  0.93800000000E+00 0.  1.
         11    1    1    2    0    0 -0.97845185475E-01  0.47480190666E-01  0.13326252782E+01  0.13370558860E+01  0.51100000000E-03 0.  1.
    9000002    1    1    2    0    0  0.50937070735E+00 -0.62169721329E-01  0.18552785919E+00  0.10851673504E+01  0.93800000000E+00 0.  1.
         22    1    1    2    0    0 -0.41152552188E+00  0.14689530664E-01  0.24818468299E+01  0.25157767637E+01  0.00000000000E+00 0.  1.
</event>
<event>
 5    1  0.6172503E+001  0.1593208E+01  0.7818608E-02  0.3360769E+00
         11   -1    0    0    0    0  0.00000000000E+00  0.00000000000E+00  0.39999999674E+01  0.40000000000E+01  0.51100000000E-03 0.  1.
    9000002   -1    0    0    0    0 -0.00000000000E+00 -0.00000000000E+00  0.00000000000E+00  0.93800000000E+00  0.93800000000E+00 0. -1.
         11    1    1    2    0    0 -0.14190523659E+00  0.55827429892E-02  0.51454871331E+00  0.53378731971E+00  0.51100000000E-03 0.  1.
    9000002    1    1    2    0    0  0.55919556654E+00 -0.17104926427E+00  0.24417565506E+00  0.11319996833E+01  0.93800000000E+00 0. -1.
         22    1    1    2    0    0 -0.41729032996E+00  0.16546652128E+00  0.32412755990E+01  0.32722129970E+01  0.00000000000E+00 0.  1.
</event>
<event>
 5    1  0.6172503E+001  0.1599569E+01  0.7818608E-02  0.3353831E+00
         11   -1    0    0    0    0  0.00000000000E+00  0.00000000000E+00  0.39999999674E+01  0.40000000000E+01  0.51100000000E-03 0.  1.
    9000002   -1    0    0    0    0 -0.00000000000E+00 -0.00000000000E+00  0.00000000000E+00  0.93800000000E+00  0.93800000000E+00 0.  1.
         11    1    1    2    0    0 -0.10064704064E+00  0.84381186205E-01  0.13804907749E+01  0.13867245769E+01  0.51100000000E-03 0.  1.
    9000002    1    1    2    0    0  0.29700726599E+00 -0.20735927496E+00  0.88187157459E-01  0.10093721611E+01  0.93800000000E+00 0.  1.
         22    1    1    2    0    0 -0.19636022535E+00  0.12297808875E+00  0.25313220350E+01  0.25419032620E+01  0.00000000000E+00 0.  1.
</event>
<event>
 5    1  0.6172503E+001  0.1580432E+01  0.7818608E-02  0.3374880E+00
         11   -1    0    0    0    0  0.00000000000E+00  0.00000000000E+00  0.39999999674E+01  0.40000000000E+01  0.51100000000E-03 0.  1.
    9000002   -1    0    0    0    0 -0.00000000000E+00 -0.00000000000E+00  0.00000000000E+00  0.93800000000E+00  0.93800000000E+00 0.  1.
         11    1    1    2    0    0 -0.26862709992E-01 -0.11754823678E+00  0.42933432509E+00  0.44594553141E+00  0.51100000000E-03 0.  1.
    9000002    1    1    2    0    0 -0.27266914298E+00  0.26109229773E+00  0.11180422131E+00  0.10172815900E+01  0.93800000000E+00 0.  1.
         22    1    1    2    0    0  0.29953185297E+00 -0.14354406095E+00  0.34588614210E+01  0.34747728786E+01  0.00000000000E+00 0.  1.
</event>
<event>
 5    1  0.6172503E+001  0.1599553E+01  0.7818608E-02  0.3353849E+00
         11   -1    0    0    0    0  0.00000000000E+00  0.00000000000E+00  0.39999999674E+01  0.40000000000E+01  0.51100000000E-03 0. -1.
    9000002   -1    0    0    0    0 -0.00000000000E+00 -0.00000000000E+00  0.00000000000E+00  0.93800000000E+00  0.93800000000E+00 0.  1.
         11    1    1    2    0    0  0.19665719693E-01  0.34936194698E-01  0.37605609713E+00  0.37818742383E+00  0.51100000000E-03 0. -1.
    9000002    1    1    2    0    0 -0.12662012946E+00 -0.33710709362E+00  0.87146867023E-01  0.10085199186E+01  0.93800000000E+00 0.  1.
         22    1    1    2    0    0  0.10695440977E+00  0.30217089893E+00  0.35367970032E+01  0.35512926576E+01  0.00000000000E+00 0. -1.
</event>
<event>
 5    1  0.6172503E+001  0.1576172E+01  0.7818608E-02  0.3379639E+00
         11   -1    0    0    0    0  0.00000000000E+00  0.00000000000E+00  0.39999999674E+01  0.40000000000E+01  0.51100000000E-03 0. -1.
    9000002   -1    0    0    0    0 -0.00000000000E+00 -0.00000000000E+00  0.00000000000E+00  0.93800000000E+00  0.93800000000E+00 0. -1.
         11    1    1    2    0    0 -0.54641342018E-01 -0.11519866459E+00  0.91407129750E+00  0.92292091028E+00  0.51100000000E-03 0. -1.
    9000002    1    1    2    0    0  0.30901281716E+00 -0.17100702769E+00  0.10287579260E+00  0.10075513651E+01  0.93800000000E+00 0. -1.
         22    1    1    2    0    0 -0.25437147515E+00  0.28620569228E+00  0.29830528773E+01  0.30075277246E+01  0.00000000000E+00 0. -1.
</event>
<event>
 5    1  0.6172503E+001  0.1597277E+01  0.7818608E-02  0.3356324E+00
         11   -1    0    0    0    0  0.00000000000E+00  0.00000000000E+00  0.39999999674E+01  0.40000000000E+01  0.51100000000E-03 0.  1.
    9000002   -1    0    0    0    0 -0.00000000000E+00 -0.00000000000E+00  0.00000000000E+00  0.93800000000E+00  0.93800000000E+00 0.  1.
         11    1    1    2    0    0 -0.42777394070E-02 -0.19789044146E-01  0.63013706437E+00  0.63046243849E+00  0.51100000000E-03 0.  1.
    9000002    1    1    2    0    0 -0.49454097347E-01  0.38062389670E+00  0.10114610494E+00  0.10185257940E+01  0.93800000000E+00 0.  1.
         22    1    1    2    0    0  0.53731836754E-01 -0.36083485255E+00  0.32687167980E+01  0.32890117675E+01  0.00000000000E+00 0.  1.
</event>
<event>
 5    1  0.6172503E+001  0.1599506E+01  0.7818608E-02  0.3353900E+00
         11   -1    0    0    0    0  0.00000000000E+00  0.00000000000E+00  0.39999999674E+01  0.40000000000E+01  0.51100000000E-03 0.  1.
    9000002   -1    0    0    0    0 -0.00000000000E+00 -0.00000000000E+00  0.00000000000E+00  0.93800000000E+00  0.93800000000E+00 0.  1.
         11    1    1    2    0    0 -0.77250299675E-01  0.90926969210E-01  0.11533088390E+01  0.11594640408E+01  0.51100000000E-03 0.  1.
    9000002    1    1    2    0    0  0.21991033409E+00 -0.33313016312E+00  0.10760643477E+00  0.10250655615E+01  0.93800000000E+00 0.  1.
         22    1    1    2    0    0 -0.14266003441E+00  0.24220319391E+00  0.27390846935E+01  0.27534703977E+01  0.00000000000E+00 0.  1.
</event>
<event>
 5    1  0.6172503E+001  0.1599531E+01  0.7818608E-02  0.3353872E+00
         11   -1    0    0    0    0  0.00000000000E+00  0.00000000000E+00  0.39999999674E+01  0.40000000000E+01  0.51100000000E-03 0. -1.
    9000002   -1    0    0    0    0 -0.00000000000E+00 -0.00000000000E+00  0.00000000000E+00  0.93800000000E+00  0.93800000000E+00 0. -1.
         11    1    1    2    0    0  0.79510880605E-01  0.57455744002E-02  0.94019199357E+00  0.94356570394E+00  0.51100000000E-03 0. -1.
    9000002    1    1    2    0    0 -0.35415230976E+00 -0.70080887448E-01  0.87617405879E-01  0.10088884969E+01  0.93800000000E+00 0. -1.
         22    1    1    2    0    0  0.27464142915E+00  0.64335313047E-01  0.29721905679E+01  0.29855457992E+01  0.00000000000E+00 0. -1.
</event>
<event>
 5    1  0.6172503E+001  0.1599671E+01  0.7818608E-02  0.3353720E+00
         11   -1    0    0    0    0  0.00000000000E+00  0.00000000000E+00  0.39999999674E+01  0.40000000000E+01  0.51100000000E-03 0.  1.
    9000002   -1    0    0    0    0 -0.00000000000E+00 -0.00000000000E+00  0.00000000000E+00  0.93800000000E+00  0.93800000000E+00 0.  1.
         11    1    1    2    0    0 -0.88506693837E-01  0.37367578249E-01  0.91367860320E+00  0.91871574593E+00  0.51100000000E-03 0.  1.
    9000002    1    1    2    0    0  0.38347308142E+00 -0.15114433379E+00  0.11478593192E+00  0.10309781879E+01  0.93800000000E+00 0.  1.
         22    1    1    2    0    0 -0.29496638758E+00  0.11377675554E+00  0.29715354322E+01  0.29883060661E+01  0.00000000000E+00 0. -1.
</event>
<event>
 5    1  0.6172503E+001  0.1599577E+01  0.7818608E-02  0.3353823E+00
         11   -1    0    0    0    0  0.00000000000E+00  0.00000000000E+00  0.39999999674E+01  0.40000000000E+01  0.51100000000E-03 0. -1.
    9000002   -1    0    0    0    0 -0.00000000000E+00 -0.00000000000E+00  0.00000000000E+00  0.93800000000E+00  0.93800000000E+00 0. -1.
         11    1    1    2    0    0  0.42014657366E-01  0.91097042491E-02  0.55428955765E+00  0.55595448823E+00  0.51100000000E-03 0. -1.
    9000002    1    1    2    0    0 -0.35592734291E+00 -0.64462731775E-01  0.87926109616E-01  0.10091653571E+01  0.93800000000E+00 0. -1.
         22    1    1    2    0    0  0.31391268554E+00  0.55353027526E-01  0.33577843001E+01  0.33728801547E+01  0.00000000000E+00 0. -1.
</event>
<event>
 5    1  0.6172503E+001  0.1599609E+01  0.7818608E-02  0.3353788E+00
         11   -1    0    0    0    0  0.00000000000E+00  0.00000000000E+00  0.39999999674E+01  0.40000000000E+01  0.51100000000E-03 0. -1.
    9000002   -1    0    0    0    0 -0.00000000000E+00 -0.00000000000E+00  0.00000000000E+00  0.93800000000E+00  0.93800000000E+00 0. -1.
         11    1    1    2    0    0 -0.24608245141E-01  0.79660831436E-01  0.75308296694E+00  0.75768438680E+00  0.51100000000E-03 0. -1.
    9000002    1    1    2    0    0  0.11179049695E+00 -0.37451626128E+00  0.10297633364E+00  0.10213753818E+01  0.93800000000E+00 0. -1.
         22    1    1    2    0    0 -0.87182251807E-01  0.29485542984E+00  0.31439406668E+01  0.31589402314E+01  0.00000000000E+00 0. -1.
</event>
<event>
 5    1  0.6172503E+001  0.1596358E+01  0.7818608E-02  0.3357326E+00
         11   -1    0    0    0    0  0.00000000000E+00  0.00000000000E+00  0.39999999674E+01  0.40000000000E+01  0.51100000000E-03 0.  1.
    9000002   -1    0    0    0    0 -0.00000000000E+00 -0.00000000000E+00  0.00000000000E+00  0.93800000000E+00  0.93800000000E+00 0. -1.
         11    1    1    2    0    0  0.70151379895E-02 -0.71575429761E-02  0.50666797975E+00  0.50676734841E+00  0.51100000000E-03 0.  1.
    9000002    1    1    2    0    0  0.13282682636E+00  0.36191455283E+00  0.10280768333E+00  0.10193323938E+01  0.93800000000E+00 0. -1.
         22    1    1    2    0    0 -0.13984196435E+00 -0.35475700985E+00  0.33905243043E+01  0.34119002578E+01  0.00000000000E+00 0.  1.
</event>
<event>
 5    1  0.6172503E+001  0.1564203E+01  0.7818608E-02  0.3393157E+00
         11   -1    0    0    0    0  0.00000000000E+00  0.00000000000E+00  0.39999999674E+01  0.40000000000E+01  0.51100000000E-03 0. -1.
    9000002   -1    0    0    0    0 -0.00000000000E+00 -0.00000000000E+00  0.00000000000E+00  0.93800000000E+00  0.93800000000E+00 0. -1.
         11    1    1    2    0    0 -0.27570850301E+00 -0.49304855718E-01  0.83133132860E+00  0.87724465599E+00  0.51100000000E-03 0. -1.
    9000002    1    1    2    0    0  0.39797211761E+00  0.37415418853E+00  0.24010681798E+00  0.11116962028E+01  0.93800000000E+00 0. -1.
         22    1    1    2    0    0 -0.12226361460E+00 -0.32484933281E+00  0.29285618208E+01  0.29490591413E+01  0.00000000000E+00 0. -1.
</event>
<event>
 5    1  0.6172503E+001  0.1599658E+01  0.7818608E-02  0.3353735E+00
         11   -1    0    0    0    0  0.00000000000E+00  0.00000000000E+00  0.39999999674E+01  0.40000000000E+01  0.51100000000E-03 0.  1.
    9000002   -1    0    0    0    0 -0.00000000000E+00 -0.00000000000E+00  0.00000000000E+00  0.93800000000E+00  0.93800000000E+00 0.  1.
         11    1    1    2    0    0  0.99819587002E-01  0.76049169088E-01  0.69721996006E+00  0.70842315031E+00  0.51100000000E-03 0.  1.
    9000002    1    1    2    0    0 -0.52485073058E+00 -0.38236531769E+00  0.29752686691E+00  0.11789986268E+01  0.93800000000E+00 0.  1.
         22    1    1    2    0    0  0.42503114357E+00  0.30631614861E+00  0.30052531404E+01  0.30505782228E+01  0.00000000000E+00 0.  1.
</event>
<event>
 5    1  0.6172503E+001  0.1599676E+01  0.7818608E-02  0.3353715E+00
         11   -1    0    0    0    0  0.00000000000E+00  0.00000000000E+00  0.39999999674E+01  0.40000000000E+01  0.51100000000E-03 0. -1.
    9000002   -1    0    0    0    0 -0.00000000000E+00 -0.00000000000E+00  0.00000000000E+00  0.93800000000E+00  0.93800000000E+00 0. -1.
         11    1    1    2    0    0 -0.70385970291E-01  0.94720226532E-01  0.82571515569E+00  0.83410544033E+00  0.51100000000E-03 0. -1.
    9000002    1    1    2    0    0  0.32031020603E+00 -0.43851572298E+00  0.20341834455E+00  0.11027772623E+01  0.93800000000E+00 0. -1.
         22    1    1    2    0    0 -0.24992423574E+00  0.34379549645E+00  0.29708664671E+01  0.30011172974E+01  0.00000000000E+00 0. -1.
</event>
<event>
 5    1  0.6172503E+001  0.1599000E+01  0.7818608E-02  0.3354449E+00
         11   -1    0    0    0    0  0.00000000000E+00  0.00000000000E+00  0.39999999674E+01  0.40000000000E+01  0.51100000000E-03 0.  1.
    9000002   -1    0    0    0    0 -0.00000000000E+00 -0.00000000000E+00  0.00000000000E+00  0.93800000000E+00  0.93800000000E+00 0.  1.
         11    1    1    2    0    0  0.14760009663E+00 -0.13158987860E+00  0.13095945012E+01  0.13244393921E+01  0.51100000000E-03 0.  1.
    9000002    1    1    2    0    0 -0.36319267848E+00  0.33110016468E+00  0.16571605918E+00  0.10718404979E+01  0.93800000000E+00 0.  1.
         22    1    1    2    0    0  0.21559258185E+00 -0.19951028608E+00  0.25246894070E+01  0.25417201100E+01  0.00000000000E+00 0. -1.
</event>
<event>
 5    1  0.6172503E+001  0.1563338E+01  0.7818608E-02  0.3394142E+00
         11   -1    0    0    0    0  0.00000000000E+00  0.00000000000E+00  0.39999999674E+01  0.40000000000E+01  0.51100000000E-03 0. -1.
    9000002   -1    0    0    0    0 -0.00000000000E+00 -0.00000000000E+00  0.00000000000E+00  0.93800000000E+00  0.93800000000E+00 0. -1.
         11    1    1    2    0    0  0.32895615976E+00  0.96619567087E-01  0.13615151024E+01  0.14040196334E+01  0.51100000000E-03 0. -1.
    9000002    1    1    2    0    0 -0.43012051990E+00 -0.64588689006E+00  0.48698624695E+00  0.13111724300E+01  0.93800000000E+00 0. -1.
         22    1    1    2    0    0  0.10116436013E+00  0.54926732297E+00  0.21514986180E+01  0.22228079366E+01  0.00000000000E+00 0. -1.
</event>
<event>
 5    1  0.6172503E+001  0.1599499E+01  0.7818608E-02  0.3353908E+00
         11   -1    0    0    0    0  0.00000000000E+00  0.00000000000E+00  0.39999999674E+01  0.40000000000E+01  0.51100000000E-03 0. -1.
    9000002   -1    0    0    0    0 -0.00000000000E+00 -0.00000000000E+00  0.00000000000E+00  0.93800000000E+00  0.93800000000E+00 0. -1.
         11    1    1    2    0    0  0.69168889642E-01  0.15686719706E-01  0.49585244250E+00  0.50089950522E+00  0.51100000000E-03 0. -1.
    9000002    1    1    2    0    0 -0.45297808482E+00 -0.11845862211E+00  0.14945843551E+00  0.10589633678E+01  0.93800000000E+00 0. -1.
         22    1    1    2    0    0  0.38380919518E+00  0.10277190240E+00  0.33546890893E+01  0.33781371269E+01  0.00000000000E+00 0. -1.
</event>
<event>
 5    1  0.6172503E+001  0.1599677E+01  0.7818608E-02  0.3353714E+00
         11   -1    0    0    0    0  0.00000000000E+00  0.00000000000E+00  0.39999999674E+01  0.40000000000E+01  0.51100000000E-03 0.  1.
    9000002   -1    0    0    0    0 -0.00000000000E+00 -0.00000000000E+00  0.00000000000E+00  0.93800000000E+00  0.93800000000E+00 0.  1.
         11    1    1    2    0    0 -0.57815436564E-01  0.84353907931E-01  0.98344184045E+00  0.98874482105E+00  0.51100000000E-03 0. -1.
    9000002    1    1    2    0    0  0.22934441846E+00 -0.33301739422E+00  0.11034572807E+00  0.10273848485E+01  0.93800000000E+00 0.  1.
         22    1    1    2    0    0 -0.17152898190E+00  0.24866348629E+00  0.29062123988E+01  0.29218703305E+01  0.00000000000E+00 0.  1.
</event>
<event>
 5    1  0.6172503E+001  0.1599191E+01  0.7818608E-02  0.3354242E+00
         11   -1    0    0    0    0  0.00000000000E+00  0.00000000000E+00  0.39999999674E+01  0.40000000000E+01  0.51100000000E-03 0.  1.
    9000002   -1    0    0    0    0 -0.00000000000E+00 -0.00000000000E+00  0.00000000000E+00  0.93800000000E+00  0.93800000000E+00 0.  1.
         11    1    1    2    0    0 -0.11442104689E+00  0.13127257518E-02  0.11600237536E+01  0.11656540092E+01  0.51100000000E-03 0.  1.
    9000002    1    1    2    0    0  0.45558769123E+00 -0.35726800207E-01  0.14240845272E+00  0.10530720374E+01  0.93800000000E+00 0.  1.
         22    1    1    2    0    0 -0.34116664434E+00  0.34414074455E-01  0.26975677610E+01  0.27192739533E+01  0.00000000000E+00 0.  1.
</event>
<event>
 5    1  0.6172503E+001  0.1599243E+01  0.7818608E-02  0.3354185E+00
         11   -1    0    0    0    0  0.00000000000E+00  0.00000000000E+00  0.39999999674E+01  0.40000000000E+01  0.51100000000E-03 0. -1.
    9000002   -1    0    0    0    0 -0.00000000000E+00 -0.00000000000E+00  0.00000000000E+00  0.93800000000E+00  0.93800000000E+00 0.  1.
         11    1    1    2    0    0 -0.44795250899E-01 -0.13934046394E-01  0.57657610209E+00  0.57848166330E+00  0.51100000000E-03 0. -1.
    9000002    1    1    2    0    0  0.41016612287E+00  0.14387597014E+00  0.12840916094E+00  0.10417626677E+01  0.93800000000E+00 0.  1.
         22    1    1    2    0    0 -0.36537087197E+00 -0.12994192375E+00  0.32950147043E+01  0.33177556690E+01  0.00000000000E+00 0. -1.
</event>
<event>
 5    1  0.6172503E+001  0.1597184E+01  0.7818608E-02  0.3356425E+00
         11   -1    0    0    0    0  0.00000000000E+00  0.00000000000E+00  0.39999999674E+01  0.40000000000E+01  0.51100000000E-03 0. -1.
    9000002   -1    0    0    0    0 -0.00000000000E+00 -0.00000000000E+00  0.00000000000E+00  0.93800000000E+00  0.93800000000E+00 0.  1.
         11    1    1    2    0    0  0.65532481719E-01  0.63849756202E-01  0.77679160308E+00  0.78216159025E+00  0.51100000000E-03 0. -1.
    9000002    1    1    2    0    0 -0.43327407319E+00 -0.10347060989E+00  0.13683076897E+00  0.10473773193E+01  0.93800000000E+00 0.  1.
         22    1    1    2    0    0  0.36774159147E+00  0.39620853691E-01  0.30863775953E+01  0.31084610905E+01  0.00000000000E+00 0. -1.
</event>
<event>
 5    1  0.6172503E+001  0.1599676E+01  0.7818608E-02  0.3353715E+00
         11   -1    0    0    0    0  0.00000000000E+00  0.00000000000E+00  0.39999999674E+01  0.40000000000E+01  0.51100000000E-03 0.  1.
    9000002   -1    0    0    0    0 -0.00000000000E+00 -0.00000000000E+00  0.00000000000E+00  0.93800000000E+00  0.93800000000E+00 0. -1.
         11    1    1    2    0    0  0.59827154174E-01  0.67208054316E-01  0.77672475819E+00  0.78191931940E+00  0.51100000000E-03 0.  1.
    9000002    1    1    2    0    0 -0.30236752821E+00 -0.33590506829E+00  0.13877015844E+00  0.10504092031E+01  0.93800000000E+00 0. -1.
         22    1    1    2    0    0  0.24254037404E+00  0.26869701397E+00  0.30845050507E+01  0.31056714775E+01  0.00000000000E+00 0.  1.
</event>
<event>
 5    1  0.6172503E+001  0.1490365E+01  0.7818608E-02  0.3481688E+00
         11   -1    0    0    0    0  0.00000000000E+00  0.00000000000E+00  0.39999999674E+01  0.40000000000E+01  0.51100000000E-03 0. -1.
    9000002   -1    0    0    0    0 -0.00000000000E+00 -0.00000000000E+00  0.00000000000E+00  0.93800000000E+00  0.93800000000E+00 0. -1.
         11    1    1    2    0    0 -0.23688239426E+00  0.17605577916E+00  0.50717526758E+00  0.58680143086E+00  0.51100000000E-03 0. -1.
    9000002    1    1    2    0    0 -0.70730870162E-01 -0.35296451890E+00  0.18156431516E+00  0.10209781624E+01  0.93800000000E+00 0. -1.
         22    1    1    2    0    0  0.30761326443E+00  0.17690873973E+00  0.33112603846E+01  0.33302204067E+01  0.00000000000E+00 0. -1.
</event>
<event>
 5    1  0.6172503E+001  0.1599635E+01  0.7818608E-02  0.3353760E+00
         11   -1    0    0    0    0  0.00000000000E+00  0.00000000000E+00  0.39999999674E+01  0.40000000000E+01  0.51100000000E-03 0.  1.
    9000002   -1    0    0    0    0 -0.00000000000E+00 -0.00000000000E+00  0.00000000000E+00  0.93800000000E+00  0.93800000000E+00 0.  1.
         11    1    1    2    0    0 -0.71437477636E-02 -0.20553372304E+00  0.14620946707E+01  0.14764878028E+01  0.51100000000E-03 0.  1.
    9000002    1    1    2    0    0  0.28639132829E-01  0.51893843440E+00  0.18557799958E+00  0.10883016551E+01  0.93800000000E+00 0.  1.
         22    1    1    2    0    0 -0.21495385065E-01 -0.31340471135E+00  0.23523272970E+01  0.23732105421E+01  0.00000000000E+00 0.  1.
</event>
<event>
 5    1  0.6172503E+001  0.1596265E+01  0.7818608E-02  0.3357427E+00
         11   -1    0    0    0    0  0.00000000000E+00  0.00000000000E+00  0.39999999674E+01  0.40000000000E+01  0.51100000000E-03 0.  1.
    9000002   -1    0    0    0    0 -0.00000000000E+00 -0.00000000000E+00  0.00000000000E+00  0.93800000000E+00  0.93800000000E+00 0. -1.
         11    1    1    2    0    0 -0.33660333314E-01 -0.26248788911E-01  0.96332720336E+00  0.96427256459E+00  0.51100000000E-03 0.  1.
    9000002    1    1    2    0    0  0.38108368796E+00  0.85502188559E-01  0.10559098792E+00  0.10215326026E+01  0.93800000000E+00 0. -1.
         22    1    1    2    0    0 -0.34742335464E+00 -0.59253399647E-01  0.29310817761E+01  0.29521948328E+01  0.00000000000E+00 0.  1.
</event>
<event>
 5    1  0.6172503E+001  0.1584314E+01  0.7818608E-02  0.3370567E+00
         11   -1    0    0    0    0  0.00000000000E+00  0.00000000000E+00  0.39999999674E+01  0.40000000000E+01  0.51100000000E-03 0.  1.
    9000002   -1    0    0    0    0 -0.00000000000E+00 -0.00000000000E+00  0.00000000000E+00  0.93800000000E+00  0.93800000000E+00 0.  1.
         11    1    1    2    0    0 -0.45379763913E-01  0.38769372300E-01  0.11733697706E+01  0.11748869166E+01  0.51100000000E-03 0.  1.
    9000002    1    1    2    0    0 -0.19453373008E-01  0.29431371827E+00  0.70102481476E-01  0.98577753900E+00  0.93800000000E+00 0.  1.
         22    1    1    2    0    0  0.64833136920E-01 -0.33308309057E+00  0.27565277153E+01  0.27773355444E+01  0.00000000000E+00 0.  1.
</event>
<event>
 5    1  0.6172503E+001  0.1597539E+01  0.7818608E-02  0.3356039E+00
         11   -1    0    0    0    0  0.00000000000E+00  0.00000000000E+00  0.39999999674E+01  0.40000000000E+01  0.51100000000E-03 0. -1.
    9000002   -1    0    0    0    0 -0.00000000000E+00 -0.00000000000E+00  0.00000000000E+00  0.93800000000E+00  0.93800000000E+00 0.  1.
         11    1    1    2    0    0 -0.12842694548E-01  0.19849930402E+00  0.13811507882E+01  0.13954012575E+01  0.51100000000E-03 0. -1.
    9000002    1    1    2    0    0 -0.47552907615E-01 -0.43163087903E+00  0.12960633593E+00  0.10417333138E+01  0.93800000000E+00 0.  1.
         22    1    1    2    0    0  0.60395602163E-01  0.23313157502E+00  0.24892428432E+01  0.25008654287E+01  0.00000000000E+00 0. -1.
</event>
<event>
 5    1  0.6172503E+001  0.1599677E+01  0.7818608E-02  0.3353714E+00
         11   -1    0    0    0    0  0.00000000000E+00  0.00000000000E+00  0.39999999674E+01  0.40000000000E+01  0.51100000000E-03 0.  1.
    9000002   -1    0    0    0    0 -0.00000000000E+00 -0.00000000000E+00  0.00000000000E+00  0.93800000000E+00  0.93800000000E+00 0. -1.
         11    1    1    2    0    0 -0.21700117751E-01 -0.96086376837E-01  0.91802689377E+00  0.92329687844E+00  0.51100000000E-03 0.  1.
    9000002    1    1    2    0    0  0.92732249880E-01  0.40640075990E+00  0.11746520672E+00  0.10331519359E+01  0.93800000000E+00 0. -1.
         22    1    1    2    0    0 -0.71032132129E-01 -0.31031438306E+00  0.29645078669E+01  0.29815511857E+01  0.00000000000E+00 0.  1.
</event>
<event>
 5    1  0.6172503E+001  0.1599676E+01  0.7818608E-02  0.3353715E+00
         11   -1    0    0    0    0  0.00000000000E+00  0.00000000000E+00  0.39999999674E+01  0.40000000000E+01  0.51100000000E-03 0. -1.
    9000002   -1    0    0    0    0 -0.00000000000E+00 -0.00000000000E+00  0.00000000000E+00  0.93800000000E+00  0.93800000000E+00 0. -1.
         11    1    1    2    0    0  0.13964866511E-01  0.24164174206E-01  0.25637100094E+00  0.25788616879E+00  0.51100000000E-03 0.  1.
    9000002    1    1    2    0    0 -0.20746523369E+00 -0.36288934817E+00  0.11813984268E+00  0.10336979852E+01  0.93800000000E+00 0. -1.
         22    1    1    2    0    0  0.19350036718E+00  0.33872517396E+00  0.36254891237E+01  0.36464158460E+01  0.00000000000E+00 0. -1.
</event>
<event>
 5    1  0.6172503E+001  0.1557748E+01  0.7818608E-02  0.3400538E+00
         11   -1    0    0    0    0  0.00000000000E+00  0.00000000000E+00  0.39999999674E+01  0.40000000000E+01  0.51100000000E-03 0. -1.
    9000002   -1    0    0    0    0 -0.00000000000E+00 -0.00000000000E+00  0.00000000000E+00  0.93800000000E+00  0.93800000000E+00 0. -1.
         11    1    1    2    0    0 -0.20593927540E+00 -0.68435568886E-01  0.72383288237E+00  0.75566441954E+00  0.51100000000E-03 0. -1.
    9000002    1    1    2    0    0  0.29141650269E+00 -0.28028326677E+00  0.14620073212E+00  0.10318434677E+01  0.93800000000E+00 0. -1.
         22    1    1    2    0    0 -0.85477227288E-01  0.34871883566E+00  0.31299663529E+01  0.31504921128E+01  0.00000000000E+00 0. -1.
</event>
<event>
 5    1  0.6172503E+001  0.1599671E+01  0.7818608E-02  0.3353721E+00
         11   -1    0    0    0    0  0.00000000000E+00  0.00000000000E+00  0.39999999674E+01  0.40000000000E+01  0.51100000000E-03 0.  1.
    9000002   -1    0    0    0    0 -0.00000000000E+00 -0.00000000000E+00  0.00000000000E+00  0.93800000000E+00  0.93800000000E+00 0.  1.
         11    1    1    2    0    0  0.70341213049E-01  0.14099847668E-01  0.80095801915E+00  0.80416459853E+00  0.51100000000E-03 0.  1.
    9000002    1    1    2    0    0 -0.35555538118E+00 -0.67830050889E-01  0.87974156879E-01  0.10092591328E+01  0.93800000000E+00 0.  1.
         22    1    1    2    0    0  0.28521416813E+00  0.53730203221E-01  0.31110677913E+01  0.31245762687E+01  0.00000000000E+00 0.  1.
</event>
<event>
 5    1  0.6172503E+001  0.1599648E+01  0.7818608E-02  0.3353746E+00
         11   -1    0    0    0    0  0.00000000000E+00  0.00000000000E+00  0.39999999674E+01  0.40000000000E+01  0.51100000000E-03 0.  1.
    9000002   -1    0    0    0    0 -0.00000000000E+00 -0.00000000000E+00  0.00000000000E+00  0.93800000000E+00  0.93800000000E+00 0. -1.
         11    1    1    2    0    0  0.10021850846E+00  0.11999659732E+00  0.13560101336E+01  0.13649932880E+01  0.51100000000E-03 0.  1.
    9000002    1    1    2    0    0 -0.27431054848E+00 -0.35563656012E+00  0.13701550407E+00  0.10489713477E+01  0.93800000000E+00 0. -1.
         22    1    1    2    0    0  0.17409204002E+00  0.23563996280E+00  0.25069743297E+01  0.25240353643E+01  0.00000000000E+00 0.  1.
</event>
<event>
 5    1  0.6172503E+001  0.1559030E+01  0.7818608E-02  0.3399068E+00
         11   -1    0    0    0    0  0.00000000000E+00  0.00000000000E+00  0.39999999674E+01  0.40000000000E+01  0.51100000000E-03 0. -1.
    9000002   -1    0    0    0    0 -0.00000000000E+00 -0.00000000000E+00  0.00000000000E+00  0.93800000000E+00  0.93800000000E+00 0. -1.
         11    1    1    2    0    0 -0.13459573019E+00  0.11935224083E+00  0.11217524534E+01  0.11360852943E+01  0.51100000000E-03 0. -1.
    9000002    1    1    2    0    0  0.22741618631E+00  0.30973421412E+00  0.13365040441E+00  0.10224284013E+01  0.93800000000E+00 0. -1.
         22    1    1    2    0    0 -0.92820456115E-01 -0.42908645495E+00  0.27445971095E+01  0.27794863044E+01  0.00000000000E+00 0. -1.
</event>
<event>
 5    1  0.6172503E+001  0.1503539E+01  0.7818608E-02  0.3465209E+00
         11   -1    0    0    0    0  0.00000000000E+00  0.00000000000E+00  0.39999999674E+01  0.40000000000E+01  0.51100000000E-03 0. -1.
    9000002   -1    0    0    0    0 -0.00000000000E+00 -0.00000000000E+00  0.00000000000E+00  0.93800000000E+00  0.93800000000E+00 0. -1.
         11    1    1    2    0    0  0.88261505773E-01  0.38554919666E-01  0.31932486254E-01  0.10147176963E+00  0.51100000000E-03 0. -1.
    9000002    1    1    2    0    0 -0.11168716170E+00  0.31756580297E+00  0.15709716872E+00  0.10088833341E+01  0.93800000000E+00 0. -1.
         22    1    1    2    0    0  0.23425655927E-01 -0.35612072264E+00  0.38109703124E+01  0.38276448963E+01  0.00000000000E+00 0. -1.
</event>
<event>
 5    1  0.6172503E+001  0.1526328E+01  0.7818608E-02  0.3437423E+00
         11   -1    0    0    0    0  0.00000000000E+00  0.00000000000E+00  0.39999999674E+01  0.40000000000E+01  0.51100000000E-03 0.  1.
    9000002   -1    0    0    0    0 -0.00000000000E+00 -0.00000000000E+00  0.00000000000E+00  0.93800000000E+00  0.93800000000E+00 0.  1.
         11    1    1    2    0    0 -0.21889745331E+00 -0.22457629393E+00  0.13594154439E+01  0.13951205027E+01  0.51100000000E-03 0.  1.
    9000002    1    1    2    0    0 -0.78741561245E-01  0.10256398450E+00  0.66965821698E-01  0.94923549536E+00  0.93800000000E+00 0.  1.
         22    1    1    2    0    0  0.29763901456E+00  0.12201230943E+00  0.25736187017E+01  0.25936440019E+01  0.00000000000E+00 0.  1.
</event>
<event>
 5    1  0.6172503E+001  0.1592487E+01  0.7818608E-02  0.3361559E+00
         11   -1    0    0    0    0  0.00000000000E+00  0.00000000000E+00  0.39999999674E+01  0.40000000000E+01  0.51100000000E-03 0. -1.
    9000002   -1    0    0    0    0 -0.00000000000E+00 -0.00000000000E+00  0.00000000000E+00  0.93800000000E+00  0.93800000000E+00 0.  1.
         11    1    1    2    0    0 -0.28891215570E-01 -0.20254726325E-01  0.77010519588E-01  0.84710315333E-01  0.51100000000E-03 0. -1.
    9000002    1    1    2    0    0  0.41046097948E+00 -0.25319728316E-01  0.12029696446E+00  0.10312296854E+01  0.93800000000E+00 0.  1.
         22    1    1    2    0    0 -0.38156976391E+00  0.45574454641E-01  0.38026924833E+01  0.38220599993E+01  0.00000000000E+00 0. -1.
</event>
<event>
 5    1  0.6172503E+001  0.1599665E+01  0.7818608E-02  0.3353727E+00
         11   -1    0    0    0    0  0.00000000000E+00  0.00000000000E+00  0.39999999674E+01  0.40000000000E+01  0.51100000000E-03 0. -1.
    9000002   -1    0    0    0    0 -0.00000000000E+00 -0.00000000000E+00  0.00000000000E+00  0.93800000000E+00  0.93800000000E+00 0.  1.
         11    1    1    2    0    0  0.15123599299E+00  0.10009950471E-01  0.13316979974E+01  0.13402956174E+01  0.51100000000E-03 0. -1.
    9000002    1    1    2    0    0 -0.44782497769E+00 -0.21654874635E-01  0.13650444932E+00  0.10485674079E+01  0.93800000000E+00 0.  1.
         22    1    1    2    0    0  0.29658898470E+00  0.11644924164E-01  0.25317975206E+01  0.25491369747E+01  0.00000000000E+00 0.  1.
</event>
<event>
 5    1  0.6172503E+001  0.1598833E+01  0.7818608E-02  0.3354631E+00
         11   -1    0    0    0    0  0.00000000000E+00  0.00000000000E+00  0.39999999674E+01  0.40000000000E+01  0.51100000000E-03 0.  1.
    9000002   -1    0    0    0    0 -0.00000000000E+00 -0.00000000000E+00  0.00000000000E+00  0.93800000000E+00  0.93800000000E+00 0. -1.
         11    1    1    2    0    0 -0.40050017904E-02 -0.31990955014E-01  0.27334086960E+00  0.27523617741E+00  0.51100000000E-03 0.  1.
    9000002    1    1    2    0    0 -0.19574215612E+00  0.45940270394E+00  0.17144653157E+00  0.10763845731E+01  0.93800000000E+00 0. -1.
         22    1    1    2    0    0  0.19974715791E+00 -0.42741174892E+00  0.35552125662E+01  0.35863792495E+01  0.00000000000E+00 0.  1.
</event>
<event>
 5    1  0.6172503E+001  0.1599420E+01  0.7818608E-02  0.3353993E+00
         11   -1    0    0    0    0  0.00000000000E+00  0.00000000000E+00  0.39999999674E+01  0.40000000000E+01  0.51100000000E-03 0.  1.
    9000002   -1    0    0    0    0 -0.00000000000E+00 -0.00000000000E+00  0.00000000000E+00  0.93800000000E+00  0.93800000000E+00 0.  1.
         11    1    1    2    0    0  0.10489387667E+00 -0.84947950632E-01  0.76733682725E+00  0.77911805733E+00  0.51100000000E-03 0.  1.
    9000002    1    1    2    0    0 -0.54458206524E+00  0.34501171559E+00  0.29316618804E+00  0.11753268156E+01  0.93800000000E+00 0.  1.
         22    1    1    2    0    0  0.43968818857E+00 -0.26006376496E+00  0.29394969521E+01  0.29835551271E+01  0.00000000000E+00 0.  1.
</event>
<event>
 5    1  0.6172503E+001  0.1599624E+01  0.7818608E-02  0.3353772E+00
         11   -1    0    0    0    0  0.00000000000E+00  0.00000000000E+00  0.39999999674E+01  0.40000000000E+01  0.51100000000E-03 0.  1.
    9000002   -1    0    0    0    0 -0.00000000000E+00 -0.00000000000E+00  0.00000000000E+00  0.93800000000E+00  0.93800000000E+00 0.  1.
         11    1    1    2    0    0  0.24018960126E+00 -0.58547186477E-01  0.14736362231E+01  0.14942298340E+01  0.51100000000E-03 0.  1.
    9000002    1    1    2    0    0 -0.62509472567E+00  0.13926766580E+00  0.28881200720E+00  0.11719194829E+01  0.93800000000E+00 0.  1.
         22    1    1    2    0    0  0.38490512441E+00 -0.80720479327E-01  0.22375517370E+01  0.22718506831E+01  0.00000000000E+00 0.  1.
</event>
<event>
 5    1  0.6172503E+001  0.1599677E+01  0.7818608E-02  0.3353714E+00
         11   -1    0    0    0    0  0.00000000000E+00  0.00000000000E+00  0.39999999674E+01  0.40000000000E+01  0.51100000000E-03 0. -1.
    9000002   -1    0    0    0    0 -0.00000000000E+00 -0.00000000000E+00  0.00000000000E+00  0.93800000000E+00  0.93800000000E+00 0. -1.
         11    1    1    2    0    0  0.12783053692E+00  0.19851974345E-01  0.11256824852E+01  0.11330913757E+01  0.51100000000E-03 0.  1.
    9000002    1    1    2    0    0 -0.43900820509E+00 -0.67106073077E-01  0.13384112602E+00  0.10464171616E+01  0.93800000000E+00 0. -1.
         22    1    1    2    0    0  0.31117766817E+00  0.47254098732E-01  0.27404763561E+01  0.27584914627E+01  0.00000000000E+00 0. -1.
</event>
<event>
 5    1  0.6311112E+001  0.1593601E+01  0.7818608E-02  0.3360338E+00
         11   -1    0    0    0    0  0.00000000000E+00  0.00000000000E+00  0.39999999674E+01  0.40000000000E+01  0.51100000000E-03 0. -1.
    9000002   -1    0    0    0    0 -0.00000000000E+00 -0.00000000000E+00  0.00000000000E+00  0.93800000000E+00  0.93800000000E+00 0. -1.
         11    1    1    2    0    0  0.11042915463E+00  0.12454282602E-01  0.13426717220E+01  0.13472628999E+01  0.51100000000E-03 0. -1.
    9000002    1    1    2    0    0 -0.24313708767E+00  0.21128818835E+00  0.74195702364E-01  0.99453875952E+00  0.93800000000E+00 0. -1.
         22    1    1    2    0    0  0.13270793304E+00 -0.22374247095E+00  0.25831325430E+01  0.25961983406E+01  0.00000000000E+00 0. -1.
</event>
<event>
 5    1  0.6172503E+001  0.1597874E+01  0.7818608E-02  0.3355675E+00
         11   -1    0    0    0    0  0.00000000000E+00  0.00000000000E+00  0.39999999674E+01  0.40000000000E+01  0.51100000000E-03 0.  1.
    9000002   -1    0    0    0    0 -0.00000000000E+00 -0.00000000000E+00  0.00000000000E+00  0.93800000000E+00  0.93800000000E+00 0.  1.
         11    1    1    2    0    0  0.10874670050E-01 -0.99618065761E-02  0.58809329393E+00  0.58827840307E+00  0.51100000000E-03 0.  1.
    9000002    1    1    2    0    0 -0.14878045026E+00  0.29806521963E+00  0.75716595664E-01  0.99827626456E+00  0.93800000000E+00 0.  1.
         22    1    1    2    0    0  0.13790578021E+00 -0.28810341305E+00  0.33361900778E+01  0.33514453324E+01  0.00000000000E+00 0.  1.
</event>
<event>
 5    1  0.6172503E+001  0.1599649E+01  0.7818608E-02  0.3353744E+00
         11   -1    0    0    0    0  0.00000000000E+00  0.00000000000E+00  0.39999999674E+01  0.40000000000E+01  0.51100000000E-03 0.  1.
    9000002   -1    0    0    0    0 -0.00000000000E+00 -0.00000000000E+00  0.00000000000E+00  0.93800000000E+00  0.93800000000E+00 0.  1.
         11    1    1    2    0    0  0.26871965535E-01  0.13106343940E+00  0.13775892338E+01  0.13840708384E+01  0.51100000000E-03 0.  1.
    9000002    1    1    2    0    0 -0.81736720606E-01 -0.35573131405E+00  0.89503100867E-01  0.10104852618E+01  0.93800000000E+00 0.  1.
         22    1    1    2    0    0  0.54864755071E-01  0.22466787465E+00  0.25329076327E+01  0.25434438998E+01  0.00000000000E+00 0.  1.
</event>
<event>
 5    1  0.6172503E+001  0.1599016E+01  0.7818608E-02  0.3354432E+00
         11   -1    0    0    0    0  0.00000000000E+00  0.00000000000E+00  0.39999999674E+01  0.40000000000E+01  0.51100000000E-03 0. -1.
    9000002   -1    0    0    0    0 -0.00000000000E+00 -0.00000000000E+00  0.00000000000E+00  0.93800000000E+00  0.93800000000E+00 0. -1.
         11    1    1    2    0    0 -0.49899521732E-01  0.62223257868E-01  0.82217157251E+00  0.82603150778E+00  0.51100000000E-03 0. -1.
    9000002    1    1    2    0    0  0.21099399961E+00 -0.40878772171E+00  0.14452432931E+00  0.10546834364E+01  0.93800000000E+00 0. -1.
         22    1    1    2    0    0 -0.16109447787E+00  0.34656446384E+00  0.30333040655E+01  0.30572850558E+01  0.00000000000E+00 0. -1.
</event>
<event>
 5    1  0.6172503E+001  0.1552187E+01  0.7818608E-02  0.3406951E+00
         11   -1    0    0    0    0  0.00000000000E+00  0.00000000000E+00  0.39999999674E+01  0.40000000000E+01  0.51100000000E-03 0.  1.
    9000002   -1    0    0    0    0 -0.00000000000E+00 -0.00000000000E+00  0.00000000000E+00  0.93800000000E+00  0.93800000000E+00 0. -1.
         11    1    1    2    0    0  0.24201739624E+00  0.21968465496E+00  0.61647528318E+00  0.69776486269E+00  0.51100000000E-03 0.  1.
    9000002    1    1    2    0    0 -0.68921353105E+00 -0.29192487747E+00  0.46533587616E+00  0.12870963069E+01  0.93800000000E+00 0. -1.
         22    1    1    2    0    0  0.44719613481E+00  0.72240222505E-01  0.29181888080E+01  0.29531388305E+01  0.00000000000E+00 0.  1.
</event>
<event>
 5    1  0.6172503E+001  0.1599671E+01  0.7818608E-02  0.3353721E+00
         11   -1    0    0    0    0  0.00000000000E+00  0.00000000000E+00  0.39999999674E+01  0.40000000000E+01  0.51100000000E-03 0.  1.
    9000002   -1    0    0    0    0 -0.00000000000E+00 -0.00000000000E+00  0.00000000000E+00  0.93800000000E+00  0.93800000000E+00 0.  1.
         11    1    1    2    0    0 -0.42994436714E-02  0.10405620479E-01  0.11625692831E+00  0.11680195484E+00  0.51100000000E-03 0.  1.
    9000002    1    1    2    0    0  0.17137266243E+00 -0.33563927804E+00  0.95527303675E-01  0.10153776539E+01  0.93800000000E+00 0.  1.
         22    1    1    2    0    0 -0.16707321875E+00  0.32523365756E+00  0.37882157354E+01  0.38058203912E+01  0.00000000000E+00 0.  1.
</event>
<event>
 5    1  0.6172503E+001  0.1599675E+01  0.7818608E-02  0.3353717E+00
         11   -1    0    0    0    0  0.00000000000E+00  0.00000000000E+00  0.39999999674E+01  0.40000000000E+01  0.51100000000E-03 0.  1.
    9000002   -1    0    0    0    0 -0.00000000000E+00 -0.00000000000E+00  0.00000000000E+00  0.93800000000E+00  0.93800000000E+00 0.  1.
         11    1    1    2    0    0 -0.64060393824E-01 -0.11196399059E-01  0.38464171304E+00  0.39010075870E+00  0.51100000000E-03 0.  1.
    9000002    1    1    2    0    0  0.61237939102E+00  0.10313693236E+00  0.27030765243E+00  0.11569597972E+01  0.93800000000E+00 0.  1.
         22    1    1    2    0    0 -0.54831899720E+00 -0.91940533304E-01  0.33450506019E+01  0.33909394441E+01  0.00000000000E+00 0.  1.
</event>
<event>
 5    1  0.6172503E+001  0.1599659E+01  0.7818608E-02  0.3353734E+00
         11   -1    0    0    0    0  0.00000000000E+00  0.00000000000E+00  0.39999999674E+01  0.40000000000E+01  0.51100000000E-03 0. -1.
    9000002   -1    0    0    0    0 -0.00000000000E+00 -0.00000000000E+00  0.00000000000E+00  0.93800000000E+00  0.93800000000E+00 0. -1.
         11    1    1    2    0    0 -0.15703944769E+00 -0.26964979424E-01  0.99769580818E+00  0.10103393910E+01  0.51100000000E-03 0. -1.
    9000002    1    1    2    0    0  0.57747115859E+00  0.92487250168E-01  0.23789080308E+00  0.11306913216E+01  0.93800000000E+00 0. -1.
         22    1    1    2    0    0 -0.42043171090E+00 -0.65522270745E-01  0.27644133561E+01  0.27969692874E+01  0.00000000000E+00 0. -1.
</event>
<event>
 5    1  0.6172503E+001  0.1543697E+01  0.7818608E-02  0.3416836E+00
         11   -1    0    0    0    0  0.00000000000E+00  0.00000000000E+00  0.39999999674E+01  0.40000000000E+01  0.51100000000E-03 0. -1.
    9000002   -1    0    0    0    0 -0.00000000000E+00 -0.00000000000E+00  0.00000000000E+00  0.93800000000E+00  0.93800000000E+00 0.  1.
         11    1    1    2    0    0 -0.24930072290E+00  0.13650695564E+00  0.12020832322E+01  0.12352284637E+01  0.51100000000E-03 0. -1.
    9000002    1    1    2    0    0  0.41751653242E+00  0.32094666976E+00  0.24437143505E+00  0.11031265648E+01  0.93800000000E+00 0.  1.
         22    1    1    2    0    0 -0.16821580952E+00 -0.45745362540E+00  0.25535453002E+01  0.25996449715E+01  0.00000000000E+00 0. -1.
</event>
<event>
 5    1  0.6172503E+001  0.1599621E+01  0.7818608E-02  0.3353775E+00
         11   -1    0    0    0    0  0.00000000000E+00  0.00000000000E+00  0.39999999674E+01  0.40000000000E+01  0.51100000000E-03 0. -1.
    9000002   -1    0    0    0    0 -0.00000000000E+00 -0.00000000000E+00  0.00000000000E+00  0.93800000000E+00  0.93800000000E+00 0. -1.
         11    1    1    2    0    0  0.52999354957E-02 -0.21659479548E-01  0.17697207476E+00  0.17837207948E+00  0.51100000000E-03 0. -1.
    9000002    1    1    2    0    0 -0.34169526987E-01  0.46525909956E+00  0.14823067554E+00  0.10580406039E+01  0.93800000000E+00 0. -1.
         22    1    1    2    0    0  0.28869591491E-01 -0.44359962001E+00  0.36747972171E+01  0.37015873166E+01  0.00000000000E+00 0. -1.
</event>
<event>
 5    1  0.6172503E+001  0.1599645E+01  0.7818608E-02  0.3353748E+00
         11   -1    0    0    0    0  0.00000000000E+00  0.00000000000E+00  0.39999999674E+01  0.40000000000E+01  0.51100000000E-03 0. -1.
    9000002   -1    0    0    0    0 -0.00000000000E+00 -0.00000000000E+00  0.00000000000E+00  0.93800000000E+00  0.93800000000E+00 0.  1.
         11    1    1    2    0    0 -0.20611879967E+00  0.61771212935E-01  0.81706762874E+00  0.84492627689E+00  0.51100000000E-03 0. -1.
    9000002    1    1    2    0    0  0.85386334703E+00 -0.23356925754E+00  0.59610432808E+00  0.14208524144E+01  0.93800000000E+00 0.  1.
         22    1    1    2    0    0 -0.64774454736E+00  0.17179804461E+00  0.25868280105E+01  0.26722213087E+01  0.00000000000E+00 0. -1.
</event>
<event>
 5    1  0.6172503E+001  0.1599658E+01  0.7818608E-02  0.3353734E+00
         11   -1    0    0    0    0  0.00000000000E+00  0.00000000000E+00  0.39999999674E+01  0.40000000000E+01  0.51100000000E-03 0. -1.
    9000002   -1    0    0    0    0 -0.00000000000E+00 -0.00000000000E+00  0.00000000000E+00  0.93800000000E+00  0.93800000000E+00 0. -1.
         11    1    1    2    0    0 -0.24988219550E+00 -0.80498270069E-01  0.12158346149E+01  0.12438549574E+01  0.51100000000E-03 0. -1.
    9000002    1    1    2    0    0  0.73631009080E+00  0.22203493392E+00  0.43131396925E+00  0.12873724410E+01  0.93800000000E+00 0. -1.
         22    1    1    2    0    0 -0.48642789530E+00 -0.14153666385E+00  0.23528513832E+01  0.24067726017E+01  0.00000000000E+00 0. -1.
</event>
<event>
 5    1  0.9734649E+001  0.1544761E+01  0.7818608E-02  0.3415590E+00
         11   -1    0    0    0    0  0.00000000000E+00  0.00000000000E+00  0.39999999674E+01  0.40000000000E+01  0.51100000000E-03 0.  1.
    9000002   -1    0    0    0    0 -0.00000000000E+00 -0.00000000000E+00  0.00000000000E+00  0.93800000000E+00  0.93800000000E+00 0.  1.
         11    1    1    2    0    0 -0.18220597719E-01  0.21438934921E+00  0.98654056889E+00  0.10097313199E+01  0.51100000000E-03 0.  1.
    9000002    1    1    2    0    0 -0.37044019517E-02  0.11734575409E+00  0.50447826650E-01  0.94666400154E+00  0.93800000000E+00 0.  1.
         22    1    1    2    0    0  0.21924999670E-01 -0.33173510330E+00  0.29630115718E+01  0.29816046785E+01  0.00000000000E+00 0.  1.
</event>
<event>
 5    1  0.6172503E+001  0.1597937E+01  0.7818608E-02  0.3355605E+00
         11   -1    0    0    0    0  0.00000000000E+00  0.00000000000E+00  0.39999999674E+01  0.40000000000E+01  0.51100000000E-03 0.  1.
    9000002   -1    0    0    0    0 -0.00000000000E+00 -0.00000000000E+00  0.00000000000E+00  0.93800000000E+00  0.93800000000E+00 0.  1.
         11    1    1    2    0    0 -0.11599461027E-01  0.15023569714E-01  0.67835278358E-01  0.70442467688E-01  0.51100000000E-03 0.  1.
    9000002    1    1    2    0    0  0.69922110775E-01 -0.38447215067E+00  0.10432379840E+00  0.10214868531E+01  0.93800000000E+00 0.  1.
         22    1    1    2    0    0 -0.58322649748E-01  0.36944858095E+00  0.38278408906E+01  0.38460706792E+01  0.00000000000E+00 0.  1.
</event>
<event>
 5    1  0.6172503E+001  0.1578386E+01  0.7818608E-02  0.3377161E+00
         11   -1    0    0    0    0  0.00000000000E+00  0.00000000000E+00  0.39999999674E+01  0.40000000000E+01  0.51100000000E-03 0.  1.
    9000002   -1    0    0    0    0 -0.00000000000E+00 -0.00000000000E+00  0.00000000000E+00  0.93800000000E+00  0.93800000000E+00 0. -1.
         11    1    1    2    0    0  0.46119226655E-01 -0.30377273810E-01  0.12372984465E+01  0.12385303665E+01  0.51100000000E-03 0.  1.
    9000002    1    1    2    0    0  0.27112596644E-01 -0.38931389859E+00  0.12041355284E+00  0.10230561217E+01  0.93800000000E+00 0. -1.
         22    1    1    2    0    0 -0.73231823300E-01  0.41969117240E+00  0.26422879680E+01  0.26764135118E+01  0.00000000000E+00 0.  1.
</event>
<event>
 5    1  0.6172503E+001  0.1487645E+01  0.7818608E-02  0.3485130E+00
         11   -1    0    0    0    0  0.00000000000E+00  0.00000000000E+00  0.39999999674E+01  0.40000000000E+01  0.51100000000E-03 0. -1.
    9000002   -1    0    0    0    0 -0.00000000000E+00 -0.00000000000E+00  0.00000000000E+00  0.93800000000E+00  0.93800000000E+00 0.  1.
         11    1    1    2    0    0  0.53636170590E+00 -0.16476689802E-01  0.10620762934E+01  0.11899418788E+01  0.51100000000E-03 0. -1.
    9000002    1    1    2    0    0 -0.20494638757E+00 -0.68945087677E-01  0.19284657744E+00  0.98172819524E+00  0.93800000000E+00 0.  1.
         22    1    1    2    0    0 -0.33141531832E+00  0.85421777479E-01  0.27450770966E+01  0.27663299260E+01  0.00000000000E+00 0. -1.
</event>
<event>
 5    1  0.6172503E+001  0.1599676E+01  0.7818608E-02  0.3353715E+00
         11   -1    0    0    0    0  0.00000000000E+00  0.00000000000E+00  0.39999999674E+01  0.40000000000E+01  0.51100000000E-03 0.  1.
    9000002   -1    0    0    0    0 -0.00000000000E+00 -0.00000000000E+00  0.00000000000E+00  0.93800000000E+00  0.93800000000E+00 0. -1.
         11    1    1    2    0    0 -0.85483326497E-01  0.61872877650E-02  0.88392546022E+00  0.88807103432E+00  0.51100000000E-03 0.  1.
    9000002    1    1    2    0    0  0.37656811180E+00 -0.24110302039E-01  0.95772066312E-01  0.10155792131E+01  0.93800000000E+00 0. -1.
         22    1    1    2    0    0 -0.29108478530E+00  0.17923014274E-01  0.30203024408E+01  0.30343497525E+01  0.00000000000E+00 0.  1.
</event>
<event>
 5    1  0.7832307E+001  0.1581056E+01  0.7818608E-02  0.3374185E+00
         11   -1    0    0    0    0  0.00000000000E+00  0.00000000000E+00  0.39999999674E+01  0.40000000000E+01  0.51100000000E-03 0.  1.
    9000002   -1    0    0    0    0 -0.00000000000E+00 -0.00000000000E+00  0.00000000000E+00  0.93800000000E+00  0.93800000000E+00 0. -1.
         11    1    1    2    0    0  0.98432528934E-01 -0.48488641605E-01  0.12786287231E+01  0.12833284006E+01  0.51100000000E-03 0.  1.
    9000002    1    1    2    0    0  0.13138698569E+00 -0.39231936144E-01  0.26234682305E-01  0.94833219042E+00  0.93800000000E+00 0. -1.
         22    1    1    2    0    0 -0.22981951462E+00  0.87720577749E-01  0.26951365619E+01  0.27063394090E+01  0.00000000000E+00 0.  1.
</event>
<event>
 5    1  0.6172503E+001  0.1599334E+01  0.7818608E-02  0.3354086E+00
         11   -1    0    0    0    0  0.00000000000E+00  0.00000000000E+00  0.39999999674E+01  0.40000000000E+01  0.51100000000E-03 0.  1.
    9000002   -1    0    0    0    0 -0.00000000000E+00 -0.00000000000E+00  0.00000000000E+00  0.93800000000E+00  0.93800000000E+00 0. -1.
         11    1    1    2    0    0 -0.10251422201E+00  0.73749355359E-02  0.74519824535E+00  0.75225277758E+00  0.51100000000E-03 0.  1.
    9000002    1    1    2    0    0  0.52813044238E+00  0.52517323823E-01  0.19418018936E+00  0.10950935026E+01  0.93800000000E+00 0. -1.
         22    1    1    2    0    0 -0.42561622037E+00 -0.59892259359E-01  0.30606215327E+01  0.30906537198E+01  0.00000000000E+00 0.  1.
</event>
<event>
 5    1  0.6172503E+001  0.1599676E+01  0.7818608E-02  0.3353716E+00
         11   -1    0    0    0    0  0.00000000000E+00  0.00000000000E+00  0.39999999674E+01  0.40000000000E+01  0.51100000000E-03 0. -1.
    9000002   -1    0    0    0    0 -0.00000000000E+00 -0.00000000000E+00  0.00000000000E+00  0.93800000000E+00  0.93800000000E+00 0. -1.
         11    1    1    2    0    0 -0.40080264211E-01 -0.14125827028E+00  0.11895473275E+01  0.11985755846E+01  0.51100000000E-03 0. -1.
    9000002    1    1    2    0    0  0.13242731977E+00  0.45366512484E+00  0.15221829584E+00  0.10613027137E+01  0.93800000000E+00 0. -1.
         22    1    1    2    0    0 -0.92347055555E-01 -0.31240685456E+00  0.26582343440E+01  0.26781217017E+01  0.00000000000E+00 0.  1.
</event>
<event>
 5    1  0.9843556E+001  0.1590386E+01  0.7818608E-02  0.3363864E+00
         11   -1    0    0    0    0  0.00000000000E+00  0.00000000000E+00  0.39999999674E+01  0.40000000000E+01  0.51100000000E-03 0. -1.
    9000002   -1    0    0    0    0 -0.00000000000E+00 -0.00000000000E+00  0.00000000000E+00  0.93800000000E+00  0.93800000000E+00 0. -1.
         11    1    1    2    0    0  0.40076643682E-01 -0.80791520497E-01  0.14493328368E+01  0.14521361300E+01  0.51100000000E-03 0. -1.
    9000002    1    1    2    0    0 -0.22045839286E+00 -0.63681165660E-01  0.41999788537E-01  0.96657393720E+00  0.93800000000E+00 0. -1.
         22    1    1    2    0    0  0.18038174917E+00  0.14447268616E+00  0.25086673420E+01  0.25192899328E+01  0.00000000000E+00 0. -1.
</event>
<event>
 5    1  0.6172503E+001  0.1599675E+01  0.7818608E-02  0.3353716E+00
         11   -1    0    0    0    0  0.00000000000E+00  0.00000000000E+00  0.39999999674E+01  0.40000000000E+01  0.51100000000E-03 0. -1.
    9000002   -1    0    0    0    0 -0.00000000000E+00 -0.00000000000E+00  0.00000000000E+00  0.93800000000E+00  0.93800000000E+00 0. -1.
         11    1    1    2    0    0  0.10559215845E+00  0.47084973912E-01  0.49464274963E+00  0.50797481196E+00  0.51100000000E-03 0.  1.
    9000002    1    1    2    0    0 -0.74343391864E+00 -0.34054914688E+00  0.49558870876E+00  0.13394476030E+01  0.93800000000E+00 0. -1.
         22    1    1    2    0    0  0.63784176019E+00  0.29346417296E+00  0.30097685090E+01  0.30905775851E+01  0.00000000000E+00 0. -1.
</event>
<event>
 5    1  0.6172503E+001  0.1599259E+01  0.7818608E-02  0.3354168E+00
         11   -1    0    0    0    0  0.00000000000E+00  0.00000000000E+00  0.39999999674E+01  0.40000000000E+01  0.51100000000E-03 0.  1.
    9000002   -1    0    0    0    0 -0.00000000000E+00 -0.00000000000E+00  0.00000000000E+00  0.93800000000E+00  0.93800000000E+00 0. -1.
         11    1    1    2    0    0 -0.15742709006E+00  0.12916030033E+00  0.14772935953E+01  0.14912619822E+01  0.51100000000E-03 0.  1.
    9000002    1    1    2    0    0  0.36265345604E+00 -0.29567297755E+00  0.14947007895E+00  0.10588320657E+01  0.93800000000E+00 0. -1.
         22    1    1    2    0    0 -0.20522636598E+00  0.16651267722E+00  0.23732362931E+01  0.23879059521E+01  0.00000000000E+00 0.  1.
</event>
<event>
 5    1  0.6172503E+001  0.1585445E+01  0.7818608E-02  0.3369314E+00
         11   -1    0    0    0    0  0.00000000000E+00  0.00000000000E+00  0.39999999674E+01  0.40000000000E+01  0.51100000000E-03 0.  1.
    9000002   -1    0    0    0    0 -0.00000000000E+00 -0.00000000000E+00  0.00000000000E+00  0.93800000000E+00  0.93800000000E+00 0. -1.
         11    1    1    2    0    0  0.43752611354E-01  0.85913041119E-01  0.86420244580E+00  0.86956395399E+00  0.51100000000E-03 0.  1.
    9000002    1    1    2    0    0  0.24326693890E+00 -0.79789930814E-01  0.54546767763E-01  0.97384012368E+00  0.93800000000E+00 0. -1.
         22    1    1    2    0    0 -0.28701955025E+00 -0.61231103057E-02  0.30812507538E+01  0.30945959223E+01  0.00000000000E+00 0.  1.
</event>
<event>
 5    1  0.6172503E+001  0.1599666E+01  0.7818608E-02  0.3353725E+00
         11   -1    0    0    0    0  0.00000000000E+00  0.00000000000E+00  0.39999999674E+01  0.40000000000E+01  0.51100000000E-03 0. -1.
    9000002   -1    0    0    0    0 -0.00000000000E+00 -0.00000000000E+00  0.00000000000E+00  0.93800000000E+00  0.93800000000E+00 0.  1.
         11    1    1    2    0    0 -0.37422822619E-01  0.52341154764E-01  0.61896679636E+00  0.62230235437E+00  0.51100000000E-03 0. -1.
    9000002    1    1    2    0    0  0.21831493831E+00 -0.33439146825E+00  0.10757157101E+00  0.10251315570E+01  0.93800000000E+00 0.  1.
         22    1    1    2    0    0 -0.18089211569E+00  0.28205031349E+00  0.32734616000E+01  0.32905660886E+01  0.00000000000E+00 0. -1.
</event>
<event>
 5    1  0.6172503E+001  0.1519395E+01  0.7818608E-02  0.3445781E+00
         11   -1    0    0    0    0  0.00000000000E+00  0.00000000000E+00  0.39999999674E+01  0.40000000000E+01  0.51100000000E-03 0. -1.
    9000002   -1    0    0    0    0 -0.00000000000E+00 -0.00000000000E+00  0.00000000000E+00  0.93800000000E+00  0.93800000000E+00 0.  1.
         11    1    1    2    0    0  0.34537332468E+00  0.91640663896E-01  0.13894136641E+01  0.14346258522E+01  0.51100000000E-03 0. -1.
    9000002    1    1    2    0    0 -0.80333776751E-01 -0.34733377106E-01  0.65993656087E-01  0.94438291271E+00  0.93800000000E+00 0.  1.
         22    1    1    2    0    0 -0.26503954792E+00 -0.56907286790E-01  0.25445926472E+01  0.25589912351E+01  0.00000000000E+00 0. -1.
</event>
<event>
 5    1  0.6172503E+001  0.1597171E+01  0.7818608E-02  0.3356440E+00
         11   -1    0    0    0    0  0.00000000000E+00  0.00000000000E+00  0.39999999674E+01  0.40000000000E+01  0.51100000000E-03 0.  1.
    9000002   -1    0    0    0    0 -0.00000000000E+00 -0.00000000000E+00  0.00000000000E+00  0.93800000000E+00  0.93800000000E+00 0.  1.
         11    1    1    2    0    0 -0.15506836615E+00  0.70852721048E-01  0.82113298100E+00  0.83864530039E+00  0.51100000000E-03 0.  1.
    9000002    1    1    2    0    0  0.59129610170E+00 -0.12500036809E+00  0.25758507876E+00  0.11451856813E+01  0.93800000000E+00 0.  1.
         22    1    1    2    0    0 -0.43622773556E+00  0.54147647041E-01  0.29212819076E+01  0.29541690183E+01  0.00000000000E+00 0.  1.
</event>
<event>
 5    1  0.6172503E+001  0.1496733E+01  0.7818608E-02  0.3473683E+00
         11   -1    0    0    0    0  0.00000000000E+00  0.00000000000E+00  0.39999999674E+01  0.40000000000E+01  0.51100000000E-03 0. -1.
    9000002   -1    0    0    0    0 -0.00000000000E+00 -0.00000000000E+00  0.00000000000E+00  0.93800000000E+00  0.93800000000E+00 0.  1.
         11    1    1    2    0    0 -0.26286437618E+00  0.86157125919E-01  0.78756358544E+00  0.83473192874E+00  0.51100000000E-03 0. -1.
    9000002    1    1    2    0    0 -0.19413026718E+00 -0.46921304581E-01  0.10795259256E+00  0.96508338070E+00  0.93800000000E+00 0.  1.
         22    1    1    2    0    0  0.45699464336E+00 -0.39235821337E-01  0.31044837894E+01  0.31381846906E+01  0.00000000000E+00 0. -1.
</event>
<event>
 5    1  0.6172503E+001  0.1599673E+01  0.7818608E-02  0.3353718E+00
         11   -1    0    0    0    0  0.00000000000E+00  0.00000000000E+00  0.39999999674E+01  0.40000000000E+01  0.51100000000E-03 0. -1.
    9000002   -1    0    0    0    0 -0.00000000000E+00 -0.00000000000E+00  0.00000000000E+00  0.93800000000E+00  0.93800000000E+00 0. -1.
         11    1    1    2    0    0 -0.33429336463E-01 -0.89654646699E-01  0.60077779262E+00  0.60834997611E+00  0.51100000000E-03 0. -1.
    9000002    1    1    2    0    0  0.20756146054E+00  0.55022000548E+00  0.24067871144E+00  0.11329581001E+01  0.93800000000E+00 0. -1.
         22    1    1    2    0    0 -0.17413212407E+00 -0.46056535878E+00  0.31585434633E+01  0.31966919238E+01  0.00000000000E+00 0. -1.
</event>
<event>
 5    1  0.6172503E+001  0.1599419E+01  0.7818608E-02  0.3353994E+00
         11   -1    0    0    0    0  0.00000000000E+00  0.00000000000E+00  0.39999999674E+01  0.40000000000E+01  0.51100000000E-03 0. -1.
    9000002   -1    0    0    0    0 -0.00000000000E+00 -0.00000000000E+00  0.00000000000E+00  0.93800000000E+00  0.93800000000E+00 0.  1.
         11    1    1    2    0    0  0.14847830740E+00  0.11478805814E+00  0.12222340004E+01  0.12365590641E+01  0.51100000000E-03 0. -1.
    9000002    1    1    2    0    0 -0.41568600178E+00 -0.32571243091E+00  0.19208437906E+00  0.10934458598E+01  0.93800000000E+00 0.  1.
         22    1    1    2    0    0  0.26720769438E+00  0.21092437277E+00  0.25856815879E+01  0.26079950761E+01  0.00000000000E+00 0. -1.
</event>
<event>
 5    1  0.6172503E+001  0.1568236E+01  0.7818608E-02  0.3388578E+00
         11   -1    0    0    0    0  0.00000000000E+00  0.00000000000E+00  0.39999999674E+01  0.40000000000E+01  0.51100000000E-03 0. -1.
    9000002   -1    0    0    0    0 -0.00000000000E+00 -0.00000000000E+00  0.00000000000E+00  0.93800000000E+00  0.93800000000E+00 0. -1.
         11    1    1    2    0    0 -0.65694064701E-04 -0.96560285666E-01  0.31616345320E+00  0.33058052475E+00  0.51100000000E-03 0. -1.
    9000002    1    1    2    0    0 -0.25999085178E+00 -0.22908824262E+00  0.10619066993E+00  0.10055829773E+01  0.93800000000E+00 0. -1.
         22    1    1    2    0    0  0.26005654584E+00  0.32564852829E+00  0.35776458442E+01  0.36018364979E+01  0.00000000000E+00 0. -1.
</event>
<event>
 5    1  0.6575670E+001  0.1582290E+01  0.7818608E-02  0.3372812E+00
         11   -1    0    0    0    0  0.00000000000E+00  0.00000000000E+00  0.39999999674E+01  0.40000000000E+01  0.51100000000E-03 0. -1.
    9000002   -1    0    0    0    0 -0.00000000000E+00 -0.00000000000E+00  0.00000000000E+00  0.93800000000E+00  0.93800000000E+00 0.  1.
         11    1    1    2    0    0  0.13782499821E+00  0.85500818238E-01  0.11785364994E+01  0.11896447628E+01  0.51100000000E-03 0. -1.
    9000002    1    1    2    0    0 -0.25890226744E+00  0.15655610962E+00  0.74836117846E-01  0.98842533561E+00  0.93800000000E+00 0.  1.
         22    1    1    2    0    0  0.12107726922E+00 -0.24205692785E+00  0.27466273501E+01  0.27599299016E+01  0.00000000000E+00 0. -1.
</event>
<event>
 5    1  0.6172503E+001  0.1599633E+01  0.7818608E-02  0.3353762E+00
         11   -1    0    0    0    0  0.00000000000E+00  0.00000000000E+00  0.39999999674E+01  0.40000000000E+01  0.51100000000E-03 0.  1.
    9000002   -1    0    0    0    0 -0.00000000000E+00 -0.00000000000E+00  0.00000000000E+00  0.93800000000E+00  0.93800000000E+00 0.  1.
         11    1    1    2    0    0 -0.13803927650E+00  0.30986640553E-01  0.11402314296E+01  0.11489747551E+01  0.51100000000E-03 0.  1.
    9000002    1    1    2    0    0  0.48092751344E+00 -0.85839375443E-01  0.16310563117E+00  0.10700967800E+01  0.93800000000E+00 0.  1.
         22    1    1    2    0    0 -0.34288823695E+00  0.54852734890E-01  0.26966629066E+01  0.27189284649E+01  0.00000000000E+00 0.  1.
</event>
<event>
 5    1  0.6172503E+001  0.1597241E+01  0.7818608E-02  0.3356363E+00
         11   -1    0    0    0    0  0.00000000000E+00  0.00000000000E+00  0.39999999674E+01  0.40000000000E+01  0.51100000000E-03 0.  1.
    9000002   -1    0    0    0    0 -0.00000000000E+00 -0.00000000000E+00  0.00000000000E+00  0.93800000000E+00  0.93800000000E+00 0.  1.
         11    1    1    2    0    0  0.18979743271E-02  0.21825719460E-02  0.23517685178E+00  0.23519519269E+00  0.51100000000E-03 0.  1.
    9000002    1    1    2    0    0  0.39188310826E+00  0.16365545531E+00  0.12411924742E+00  0.10371138154E+01  0.93800000000E+00 0.  1.
         22    1    1    2    0    0 -0.39378108259E+00 -0.16583802726E+00  0.36407038682E+01  0.36656909919E+01  0.00000000000E+00 0.  1.
</event>
<event>
 5    1  0.6172503E+001  0.1599184E+01  0.7818608E-02  0.3354249E+00
         11   -1    0    0    0    0  0.00000000000E+00  0.00000000000E+00  0.39999999674E+01  0.40000000000E+01  0.51100000000E-03 0. -1.
    9000002   -1    0    0    0    0 -0.00000000000E+00 -0.00000000000E+00  0.00000000000E+00  0.93800000000E+00  0.93800000000E+00 0. -1.
         11    1    1    2    0    0 -0.15824522989E-02 -0.14129022362E+00  0.98749128362E+00  0.99754936108E+00  0.51100000000E-03 0. -1.
    9000002    1    1    2    0    0 -0.56539747008E-01  0.48305676823E+00  0.16199955457E+00  0.10689379963E+01  0.93800000000E+00 0. -1.
         22    1    1    2    0    0  0.58122199307E-01 -0.34176654461E+00  0.28505091292E+01  0.28715126426E+01  0.00000000000E+00 0. -1.
</event>
<event>
 5    1  0.6172503E+001  0.1596529E+01  0.7818608E-02  0.3357139E+00
         11   -1    0    0    0    0  0.00000000000E+00  0.00000000000E+00  0.39999999674E+01  0.40000000000E+01  0.51100000000E-03 0. -1.
    9000002   -1    0    0    0    0 -0.00000000000E+00 -0.00000000000E+00  0.00000000000E+00  0.93800000000E+00  0.93800000000E+00 0. -1.
         11    1    1    2    0    0  0.55069387739E-01  0.61047612082E-01  0.10278858154E+01  0.10311687345E+01  0.51100000000E-03 0. -1.
    9000002    1    1    2    0    0 -0.38368280620E-01 -0.37961861502E+00  0.10056282472E+00  0.10176145142E+01  0.93800000000E+00 0. -1.
         22    1    1    2    0    0 -0.16701107119E-01  0.31857100294E+00  0.28715513272E+01  0.28892167512E+01  0.00000000000E+00 0. -1.
</event>
<event>
 5    1  0.6172503E+001  0.1599622E+01  0.7818608E-02  0.3353773E+00
         11   -1    0    0    0    0  0.00000000000E+00  0.00000000000E+00  0.39999999674E+01  0.40000000000E+01  0.51100000000E-03 0.  1.
    9000002   -1    0    0    0    0 -0.00000000000E+00 -0.00000000000E+00  0.00000000000E+00  0.93800000000E+00  0.93800000000E+00 0.  1.
         11    1    1    2    0    0  0.27794981409E-01  0.69648594124E-02  0.13668828152E+00  0.13966036547E+00  0.51100000000E-03 0. -1.
    9000002    1    1    2    0    0 -0.68829002339E+00 -0.26013573737E+00  0.39090270739E+00  0.12546165489E+01  0.93800000000E+00 0.  1.
         22    1    1    2    0    0  0.66049504198E+00  0.25317087796E+00  0.34724089785E+01  0.35437230856E+01  0.00000000000E+00 0.  1.
</event>
<event>
 5    1  0.6172503E+001  0.1599674E+01  0.7818608E-02  0.3353717E+00
         11   -1    0    0    0    0  0.00000000000E+00  0.00000000000E+00  0.39999999674E+01  0.40000000000E+01  0.51100000000E-03 0.  1.
    9000002   -1    0    0    0    0 -0.00000000000E+00 -0.00000000000E+00  0.00000000000E+00  0.93800000000E+00  0.93800000000E+00 0.  1.
         11    1    1    2    0    0  0.14322155563E-01  0.84188252283E-02  0.14004306171E+00  0.14102595865E+00  0.51100000000E-03 0. -1.
    9000002    1    1    2    0    0 -0.37918780426E+00 -0.22840795434E+00  0.13294864026E+00  0.10456925578E+01  0.93800000000E+00 0.  1.
         22    1    1    2    0    0  0.36486564870E+00  0.21998912911E+00  0.37270082654E+01  0.37512814835E+01  0.00000000000E+00 0.  1.
</event>
<event>
 5    1  0.6172503E+001  0.1598448E+01  0.7818608E-02  0.3355050E+00
         11   -1    0    0    0    0  0.00000000000E+00  0.00000000000E+00  0.39999999674E+01  0.40000000000E+01  0.51100000000E-03 0.  1.
    9000002   -1    0    0    0    0 -0.00000000000E+00 -0.00000000000E+00  0.00000000000E+00  0.93800000000E+00  0.93800000000E+00 0.  1.
         11    1    1    2    0    0  0.23979310657E-01 -0.67241318801E-01  0.11165005971E+01  0.11187806964E+01  0.51100000000E-03 0.  1.
    9000002    1    1    2    0    0 -0.96777287926E-01  0.36806594332E+00  0.98469558750E-01  0.10170440679E+01  0.93800000000E+00 0.  1.
         22    1    1    2    0    0  0.72797977269E-01 -0.30082462452E+00  0.27850298115E+01  0.28021752356E+01  0.00000000000E+00 0.  1.
</event>
<event>
 5    1  0.6172503E+001  0.1599670E+01  0.7818608E-02  0.3353721E+00
         11   -1    0    0    0    0  0.00000000000E+00  0.00000000000E+00  0.39999999674E+01  0.40000000000E+01  0.51100000000E-03 0. -1.
    9000002   -1    0    0    0    0 -0.00000000000E+00 -0.00000000000E+00  0.00000000000E+00  0.93800000000E+00  0.93800000000E+00 0.  1.
         11    1    1    2    0    0 -0.16597095769E+00  0.77359922108E-01  0.10963705718E+01  0.11115572896E+01  0.51100000000E-03 0. -1.
    9000002    1    1    2    0    0  0.57296812128E+00 -0.26358985590E+00  0.27942541280E+00  0.11643430085E+01  0.93800000000E+00 0.  1.
         22    1    1    2    0    0 -0.40699716359E+00  0.18622993380E+00  0.26242039828E+01  0.26620997019E+01  0.00000000000E+00 0. -1.
</event>
<event>
 5    1  0.6172503E+001  0.1599674E+01  0.7818608E-02  0.3353717E+00
         11   -1    0    0    0    0  0.00000000000E+00  0.00000000000E+00  0.39999999674E+01  0.40000000000E+01  0.51100000000E-03 0. -1.
    9000002   -1    0    0    0    0 -0.00000000000E+00 -0.00000000000E+00  0.00000000000E+00  0.93800000000E+00  0.93800000000E+00 0.  1.
         11    1    1    2    0    0  0.34812778064E+00 -0.37248503070E+00  0.74090934895E+00  0.89938032791E+00  0.51100000000E-03 0. -1.
    9000002    1    1    2    0    0 -0.88526851438E+00  0.94446912976E+00  0.21105730898E+01  0.26476565198E+01  0.93800000000E+00 0.  1.
         22    1    1    2    0    0  0.53714073375E+00 -0.57198409905E+00  0.11485175286E+01  0.13909631523E+01  0.00000000000E+00 0. -1.
</event>
<event>
 5    1  0.6172503E+001  0.1599673E+01  0.7818608E-02  0.3353718E+00
         11   -1    0    0    0    0  0.00000000000E+00  0.00000000000E+00  0.39999999674E+01  0.40000000000E+01  0.51100000000E-03 0.  1.
    9000002   -1    0    0    0    0 -0.00000000000E+00 -0.00000000000E+00  0.00000000000E+00  0.93800000000E+00  0.93800000000E+00 0.  1.
         11    1    1    2    0    0 -0.73769149327E-01 -0.14986218829E+00  0.11860231991E+01  0.11977277874E+01  0.51100000000E-03 0.  1.
    9000002    1    1    2    0    0  0.23804022561E+00  0.48641023173E+00  0.20223490142E+00  0.11018171436E+01  0.93800000000E+00 0.  1.
         22    1    1    2    0    0 -0.16427107628E+00 -0.33654804344E+00  0.26117418669E+01  0.26384550690E+01  0.00000000000E+00 0.  1.
</event>
<event>
 5    1  0.6172503E+001  0.1598133E+01  0.7818608E-02  0.3355393E+00
         11   -1    0    0    0    0  0.00000000000E+00  0.00000000000E+00  0.39999999674E+01  0.40000000000E+01  0.51100000000E-03 0. -1.
    9000002   -1    0    0    0    0 -0.00000000000E+00 -0.00000000000E+00  0.00000000000E+00  0.93800000000E+00  0.93800000000E+00 0.  1.
         11    1    1    2    0    0  0.21887301997E+00  0.51058146134E-01  0.13895345774E+01  0.14075933134E+01  0.51100000000E-03 0. -1.
    9000002    1    1    2    0    0 -0.48702439212E+00 -0.91245388005E-01  0.16933169102E+00  0.10742605368E+01  0.93800000000E+00 0.  1.
         22    1    1    2    0    0  0.26815137215E+00  0.40187241870E-01  0.24411336990E+01  0.24561461498E+01  0.00000000000E+00 0. -1.
</event>
<event>
 5    1  0.6172503E+001  0.1599674E+01  0.7818608E-02  0.3353717E+00
         11   -1    0    0    0    0  0.00000000000E+00  0.00000000000E+00  0.39999999674E+01  0.40000000000E+01  0.51100000000E-03 0.  1.
    9000002   -1    0    0    0    0 -0.00000000000E+00 -0.00000000000E+00  0.00000000000E+00  0.93800000000E+00  0.93800000000E+00 0.  1.
         11    1    1    2    0    0 -0.52286202401E-01 -0.90245608371E-01  0.10520206417E+01  0.10571782293E+01  0.51100000000E-03 0.  1.
    9000002    1    1    2    0    0  0.18796998535E+00  0.33734601155E+00  0.10042208110E+00  0.10193447117E+01  0.93800000000E+00 0.  1.
         22    1    1    2    0    0 -0.13568378295E+00 -0.24710040318E+00  0.28475572445E+01  0.28614770590E+01  0.00000000000E+00 0.  1.
</event>
<event>
 5    1  0.6172503E+001  0.1599618E+01  0.7818608E-02  0.3353778E+00
         11   -1    0    0    0    0  0.00000000000E+00  0.00000000000E+00  0.39999999674E+01  0.40000000000E+01  0.51100000000E-03 0.  1.
    9000002   -1    0    0    0    0 -0.00000000000E+00 -0.00000000000E+00  0.00000000000E+00  0.93800000000E+00  0.93800000000E+00 0. -1.
         11    1    1    2    0    0 -0.76758977481E-02  0.23490143992E-01  0.16350353748E+00  0.16536134422E+00  0.51100000000E-03 0.  1.
    9000002    1    1    2    0    0  0.25205266920E+00 -0.50011312898E+00  0.21710834629E+00  0.11138328976E+01  0.93800000000E+00 0. -1.
         22    1    1    2    0    0 -0.24437677145E+00  0.47662298499E+00  0.36193880836E+01  0.36588057581E+01  0.00000000000E+00 0.  1.
</event>
<event>
 5    1  0.6172503E+001  0.1599677E+01  0.7818608E-02  0.3353715E+00
         11   -1    0    0    0    0  0.00000000000E+00  0.00000000000E+00  0.39999999674E+01  0.40000000000E+01  0.51100000000E-03 0. -1.
    9000002   -1    0    0    0    0 -0.00000000000E+00 -0.00000000000E+00  0.00000000000E+00  0.93800000000E+00  0.93800000000E+00 0.  1.
         11    1    1    2    0    0  0.90344281288E-01 -0.11009963591E+00  0.14643431410E+01  0.14712529064E+01  0.51100000000E-03 0. -1.
    9000002    1    1    2    0    0 -0.24209149821E+00  0.29510222357E+00  0.98049130491E-01  0.10174238290E+01  0.93800000000E+00 0.  1.
         22    1    1    2    0    0  0.15174721692E+00 -0.18500258765E+00  0.24376076959E+01  0.24493232646E+01  0.00000000000E+00 0. -1.
</event>
<event>
 5    1  0.6172503E+001  0.1599111E+01  0.7818608E-02  0.3354329E+00
         11   -1    0    0    0    0  0.00000000000E+00  0.00000000000E+00  0.39999999674E+01  0.40000000000E+01  0.51100000000E-03 0. -1.
    9000002   -1    0    0    0    0 -0.00000000000E+00 -0.00000000000E+00  0.00000000000E+00  0.93800000000E+00  0.93800000000E+00 0. -1.
         11    1    1    2    0    0  0.17455302305E+00 -0.65663477664E-02  0.11724993333E+01  0.11854395061E+01  0.51100000000E-03 0. -1.
    9000002    1    1    2    0    0 -0.48678753491E+00  0.76288626208E-03  0.16236486414E+00  0.10691908320E+01  0.93800000000E+00 0. -1.
         22    1    1    2    0    0  0.31223451186E+00  0.58034615043E-02  0.26651357699E+01  0.26833696619E+01  0.00000000000E+00 0. -1.
</event>
<event>
 5    1  0.6172503E+001  0.1456913E+01  0.7818608E-02  0.3524986E+00
         11   -1    0    0    0    0  0.00000000000E+00  0.00000000000E+00  0.39999999674E+01  0.40000000000E+01  0.51100000000E-03 0.  1.
    9000002   -1    0    0    0    0 -0.00000000000E+00 -0.00000000000E+00  0.00000000000E+00  0.93800000000E+00  0.93800000000E+00 0. -1.
         11    1    1    2    0    0  0.12606272347E+00  0.39194804804E+00  0.71389881698E+00  0.82411580777E+00  0.51100000000E-03 0.  1.
    9000002    1    1    2    0    0  0.19931297709E+00 -0.22077286499E+00  0.19771822142E+00  0.10036945829E+01  0.93800000000E+00 0. -1.
         22    1    1    2    0    0 -0.32537570056E+00 -0.17117518304E+00  0.30883829290E+01  0.31101896093E+01  0.00000000000E+00 0.  1.
</event>
<event>
 5    1  0.6172503E+001  0.1584231E+01  0.7818608E-02  0.3370659E+00
         11   -1    0    0    0    0  0.00000000000E+00  0.00000000000E+00  0.39999999674E+01  0.40000000000E+01  0.51100000000E-03 0. -1.
    9000002   -1    0    0    0    0 -0.00000000000E+00 -0.00000000000E+00  0.00000000000E+00  0.93800000000E+00  0.93800000000E+00 0. -1.
         11    1    1    2    0    0  0.73306149701E-01  0.22571580097E+00  0.12227480212E+01  0.12455658951E+01  0.51100000000E-03 0. -1.
    9000002    1    1    2    0    0 -0.54646460662E+00 -0.40865681475E+00  0.34834987350E+00  0.12111216260E+01  0.93800000000E+00 0. -1.
         22    1    1    2    0    0  0.47315845691E+00  0.18294101378E+00  0.24289020726E+01  0.24813124790E+01  0.00000000000E+00 0. -1.
</event>
<event>
 5    1  0.6172503E+001  0.1599676E+01  0.7818608E-02  0.3353716E+00
         11   -1    0    0    0    0  0.00000000000E+00  0.00000000000E+00  0.39999999674E+01  0.40000000000E+01  0.51100000000E-03 0. -1.
    9000002   -1    0    0    0    0 -0.00000000000E+00 -0.00000000000E+00  0.00000000000E+00  0.93800000000E+00  0.93800000000E+00 0. -1.
         11    1    1    2    0    0 -0.11456795368E+00 -0.13879199130E+00  0.14520367238E+01  0.14631472726E+01  0.51100000000E-03 0. -1.
    9000002    1    1    2    0    0  0.30258341442E+00  0.36420888614E+00  0.15282314778E+00  0.10617927057E+01  0.93800000000E+00 0. -1.
         22    1    1    2    0    0 -0.18801546074E+00 -0.22541689483E+00  0.23951400958E+01  0.24130600217E+01  0.00000000000E+00 0. -1.
</event>
<event>
 5    1  0.6172503E+001  0.1599634E+01  0.7818608E-02  0.3353761E+00
         11   -1    0    0    0    0  0.00000000000E+00  0.00000000000E+00  0.39999999674E+01  0.40000000000E+01  0.51100000000E-03 0.  1.
    9000002   -1    0    0    0    0 -0.00000000000E+00 -0.00000000000E+00  0.00000000000E+00  0.93800000000E+00  0.93800000000E+00 0.  1.
         11    1    1    2    0    0  0.27614613691E-01 -0.27619607692E-01  0.44879655335E+00  0.45049308212E+00  0.51100000000E-03 0.  1.
    9000002    1    1    2    0    0 -0.28311259211E+00  0.22971713211E+00  0.89308040925E-01  0.10103180820E+01  0.93800000000E+00 0.  1.
         22    1    1    2    0    0  0.25549797841E+00 -0.20209752442E+00  0.34618953731E+01  0.34771888359E+01  0.00000000000E+00 0.  1.
</event>
<event>
 5    1  0.6172503E+001  0.1598531E+01  0.7818608E-02  0.3354959E+00
         11   -1    0    0    0    0  0.00000000000E+00  0.00000000000E+00  0.39999999674E+01  0.40000000000E+01  0.51100000000E-03 0. -1.
    9000002   -1    0    0    0    0 -0.00000000000E+00 -0.00000000000E+00  0.00000000000E+00  0.93800000000E+00  0.93800000000E+00 0.  1.
         11    1    1    2    0    0 -0.15863907721E+00  0.12818624691E+00  0.13155651121E+01  0.13312812986E+01  0.51100000000E-03 0. -1.
    9000002    1    1    2    0    0  0.34785667621E+00 -0.37109942336E+00  0.17840860063E+00  0.10818468829E+01  0.93800000000E+00 0.  1.
         22    1    1    2    0    0 -0.18921759900E+00  0.24291317645E+00  0.25060262547E+01  0.25248718186E+01  0.00000000000E+00 0. -1.
</event>
<event>
 5    1  0.6172503E+001  0.1599669E+01  0.7818608E-02  0.3353723E+00
         11   -1    0    0    0    0  0.00000000000E+00  0.00000000000E+00  0.39999999674E+01  0.40000000000E+01  0.51100000000E-03 0.  1.
    9000002   -1    0    0    0    0 -0.00000000000E+00 -0.00000000000E+00  0.00000000000E+00  0.93800000000E+00  0.93800000000E+00 0. -1.
         11    1    1    2    0    0  0.41096808204E-02  0.83217902009E-01  0.94363848782E+00  0.94730985718E+00  0.51100000000E-03 0.  1.
    9000002    1    1    2    0    0 -0.21941450898E-01 -0.35654627884E+00  0.85637327646E-01  0.10073650918E+01  0.93800000000E+00 0. -1.
         22    1    1    2    0    0  0.17831770077E-01  0.27332837683E+00  0.29707241519E+01  0.29833250511E+01  0.00000000000E+00 0.  1.
</event>
<event>
 5    1  0.6172503E+001  0.1599677E+01  0.7818608E-02  0.3353714E+00
         11   -1    0    0    0    0  0.00000000000E+00  0.00000000000E+00  0.39999999674E+01  0.40000000000E+01  0.51100000000E-03 0. -1.
    9000002   -1    0    0    0    0 -0.00000000000E+00 -0.00000000000E+00  0.00000000000E+00  0.93800000000E+00  0.93800000000E+00 0. -1.
         11    1    1    2    0    0  0.60529381867E-02  0.15177122594E+00  0.12125403862E+01  0.12220170180E+01  0.51100000000E-03 0.  1.
    9000002    1    1    2    0    0 -0.19401733620E-01 -0.48094926696E+00  0.15811934248E+00  0.10660836511E+01  0.93800000000E+00 0. -1.
         22    1    1    2    0    0  0.13348795433E-01  0.32917804102E+00  0.26293402387E+01  0.26498993309E+01  0.00000000000E+00 0. -1.
</event>
<event>
 5    1  0.6172503E+001  0.1599484E+01  0.7818608E-02  0.3353924E+00
         11   -1    0    0    0    0  0.00000000000E+00  0.00000000000E+00  0.39999999674E+01  0.40000000000E+01  0.51100000000E-03 0. -1.
    9000002   -1    0    0    0    0 -0.00000000000E+00 -0.00000000000E+00  0.00000000000E+00  0.93800000000E+00  0.93800000000E+00 0.  1.
         11    1    1    2    0    0 -0.61322289554E-01  0.87630358773E-01  0.93820572933E+00  0.94428266670E+00  0.51100000000E-03 0. -1.
    9000002    1    1    2    0    0  0.19610383521E+00 -0.35121088633E+00  0.10933375442E+00  0.10264519817E+01  0.93800000000E+00 0.  1.
         22    1    1    2    0    0 -0.13478154566E+00  0.26358052756E+00  0.29524604836E+01  0.29672653516E+01  0.00000000000E+00 0. -1.
</event>
<event>
 5    1  0.6172503E+001  0.1599558E+01  0.7818608E-02  0.3353844E+00
         11   -1    0    0    0    0  0.00000000000E+00  0.00000000000E+00  0.39999999674E+01  0.40000000000E+01  0.51100000000E-03 0. -1.
    9000002   -1    0    0    0    0 -0.00000000000E+00 -0.00000000000E+00  0.00000000000E+00  0.93800000000E+00  0.93800000000E+00 0. -1.
         11    1    1    2    0    0  0.24659887728E-01 -0.14745928736E+00  0.11730976426E+01  0.11825864416E+01  0.51100000000E-03 0. -1.
    9000002    1    1    2    0    0 -0.92413787836E-01  0.44664953779E+00  0.14152682262E+00  0.10525730185E+01  0.93800000000E+00 0. -1.
         22    1    1    2    0    0  0.67753900108E-01 -0.29919025042E+00  0.26853755021E+01  0.27028405399E+01  0.00000000000E+00 0. -1.
</event>
<event>
 5    1  0.6172503E+001  0.1597917E+01  0.7818608E-02  0.3355628E+00
         11   -1    0    0    0    0  0.00000000000E+00  0.00000000000E+00  0.39999999674E+01  0.40000000000E+01  0.51100000000E-03 0. -1.
    9000002   -1    0    0    0    0 -0.00000000000E+00 -0.00000000000E+00  0.00000000000E+00  0.93800000000E+00  0.93800000000E+00 0. -1.
         11    1    1    2    0    0 -0.43473127565E-01  0.30148118114E-03  0.71868260152E+00  0.71999649066E+00  0.51100000000E-03 0. -1.
    9000002    1    1    2    0    0  0.26655238236E+00  0.20965460341E+00  0.78430903079E-01  0.10005001908E+01  0.93800000000E+00 0. -1.
         22    1    1    2    0    0 -0.22307925479E+00 -0.20995608459E+00  0.32028864628E+01  0.32175033185E+01  0.00000000000E+00 0. -1.
</event>
<event>
 5    1  0.6172503E+001  0.1599676E+01  0.7818608E-02  0.3353715E+00
         11   -1    0    0    0    0  0.00000000000E+00  0.00000000000E+00  0.39999999674E+01  0.40000000000E+01  0.51100000000E-03 0.  1.
    9000002   -1    0    0    0    0 -0.00000000000E+00 -0.00000000000E+00  0.00000000000E+00  0.93800000000E+00  0.93800000000E+00 0. -1.
         11    1    1    2    0    0 -0.52152905592E-01 -0.18351649261E-01  0.37945906322E+00  0.38346597029E+00  0.51100000000E-03 0.  1.
    9000002    1    1    2    0    0  0.51603770195E+00  0.18664940182E+00  0.20794468828E+00  0.11064438090E+01  0.93800000000E+00 0. -1.
         22    1    1    2    0    0 -0.46388479635E+00 -0.16829775256E+00  0.34125962159E+01  0.34480902207E+01  0.00000000000E+00 0.  1.
</event>
<event>
 5    1  0.6172503E+001  0.1599677E+01  0.7818608E-02  0.3353714E+00
         11   -1    0    0    0    0  0.00000000000E+00  0.00000000000E+00  0.39999999674E+01  0.40000000000E+01  0.51100000000E-03 0. -1.
    9000002   -1    0    0    0    0 -0.00000000000E+00 -0.00000000000E+00  0.00000000000E+00  0.93800000000E+00  0.93800000000E+00 0. -1.
         11    1    1    2    0    0  0.17287441718E+00  0.49237639690E-01  0.10913914577E+01  0.11060946995E+01  0.51100000000E-03 0.  1.
    9000002    1    1    2    0    0 -0.59251822381E+00 -0.16792846707E+00  0.26553681757E+00  0.11530965342E+01  0.93800000000E+00 0. -1.
         22    1    1    2    0    0  0.41964380663E+00  0.11869082738E+00  0.26430716921E+01  0.26788087663E+01  0.00000000000E+00 0. -1.
</event>
<event>
 5    1  0.6172503E+001  0.1576623E+01  0.7818608E-02  0.3379133E+00
         11   -1    0    0    0    0  0.00000000000E+00  0.00000000000E+00  0.39999999674E+01  0.40000000000E+01  0.51100000000E-03 0.  1.
    9000002   -1    0    0    0    0 -0.00000000000E+00 -0.00000000000E+00  0.00000000000E+00  0.93800000000E+00  0.93800000000E+00 0. -1.
         11    1    1    2    0    0 -0.79567492536E-01  0.10511384385E+00  0.11387700222E+01  0.11463757371E+01  0.51100000000E-03 0.  1.
    9000002    1    1    2    0    0  0.32024010138E-01  0.15490127166E+00  0.33776995282E-01  0.95184285814E+00  0.93800000000E+00 0. -1.
         22    1    1    2    0    0  0.47543482397E-01 -0.26001511551E+00  0.28274529499E+01  0.28397814047E+01  0.00000000000E+00 0.  1.
</event>
<event>
 5    1  0.6172503E+001  0.1599215E+01  0.7818608E-02  0.3354216E+00
         11   -1    0    0    0    0  0.00000000000E+00  0.00000000000E+00  0.39999999674E+01  0.40000000000E+01  0.51100000000E-03 0.  1.
    9000002   -1    0    0    0    0 -0.00000000000E+00 -0.00000000000E+00  0.00000000000E+00  0.93800000000E+00  0.93800000000E+00 0. -1.
         11    1    1    2    0    0  0.17424285553E+00  0.30639585532E-02  0.14507226236E+01  0.14611524056E+01  0.51100000000E-03 0.  1.
    9000002    1    1    2    0    0 -0.40675064049E+00 -0.38533338873E-01  0.11311052565E+00  0.10293536286E+01  0.93800000000E+00 0. -1.
         22    1    1    2    0    0  0.23250778497E+00  0.35469380319E-01  0.24361668181E+01  0.24474939658E+01  0.00000000000E+00 0.  1.
</event>
<event>
 5    1  0.6172503E+001  0.1598908E+01  0.7818608E-02  0.3354549E+00
         11   -1    0    0    0    0  0.00000000000E+00  0.00000000000E+00  0.39999999674E+01  0.40000000000E+01  0.51100000000E-03 0. -1.
    9000002   -1    0    0    0    0 -0.00000000000E+00 -0.00000000000E+00  0.00000000000E+00  0.93800000000E+00  0.93800000000E+00 0. -1.
         11    1    1    2    0    0  0.13608161092E-01  0.36148572385E-01  0.64799606178E+00  0.64914640762E+00  0.51100000000E-03 0. -1.
    9000002    1    1    2    0    0 -0.72123756654E-01 -0.36754720794E+00  0.94961989300E-01  0.10144725554E+01  0.93800000000E+00 0. -1.
         22    1    1    2    0    0  0.58515595562E-01  0.33139863556E+00  0.32570419163E+01  0.32743810369E+01  0.00000000000E+00 0. -1.
</event>
<event>
 5    1  0.6172503E+001  0.1576127E+01  0.7818608E-02  0.3379689E+00
         11   -1    0    0    0    0  0.00000000000E+00  0.00000000000E+00  0.39999999674E+01  0.40000000000E+01  0.51100000000E-03 0. -1.
    9000002   -1    0    0    0    0 -0.00000000000E+00 -0.00000000000E+00  0.00000000000E+00  0.93800000000E+00  0.93800000000E+00 0. -1.
         11    1    1    2    0    0  0.76983932300E-01  0.96024162979E-01  0.86800536590E+00  0.87668736848E+00  0.51100000000E-03 0. -1.
    9000002    1    1    2    0    0  0.30490220829E+00 -0.20135860766E+00  0.10907595354E+00  0.10125473861E+01  0.93800000000E+00 0. -1.
         22    1    1    2    0    0 -0.38188614059E+00  0.10533444468E+00  0.30229186479E+01  0.30487652454E+01  0.00000000000E+00 0. -1.
</event>
<event>
 5    1  0.6172503E+001  0.1599438E+01  0.7818608E-02  0.3353974E+00
         11   -1    0    0    0    0  0.00000000000E+00  0.00000000000E+00  0.39999999674E+01  0.40000000000E+01  0.51100000000E-03 0.  1.
    9000002   -1    0    0    0    0 -0.00000000000E+00 -0.00000000000E+00  0.00000000000E+00  0.93800000000E+00  0.93800000000E+00 0. -1.
         11    1    1    2    0    0 -0.34266836213E-02  0.60340989933E-01  0.80446635728E+00  0.80673363531E+00  0.51100000000E-03 0.  1.
    9000002    1    1    2    0    0  0.74187863083E-01 -0.33948178067E+00  0.81135258196E-01  0.10035829057E+01  0.93800000000E+00 0. -1.
         22    1    1    2    0    0 -0.70761179462E-01  0.27914079074E+00  0.31143983519E+01  0.31276834590E+01  0.00000000000E+00 0.  1.
</event>
<event>
 5    1  0.6172503E+001  0.1599671E+01  0.7818608E-02  0.3353721E+00
         11   -1    0    0    0    0  0.00000000000E+00  0.00000000000E+00  0.39999999674E+01  0.40000000000E+01  0.51100000000E-03 0. -1.
    9000002   -1    0    0    0    0 -0.00000000000E+00 -0.00000000000E+00  0.00000000000E+00  0.93800000000E+00  0.93800000000E+00 0. -1.
         11    1    1    2    0    0  0.38881496579E-01  0.10557408683E+00  0.87266759887E+00  0.87989013963E+00  0.51100000000E-03 0. -1.
    9000002    1    1    2    0    0 -0.18167008945E+00 -0.46333583043E+00  0.16949340240E+00  0.10752935072E+01  0.93800000000E+00 0. -1.
         22    1    1    2    0    0  0.14278859287E+00  0.35776174360E+00  0.29578389661E+01  0.29828163532E+01  0.00000000000E+00 0. -1.
</event>
<event>
 5    1  0.6172503E+001  0.1598400E+01  0.7818608E-02  0.3355102E+00
         11   -1    0    0    0    0  0.00000000000E+00  0.00000000000E+00  0.39999999674E+01  0.40000000000E+01  0.51100000000E-03 0. -1.
    9000002   -1    0    0    0    0 -0.00000000000E+00 -0.00000000000E+00  0.00000000000E+00  0.93800000000E+00  0.93800000000E+00 0. -1.
         11    1    1    2    0    0 -0.77668353991E-01 -0.19614977089E+00  0.12087672922E+01  0.12270394182E+01  0.51100000000E-03 0. -1.
    9000002    1    1    2    0    0  0.19465164050E+00  0.49946680391E+00  0.19915148891E+00  0.10985725579E+01  0.93800000000E+00 0. -1.
         22    1    1    2    0    0 -0.11698328651E+00 -0.30331703302E+00  0.25920811862E+01  0.26123880240E+01  0.00000000000E+00 0. -1.
</event>
<event>
 5    1  0.6172503E+001  0.1599523E+01  0.7818608E-02  0.3353881E+00
         11   -1    0    0    0    0  0.00000000000E+00  0.00000000000E+00  0.39999999674E+01  0.40000000000E+01  0.51100000000E-03 0.  1.
    9000002   -1    0    0    0    0 -0.00000000000E+00 -0.00000000000E+00  0.00000000000E+00  0.93800000000E+00  0.93800000000E+00 0.  1.
         11    1    1    2    0    0 -0.97566237315E-01  0.93046209446E-01  0.14463208142E+01  0.14525911078E+01  0.51100000000E-03 0.  1.
    9000002    1    1    2    0    0  0.30177878508E+00 -0.25192995592E+00  0.10427624384E+00  0.10223779501E+01  0.93800000000E+00 0.  1.
         22    1    1    2    0    0 -0.20421254777E+00  0.15888374647E+00  0.24494029093E+01  0.24630309421E+01  0.00000000000E+00 0.  1.
</event>
<event>
 5    1  0.6172503E+001  0.1597103E+01  0.7818608E-02  0.3356513E+00
         11   -1    0    0    0    0  0.00000000000E+00  0.00000000000E+00  0.39999999674E+01  0.40000000000E+01  0.51100000000E-03 0. -1.
    9000002   -1    0    0    0    0 -0.00000000000E+00 -0.00000000000E+00  0.00000000000E+00  0.93800000000E+00  0.93800000000E+00 0. -1.
         11    1    1    2    0    0  0.84596914443E-01  0.98015466637E-02  0.35863755856E+00  0.36861072662E+00  0.51100000000E-03 0. -1.
    9000002    1    1    2    0    0 -0.51559250334E+00 -0.70653169632E-01  0.18841458592E+00  0.10891150334E+01  0.93800000000E+00 0. -1.
         22    1    1    2    0    0  0.43099558889E+00  0.60851622968E-01  0.34529478229E+01  0.34802742399E+01  0.00000000000E+00 0. -1.
</event>
<event>
 5    1  0.6172503E+001  0.1599674E+01  0.7818608E-02  0.3353717E+00
         11   -1    0    0    0    0  0.00000000000E+00  0.00000000000E+00  0.39999999674E+01  0.40000000000E+01  0.51100000000E-03 0. -1.
    9000002   -1    0    0    0    0 -0.00000000000E+00 -0.00000000000E+00  0.00000000000E+00  0.93800000000E+00  0.93800000000E+00 0. -1.
         11    1    1    2    0    0 -0.25574010893E-01  0.11348403623E+00  0.12857000985E+01  0.12909522303E+01  0.51100000000E-03 0. -1.
    9000002    1    1    2    0    0  0.83687258254E-01 -0.34644007351E+00  0.85234270795E-01  0.10070417879E+01  0.93800000000E+00 0. -1.
         22    1    1    2    0    0 -0.58113247360E-01  0.23295603729E+00  0.26290655981E+01  0.26400059818E+01  0.00000000000E+00 0. -1.
</event>
<event>
 5    1  0.6172503E+001  0.1598587E+01  0.7818608E-02  0.3354898E+00
         11   -1    0    0    0    0  0.00000000000E+00  0.00000000000E+00  0.39999999674E+01  0.40000000000E+01  0.51100000000E-03 0.  1.
    9000002   -1    0    0    0    0 -0.00000000000E+00 -0.00000000000E+00  0.00000000000E+00  0.93800000000E+00  0.93800000000E+00 0. -1.
         11    1    1    2    0    0 -0.11893234328E-01 -0.13576395485E+00  0.12715797269E+01  0.12788622144E+01  0.51100000000E-03 0.  1.
    9000002    1    1    2    0    0 -0.67398502063E-01  0.36914359534E+00  0.95580124980E-01  0.10147852543E+01  0.93800000000E+00 0. -1.
         22    1    1    2    0    0  0.79291736391E-01 -0.23337964049E+00  0.26328401155E+01  0.26443525313E+01  0.00000000000E+00 0.  1.
</event>
<event>
 5    1  0.6172503E+001  0.1599614E+01  0.7818608E-02  0.3353782E+00
         11   -1    0    0    0    0  0.00000000000E+00  0.00000000000E+00  0.39999999674E+01  0.40000000000E+01  0.51100000000E-03 0. -1.
    9000002   -1    0    0    0    0 -0.00000000000E+00 -0.00000000000E+00  0.00000000000E+00  0.93800000000E+00  0.93800000000E+00 0. -1.
         11    1    1    2    0    0  0.40539305404E-01 -0.85027638368E-01  0.65707311926E+00  0.66379099101E+00  0.51100000000E-03 0. -1.
    9000002    1    1    2    0    0 -0.20892163181E+00  0.52293332541E+00  0.21964138796E+00  0.11158825433E+01  0.93800000000E+00 0. -1.
         22    1    1    2    0    0  0.16838232641E+00 -0.43790568704E+00  0.31232854601E+01  0.31583264657E+01  0.00000000000E+00 0. -1.
</event>
<event>
 5    1  0.6172503E+001  0.1594662E+01  0.7818608E-02  0.3359177E+00
         11   -1    0    0    0    0  0.00000000000E+00  0.00000000000E+00  0.39999999674E+01  0.40000000000E+01  0.51100000000E-03 0.  1.
    9000002   -1    0    0    0    0 -0.00000000000E+00 -0.00000000000E+00  0.00000000000E+00  0.93800000000E+00  0.93800000000E+00 0.  1.
         11    1    1    2    0    0 -0.56512828898E-01 -0.43738616642E-01  0.13390486727E+01  0.13409542779E+01  0.51100000000E-03 0.  1.
    9000002    1    1    2    0    0  0.39538876289E+00  0.16604750108E+00  0.12879961665E+00  0.10393927976E+01  0.93800000000E+00 0.  1.
         22    1    1    2    0    0 -0.33887593399E+00 -0.12230888444E+00  0.25321516780E+01  0.25576529245E+01  0.00000000000E+00 0. -1.
</event>
<event>
 5    1  0.6172503E+001  0.1593460E+01  0.7818608E-02  0.3360492E+00
         11   -1    0    0    0    0  0.00000000000E+00  0.00000000000E+00  0.39999999674E+01  0.40000000000E+01  0.51100000000E-03 0. -1.
    9000002   -1    0    0    0    0 -0.00000000000E+00 -0.00000000000E+00  0.00000000000E+00  0.93800000000E+00  0.93800000000E+00 0.  1.
         11    1    1    2    0    0 -0.14381886555E+00  0.23967179556E+00  0.12924609687E+01  0.13223396131E+01  0.51100000000E-03 0. -1.
    9000002    1    1    2    0    0  0.15131056176E+00 -0.65812916487E+00  0.33059375125E+00  0.12021502036E+01  0.93800000000E+00 0.  1.
         22    1    1    2    0    0 -0.74916962107E-02  0.41845736931E+00  0.23769452474E+01  0.24135101832E+01  0.00000000000E+00 0.  1.
</event>
<event>
 5    1  0.6172503E+001  0.1594356E+01  0.7818608E-02  0.3359512E+00
         11   -1    0    0    0    0  0.00000000000E+00  0.00000000000E+00  0.39999999674E+01  0.40000000000E+01  0.51100000000E-03 0.  1.
    9000002   -1    0    0    0    0 -0.00000000000E+00 -0.00000000000E+00  0.00000000000E+00  0.93800000000E+00  0.93800000000E+00 0. -1.
         11    1    1    2    0    0  0.61080356154E-01  0.44803538236E-01  0.37453225249E+00  0.38211626008E+00  0.51100000000E-03 0.  1.
    9000002    1    1    2    0    0 -0.59654608431E+00  0.79037270267E-01  0.25805973044E+00  0.11439199908E+01  0.93800000000E+00 0. -1.
         22    1    1    2    0    0  0.53546572816E+00 -0.12384080850E+00  0.33674079844E+01  0.34119637491E+01  0.00000000000E+00 0.  1.
</event>
<event>
 5    1  0.6172503E+001  0.1580869E+01  0.7818608E-02  0.3374393E+00
         11   -1    0    0    0    0  0.00000000000E+00  0.00000000000E+00  0.39999999674E+01  0.40000000000E+01  0.51100000000E-03 0.  1.
    9000002   -1    0    0    0    0 -0.00000000000E+00 -0.00000000000E+00  0.00000000000E+00  0.93800000000E+00  0.93800000000E+00 0. -1.
         11    1    1    2    0    0  0.30873892688E-01  0.20714695381E-02  0.41851966349E-01  0.52051286670E-01  0.51100000000E-03 0.  1.
    9000002    1    1    2    0    0  0.40858378620E+00  0.25474737944E+00  0.17508949622E+00  0.10688017914E+01  0.93800000000E+00 0. -1.
         22    1    1    2    0    0 -0.43945767888E+00 -0.25681884898E+00  0.37830585048E+01  0.38171469219E+01  0.00000000000E+00 0.  1.
</event>
<event>
 5    1  0.6172503E+001  0.1586680E+01  0.7818608E-02  0.3367949E+00
         11   -1    0    0    0    0  0.00000000000E+00  0.00000000000E+00  0.39999999674E+01  0.40000000000E+01  0.51100000000E-03 0. -1.
    9000002   -1    0    0    0    0 -0.00000000000E+00 -0.00000000000E+00  0.00000000000E+00  0.93800000000E+00  0.93800000000E+00 0.  1.
         11    1    1    2    0    0  0.14115499852E-01 -0.17122527484E-01  0.34142172230E+00  0.34214248766E+00  0.51100000000E-03 0. -1.
    9000002    1    1    2    0    0  0.46748088128E+00 -0.41425443084E+00  0.28708473790E+00  0.11629302449E+01  0.93800000000E+00 0.  1.
         22    1    1    2    0    0 -0.48159638114E+00  0.43137695833E+00  0.33714935072E+01  0.34329272674E+01  0.00000000000E+00 0. -1.
</event>
<event>
 5    1  0.6172503E+001  0.1598444E+01  0.7818608E-02  0.3355054E+00
         11   -1    0    0    0    0  0.00000000000E+00  0.00000000000E+00  0.39999999674E+01  0.40000000000E+01  0.51100000000E-03 0. -1.
    9000002   -1    0    0    0    0 -0.00000000000E+00 -0.00000000000E+00  0.00000000000E+00  0.93800000000E+00  0.93800000000E+00 0. -1.
         11    1    1    2    0    0 -0.86444444738E-02  0.96142592707E-02  0.34685494176E+00  0.34709620013E+00  0.51100000000E-03 0. -1.
    9000002    1    1    2    0    0  0.33468792175E+00 -0.23670076389E+00  0.11452902923E+00  0.10300505595E+01  0.93800000000E+00 0. -1.
         22    1    1    2    0    0 -0.32604347728E+00  0.22708650462E+00  0.35386159964E+01  0.35608532404E+01  0.00000000000E+00 0. -1.
</event>
<event>
 5    1  0.6172503E+001  0.1584430E+01  0.7818608E-02  0.3370438E+00
         11   -1    0    0    0    0  0.00000000000E+00  0.00000000000E+00  0.39999999674E+01  0.40000000000E+01  0.51100000000E-03 0. -1.
    9000002   -1    0    0    0    0 -0.00000000000E+00 -0.00000000000E+00  0.00000000000E+00  0.93800000000E+00  0.93800000000E+00 0.  1.
         11    1    1    2    0    0 -0.51966859299E-01 -0.46807163404E-02  0.31380795649E+00  0.31811657965E+00  0.51100000000E-03 0. -1.
    9000002    1    1    2    0    0 -0.35900071283E+00  0.61405355411E-01  0.10157863422E+00  0.10113428442E+01  0.93800000000E+00 0.  1.
         22    1    1    2    0    0  0.41096757213E+00 -0.56724639070E-01  0.35846133766E+01  0.36085405762E+01  0.00000000000E+00 0. -1.
</event>
<event>
 5    1  0.6172503E+001  0.1577716E+01  0.7818608E-02  0.3377911E+00
         11   -1    0    0    0    0  0.00000000000E+00  0.00000000000E+00  0.39999999674E+01  0.40000000000E+01  0.51100000000E-03 0.  1.
    9000002   -1    0    0    0    0 -0.00000000000E+00 -0.00000000000E+00  0.00000000000E+00  0.93800000000E+00  0.93800000000E+00 0.  1.
         11    1    1    2    0    0  0.18913567758E+00 -0.47036274133E-01  0.13888341975E+01  0.14024426565E+01  0.51100000000E-03 0.  1.
    9000002    1    1    2    0    0 -0.19394014830E+00 -0.20809154974E+00  0.71156254242E-01  0.98276247726E+00  0.93800000000E+00 0.  1.
         22    1    1    2    0    0  0.48044707230E-02  0.25512782388E+00  0.25400095156E+01  0.25527948662E+01  0.00000000000E+00 0.  1.
</event>
<event>
 5    1  0.6172503E+001  0.1599656E+01  0.7818608E-02  0.3353737E+00
         11   -1    0    0    0    0  0.00000000000E+00  0.00000000000E+00  0.39999999674E+01  0.40000000000E+01  0.51100000000E-03 0. -1.
    9000002   -1    0    0    0    0 -0.00000000000E+00 -0.00000000000E+00  0.00000000000E+00  0.93800000000E+00  0.93800000000E+00 0.  1.
         11    1    1    2    0    0  0.15046678013E+00 -0.58771272979E-01  0.12722593602E+01  0.12824735690E+01  0.51100000000E-03 0. -1.
    9000002    1    1    2    0    0 -0.43946547340E+00  0.18159106082E+00  0.15418459599E+00  0.10628838626E+01  0.93800000000E+00 0.  1.
         22    1    1    2    0    0  0.28899869327E+00 -0.12281978784E+00  0.25735560111E+01  0.25926425684E+01  0.00000000000E+00 0. -1.
</event>
<event>
 5    1  0.6172503E+001  0.1599677E+01  0.7818608E-02  0.3353714E+00
         11   -1    0    0    0    0  0.00000000000E+00  0.00000000000E+00  0.39999999674E+01  0.40000000000E+01  0.51100000000E-03 0. -1.
    9000002   -1    0    0    0    0 -0.00000000000E+00 -0.00000000000E+00  0.00000000000E+00  0.93800000000E+00  0.93800000000E+00 0. -1.
         11    1    1    2    0    0  0.99320860169E-01 -0.86206149410E-02  0.10402690411E+01  0.10450353521E+01  0.51100000000E-03 0. -1.
    9000002    1    1    2    0    0 -0.37246101175E+00  0.30572510992E-01  0.93899560233E-01  0.10140626268E+01  0.93800000000E+00 0. -1.
         22    1    1    2    0    0  0.27314015158E+00 -0.21951896051E-01  0.28658313660E+01  0.28789020210E+01  0.00000000000E+00 0. -1.
</event>
<event>
 5    1  0.6172503E+001  0.1599675E+01  0.7818608E-02  0.3353716E+00
         11   -1    0    0    0    0  0.00000000000E+00  0.00000000000E+00  0.39999999674E+01  0.40000000000E+01  0.51100000000E-03 0. -1.
    9000002   -1    0    0    0    0 -0.00000000000E+00 -0.00000000000E+00  0.00000000000E+00  0.93800000000E+00  0.93800000000E+00 0.  1.
         11    1    1    2    0    0  0.67736490959E-01 -0.53387988924E-01  0.93697856726E+00  0.94093974631E+00  0.51100000000E-03 0. -1.
    9000002    1    1    2    0    0 -0.28213040708E+00  0.22837839232E+00  0.88473189557E-01  0.10096661636E+01  0.93800000000E+00 0.  1.
         22    1    1    2    0    0  0.21439391612E+00 -0.17499040340E+00  0.29745482105E+01  0.29873940901E+01  0.00000000000E+00 0. -1.
</event>
<event>
 5    1  0.6172503E+001  0.1575507E+01  0.7818608E-02  0.3380384E+00
         11   -1    0    0    0    0  0.00000000000E+00  0.00000000000E+00  0.39999999674E+01  0.40000000000E+01  0.51100000000E-03 0. -1.
    9000002   -1    0    0    0    0 -0.00000000000E+00 -0.00000000000E+00  0.00000000000E+00  0.93800000000E+00  0.93800000000E+00 0. -1.
         11    1    1    2    0    0  0.90067682701E-01  0.70152155954E-01  0.96317726104E+00  0.96991969243E+00  0.51100000000E-03 0. -1.
    9000002    1    1    2    0    0 -0.12565110222E-01  0.26617356603E+00  0.66075972920E-01  0.97735166826E+00  0.93800000000E+00 0. -1.
         22    1    1    2    0    0 -0.77502572479E-01 -0.33632572199E+00  0.29707467334E+01  0.29907286393E+01  0.00000000000E+00 0. -1.
</event>
<event>
 5    1  0.6172503E+001  0.1599676E+01  0.7818608E-02  0.3353715E+00
         11   -1    0    0    0    0  0.00000000000E+00  0.00000000000E+00  0.39999999674E+01  0.40000000000E+01  0.51100000000E-03 0.  1.
    9000002   -1    0    0    0    0 -0.00000000000E+00 -0.00000000000E+00  0.00000000000E+00  0.93800000000E+00  0.93800000000E+00 0. -1.
         11    1    1    2    0    0  0.50162982113E-01  0.73461359634E-01  0.81720040776E+00  0.82202777551E+00  0.51100000000E-03 0.  1.
    9000002    1    1    2    0    0 -0.23327890810E+00 -0.34900734619E+00  0.11917951939E+00  0.10345399627E+01  0.93800000000E+00 0.  1.
         22    1    1    2    0    0  0.18311592599E+00  0.27554598655E+00  0.30636200402E+01  0.30814322618E+01  0.00000000000E+00 0.  1.
</event>
<event>
 5    1  0.6172503E+001  0.1598627E+01  0.7818608E-02  0.3354855E+00
         11   -1    0    0    0    0  0.00000000000E+00  0.00000000000E+00  0.39999999674E+01  0.40000000000E+01  0.51100000000E-03 0. -1.
    9000002   -1    0    0    0    0 -0.00000000000E+00 -0.00000000000E+00  0.00000000000E+00  0.93800000000E+00  0.93800000000E+00 0.  1.
         11    1    1    2    0    0  0.19441527190E-01 -0.34866368126E-01  0.20977691883E+00  0.21354215837E+00  0.51100000000E-03 0. -1.
    9000002    1    1    2    0    0 -0.28841291367E+00  0.32247868866E+00  0.12770356783E+00  0.10408298202E+01  0.93800000000E+00 0.  1.
         22    1    1    2    0    0  0.26897138648E+00 -0.28761232053E+00  0.36625194807E+01  0.36836280214E+01  0.00000000000E+00 0. -1.
</event>
<event>
 5    1  0.6172503E+001  0.1599571E+01  0.7818608E-02  0.3353829E+00
         11   -1    0    0    0    0  0.00000000000E+00  0.00000000000E+00  0.39999999674E+01  0.40000000000E+01  0.51100000000E-03 0. -1.
    9000002   -1    0    0    0    0 -0.00000000000E+00 -0.00000000000E+00  0.00000000000E+00  0.93800000000E+00  0.93800000000E+00 0. -1.
         11    1    1    2    0    0 -0.24740299341E-01  0.14797584687E-01  0.24562541519E+00  0.24731186109E+00  0.51100000000E-03 0. -1.
    9000002    1    1    2    0    0  0.41196071584E+00 -0.32026607485E+00  0.18719260120E+00  0.10895719618E+01  0.93800000000E+00 0. -1.
         22    1    1    2    0    0 -0.38722041650E+00  0.30546849016E+00  0.35671819510E+01  0.36011161771E+01  0.00000000000E+00 0. -1.
</event>
<event>
 5    1  0.7515462E+001  0.1599616E+01  0.7818608E-02  0.3353781E+00
         11   -1    0    0    0    0  0.00000000000E+00  0.00000000000E+00  0.39999999674E+01  0.40000000000E+01  0.51100000000E-03 0. -1.
    9000002   -1    0    0    0    0 -0.00000000000E+00 -0.00000000000E+00  0.00000000000E+00  0.93800000000E+00  0.93800000000E+00 0.  1.
         11    1    1    2    0    0  0.93689535086E-01  0.18106291306E+00  0.14703187209E+01  0.14843850275E+01  0.51100000000E-03 0. -1.
    9000002    1    1    2    0    0 -0.25412102466E+00 -0.48727924691E+00  0.20864507710E+00  0.11069757576E+01  0.93800000000E+00 0.  1.
         22    1    1    2    0    0  0.16043148958E+00  0.30621633384E+00  0.23210361693E+01  0.23466392150E+01  0.00000000000E+00 0. -1.
</event>
<event>
 5    1  0.6172503E+001  0.1589032E+01  0.7818608E-02  0.3365354E+00
         11   -1    0    0    0    0  0.00000000000E+00  0.00000000000E+00  0.39999999674E+01  0.40000000000E+01  0.51100000000E-03 0. -1.
    9000002   -1    0    0    0    0 -0.00000000000E+00 -0.00000000000E+00  0.00000000000E+00  0.93800000000E+00  0.93800000000E+00 0.  1.
         11    1    1    2    0    0 -0.52554919666E-02 -0.10468385826E-02  0.67880817915E+00  0.67882952298E+00  0.51100000000E-03 0. -1.
    9000002    1    1    2    0    0  0.43180968867E+00 -0.34324845119E+00  0.22036418152E+00  0.11102627973E+01  0.93800000000E+00 0.  1.
         22    1    1    2    0    0 -0.42655419671E+00  0.34429528977E+00  0.31008276067E+01  0.31489076798E+01  0.00000000000E+00 0. -1.
</event>
<event>
 5    1  0.6172503E+001  0.1599673E+01  0.7818608E-02  0.3353718E+00
         11   -1    0    0    0    0  0.00000000000E+00  0.00000000000E+00  0.39999999674E+01  0.40000000000E+01  0.51100000000E-03 0. -1.
    9000002   -1    0    0    0    0 -0.00000000000E+00 -0.00000000000E+00  0.00000000000E+00  0.93800000000E+00  0.93800000000E+00 0.  1.
         11    1    1    2    0    0  0.27208742909E-01 -0.87789988305E-01  0.92570374032E+00  0.93025538090E+00  0.51100000000E-03 0. -1.
    9000002    1    1    2    0    0 -0.10648738276E+00  0.37255861071E+00  0.10111569660E+00  0.10199058119E+01  0.93800000000E+00 0.  1.
         22    1    1    2    0    0  0.79278639847E-01 -0.28476862240E+00  0.29731805304E+01  0.29878388072E+01  0.00000000000E+00 0. -1.
</event>
<event>
 5    1  0.6172503E+001  0.1599575E+01  0.7818608E-02  0.3353825E+00
         11   -1    0    0    0    0  0.00000000000E+00  0.00000000000E+00  0.39999999674E+01  0.40000000000E+01  0.51100000000E-03 0. -1.
    9000002   -1    0    0    0    0 -0.00000000000E+00 -0.00000000000E+00  0.00000000000E+00  0.93800000000E+00  0.93800000000E+00 0.  1.
         11    1    1    2    0    0  0.12237130786E+00  0.14936522046E+00  0.13230270795E+01  0.13370436119E+01  0.51100000000E-03 0. -1.
    9000002    1    1    2    0    0 -0.31947547156E+00 -0.42225893753E+00  0.19301030856E+00  0.10942870585E+01  0.93800000000E+00 0.  1.
         22    1    1    2    0    0  0.19710416370E+00  0.27289371707E+00  0.24839625793E+01  0.25066693295E+01  0.00000000000E+00 0. -1.
</event>
<event>
 5    1  0.6172503E+001  0.1599676E+01  0.7818608E-02  0.3353715E+00
         11   -1    0    0    0    0  0.00000000000E+00  0.00000000000E+00  0.39999999674E+01  0.40000000000E+01  0.51100000000E-03 0.  1.
    9000002   -1    0    0    0    0 -0.00000000000E+00 -0.00000000000E+00  0.00000000000E+00  0.93800000000E+00  0.93800000000E+00 0. -1.
         11    1    1    2    0    0 -0.16443776608E-01  0.43236239576E-01  0.41130771818E+00  0.41390103933E+00  0.51100000000E-03 0.  1.
    9000002    1    1    2    0    0  0.15992688554E+00 -0.41093660290E+00  0.13189154832E+00  0.10448372509E+01  0.93800000000E+00 0. -1.
         22    1    1    2    0    0 -0.14348310893E+00  0.36770036332E+00  0.34568007009E+01  0.34792617098E+01  0.00000000000E+00 0.  1.
</event>
<event>
 5    1  0.6172503E+001  0.1595526E+01  0.7818608E-02  0.3358233E+00
         11   -1    0    0    0    0  0.00000000000E+00  0.00000000000E+00  0.39999999674E+01  0.40000000000E+01  0.51100000000E-03 0. -1.
    9000002   -1    0    0    0    0 -0.00000000000E+00 -0.00000000000E+00  0.00000000000E+00  0.93800000000E+00  0.93800000000E+00 0. -1.
         11    1    1    2    0    0 -0.21907021013E-01 -0.55624358133E-01  0.20391504349E+00  0.21249845380E+00  0.51100000000E-03 0. -1.
    9000002    1    1    2    0    0 -0.36829267710E-01  0.54478144369E+00  0.20968568745E+00  0.11054208718E+01  0.93800000000E+00 0. -1.
         22    1    1    2    0    0  0.58736288723E-01 -0.48915708555E+00  0.35863992364E+01  0.36200806744E+01  0.00000000000E+00 0. -1.
</event>
<event>
 5    1  0.6172503E+001  0.1599671E+01  0.7818608E-02  0.3353720E+00
         11   -1    0    0    0    0  0.00000000000E+00  0.00000000000E+00  0.39999999674E+01  0.40000000000E+01  0.51100000000E-03 0. -1.
    9000002   -1    0    0    0    0 -0.00000000000E+00 -0.00000000000E+00  0.00000000000E+00  0.93800000000E+00  0.93800000000E+00 0. -1.
         11    1    1    2    0    0 -0.17006353368E-01 -0.10737942693E+00  0.88817292882E+00  0.89480219602E+00  0.51100000000E-03 0. -1.
    9000002    1    1    2    0    0  0.84240339046E-01  0.46497042308E+00  0.15218323690E+00  0.10612717214E+01  0.93800000000E+00 0. -1.
         22    1    1    2    0    0 -0.67233985678E-01 -0.35759099615E+00  0.29596438016E+01  0.29819260826E+01  0.00000000000E+00 0. -1.
</event>
<event>
 5    1  0.6172503E+001  0.1599676E+01  0.7818608E-02  0.3353715E+00
         11   -1    0    0    0    0  0.00000000000E+00  0.00000000000E+00  0.39999999674E+01  0.40000000000E+01  0.51100000000E-03 0.  1.
    9000002   -1    0    0    0    0 -0.00000000000E+00 -0.00000000000E+00  0.00000000000E+00  0.93800000000E+00  0.93800000000E+00 0.  1.
         11    1    1    2    0    0 -0.76211772468E-01  0.64767833318E-01  0.11046051764E+01  0.11091239621E+01  0.51100000000E-03 0.  1.
    9000002    1    1    2    0    0  0.26776652752E+00 -0.23128092773E+00  0.83977149957E-01  0.10060248220E+01  0.93800000000E+00 0.  1.
         22    1    1    2    0    0 -0.19155475505E+00  0.16651309441E+00  0.28114176410E+01  0.28228512159E+01  0.00000000000E+00 0. -1.
</event>
<event>
 5    1  0.6172503E+001  0.1570037E+01  0.7818608E-02  0.3386540E+00
         11   -1    0    0    0    0  0.00000000000E+00  0.00000000000E+00  0.39999999674E+01  0.40000000000E+01  0.51100000000E-03 0.  1.
    9000002   -1    0    0    0    0 -0.00000000000E+00 -0.00000000000E+00  0.00000000000E+00  0.93800000000E+00  0.93800000000E+00 0. -1.
         11    1    1    2    0    0  0.67411220675E-01  0.22710266890E+00  0.13838600429E+01  0.14039903042E+01  0.51100000000E-03 0.  1.
    9000002    1    1    2    0    0 -0.24836489047E+00 -0.85280312153E-01  0.68989757921E-01  0.97650470411E+00  0.93800000000E+00 0. -1.
         22    1    1    2    0    0  0.18095366980E+00 -0.14182235674E+00  0.25471501666E+01  0.25575049917E+01  0.00000000000E+00 0.  1.
</event>
<event>
 5    1  0.6172503E+001  0.1585587E+01  0.7818608E-02  0.3369157E+00
         11   -1    0    0    0    0  0.00000000000E+00  0.00000000000E+00  0.39999999674E+01  0.40000000000E+01  0.51100000000E-03 0. -1.
    9000002   -1    0    0    0    0 -0.00000000000E+00 -0.00000000000E+00  0.00000000000E+00  0.93800000000E+00  0.93800000000E+00 0.  1.
         11    1    1    2    0    0  0.11770759307E+00 -0.54540760473E-01  0.13814450766E+01  0.13875231648E+01  0.51100000000E-03 0. -1.
    9000002    1    1    2    0    0 -0.31749527098E-01  0.39508345223E+00  0.11770497204E+00  0.10250841074E+01  0.93800000000E+00 0.  1.
         22    1    1    2    0    0 -0.85958065973E-01 -0.34054269176E+00  0.25008499187E+01  0.25253927279E+01  0.00000000000E+00 0. -1.
</event>
<event>
 5    1  0.6172503E+001  0.1583042E+01  0.7818608E-02  0.3371977E+00
         11   -1    0    0    0    0  0.00000000000E+00  0.00000000000E+00  0.39999999674E+01  0.40000000000E+01  0.51100000000E-03 0. -1.
    9000002   -1    0    0    0    0 -0.00000000000E+00 -0.00000000000E+00  0.00000000000E+00  0.93800000000E+00  0.93800000000E+00 0. -1.
         11    1    1    2    0    0  0.25012794646E-01  0.62298415355E-01  0.13404571656E+01  0.13421372532E+01  0.51100000000E-03 0. -1.
    9000002    1    1    2    0    0  0.24331890609E+00  0.11129651723E+00  0.60548432674E-01  0.97729274913E+00  0.93800000000E+00 0. -1.
         22    1    1    2    0    0 -0.26833170073E+00 -0.17359493259E+00  0.25989943691E+01  0.26185699977E+01  0.00000000000E+00 0. -1.
</event>
<event>
 5    1  0.6172503E+001  0.1599675E+01  0.7818608E-02  0.3353716E+00
         11   -1    0    0    0    0  0.00000000000E+00  0.00000000000E+00  0.39999999674E+01  0.40000000000E+01  0.51100000000E-03 0. -1.
    9000002   -1    0    0    0    0 -0.00000000000E+00 -0.00000000000E+00  0.00000000000E+00  0.93800000000E+00  0.93800000000E+00 0.  1.
         11    1    1    2    0    0  0.83158839572E-01  0.44943009495E-01  0.96187918962E+00  0.96651285726E+00  0.51100000000E-03 0. -1.
    9000002    1    1    2    0    0 -0.34141603427E+00 -0.18616308054E+00  0.10186043592E+00  0.10205102397E+01  0.93800000000E+00 0.  1.
         22    1    1    2    0    0  0.25825719470E+00  0.14122007105E+00  0.29362603418E+01  0.29509769030E+01  0.00000000000E+00 0. -1.
</event>
<event>
 5    1  0.6172503E+001  0.1599659E+01  0.7818608E-02  0.3353734E+00
         11   -1    0    0    0    0  0.00000000000E+00  0.00000000000E+00  0.39999999674E+01  0.40000000000E+01  0.51100000000E-03 0.  1.
    9000002   -1    0    0    0    0 -0.00000000000E+00 -0.00000000000E+00  0.00000000000E+00  0.93800000000E+00  0.93800000000E+00 0.  1.
         11    1    1    2    0    0 -0.16854404295E+00 -0.14036289771E-01  0.13190577876E+01  0.13298563155E+01  0.51100000000E-03 0.  1.
    9000002    1    1    2    0    0  0.48265703441E+00  0.52702072647E-01  0.16100569673E+00  0.10684110425E+01  0.93800000000E+00 0.  1.
         22    1    1    2    0    0 -0.31411299147E+00 -0.38665782876E-01  0.25199364831E+01  0.25397326420E+01  0.00000000000E+00 0.  1.
</event>
<event>
 5    1  0.6172503E+001  0.1599667E+01  0.7818608E-02  0.3353725E+00
         11   -1    0    0    0    0  0.00000000000E+00  0.00000000000E+00  0.39999999674E+01  0.40000000000E+01  0.51100000000E-03 0.  1.
    9000002   -1    0    0    0    0 -0.00000000000E+00 -0.00000000000E+00  0.00000000000E+00  0.93800000000E+00  0.93800000000E+00 0. -1.
         11    1    1    2    0    0 -0.75922615614E-02 -0.18714411474E+00  0.14803548437E+01  0.14921565891E+01  0.51100000000E-03 0.  1.
    9000002    1    1    2    0    0  0.13211382948E-01  0.49211525558E+00  0.16570032064E+00  0.10722185233E+01  0.93800000000E+00 0. -1.
         22    1    1    2    0    0 -0.56191213864E-02 -0.30497114084E+00  0.23539448030E+01  0.23736248876E+01  0.00000000000E+00 0.  1.
</event>
<event>
 5    1  0.6172503E+001  0.1599558E+01  0.7818608E-02  0.3353844E+00
         11   -1    0    0    0    0  0.00000000000E+00  0.00000000000E+00  0.39999999674E+01  0.40000000000E+01  0.51100000000E-03 0.  1.
    9000002   -1    0    0    0    0 -0.00000000000E+00 -0.00000000000E+00  0.00000000000E+00  0.93800000000E+00  0.93800000000E+00 0. -1.
         11    1    1    2    0    0 -0.40035623747E-01  0.14246465090E+00  0.13353328390E+01  0.13435077521E+01  0.51100000000E-03 0.  1.
    9000002    1    1    2    0    0  0.10953296145E+00 -0.37964159489E+00  0.10534319564E+00  0.10232626247E+01  0.93800000000E+00 0. -1.
         22    1    1    2    0    0 -0.69497337702E-01  0.23717694399E+00  0.25593239327E+01  0.25712296232E+01  0.00000000000E+00 0.  1.
</event>
<event>
 5    1  0.6172503E+001  0.1598790E+01  0.7818608E-02  0.3354678E+00
         11   -1    0    0    0    0  0.00000000000E+00  0.00000000000E+00  0.39999999674E+01  0.40000000000E+01  0.51100000000E-03 0.  1.
    9000002   -1    0    0    0    0 -0.00000000000E+00 -0.00000000000E+00  0.00000000000E+00  0.93800000000E+00  0.93800000000E+00 0.  1.
         11    1    1    2    0    0 -0.23856538834E-01 -0.90355257251E-01  0.95460033219E+00  0.95916383496E+00  0.51100000000E-03 0.  1.
    9000002    1    1    2    0    0  0.26964695369E-01  0.46872693028E+00  0.15093528269E+00  0.10597440679E+01  0.93800000000E+00 0.  1.
         22    1    1    2    0    0 -0.31081565355E-02 -0.37837167303E+00  0.28944643525E+01  0.29190920971E+01  0.00000000000E+00 0.  1.
</event>
<event>
 5    1  0.6172503E+001  0.1599677E+01  0.7818608E-02  0.3353714E+00
         11   -1    0    0    0    0  0.00000000000E+00  0.00000000000E+00  0.39999999674E+01  0.40000000000E+01  0.51100000000E-03 0.  1.
    9000002   -1    0    0    0    0 -0.00000000000E+00 -0.00000000000E+00  0.00000000000E+00  0.93800000000E+00  0.93800000000E+00 0. -1.
         11    1    1    2    0    0  0.38508457799E-01  0.10527080488E+00  0.12320297231E+01  0.12371185648E+01  0.51100000000E-03 0.  1.
    9000002    1    1    2    0    0 -0.12101738628E+00 -0.33482144821E+00  0.85044729653E-01  0.10068898728E+01  0.93800000000E+00 0. -1.
         22    1    1    2    0    0  0.82508928481E-01  0.22955064333E+00  0.26829255147E+01  0.26939915624E+01  0.00000000000E+00 0.  1.
</event>
<event>
 5    1  0.6680110E+001  0.1598496E+01  0.7818608E-02  0.3354997E+00
         11   -1    0    0    0    0  0.00000000000E+00  0.00000000000E+00  0.39999999674E+01  0.40000000000E+01  0.51100000000E-03 0. -1.
    9000002   -1    0    0    0    0 -0.00000000000E+00 -0.00000000000E+00  0.00000000000E+00  0.93800000000E+00  0.93800000000E+00 0. -1.
         11    1    1    2    0    0 -0.93667144937E-01  0.18483129353E-01  0.12921722729E+01  0.12956946415E+01  0.51100000000E-03 0. -1.
    9000002    1    1    2    0    0  0.30267645531E+00 -0.17256044029E+00  0.82329616564E-01  0.10039981613E+01  0.93800000000E+00 0. -1.
         22    1    1    2    0    0 -0.20900931037E+00  0.15407731094E+00  0.26254980779E+01  0.26383071972E+01  0.00000000000E+00 0. -1.
</event>
<event>
 5    1  0.6172503E+001  0.1599567E+01  0.7818608E-02  0.3353833E+00
         11   -1    0    0    0    0  0.00000000000E+00  0.00000000000E+00  0.39999999674E+01  0.40000000000E+01  0.51100000000E-03 0.  1.
    9000002   -1    0    0    0    0 -0.00000000000E+00 -0.00000000000E+00  0.00000000000E+00  0.93800000000E+00  0.93800000000E+00 0.  1.
         11    1    1    2    0    0  0.13566302037E+00 -0.72283683630E-02  0.11721834527E+01  0.11800300896E+01  0.51100000000E-03 0.  1.
    9000002    1    1    2    0    0 -0.46086745274E+00 -0.11492253741E-01  0.14468140757E+00  0.10551339207E+01  0.93800000000E+00 0.  1.
         22    1    1    2    0    0  0.32520443237E+00  0.18720622104E-01  0.26831351071E+01  0.27028359897E+01  0.00000000000E+00 0.  1.
</event>
<event>
 5    1  0.6172503E+001  0.1599497E+01  0.7818608E-02  0.3353910E+00
         11   -1    0    0    0    0  0.00000000000E+00  0.00000000000E+00  0.39999999674E+01  0.40000000000E+01  0.51100000000E-03 0.  1.
    9000002   -1    0    0    0    0 -0.00000000000E+00 -0.00000000000E+00  0.00000000000E+00  0.93800000000E+00  0.93800000000E+00 0.  1.
         11    1    1    2    0    0  0.70309902177E-01 -0.59908064546E-01  0.63649061808E+00  0.64315863251E+00  0.51100000000E-03 0.  1.
    9000002    1    1    2    0    0 -0.35175102509E+00  0.34767872271E+00  0.16745888602E+00  0.10735435512E+01  0.93800000000E+00 0.  1.
         22    1    1    2    0    0  0.28144112291E+00 -0.28777065816E+00  0.31960504633E+01  0.32212978163E+01  0.00000000000E+00 0.  1.
</event>
<event>
 5    1  0.6172503E+001  0.1598711E+01  0.7818608E-02  0.3354764E+00
         11   -1    0    0    0    0  0.00000000000E+00  0.00000000000E+00  0.39999999674E+01  0.40000000000E+01  0.51100000000E-03 0. -1.
    9000002   -1    0    0    0    0 -0.00000000000E+00 -0.00000000000E+00  0.00000000000E+00  0.93800000000E+00  0.93800000000E+00 0.  1.
         11    1    1    2    0    0  0.22566719440E+00 -0.86157225195E-01  0.13552879075E+01  0.13766460414E+01  0.51100000000E-03 0. -1.
    9000002    1    1    2    0    0 -0.62299510321E+00  0.32810676721E+00  0.35580252403E+00  0.12256493730E+01  0.93800000000E+00 0.  1.
         22    1    1    2    0    0  0.39732790881E+00 -0.24194954202E+00  0.22889095358E+01  0.23357045856E+01  0.00000000000E+00 0. -1.
</event>
<event>
 5    1  0.6172503E+001  0.1599677E+01  0.7818608E-02  0.3353714E+00
         11   -1    0    0    0    0  0.00000000000E+00  0.00000000000E+00  0.39999999674E+01  0.40000000000E+01  0.51100000000E-03 0. -1.
    9000002   -1    0    0    0    0 -0.00000000000E+00 -0.00000000000E+00  0.00000000000E+00  0.93800000000E+00  0.93800000000E+00 0.  1.
         11    1    1    2    0    0  0.88424040327E-01  0.15033790407E+00  0.14265932842E+01  0.14372156957E+01  0.51100000000E-03 0. -1.
    9000002    1    1    2    0    0 -0.23822702015E+00 -0.40450822534E+00  0.15011924381E+00  0.10596031355E+01  0.93800000000E+00 0.  1.
         22    1    1    2    0    0  0.14980297982E+00  0.25417032128E+00  0.24232874394E+01  0.24411811688E+01  0.00000000000E+00 0. -1.
</event>
<event>
 5    1  0.6172503E+001  0.1541616E+01  0.7818608E-02  0.3419276E+00
         11   -1    0    0    0    0  0.00000000000E+00  0.00000000000E+00  0.39999999674E+01  0.40000000000E+01  0.51100000000E-03 0.  1.
    9000002   -1    0    0    0    0 -0.00000000000E+00 -0.00000000000E+00  0.00000000000E+00  0.93800000000E+00  0.93800000000E+00 0.  1.
         11    1    1    2    0    0 -0.75704526790E-01  0.17275334704E+00  0.31292319668E+00  0.36537115708E+00  0.51100000000E-03 0.  1.
    9000002    1    1    2    0    0 -0.21620474383E+00 -0.42867231379E+00  0.21063242672E+00  0.10745764110E+01  0.93800000000E+00 0.  1.
         22    1    1    2    0    0  0.29190927062E+00  0.25591896675E+00  0.34764443440E+01  0.34980524319E+01  0.00000000000E+00 0.  1.
</event>
<event>
 5    1  0.6172503E+001  0.1599674E+01  0.7818608E-02  0.3353717E+00
         11   -1    0    0    0    0  0.00000000000E+00  0.00000000000E+00  0.39999999674E+01  0.40000000000E+01  0.51100000000E-03 0.  1.
    9000002   -1    0    0    0    0 -0.00000000000E+00 -0.00000000000E+00  0.00000000000E+00  0.93800000000E+00  0.93800000000E+00 0.  1.
         11    1    1    2    0    0  0.56206904538E-01 -0.90615106857E-01  0.10645421984E+01  0.10698694626E+01  0.51100000000E-03 0.  1.
    9000002    1    1    2    0    0 -0.21124283146E+00  0.33414122182E+00  0.10534900962E+00  0.10233358705E+01  0.93800000000E+00 0.  1.
         22    1    1    2    0    0  0.15503592692E+00 -0.24352611497E+00  0.28301087594E+01  0.28447946669E+01  0.00000000000E+00 0.  1.
</event>
<event>
 5    1  0.6172503E+001  0.1599386E+01  0.7818608E-02  0.3354031E+00
         11   -1    0    0    0    0  0.00000000000E+00  0.00000000000E+00  0.39999999674E+01  0.40000000000E+01  0.51100000000E-03 0.  1.
    9000002   -1    0    0    0    0 -0.00000000000E+00 -0.00000000000E+00  0.00000000000E+00  0.93800000000E+00  0.93800000000E+00 0.  1.
         11    1    1    2    0    0 -0.32409166147E-01 -0.11076563707E+00  0.49848395889E+00  0.51166971651E+00  0.51100000000E-03 0.  1.
    9000002    1    1    2    0    0  0.24237898977E+00  0.69706990637E+00  0.39377465972E+00  0.12568040864E+01  0.93800000000E+00 0.  1.
         22    1    1    2    0    0 -0.20996982363E+00 -0.58630426930E+00  0.31077413488E+01  0.31695261970E+01  0.00000000000E+00 0.  1.
</event>
<event>
 5    1  0.6172503E+001  0.1599673E+01  0.7818608E-02  0.3353718E+00
         11   -1    0    0    0    0  0.00000000000E+00  0.00000000000E+00  0.39999999674E+01  0.40000000000E+01  0.51100000000E-03 0. -1.
    9000002   -1    0    0    0    0 -0.00000000000E+00 -0.00000000000E+00  0.00000000000E+00  0.93800000000E+00  0.93800000000E+00 0.  1.
         11    1    1    2    0    0  0.67311919702E-02 -0.10612404679E+00  0.86827698619E+00  0.87476443007E+00  0.51100000000E-03 0. -1.
    9000002    1    1    2    0    0 -0.25498209643E-01  0.47707634303E+00  0.15568818868E+00  0.10641122158E+01  0.93800000000E+00 0.  1.
         22    1    1    2    0    0  0.18767017673E-01 -0.37095229623E+00  0.29760347925E+01  0.29991233541E+01  0.00000000000E+00 0. -1.
</event>
<event>
 5    1  0.6172503E+001  0.1599437E+01  0.7818608E-02  0.3353974E+00
         11   -1    0    0    0    0  0.00000000000E+00  0.00000000000E+00  0.39999999674E+01  0.40000000000E+01  0.51100000000E-03 0.  1.
    9000002   -1    0    0    0    0 -0.00000000000E+00 -0.00000000000E+00  0.00000000000E+00  0.93800000000E+00  0.93800000000E+00 0.  1.
         11    1    1    2    0    0  0.82160369497E-01  0.91035243577E-02  0.48523157701E+00  0.49222265787E+00  0.51100000000E-03 0.  1.
    9000002    1    1    2    0    0 -0.54513676697E+00 -0.54746194262E-01  0.20747111160E+00  0.11059202063E+01  0.93800000000E+00 0.  1.
         22    1    1    2    0    0  0.46297639748E+00  0.45642669904E-01  0.33072972787E+01  0.33398571359E+01  0.00000000000E+00 0.  1.
</event>
<event>
 5    1  0.6172503E+001  0.1599534E+01  0.7818608E-02  0.3353869E+00
         11   -1    0    0    0    0  0.00000000000E+00  0.00000000000E+00  0.39999999674E+01  0.40000000000E+01  0.51100000000E-03 0. -1.
    9000002   -1    0    0    0    0 -0.00000000000E+00 -0.00000000000E+00  0.00000000000E+00  0.93800000000E+00  0.93800000000E+00 0.  1.
         11    1    1    2    0    0  0.64821024845E-01 -0.10850121558E+00  0.13806021086E+01  0.13863753902E+01  0.51100000000E-03 0. -1.
    9000002    1    1    2    0    0 -0.16242464290E+00  0.33966961415E+00  0.95456637745E-01  0.10152404548E+01  0.93800000000E+00 0.  1.
         22    1    1    2    0    0  0.97603618056E-01 -0.23116839857E+00  0.25239412210E+01  0.25363841550E+01  0.00000000000E+00 0. -1.
</event>
<event>
 5    1  0.6172503E+001  0.1599677E+01  0.7818608E-02  0.3353714E+00
         11   -1    0    0    0    0  0.00000000000E+00  0.00000000000E+00  0.39999999674E+01  0.40000000000E+01  0.51100000000E-03 0. -1.
    9000002   -1    0    0    0    0 -0.00000000000E+00 -0.00000000000E+00  0.00000000000E+00  0.93800000000E+00  0.93800000000E+00 0. -1.
         11    1    1    2    0    0  0.49820914540E-01 -0.94366648550E-01  0.94634289687E+00  0.95234044725E+00  0.51100000000E-03 0.  1.
    9000002    1    1    2    0    0 -0.20313435016E+00  0.38647648143E+00  0.12922047514E+00  0.10426742378E+01  0.93800000000E+00 0. -1.
         22    1    1    2    0    0  0.15331343562E+00 -0.29210983288E+00  0.29244365953E+01  0.29429853150E+01  0.00000000000E+00 0. -1.
</event>
<event>
 5    1  0.6380229E+001  0.1595950E+01  0.7818608E-02  0.3357771E+00
         11   -1    0    0    0    0  0.00000000000E+00  0.00000000000E+00  0.39999999674E+01  0.40000000000E+01  0.51100000000E-03 0. -1.
    9000002   -1    0    0    0    0 -0.00000000000E+00 -0.00000000000E+00  0.00000000000E+00  0.93800000000E+00  0.93800000000E+00 0.  1.
         11    1    1    2    0    0  0.11532862877E-01  0.27004991846E-01  0.44960906903E+00  0.45056725645E+00  0.51100000000E-03 0. -1.
    9000002    1    1    2    0    0  0.29064412174E+00 -0.11811218471E+00  0.68690862222E-01  0.99145697246E+00  0.93800000000E+00 0.  1.
         22    1    1    2    0    0 -0.30217698462E+00  0.91107192864E-01  0.34817000361E+01  0.34959757711E+01  0.00000000000E+00 0. -1.
</event>
<event>
 5    1  0.7848071E+001  0.1592931E+01  0.7818608E-02  0.3361072E+00
         11   -1    0    0    0    0  0.00000000000E+00  0.00000000000E+00  0.39999999674E+01  0.40000000000E+01  0.51100000000E-03 0. -1.
    9000002   -1    0    0    0    0 -0.00000000000E+00 -0.00000000000E+00  0.00000000000E+00  0.93800000000E+00  0.93800000000E+00 0. -1.
         11    1    1    2    0    0  0.20462984403E-01 -0.30246027829E-01  0.83555877567E+00  0.83635655354E+00  0.51100000000E-03 0. -1.
    9000002    1    1    2    0    0 -0.12376408052E+00 -0.23770141768E+00  0.52992506150E-01  0.97697068395E+00  0.93800000000E+00 0. -1.
         22    1    1    2    0    0  0.10330109612E+00  0.26794744550E+00  0.31114486855E+01  0.31246727625E+01  0.00000000000E+00 0. -1.
</event>
<event>
 5    1  0.6172503E+001  0.1457996E+01  0.7818608E-02  0.3523551E+00
         11   -1    0    0    0    0  0.00000000000E+00  0.00000000000E+00  0.39999999674E+01  0.40000000000E+01  0.51100000000E-03 0. -1.
    9000002   -1    0    0    0    0 -0.00000000000E+00 -0.00000000000E+00  0.00000000000E+00  0.93800000000E+00  0.93800000000E+00 0. -1.
         11    1    1    2    0    0 -0.24066886175E+00  0.17396223754E+00  0.53743609286E+00  0.61402131570E+00  0.51100000000E-03 0. -1.
    9000002    1    1    2    0    0 -0.29376286732E+00 -0.14728943507E+00  0.19494521722E+00  0.10128368267E+01  0.93800000000E+00 0. -1.
         22    1    1    2    0    0  0.53443172906E+00 -0.26672802474E-01  0.32676186573E+01  0.33111418576E+01  0.00000000000E+00 0. -1.
</event>
<event>
 5    1  0.6172503E+001  0.1598759E+01  0.7818608E-02  0.3354711E+00
         11   -1    0    0    0    0  0.00000000000E+00  0.00000000000E+00  0.39999999674E+01  0.40000000000E+01  0.51100000000E-03 0.  1.
    9000002   -1    0    0    0    0 -0.00000000000E+00 -0.00000000000E+00  0.00000000000E+00  0.93800000000E+00  0.93800000000E+00 0.  1.
         11    1    1    2    0    0  0.22213891323E-01 -0.18759120741E-02  0.55623159393E+00  0.55667838401E+00  0.51100000000E-03 0.  1.
    9000002    1    1    2    0    0 -0.32309971939E+00 -0.55184236460E-01  0.72598153239E-01  0.99626965249E+00  0.93800000000E+00 0.  1.
         22    1    1    2    0    0  0.30088582807E+00  0.57060148535E-01  0.33711702202E+01  0.33850519635E+01  0.00000000000E+00 0.  1.
</event>
<event>
 5    1  0.6172503E+001  0.1599677E+01  0.7818608E-02  0.3353714E+00
         11   -1    0    0    0    0  0.00000000000E+00  0.00000000000E+00  0.39999999674E+01  0.40000000000E+01  0.51100000000E-03 0. -1.
    9000002   -1    0    0    0    0 -0.00000000000E+00 -0.00000000000E+00  0.00000000000E+00  0.93800000000E+00  0.93800000000E+00 0.  1.
         11    1    1    2    0    0  0.52760597153E-01  0.43579121282E-01  0.58806483196E+00  0.59203321539E+00  0.51100000000E-03 0.  1.
    9000002    1    1    2    0    0 -0.34808827637E+00 -0.28402993727E+00  0.13707098016E+00  0.10490333203E+01  0.93800000000E+00 0.  1.
         22    1    1    2    0    0  0.29532767922E+00  0.24045081599E+00  0.32748641552E+01  0.32969334643E+01  0.00000000000E+00 0. -1.
</event>
<event>
 5    1  0.6172503E+001  0.1502165E+01  0.7818608E-02  0.3466913E+00
         11   -1    0    0    0    0  0.00000000000E+00  0.00000000000E+00  0.39999999674E+01  0.40000000000E+01  0.51100000000E-03 0.  1.
    9000002   -1    0    0    0    0 -0.00000000000E+00 -0.00000000000E+00  0.00000000000E+00  0.93800000000E+00  0.93800000000E+00 0.  1.
         11    1    1    2    0    0 -0.27103119324E+00  0.84905804968E-01  0.12526476511E+01  0.12844427983E+01  0.51100000000E-03 0.  1.
    9000002    1    1    2    0    0 -0.23683756244E+00 -0.10074022120E+00  0.12293827062E+00  0.98040728350E+00  0.93800000000E+00 0.  1.
         22    1    1    2    0    0  0.50786875568E+00  0.15834416237E-01  0.26244140457E+01  0.26731499182E+01  0.00000000000E+00 0.  1.
</event>
<event>
 5    1  0.6172503E+001  0.1599122E+01  0.7818608E-02  0.3354317E+00
         11   -1    0    0    0    0  0.00000000000E+00  0.00000000000E+00  0.39999999674E+01  0.40000000000E+01  0.51100000000E-03 0.  1.
    9000002   -1    0    0    0    0 -0.00000000000E+00 -0.00000000000E+00  0.00000000000E+00  0.93800000000E+00  0.93800000000E+00 0. -1.
         11    1    1    2    0    0  0.37599767920E-01  0.59092328425E-01  0.48754323949E+00  0.49254879689E+00  0.51100000000E-03 0.  1.
    9000002    1    1    2    0    0 -0.15030470509E+00 -0.43956034403E+00  0.14737739804E+00  0.10570567146E+01  0.93800000000E+00 0. -1.
         22    1    1    2    0    0  0.11270493717E+00  0.38046801560E+00  0.33650793298E+01  0.33883944885E+01  0.00000000000E+00 0.  1.
</event>
<event>
 5    1  0.6172503E+001  0.1599670E+01  0.7818608E-02  0.3353721E+00
         11   -1    0    0    0    0  0.00000000000E+00  0.00000000000E+00  0.39999999674E+01  0.40000000000E+01  0.51100000000E-03 0. -1.
    9000002   -1    0    0    0    0 -0.00000000000E+00 -0.00000000000E+00  0.00000000000E+00  0.93800000000E+00  0.93800000000E+00 0. -1.
         11    1    1    2    0    0 -0.10868294731E+00 -0.10752788513E+00  0.13631180024E+01  0.13716651117E+01  0.51100000000E-03 0. -1.
    9000002    1    1    2    0    0  0.30078239809E+00  0.30806686683E+00  0.12555837191E+00  0.10397038762E+01  0.93800000000E+00 0. -1.
         22    1    1    2    0    0 -0.19209945079E+00 -0.20053898170E+00  0.25113235930E+01  0.25266310120E+01  0.00000000000E+00 0. -1.
</event>
<event>
 5    1  0.6172503E+001  0.1573162E+01  0.7818608E-02  0.3383018E+00
         11   -1    0    0    0    0  0.00000000000E+00  0.00000000000E+00  0.39999999674E+01  0.40000000000E+01  0.51100000000E-03 0. -1.
    9000002   -1    0    0    0    0 -0.00000000000E+00 -0.00000000000E+00  0.00000000000E+00  0.93800000000E+00  0.93800000000E+00 0.  1.
         11    1    1    2    0    0  0.19400700365E+00 -0.14845800429E+00  0.12051080551E+01  0.12296195274E+01  0.51100000000E-03 0. -1.
    9000002    1    1    2    0    0 -0.40900045572E+00 -0.67070217521E-01  0.13872781791E+00  0.10348280989E+01  0.93800000000E+00 0.  1.
         22    1    1    2    0    0  0.21499345207E+00  0.21552822181E+00  0.26561640943E+01  0.26735523737E+01  0.00000000000E+00 0. -1.
</event>
<event>
 5    1  0.6172503E+001  0.1599640E+01  0.7818608E-02  0.3353755E+00
         11   -1    0    0    0    0  0.00000000000E+00  0.00000000000E+00  0.39999999674E+01  0.40000000000E+01  0.51100000000E-03 0.  1.
    9000002   -1    0    0    0    0 -0.00000000000E+00 -0.00000000000E+00  0.00000000000E+00  0.93800000000E+00  0.93800000000E+00 0.  1.
         11    1    1    2    0    0  0.11736678210E+00  0.11172285498E+00  0.10703499654E+01  0.10825461964E+01  0.51100000000E-03 0.  1.
    9000002    1    1    2    0    0 -0.42550502929E+00 -0.37382176478E+00  0.22231505199E+00  0.11180631575E+01  0.93800000000E+00 0.  1.
         22    1    1    2    0    0  0.30813824720E+00  0.26209890981E+00  0.27073349500E+01  0.27373906461E+01  0.00000000000E+00 0.  1.
</event>
<event>
 5    1  0.6172503E+001  0.1569072E+01  0.7818608E-02  0.3387631E+00
         11   -1    0    0    0    0  0.00000000000E+00  0.00000000000E+00  0.39999999674E+01  0.40000000000E+01  0.51100000000E-03 0.  1.
    9000002   -1    0    0    0    0 -0.00000000000E+00 -0.00000000000E+00  0.00000000000E+00  0.93800000000E+00  0.93800000000E+00 0.  1.
         11    1    1    2    0    0  0.15397177451E+00 -0.10221676548E-01  0.14402127056E+01  0.14484559670E+01  0.51100000000E-03 0.  1.
    9000002    1    1    2    0    0  0.11972429836E+00 -0.95025211179E-01  0.38384509458E-01  0.95114723831E+00  0.93800000000E+00 0.  1.
         22    1    1    2    0    0 -0.27369607287E+00  0.10524688773E+00  0.25214027523E+01  0.25383967946E+01  0.00000000000E+00 0.  1.
</event>
<event>
 5    1  0.6172503E+001  0.1592836E+01  0.7818608E-02  0.3361176E+00
         11   -1    0    0    0    0  0.00000000000E+00  0.00000000000E+00  0.39999999674E+01  0.40000000000E+01  0.51100000000E-03 0.  1.
    9000002   -1    0    0    0    0 -0.00000000000E+00 -0.00000000000E+00  0.00000000000E+00  0.93800000000E+00  0.93800000000E+00 0. -1.
         11    1    1    2    0    0  0.10938150490E+00  0.13778694043E+00  0.61961461041E+00  0.64410564438E+00  0.51100000000E-03 0.  1.
    9000002    1    1    2    0    0 -0.86310574069E+00 -0.43143350242E+00  0.74713613773E+00  0.15392019994E+01  0.93800000000E+00 0. -1.
         22    1    1    2    0    0  0.75372423578E+00  0.29364656199E+00  0.26332492192E+01  0.27546923562E+01  0.00000000000E+00 0.  1.
</event>
<event>
 5    1  0.6561824E+001  0.1599635E+01  0.7818608E-02  0.3353759E+00
         11   -1    0    0    0    0  0.00000000000E+00  0.00000000000E+00  0.39999999674E+01  0.40000000000E+01  0.51100000000E-03 0. -1.
    9000002   -1    0    0    0    0 -0.00000000000E+00 -0.00000000000E+00  0.00000000000E+00  0.93800000000E+00  0.93800000000E+00 0. -1.
         11    1    1    2    0    0 -0.12586512131E+00 -0.32252042861E-01  0.14112962106E+01  0.14172647876E+01  0.51100000000E-03 0. -1.
    9000002    1    1    2    0    0  0.35054626347E+00  0.68808367749E-01  0.85671531313E-01  0.10073732603E+01  0.93800000000E+00 0. -1.
         22    1    1    2    0    0 -0.22468114216E+00 -0.36556324888E-01  0.25030322254E+01  0.25133619520E+01  0.00000000000E+00 0.  1.
</event>
<event>
 5    1  0.6172503E+001  0.1597717E+01  0.7818608E-02  0.3355845E+00
         11   -1    0    0    0    0  0.00000000000E+00  0.00000000000E+00  0.39999999674E+01  0.40000000000E+01  0.51100000000E-03 0. -1.
    9000002   -1    0    0    0    0 -0.00000000000E+00 -0.00000000000E+00  0.00000000000E+00  0.93800000000E+00  0.93800000000E+00 0. -1.
         11    1    1    2    0    0 -0.18033659180E-01  0.45054854439E-01  0.88679369395E+00  0.88812075166E+00  0.51100000000E-03 0. -1.
    9000002    1    1    2    0    0  0.27533637077E+00 -0.17131413163E+00  0.71874263419E-01  0.99507213734E+00  0.93800000000E+00 0. -1.
         22    1    1    2    0    0 -0.25730271159E+00  0.12625927719E+00  0.30413320100E+01  0.30548071110E+01  0.00000000000E+00 0. -1.
</event>
<event>
 5    1  0.6172503E+001  0.1593001E+01  0.7818608E-02  0.3360995E+00
         11   -1    0    0    0    0  0.00000000000E+00  0.00000000000E+00  0.39999999674E+01  0.40000000000E+01  0.51100000000E-03 0.  1.
    9000002   -1    0    0    0    0 -0.00000000000E+00 -0.00000000000E+00  0.00000000000E+00  0.93800000000E+00  0.93800000000E+00 0. -1.
         11    1    1    2    0    0  0.19276964506E-01  0.51730455145E-01  0.10359678820E+01  0.10374378800E+01  0.51100000000E-03 0.  1.
    9000002    1    1    2    0    0 -0.21698199069E+00 -0.47840115046E+00  0.19591189773E+00  0.10927828315E+01  0.93800000000E+00 0. -1.
         22    1    1    2    0    0  0.19770502618E+00  0.42667069532E+00  0.27681201877E+01  0.28077792885E+01  0.00000000000E+00 0.  1.
</event>
<event>
 5    1  0.6172503E+001  0.1599676E+01  0.7818608E-02  0.3353715E+00
         11   -1    0    0    0    0  0.00000000000E+00  0.00000000000E+00  0.39999999674E+01  0.40000000000E+01  0.51100000000E-03 0.  1.
    9000002   -1    0    0    0    0 -0.00000000000E+00 -0.00000000000E+00  0.00000000000E+00  0.93800000000E+00  0.93800000000E+00 0. -1.
         11    1    1    2    0    0  0.18280181016E-01 -0.10533403739E+00  0.10161781251E+01  0.10217865077E+01  0.51100000000E-03 0.  1.
    9000002    1    1    2    0    0 -0.72322359999E-01  0.40563064923E+00  0.11469185122E+00  0.10309049268E+01  0.93800000000E+00 0. -1.
         22    1    1    2    0    0  0.54042178983E-01 -0.30029661184E+00  0.28691299911E+01  0.28853085655E+01  0.00000000000E+00 0.  1.
</event>
<event>
 5    1  0.6172503E+001  0.1599636E+01  0.7818608E-02  0.3353758E+00
         11   -1    0    0    0    0  0.00000000000E+00  0.00000000000E+00  0.39999999674E+01  0.40000000000E+01  0.51100000000E-03 0. -1.
    9000002   -1    0    0    0    0 -0.00000000000E+00 -0.00000000000E+00  0.00000000000E+00  0.93800000000E+00  0.93800000000E+00 0. -1.
         11    1    1    2    0    0 -0.52389087139E-01 -0.22717939878E-01  0.39771192165E+00  0.40179068554E+00  0.51100000000E-03 0. -1.
    9000002    1    1    2    0    0  0.53401954639E+00  0.23846871595E+00  0.23792566761E+00  0.11307063402E+01  0.93800000000E+00 0. -1.
         22    1    1    2    0    0 -0.48163045925E+00 -0.21575077607E+00  0.33643623781E+01  0.34055029743E+01  0.00000000000E+00 0. -1.
</event>
<event>
 5    1  0.6172503E+001  0.1596609E+01  0.7818608E-02  0.3357052E+00
         11   -1    0    0    0    0  0.00000000000E+00  0.00000000000E+00  0.39999999674E+01  0.40000000000E+01  0.51100000000E-03 0.  1.
    9000002   -1    0    0    0    0 -0.00000000000E+00 -0.00000000000E+00  0.00000000000E+00  0.93800000000E+00  0.93800000000E+00 0.  1.
         11    1    1    2    0    0 -0.17647401689E-01  0.19355600517E-01  0.59070600658E+00  0.59128666262E+00  0.51100000000E-03 0.  1.
    9000002    1    1    2    0    0 -0.16960323923E+00 -0.26370252993E+00  0.68087085317E-01  0.99135469648E+00  0.93800000000E+00 0.  1.
         22    1    1    2    0    0  0.18725064092E+00  0.24434692941E+00  0.33412068755E+01  0.33553586409E+01  0.00000000000E+00 0.  1.
</event>
<event>
 5    1  0.6172503E+001  0.1455434E+01  0.7818608E-02  0.3526951E+00
         11   -1    0    0    0    0  0.00000000000E+00  0.00000000000E+00  0.39999999674E+01  0.40000000000E+01  0.51100000000E-03 0.  1.
    9000002   -1    0    0    0    0 -0.00000000000E+00 -0.00000000000E+00  0.00000000000E+00  0.93800000000E+00  0.93800000000E+00 0. -1.
         11    1    1    2    0    0  0.71980989065E-01  0.32217732918E+00  0.91942802974E+00  0.97689695323E+00  0.51100000000E-03 0.  1.
    9000002    1    1    2    0    0 -0.10549675741E+00  0.36462076646E+00  0.24198843652E+00  0.10404231219E+01  0.93800000000E+00 0. -1.
         22    1    1    2    0    0  0.33515768347E-01 -0.68679809565E+00  0.28385835011E+01  0.29206799249E+01  0.00000000000E+00 0.  1.
</event>
<event>
 5    1  0.6172503E+001  0.1599573E+01  0.7818608E-02  0.3353827E+00
         11   -1    0    0    0    0  0.00000000000E+00  0.00000000000E+00  0.39999999674E+01  0.40000000000E+01  0.51100000000E-03 0.  1.
    9000002   -1    0    0    0    0 -0.00000000000E+00 -0.00000000000E+00  0.00000000000E+00  0.93800000000E+00  0.93800000000E+00 0.  1.
         11    1    1    2    0    0 -0.41820223549E-02 -0.10271214796E-01  0.74593479022E-01  0.75415087336E-01  0.51100000000E-03 0.  1.
    9000002    1    1    2    0    0  0.49997506642E-01  0.47731012470E+00  0.15724527909E+00  0.10653144060E+01  0.93800000000E+00 0.  1.
         22    1    1    2    0    0 -0.45815484287E-01 -0.46703890991E+00  0.37681612092E+01  0.37972705067E+01  0.00000000000E+00 0.  1.
</event>
<event>
 5    1  0.6172503E+001  0.1599675E+01  0.7818608E-02  0.3353717E+00
         11   -1    0    0    0    0  0.00000000000E+00  0.00000000000E+00  0.39999999674E+01  0.40000000000E+01  0.51100000000E-03 0. -1.
    9000002   -1    0    0    0    0 -0.00000000000E+00 -0.00000000000E+00  0.00000000000E+00  0.93800000000E+00  0.93800000000E+00 0. -1.
         11    1    1    2    0    0  0.11967408080E+00 -0.36737301634E-02  0.11806728081E+01  0.11867282430E+01  0.51100000000E-03 0. -1.
    9000002    1    1    2    0    0 -0.39129373516E+00  0.16529671092E-01  0.10335305729E+00  0.10217190767E+01  0.93800000000E+00 0. -1.
         22    1    1    2    0    0  0.27161965436E+00 -0.12855940929E-01  0.27159741020E+01  0.27295526803E+01  0.00000000000E+00 0. -1.
</event>
<event>
 5    1  0.6172503E+001  0.1599217E+01  0.7818608E-02  0.3354213E+00
         11   -1    0    0    0    0  0.00000000000E+00  0.00000000000E+00  0.39999999674E+01  0.40000000000E+01  0.51100000000E-03 0. -1.
    9000002   -1    0    0    0    0 -0.00000000000E+00 -0.00000000000E+00  0.00000000000E+00  0.93800000000E+00  0.93800000000E+00 0.  1.
         11    1    1    2    0    0  0.10032541207E+00 -0.51444198696E+00  0.11808739999E+01  0.12919672639E+01  0.51100000000E-03 0. -1.
    9000002    1    1    2    0    0 -0.21789333630E+00  0.11418994755E+01  0.12351670702E+01  0.19382707782E+01  0.93800000000E+00 0.  1.
         22    1    1    2    0    0  0.11756792423E+00 -0.62745748856E+00  0.15839588972E+01  0.17077619579E+01  0.00000000000E+00 0. -1.
</event>
<event>
 5    1  0.6172503E+001  0.1599342E+01  0.7818608E-02  0.3354078E+00
         11   -1    0    0    0    0  0.00000000000E+00  0.00000000000E+00  0.39999999674E+01  0.40000000000E+01  0.51100000000E-03 0.  1.
    9000002   -1    0    0    0    0 -0.00000000000E+00 -0.00000000000E+00  0.00000000000E+00  0.93800000000E+00  0.93800000000E+00 0. -1.
         11    1    1    2    0    0 -0.12985444807E+00  0.10026257644E+00  0.12576232287E+01  0.12682788370E+01  0.51100000000E-03 0.  1.
    9000002    1    1    2    0    0  0.35574542363E+00 -0.26157447413E+00  0.13254958845E+00  0.10451743421E+01  0.93800000000E+00 0. -1.
         22    1    1    2    0    0 -0.22589097556E+00  0.16131189770E+00  0.26098271502E+01  0.26245468209E+01  0.00000000000E+00 0.  1.
</event>
<event>
 5    1  0.6172503E+001  0.1599579E+01  0.7818608E-02  0.3353821E+00
         11   -1    0    0    0    0  0.00000000000E+00  0.00000000000E+00  0.39999999674E+01  0.40000000000E+01  0.51100000000E-03 0.  1.
    9000002   -1    0    0    0    0 -0.00000000000E+00 -0.00000000000E+00  0.00000000000E+00  0.93800000000E+00  0.93800000000E+00 0. -1.
         11    1    1    2    0    0  0.12134562796E+00 -0.51294794414E-01  0.89342102545E+00  0.90308211543E+00  0.51100000000E-03 0.  1.
    9000002    1    1    2    0    0 -0.47469580371E+00  0.21434876721E+00  0.18646604309E+00  0.10889881015E+01  0.93800000000E+00 0. -1.
         22    1    1    2    0    0  0.35335017575E+00 -0.16305397279E+00  0.29201128988E+01  0.29459297830E+01  0.00000000000E+00 0.  1.
</event>
<event>
 5    1  0.6172503E+001  0.1599377E+01  0.7818608E-02  0.3354040E+00
         11   -1    0    0    0    0  0.00000000000E+00  0.00000000000E+00  0.39999999674E+01  0.40000000000E+01  0.51100000000E-03 0. -1.
    9000002   -1    0    0    0    0 -0.00000000000E+00 -0.00000000000E+00  0.00000000000E+00  0.93800000000E+00  0.93800000000E+00 0. -1.
         11    1    1    2    0    0 -0.36410321855E-01  0.71553032610E-02  0.30211525743E+00  0.30438593890E+00  0.51100000000E-03 0. -1.
    9000002    1    1    2    0    0  0.47810756592E+00 -0.23090336765E+00  0.19430171153E+00  0.10952170401E+01  0.93800000000E+00 0. -1.
         22    1    1    2    0    0 -0.44169724406E+00  0.22374806439E+00  0.35035829984E+01  0.35383970210E+01  0.00000000000E+00 0. -1.
</event>
<event>
 5    1  0.6172503E+001  0.1599210E+01  0.7818608E-02  0.3354221E+00
         11   -1    0    0    0    0  0.00000000000E+00  0.00000000000E+00  0.39999999674E+01  0.40000000000E+01  0.51100000000E-03 0.  1.
    9000002   -1    0    0    0    0 -0.00000000000E+00 -0.00000000000E+00  0.00000000000E+00  0.93800000000E+00  0.93800000000E+00 0.  1.
         11    1    1    2    0    0  0.68148467241E-01 -0.18948434515E-01  0.84431086561E+00  0.84726876235E+00  0.51100000000E-03 0.  1.
    9000002    1    1    2    0    0 -0.37145986374E+00  0.59824011807E-02  0.93151176999E-01  0.10131827877E+01  0.93800000000E+00 0.  1.
         22    1    1    2    0    0  0.30331139650E+00  0.12966033335E-01  0.30625379248E+01  0.30775484500E+01  0.00000000000E+00 0.  1.
</event>
<event>
 5    1  0.6172503E+001  0.1594537E+01  0.7818608E-02  0.3359314E+00
         11   -1    0    0    0    0  0.00000000000E+00  0.00000000000E+00  0.39999999674E+01  0.40000000000E+01  0.51100000000E-03 0.  1.
    9000002   -1    0    0    0    0 -0.00000000000E+00 -0.00000000000E+00  0.00000000000E+00  0.93800000000E+00  0.93800000000E+00 0.  1.
         11    1    1    2    0    0 -0.92300783560E-01  0.18085211569E-01  0.50700891841E+00  0.51565959120E+00  0.51100000000E-03 0.  1.
    9000002    1    1    2    0    0  0.36133484354E+00  0.14380665603E+00  0.10612983396E+00  0.10209558096E+01  0.93800000000E+00 0.  1.
         22    1    1    2    0    0 -0.26903405998E+00 -0.16189186760E+00  0.33868612150E+01  0.34013845992E+01  0.00000000000E+00 0.  1.
</event>
<event>
 5    1  0.6172503E+001  0.1599609E+01  0.7818608E-02  0.3353787E+00
         11   -1    0    0    0    0  0.00000000000E+00  0.00000000000E+00  0.39999999674E+01  0.40000000000E+01  0.51100000000E-03 0.  1.
    9000002   -1    0    0    0    0 -0.00000000000E+00 -0.00000000000E+00  0.00000000000E+00  0.93800000000E+00  0.93800000000E+00 0. -1.
         11    1    1    2    0    0  0.11768522170E+00  0.65497649436E-01  0.96647557531E+00  0.97581507074E+00  0.51100000000E-03 0.  1.
    9000002    1    1    2    0    0 -0.43228805798E+00 -0.25378349533E+00  0.17211247673E+00  0.10773791033E+01  0.93800000000E+00 0. -1.
         22    1    1    2    0    0  0.31460283629E+00  0.18828584590E+00  0.28614119153E+01  0.28848058260E+01  0.00000000000E+00 0.  1.
</event>
<event>
 5    1  0.6172503E+001  0.1599672E+01  0.7818608E-02  0.3353719E+00
         11   -1    0    0    0    0  0.00000000000E+00  0.00000000000E+00  0.39999999674E+01  0.40000000000E+01  0.51100000000E-03 0. -1.
    9000002   -1    0    0    0    0 -0.00000000000E+00 -0.00000000000E+00  0.00000000000E+00  0.93800000000E+00  0.93800000000E+00 0. -1.
         11    1    1    2    0    0  0.23682258286E-01 -0.81185506445E-01  0.76110155426E+00  0.76578572253E+00  0.51100000000E-03 0. -1.
    9000002    1    1    2    0    0 -0.11762050839E+00  0.42310099022E+00  0.13077777377E+00  0.10439328800E+01  0.93800000000E+00 0. -1.
         22    1    1    2    0    0  0.93938250102E-01 -0.34191548378E+00  0.31081206393E+01  0.31282813974E+01  0.00000000000E+00 0. -1.
</event>
<event>
 5    1  0.6172503E+001  0.1599675E+01  0.7818608E-02  0.3353716E+00
         11   -1    0    0    0    0  0.00000000000E+00  0.00000000000E+00  0.39999999674E+01  0.40000000000E+01  0.51100000000E-03 0. -1.
    9000002   -1    0    0    0    0 -0.00000000000E+00 -0.00000000000E+00  0.00000000000E+00  0.93800000000E+00  0.93800000000E+00 0. -1.
         11    1    1    2    0    0 -0.35999638857E-01 -0.41825536667E-01  0.38398054223E+00  0.38792611081E+00  0.51100000000E-03 0. -1.
    9000002    1    1    2    0    0  0.36334098580E+00  0.40948382700E+00  0.20690016921E+00  0.11055972850E+01  0.93800000000E+00 0. -1.
         22    1    1    2    0    0 -0.32734134695E+00 -0.36765829033E+00  0.34091192559E+01  0.34444766042E+01  0.00000000000E+00 0. -1.
</event>
<event>
 5    1  0.6172503E+001  0.1599461E+01  0.7818608E-02  0.3353948E+00
         11   -1    0    0    0    0  0.00000000000E+00  0.00000000000E+00  0.39999999674E+01  0.40000000000E+01  0.51100000000E-03 0.  1.
    9000002   -1    0    0    0    0 -0.00000000000E+00 -0.00000000000E+00  0.00000000000E+00  0.93800000000E+00  0.93800000000E+00 0.  1.
         11    1    1    2    0    0  0.89490274904E-01  0.30150960386E+00  0.14503121390E+01  0.14840222748E+01  0.51100000000E-03 0.  1.
    9000002    1    1    2    0    0 -0.23980907252E+00 -0.70782037335E+00  0.40482208197E+00  0.12657973733E+01  0.93800000000E+00 0.  1.
         22    1    1    2    0    0  0.15031879761E+00  0.40631076949E+00  0.21448657464E+01  0.21881803519E+01  0.00000000000E+00 0.  1.
</event>
<event>
 5    1  0.6172503E+001  0.1599675E+01  0.7818608E-02  0.3353716E+00
         11   -1    0    0    0    0  0.00000000000E+00  0.00000000000E+00  0.39999999674E+01  0.40000000000E+01  0.51100000000E-03 0. -1.
    9000002   -1    0    0    0    0 -0.00000000000E+00 -0.00000000000E+00  0.00000000000E+00  0.93800000000E+00  0.93800000000E+00 0.  1.
         11    1    1    2    0    0  0.11073587902E+00 -0.58209466409E-01  0.12456108528E+01  0.12518775638E+01  0.51100000000E-03 0. -1.
    9000002    1    1    2    0    0 -0.34475836270E+00  0.17732039869E+00  0.10122548333E+00  0.10199958093E+01  0.93800000000E+00 0.  1.
         22    1    1    2    0    0  0.23402248368E+00 -0.11911093228E+00  0.26531636312E+01  0.26661266270E+01  0.00000000000E+00 0. -1.
</event>
<event>
 5    1  0.6172503E+001  0.1599676E+01  0.7818608E-02  0.3353715E+00
         11   -1    0    0    0    0  0.00000000000E+00  0.00000000000E+00  0.39999999674E+01  0.40000000000E+01  0.51100000000E-03 0.  1.
    9000002   -1    0    0    0    0 -0.00000000000E+00 -0.00000000000E+00  0.00000000000E+00  0.93800000000E+00  0.93800000000E+00 0.  1.
         11    1    1    2    0    0  0.53723894934E-02  0.13298340764E+00  0.14088650226E+01  0.14151375771E+01  0.51100000000E-03 0.  1.
    9000002    1    1    2    0    0 -0.14466641866E-01 -0.37150817777E+00  0.92914467196E-01  0.10132643821E+01  0.93800000000E+00 0.  1.
         22    1    1    2    0    0  0.90942523724E-02  0.23852477014E+00  0.24982204776E+01  0.25095980407E+01  0.00000000000E+00 0.  1.
</event>
<event>
 5    1  0.6172503E+001  0.1599676E+01  0.7818608E-02  0.3353715E+00
         11   -1    0    0    0    0  0.00000000000E+00  0.00000000000E+00  0.39999999674E+01  0.40000000000E+01  0.51100000000E-03 0.  1.
    9000002   -1    0    0    0    0 -0.00000000000E+00 -0.00000000000E+00  0.00000000000E+00  0.93800000000E+00  0.93800000000E+00 0.  1.
         11    1    1    2    0    0 -0.12773403616E+00  0.24485917831E-01  0.12644002728E+01  0.12710719315E+01  0.51100000000E-03 0.  1.
    9000002    1    1    2    0    0  0.39466967358E+00 -0.78282158526E-01  0.10923352128E+00  0.10264834191E+01  0.93800000000E+00 0.  1.
         22    1    1    2    0    0 -0.26693563742E+00  0.53796240695E-01  0.26263661733E+01  0.26404446494E+01  0.00000000000E+00 0.  1.
</event>
<event>
 5    1  0.6172503E+001  0.1598696E+01  0.7818608E-02  0.3354780E+00
         11   -1    0    0    0    0  0.00000000000E+00  0.00000000000E+00  0.39999999674E+01  0.40000000000E+01  0.51100000000E-03 0. -1.
    9000002   -1    0    0    0    0 -0.00000000000E+00 -0.00000000000E+00  0.00000000000E+00  0.93800000000E+00  0.93800000000E+00 0.  1.
         11    1    1    2    0    0  0.14157720965E+00 -0.15278311533E+00  0.13389679728E+01  0.13550727951E+01  0.51100000000E-03 0. -1.
    9000002    1    1    2    0    0 -0.32254686473E+00  0.37450466166E+00  0.16795028677E+00  0.10734717138E+01  0.93800000000E+00 0.  1.
         22    1    1    2    0    0  0.18096965508E+00 -0.22172154634E+00  0.24930817078E+01  0.25094554911E+01  0.00000000000E+00 0.  1.
</event>
<event>
 5    1  0.6172503E+001  0.1599589E+01  0.7818608E-02  0.3353809E+00
         11   -1    0    0    0    0  0.00000000000E+00  0.00000000000E+00  0.39999999674E+01  0.40000000000E+01  0.51100000000E-03 0. -1.
    9000002   -1    0    0    0    0 -0.00000000000E+00 -0.00000000000E+00  0.00000000000E+00  0.93800000000E+00  0.93800000000E+00 0.  1.
         11    1    1    2    0    0  0.45522222420E-01  0.11078361321E+00  0.10368589948E+01  0.10437538589E+01  0.51100000000E-03 0. -1.
    9000002    1    1    2    0    0 -0.20026665580E+00 -0.39180456130E+00  0.13138642639E+00  0.10443772981E+01  0.93800000000E+00 0.  1.
         22    1    1    2    0    0  0.15474443338E+00  0.28102094809E+00  0.28317545462E+01  0.28498688431E+01  0.00000000000E+00 0. -1.
</event>
<event>
 5    1  0.6172503E+001  0.1542992E+01  0.7818608E-02  0.3417662E+00
         11   -1    0    0    0    0  0.00000000000E+00  0.00000000000E+00  0.39999999674E+01  0.40000000000E+01  0.51100000000E-03 0. -1.
    9000002   -1    0    0    0    0 -0.00000000000E+00 -0.00000000000E+00  0.00000000000E+00  0.93800000000E+00  0.93800000000E+00 0.  1.
         11    1    1    2    0    0  0.23021240556E+00  0.27276779996E-01  0.63013995116E+00  0.67143011071E+00  0.51100000000E-03 0. -1.
    9000002    1    1    2    0    0 -0.25614324771E+00  0.48157029336E+00  0.26070446690E+00  0.11159436051E+01  0.93800000000E+00 0.  1.
         22    1    1    2    0    0  0.25930842150E-01 -0.50884707336E+00  0.31091555493E+01  0.31506262842E+01  0.00000000000E+00 0. -1.
</event>
<event>
 5    1  0.6172503E+001  0.1587837E+01  0.7818608E-02  0.3366671E+00
         11   -1    0    0    0    0  0.00000000000E+00  0.00000000000E+00  0.39999999674E+01  0.40000000000E+01  0.51100000000E-03 0.  1.
    9000002   -1    0    0    0    0 -0.00000000000E+00 -0.00000000000E+00  0.00000000000E+00  0.93800000000E+00  0.93800000000E+00 0. -1.
         11    1    1    2    0    0  0.12086966063E-01 -0.74839966968E-01  0.63483966809E+00  0.63935028013E+00  0.51100000000E-03 0.  1.
    9000002    1    1    2    0    0 -0.33675311019E+00 -0.72837733386E-01  0.89110671325E-01  0.10032410998E+01  0.93800000000E+00 0. -1.
         22    1    1    2    0    0  0.32466614412E+00  0.14767770035E+00  0.32760496279E+01  0.32954086201E+01  0.00000000000E+00 0.  1.
</event>
<event>
 5    1  0.6172503E+001  0.1595988E+01  0.7818608E-02  0.3357730E+00
         11   -1    0    0    0    0  0.00000000000E+00  0.00000000000E+00  0.39999999674E+01  0.40000000000E+01  0.51100000000E-03 0.  1.
    9000002   -1    0    0    0    0 -0.00000000000E+00 -0.00000000000E+00  0.00000000000E+00  0.93800000000E+00  0.93800000000E+00 0.  1.
         11    1    1    2    0    0 -0.71300563994E-02 -0.10278361280E-01  0.33851043757E+00  0.33874187795E+00  0.51100000000E-03 0.  1.
    9000002    1    1    2    0    0 -0.25380917876E+00 -0.21732646761E+00  0.77683152328E-01  0.99876351801E+00  0.93800000000E+00 0.  1.
         22    1    1    2    0    0  0.26093923516E+00  0.22760482889E+00  0.35838063775E+01  0.36004946040E+01  0.00000000000E+00 0.  1.
</event>
<event>
 5    1  0.6172503E+001  0.1599623E+01  0.7818608E-02  0.3353773E+00
         11   -1    0    0    0    0  0.00000000000E+00  0.00000000000E+00  0.39999999674E+01  0.40000000000E+01  0.51100000000E-03 0. -1.
    9000002   -1    0    0    0    0 -0.00000000000E+00 -0.00000000000E+00  0.00000000000E+00  0.93800000000E+00  0.93800000000E+00 0. -1.
         11    1    1    2    0    0  0.31299637314E-01 -0.12339594637E+00  0.12157718868E+01  0.12224188188E+01  0.51100000000E-03 0. -1.
    9000002    1    1    2    0    0 -0.75353003998E-01  0.40344940109E+00  0.11382256993E+00  0.10301694384E+01  0.93800000000E+00 0. -1.
         22    1    1    2    0    0  0.44053366684E-01 -0.28005345472E+00  0.26704055107E+01  0.26854117427E+01  0.00000000000E+00 0. -1.
</event>
<event>
 5    1  0.6172503E+001  0.1599675E+01  0.7818608E-02  0.3353716E+00
         11   -1    0    0    0    0  0.00000000000E+00  0.00000000000E+00  0.39999999674E+01  0.40000000000E+01  0.51100000000E-03 0. -1.
    9000002   -1    0    0    0    0 -0.00000000000E+00 -0.00000000000E+00  0.00000000000E+00  0.93800000000E+00  0.93800000000E+00 0. -1.
         11    1    1    2    0    0  0.32883670844E-01 -0.14229733859E+00  0.13862221273E+01  0.13938945138E+01  0.51100000000E-03 0. -1.
    9000002    1    1    2    0    0 -0.93508523568E-01  0.39523778044E+00  0.11135661747E+00  0.10282028221E+01  0.93800000000E+00 0. -1.
         22    1    1    2    0    0  0.60624852724E-01 -0.25294044185E+00  0.25024212226E+01  0.25159026641E+01  0.00000000000E+00 0. -1.
</event>
<event>
 5    1  0.6172503E+001  0.1599674E+01  0.7818608E-02  0.3353717E+00
         11   -1    0    0    0    0  0.00000000000E+00  0.00000000000E+00  0.39999999674E+01  0.40000000000E+01  0.51100000000E-03 0. -1.
    9000002   -1    0    0    0    0 -0.00000000000E+00 -0.00000000000E+00  0.00000000000E+00  0.93800000000E+00  0.93800000000E+00 0.  1.
         11    1    1    2    0    0  0.13682649097E+00  0.51740767728E-01  0.12948565350E+01  0.13030933592E+01  0.51100000000E-03 0. -1.
    9000002    1    1    2    0    0 -0.41409532160E+00 -0.15465677131E+00  0.13255629574E+00  0.10453749680E+01  0.93800000000E+00 0.  1.
         22    1    1    2    0    0  0.27726883063E+00  0.10291600358E+00  0.25725871367E+01  0.25895316727E+01  0.00000000000E+00 0. -1.
</event>
<event>
 5    1  0.6172503E+001  0.1598087E+01  0.7818608E-02  0.3355442E+00
         11   -1    0    0    0    0  0.00000000000E+00  0.00000000000E+00  0.39999999674E+01  0.40000000000E+01  0.51100000000E-03 0. -1.
    9000002   -1    0    0    0    0 -0.00000000000E+00 -0.00000000000E+00  0.00000000000E+00  0.93800000000E+00  0.93800000000E+00 0. -1.
         11    1    1    2    0    0  0.21325096078E-01  0.29147047810E-01  0.33516755399E+00  0.33710808428E+00  0.51100000000E-03 0. -1.
    9000002    1    1    2    0    0  0.18929287052E-01 -0.49770443529E+00  0.17119215015E+00  0.10757410353E+01  0.93800000000E+00 0. -1.
         22    1    1    2    0    0 -0.40254383130E-01  0.46855738748E+00  0.34936402632E+01  0.35251508804E+01  0.00000000000E+00 0. -1.
</event>
<event>
 5    1  0.6172503E+001  0.1598731E+01  0.7818608E-02  0.3354741E+00
         11   -1    0    0    0    0  0.00000000000E+00  0.00000000000E+00  0.39999999674E+01  0.40000000000E+01  0.51100000000E-03 0.  1.
    9000002   -1    0    0    0    0 -0.00000000000E+00 -0.00000000000E+00  0.00000000000E+00  0.93800000000E+00  0.93800000000E+00 0. -1.
         11    1    1    2    0    0  0.38030598218E-01 -0.19690941761E-01  0.80933011382E+00  0.81046255549E+00  0.51100000000E-03 0.  1.
    9000002    1    1    2    0    0 -0.32793410562E+00  0.11677403662E+00  0.81994381581E-01  0.10038645486E+01  0.93800000000E+00 0. -1.
         22    1    1    2    0    0  0.28990350741E+00 -0.97083094856E-01  0.31086754720E+01  0.31236728959E+01  0.00000000000E+00 0.  1.
</event>
<event>
 5    1  0.6172503E+001  0.1597539E+01  0.7818608E-02  0.3356039E+00
         11   -1    0    0    0    0  0.00000000000E+00  0.00000000000E+00  0.39999999674E+01  0.40000000000E+01  0.51100000000E-03 0. -1.
    9000002   -1    0    0    0    0 -0.00000000000E+00 -0.00000000000E+00  0.00000000000E+00  0.93800000000E+00  0.93800000000E+00 0. -1.
         11    1    1    2    0    0 -0.18034229561E-01  0.20894558652E-01  0.10044491586E+00  0.10416937295E+00  0.51100000000E-03 0. -1.
    9000002    1    1    2    0    0  0.66145852828E+00 -0.97400536596E-01  0.31918079003E+00  0.11952968777E+01  0.93800000000E+00 0. -1.
         22    1    1    2    0    0 -0.64342429872E+00  0.76505977945E-01  0.35803742615E+01  0.36385337493E+01  0.00000000000E+00 0. -1.
</event>
<event>
 5    1  0.6172503E+001  0.1508848E+01  0.7818608E-02  0.3458655E+00
         11   -1    0    0    0    0  0.00000000000E+00  0.00000000000E+00  0.39999999674E+01  0.40000000000E+01  0.51100000000E-03 0. -1.
    9000002   -1    0    0    0    0 -0.00000000000E+00 -0.00000000000E+00  0.00000000000E+00  0.93800000000E+00  0.93800000000E+00 0.  1.
         11    1    1    2    0    0  0.19045489712E+00 -0.15006442820E-01  0.27669993362E+00  0.33624600451E+00  0.51100000000E-03 0. -1.
    9000002    1    1    2    0    0  0.76341194383E-02 -0.32128385170E+00  0.14481348722E+00  0.10020461762E+01  0.93800000000E+00 0.  1.
         22    1    1    2    0    0 -0.19808901656E+00  0.33629029452E+00  0.35784865465E+01  0.35997078193E+01  0.00000000000E+00 0. -1.
</event>
<event>
 5    1  0.6172503E+001  0.1599676E+01  0.7818608E-02  0.3353716E+00
         11   -1    0    0    0    0  0.00000000000E+00  0.00000000000E+00  0.39999999674E+01  0.40000000000E+01  0.51100000000E-03 0.  1.
    9000002   -1    0    0    0    0 -0.00000000000E+00 -0.00000000000E+00  0.00000000000E+00  0.93800000000E+00  0.93800000000E+00 0.  1.
         11    1    1    2    0    0  0.10544823123E-01  0.14357973541E-01  0.17297746048E+00  0.17389309260E+00  0.51100000000E-03 0.  1.
    9000002    1    1    2    0    0 -0.23245945565E+00 -0.32995678899E+00  0.10993785873E+00  0.10270536568E+01  0.93800000000E+00 0.  1.
         22    1    1    2    0    0  0.22191463253E+00  0.31559881545E+00  0.37170846482E+01  0.37370532506E+01  0.00000000000E+00 0.  1.
</event>
<event>
 5    1  0.6172503E+001  0.1599033E+01  0.7818608E-02  0.3354414E+00
         11   -1    0    0    0    0  0.00000000000E+00  0.00000000000E+00  0.39999999674E+01  0.40000000000E+01  0.51100000000E-03 0. -1.
    9000002   -1    0    0    0    0 -0.00000000000E+00 -0.00000000000E+00  0.00000000000E+00  0.93800000000E+00  0.93800000000E+00 0. -1.
         11    1    1    2    0    0 -0.71566748342E-01 -0.26765376323E-01  0.50707362991E+00  0.51279831524E+00  0.51100000000E-03 0. -1.
    9000002    1    1    2    0    0  0.38843547811E+00  0.22372712105E+00  0.13699321681E+00  0.10485929080E+01  0.93800000000E+00 0. -1.
         22    1    1    2    0    0 -0.31686872976E+00 -0.19696174473E+00  0.33559331206E+01  0.33766087767E+01  0.00000000000E+00 0. -1.
</event>
<event>
 5    1  0.6172503E+001  0.1599676E+01  0.7818608E-02  0.3353715E+00
         11   -1    0    0    0    0  0.00000000000E+00  0.00000000000E+00  0.39999999674E+01  0.40000000000E+01  0.51100000000E-03 0. -1.
    9000002   -1    0    0    0    0 -0.00000000000E+00 -0.00000000000E+00  0.00000000000E+00  0.93800000000E+00  0.93800000000E+00 0.  1.
         11    1    1    2    0    0 -0.13577072920E+00 -0.10564641828E+00  0.11140516834E+01  0.11272560805E+01  0.51100000000E-03 0. -1.
    9000002    1    1    2    0    0  0.46157700644E+00  0.35511739507E+00  0.23576196701E+00  0.11289771487E+01  0.93800000000E+00 0.  1.
         22    1    1    2    0    0 -0.32580627724E+00 -0.24947097679E+00  0.26501863169E+01  0.26817667708E+01  0.00000000000E+00 0. -1.
</event>
<event>
 5    1  0.6172503E+001  0.1599327E+01  0.7818608E-02  0.3354094E+00
         11   -1    0    0    0    0  0.00000000000E+00  0.00000000000E+00  0.39999999674E+01  0.40000000000E+01  0.51100000000E-03 0.  1.
    9000002   -1    0    0    0    0 -0.00000000000E+00 -0.00000000000E+00  0.00000000000E+00  0.93800000000E+00  0.93800000000E+00 0. -1.
         11    1    1    2    0    0  0.17788018005E-01  0.17224853834E+00  0.99916811126E+00  0.10140626944E+01  0.51100000000E-03 0.  1.
    9000002    1    1    2    0    0 -0.11248190586E+00 -0.58694612868E+00  0.24940934678E+00  0.11398276007E+01  0.93800000000E+00 0. -1.
         22    1    1    2    0    0  0.94693887854E-01  0.41469759034E+00  0.27514225093E+01  0.27841097048E+01  0.00000000000E+00 0.  1.
</event>
<event>
 5    1  0.6172503E+001  0.1599658E+01  0.7818608E-02  0.3353735E+00
         11   -1    0    0    0    0  0.00000000000E+00  0.00000000000E+00  0.39999999674E+01  0.40000000000E+01  0.51100000000E-03 0.  1.
    9000002   -1    0    0    0    0 -0.00000000000E+00 -0.00000000000E+00  0.00000000000E+00  0.93800000000E+00  0.93800000000E+00 0. -1.
         11    1    1    2    0    0  0.22675367330E-01  0.26326318459E-01  0.27576314735E+00  0.27794391860E+00  0.51100000000E-03 0.  1.
    9000002    1    1    2    0    0 -0.27990002039E+00 -0.36304449059E+00  0.14292332590E+00  0.10537629718E+01  0.93800000000E+00 0. -1.
         22    1    1    2    0    0  0.25722465306E+00  0.33671817213E+00  0.35813134941E+01  0.36062931096E+01  0.00000000000E+00 0.  1.
</event>
<event>
 5    1  0.6172503E+001  0.1599582E+01  0.7818608E-02  0.3353817E+00
         11   -1    0    0    0    0  0.00000000000E+00  0.00000000000E+00  0.39999999674E+01  0.40000000000E+01  0.51100000000E-03 0.  1.
    9000002   -1    0    0    0    0 -0.00000000000E+00 -0.00000000000E+00  0.00000000000E+00  0.93800000000E+00  0.93800000000E+00 0. -1.
         11    1    1    2    0    0 -0.52101826187E-01 -0.12143287435E+00  0.96770484187E+00  0.97668493659E+00  0.51100000000E-03 0.  1.
    9000002    1    1    2    0    0  0.16829711265E+00  0.46683649554E+00  0.16855845298E+00  0.10744841477E+01  0.93800000000E+00 0. -1.
         22    1    1    2    0    0 -0.11619528646E+00 -0.34540362119E+00  0.28637366725E+01  0.28868309157E+01  0.00000000000E+00 0.  1.
</event>
<event>
 5    1  0.6172503E+001  0.1599641E+01  0.7818608E-02  0.3353753E+00
         11   -1    0    0    0    0  0.00000000000E+00  0.00000000000E+00  0.39999999674E+01  0.40000000000E+01  0.51100000000E-03 0.  1.
    9000002   -1    0    0    0    0 -0.00000000000E+00 -0.00000000000E+00  0.00000000000E+00  0.93800000000E+00  0.93800000000E+00 0. -1.
         11    1    1    2    0    0  0.21198550892E-01  0.59057875617E-01  0.64388282044E+00  0.64693319502E+00  0.51100000000E-03 0.  1.
    9000002    1    1    2    0    0 -0.10281468627E+00 -0.37742971333E+00  0.10313226491E+00  0.10215205883E+01  0.93800000000E+00 0. -1.
         22    1    1    2    0    0  0.81616135373E-01  0.31837183771E+00  0.32529848820E+01  0.32695462167E+01  0.00000000000E+00 0.  1.
</event>
<event>
 5    1  0.6172503E+001  0.1588592E+01  0.7818608E-02  0.3365840E+00
         11   -1    0    0    0    0  0.00000000000E+00  0.00000000000E+00  0.39999999674E+01  0.40000000000E+01  0.51100000000E-03 0. -1.
    9000002   -1    0    0    0    0 -0.00000000000E+00 -0.00000000000E+00  0.00000000000E+00  0.93800000000E+00  0.93800000000E+00 0. -1.
         11    1    1    2    0    0  0.56834431822E-01 -0.27330958293E-01  0.59050632758E+00  0.59386456196E+00  0.51100000000E-03 0. -1.
    9000002    1    1    2    0    0  0.15202890093E-01 -0.27434266757E+00  0.58868193498E-01  0.97918562659E+00  0.93800000000E+00 0. -1.
         22    1    1    2    0    0 -0.72037321915E-01  0.30167362586E+00  0.33506254463E+01  0.33649498114E+01  0.00000000000E+00 0. -1.
</event>
<event>
 5    1  0.7737895E+001  0.1597241E+01  0.7818608E-02  0.3356363E+00
         11   -1    0    0    0    0  0.00000000000E+00  0.00000000000E+00  0.39999999674E+01  0.40000000000E+01  0.51100000000E-03 0. -1.
    9000002   -1    0    0    0    0 -0.00000000000E+00 -0.00000000000E+00  0.00000000000E+00  0.93800000000E+00  0.93800000000E+00 0.  1.
         11    1    1    2    0    0 -0.62728431428E-01 -0.35282617229E-01  0.11834452434E+01  0.11856317407E+01  0.51100000000E-03 0. -1.
    9000002    1    1    2    0    0  0.15874907529E+00  0.29111376026E+00  0.75518708858E-01  0.99774524088E+00  0.93800000000E+00 0.  1.
         22    1    1    2    0    0 -0.96020643861E-01 -0.25583114303E+00  0.27410360151E+01  0.27546230184E+01  0.00000000000E+00 0. -1.
</event>
<event>
 5    1  0.6172503E+001  0.1560468E+01  0.7818608E-02  0.3397420E+00
         11   -1    0    0    0    0  0.00000000000E+00  0.00000000000E+00  0.39999999674E+01  0.40000000000E+01  0.51100000000E-03 0.  1.
    9000002   -1    0    0    0    0 -0.00000000000E+00 -0.00000000000E+00  0.00000000000E+00  0.93800000000E+00  0.93800000000E+00 0.  1.
         11    1    1    2    0    0  0.65860906566E-01 -0.63829461818E-01  0.13455387345E+01  0.13486610421E+01  0.51100000000E-03 0.  1.
    9000002    1    1    2    0    0  0.44736524426E+00  0.46680132309E-01  0.17208540498E+00  0.10544060333E+01  0.93800000000E+00 0.  1.
         22    1    1    2    0    0 -0.51322615083E+00  0.17149329509E-01  0.24823758279E+01  0.25349329246E+01  0.00000000000E+00 0.  1.
</event>
<event>
 5    1  0.6172503E+001  0.1599673E+01  0.7818608E-02  0.3353719E+00
         11   -1    0    0    0    0  0.00000000000E+00  0.00000000000E+00  0.39999999674E+01  0.40000000000E+01  0.51100000000E-03 0. -1.
    9000002   -1    0    0    0    0 -0.00000000000E+00 -0.00000000000E+00  0.00000000000E+00  0.93800000000E+00  0.93800000000E+00 0.  1.
         11    1    1    2    0    0  0.43777536429E-01  0.28162702098E-01  0.56821301803E+00  0.57059259149E+00  0.51100000000E-03 0. -1.
    9000002    1    1    2    0    0 -0.29321267832E+00 -0.20228258511E+00  0.85144739265E-01  0.10069684929E+01  0.93800000000E+00 0.  1.
         22    1    1    2    0    0  0.24943514190E+00  0.17411988302E+00  0.33466422101E+01  0.33604389157E+01  0.00000000000E+00 0. -1.
</event>
<event>
 5    1  0.6172503E+001  0.1598958E+01  0.7818608E-02  0.3354495E+00
         11   -1    0    0    0    0  0.00000000000E+00  0.00000000000E+00  0.39999999674E+01  0.40000000000E+01  0.51100000000E-03 0. -1.
    9000002   -1    0    0    0    0 -0.00000000000E+00 -0.00000000000E+00  0.00000000000E+00  0.93800000000E+00  0.93800000000E+00 0. -1.
         11    1    1    2    0    0 -0.12989403968E-01  0.26818675921E-01  0.17010783673E+00  0.17269888022E+00  0.51100000000E-03 0. -1.
    9000002    1    1    2    0    0  0.41800622930E-01 -0.44425444072E+00  0.13577609561E+00  0.10475630999E+01  0.93800000000E+00 0. -1.
         22    1    1    2    0    0 -0.28811218962E-01  0.41743576480E+00  0.36941160350E+01  0.37177380199E+01  0.00000000000E+00 0. -1.
</event>
<event>
 5    1  0.6172503E+001  0.1599669E+01  0.7818608E-02  0.3353723E+00
         11   -1    0    0    0    0  0.00000000000E+00  0.00000000000E+00  0.39999999674E+01  0.40000000000E+01  0.51100000000E-03 0.  1.
    9000002   -1    0    0    0    0 -0.00000000000E+00 -0.00000000000E+00  0.00000000000E+00  0.93800000000E+00  0.93800000000E+00 0. -1.
         11    1    1    2    0    0  0.24148251913E-01 -0.84536622381E-01  0.98036217320E+00  0.98429661706E+00  0.51100000000E-03 0.  1.
    9000002    1    1    2    0    0 -0.10768871931E+00  0.34033401526E+00  0.85511887765E-01  0.10072638111E+01  0.93800000000E+00 0. -1.
         22    1    1    2    0    0  0.83540467398E-01 -0.25579739288E+00  0.29341259064E+01  0.29464395718E+01  0.00000000000E+00 0.  1.
</event>
<event>
 5    1  0.6172503E+001  0.1599666E+01  0.7818608E-02  0.3353726E+00
         11   -1    0    0    0    0  0.00000000000E+00  0.00000000000E+00  0.39999999674E+01  0.40000000000E+01  0.51100000000E-03 0. -1.
    9000002   -1    0    0    0    0 -0.00000000000E+00 -0.00000000000E+00  0.00000000000E+00  0.93800000000E+00  0.93800000000E+00 0.  1.
         11    1    1    2    0    0 -0.12875151426E+00 -0.87292813670E-02  0.10480250115E+01  0.10559402628E+01  0.51100000000E-03 0. -1.
    9000002    1    1    2    0    0  0.46941299097E+00  0.44836940079E-01  0.15152735816E+00  0.10607372189E+01  0.93800000000E+00 0.  1.
         22    1    1    2    0    0 -0.34066147670E+00 -0.36107658712E-01  0.28004475977E+01  0.28213225183E+01  0.00000000000E+00 0. -1.
</event>
<event>
 5    1  0.6172503E+001  0.1599671E+01  0.7818608E-02  0.3353720E+00
         11   -1    0    0    0    0  0.00000000000E+00  0.00000000000E+00  0.39999999674E+01  0.40000000000E+01  0.51100000000E-03 0.  1.
    9000002   -1    0    0    0    0 -0.00000000000E+00 -0.00000000000E+00  0.00000000000E+00  0.93800000000E+00  0.93800000000E+00 0.  1.
         11    1    1    2    0    0  0.94571389909E-01 -0.77934994136E-01  0.95822709871E+00  0.96603159624E+00  0.51100000000E-03 0.  1.
    9000002    1    1    2    0    0 -0.38483463097E+00  0.31880749965E+00  0.17095595356E+00  0.10764784499E+01  0.93800000000E+00 0.  1.
         22    1    1    2    0    0  0.29026324106E+00 -0.24087250552E+00  0.28708169151E+01  0.28954899539E+01  0.00000000000E+00 0.  1.
</event>
<event>
 5    1  0.6172503E+001  0.1541923E+01  0.7818608E-02  0.3418916E+00
         11   -1    0    0    0    0  0.00000000000E+00  0.00000000000E+00  0.39999999674E+01  0.40000000000E+01  0.51100000000E-03 0. -1.
    9000002   -1    0    0    0    0 -0.00000000000E+00 -0.00000000000E+00  0.00000000000E+00  0.93800000000E+00  0.93800000000E+00 0. -1.
         11    1    1    2    0    0  0.71619901193E-01 -0.19297294046E+00  0.11562020774E+01  0.11743813141E+01  0.51100000000E-03 0. -1.
    9000002    1    1    2    0    0  0.86395639000E-02 -0.20377987848E+00  0.72214665226E-01  0.96263172543E+00  0.93800000000E+00 0. -1.
         22    1    1    2    0    0 -0.80259465093E-01  0.39675281895E+00  0.27715832248E+01  0.28009869605E+01  0.00000000000E+00 0. -1.
</event>
<event>
 5    1  0.6172503E+001  0.1599597E+01  0.7818608E-02  0.3353801E+00
         11   -1    0    0    0    0  0.00000000000E+00  0.00000000000E+00  0.39999999674E+01  0.40000000000E+01  0.51100000000E-03 0. -1.
    9000002   -1    0    0    0    0 -0.00000000000E+00 -0.00000000000E+00  0.00000000000E+00  0.93800000000E+00  0.93800000000E+00 0. -1.
         11    1    1    2    0    0  0.11287990038E+00  0.17433544384E+00  0.12809110057E+01  0.12976393892E+01  0.51100000000E-03 0. -1.
    9000002    1    1    2    0    0 -0.30128688154E+00 -0.51695440089E+00  0.24977823093E+00  0.11402845269E+01  0.93800000000E+00 0. -1.
         22    1    1    2    0    0  0.18840698116E+00  0.34261895704E+00  0.24693107308E+01  0.25000760839E+01  0.00000000000E+00 0. -1.
</event>
<event>
 5    1  0.6172503E+001  0.1599649E+01  0.7818608E-02  0.3353744E+00
         11   -1    0    0    0    0  0.00000000000E+00  0.00000000000E+00  0.39999999674E+01  0.40000000000E+01  0.51100000000E-03 0. -1.
    9000002   -1    0    0    0    0 -0.00000000000E+00 -0.00000000000E+00  0.00000000000E+00  0.93800000000E+00  0.93800000000E+00 0.  1.
         11    1    1    2    0    0  0.19543029317E-01 -0.46437165281E-01  0.60567620608E+00  0.60776826838E+00  0.51100000000E-03 0. -1.
    9000002    1    1    2    0    0 -0.14281003276E+00  0.32497383655E+00  0.84555354285E-01  0.10064771770E+01  0.93800000000E+00 0.  1.
         22    1    1    2    0    0  0.12326700345E+00 -0.27853667127E+00  0.33097684070E+01  0.33237545546E+01  0.00000000000E+00 0. -1.
</event>
<event>
 5    1  0.6172503E+001  0.1599604E+01  0.7818608E-02  0.3353794E+00
         11   -1    0    0    0    0  0.00000000000E+00  0.00000000000E+00  0.39999999674E+01  0.40000000000E+01  0.51100000000E-03 0. -1.
    9000002   -1    0    0    0    0 -0.00000000000E+00 -0.00000000000E+00  0.00000000000E+00  0.93800000000E+00  0.93800000000E+00 0. -1.
         11    1    1    2    0    0 -0.43306693499E-01 -0.15466559953E+00  0.12288952222E+01  0.12393468625E+01  0.51100000000E-03 0. -1.
    9000002    1    1    2    0    0  0.10780056670E+00  0.47115045331E+00  0.15954217564E+00  0.10671932429E+01  0.93800000000E+00 0. -1.
         22    1    1    2    0    0 -0.64493873199E-01 -0.31648485377E+00  0.26115625695E+01  0.26314598946E+01  0.00000000000E+00 0. -1.
</event>
<event>
 5    1  0.6172503E+001  0.1598296E+01  0.7818608E-02  0.3355215E+00
         11   -1    0    0    0    0  0.00000000000E+00  0.00000000000E+00  0.39999999674E+01  0.40000000000E+01  0.51100000000E-03 0. -1.
    9000002   -1    0    0    0    0 -0.00000000000E+00 -0.00000000000E+00  0.00000000000E+00  0.93800000000E+00  0.93800000000E+00 0.  1.
         11    1    1    2    0    0 -0.32782926741E-01 -0.30350858394E-01  0.19522693866E+00  0.20027409616E+00  0.51100000000E-03 0. -1.
    9000002    1    1    2    0    0  0.37384030788E+00  0.31270824509E+00  0.16350406446E+00  0.10696357331E+01  0.93800000000E+00 0.  1.
         22    1    1    2    0    0 -0.34105738114E+00 -0.28235738670E+00  0.36412689642E+01  0.36680901708E+01  0.00000000000E+00 0. -1.
</event>
<event>
 5    1  0.6172503E+001  0.1592607E+01  0.7818608E-02  0.3361427E+00
         11   -1    0    0    0    0  0.00000000000E+00  0.00000000000E+00  0.39999999674E+01  0.40000000000E+01  0.51100000000E-03 0. -1.
    9000002   -1    0    0    0    0 -0.00000000000E+00 -0.00000000000E+00  0.00000000000E+00  0.93800000000E+00  0.93800000000E+00 0. -1.
         11    1    1    2    0    0 -0.36780803582E-01  0.10957101735E-01  0.23060597006E+00  0.23377822854E+00  0.51100000000E-03 0. -1.
    9000002    1    1    2    0    0  0.11632128698E+00  0.44577002216E+00  0.15056701007E+00  0.10558200505E+01  0.93800000000E+00 0. -1.
         22    1    1    2    0    0 -0.79540483393E-01 -0.45672712390E+00  0.36188269872E+01  0.36484017210E+01  0.00000000000E+00 0. -1.
</event>
<event>
 5    1  0.8780695E+001  0.1592949E+01  0.7818608E-02  0.3361052E+00
         11   -1    0    0    0    0  0.00000000000E+00  0.00000000000E+00  0.39999999674E+01  0.40000000000E+01  0.51100000000E-03 0.  1.
    9000002   -1    0    0    0    0 -0.00000000000E+00 -0.00000000000E+00  0.00000000000E+00  0.93800000000E+00  0.93800000000E+00 0.  1.
         11    1    1    2    0    0  0.47936528400E-01  0.90174251075E-01  0.11595797433E+01  0.11640681889E+01  0.51100000000E-03 0.  1.
    9000002    1    1    2    0    0  0.13931975096E+00 -0.26068793529E+00  0.63532832000E-01  0.98551946371E+00  0.93800000000E+00 0.  1.
         22    1    1    2    0    0 -0.18725627936E+00  0.17051368421E+00  0.27768873921E+01  0.27884123474E+01  0.00000000000E+00 0.  1.
</event>
<event>
 5    1  0.6172503E+001  0.1599639E+01  0.7818608E-02  0.3353756E+00
         11   -1    0    0    0    0  0.00000000000E+00  0.00000000000E+00  0.39999999674E+01  0.40000000000E+01  0.51100000000E-03 0.  1.
    9000002   -1    0    0    0    0 -0.00000000000E+00 -0.00000000000E+00  0.00000000000E+00  0.93800000000E+00  0.93800000000E+00 0. -1.
         11    1    1    2    0    0  0.44892859225E-01  0.27158534538E-01  0.43250315936E+00  0.43567441833E+00  0.51100000000E-03 0.  1.
    9000002    1    1    2    0    0 -0.43771187899E+00 -0.25041511970E+00  0.17424267376E+00  0.10791218330E+01  0.93800000000E+00 0. -1.
         22    1    1    2    0    0  0.39281901977E+00  0.22325658516E+00  0.33932541342E+01  0.34232037486E+01  0.00000000000E+00 0.  1.
</event>
<event>
 5    1  0.6172503E+001  0.1564027E+01  0.7818608E-02  0.3393357E+00
         11   -1    0    0    0    0  0.00000000000E+00  0.00000000000E+00  0.39999999674E+01  0.40000000000E+01  0.51100000000E-03 0. -1.
    9000002   -1    0    0    0    0 -0.00000000000E+00 -0.00000000000E+00  0.00000000000E+00  0.93800000000E+00  0.93800000000E+00 0.  1.
         11    1    1    2    0    0  0.12493954368E+00  0.54889621739E-01  0.11845632361E+01  0.11923980383E+01  0.51100000000E-03 0. -1.
    9000002    1    1    2    0    0  0.21335510156E+00  0.10838485684E+00  0.65641195956E-01  0.97026823258E+00  0.93800000000E+00 0.  1.
         22    1    1    2    0    0 -0.33829464524E+00 -0.16327447857E+00  0.27497955353E+01  0.27753337291E+01  0.00000000000E+00 0. -1.
</event>
<event>
 5    1  0.6172503E+001  0.1599599E+01  0.7818608E-02  0.3353798E+00
         11   -1    0    0    0    0  0.00000000000E+00  0.00000000000E+00  0.39999999674E+01  0.40000000000E+01  0.51100000000E-03 0.  1.
    9000002   -1    0    0    0    0 -0.00000000000E+00 -0.00000000000E+00  0.00000000000E+00  0.93800000000E+00  0.93800000000E+00 0. -1.
         11    1    1    2    0    0 -0.57220378649E-01  0.46435873415E-01  0.80478892280E+00  0.80815588438E+00  0.51100000000E-03 0.  1.
    9000002    1    1    2    0    0  0.31790879398E+00 -0.23273851965E+00  0.10469240142E+00  0.10227598539E+01  0.93800000000E+00 0. -1.
         22    1    1    2    0    0 -0.26068841533E+00  0.18630264623E+00  0.30905186431E+01  0.31070842617E+01  0.00000000000E+00 0.  1.
</event>
<event>
 5    1  0.6172503E+001  0.1599078E+01  0.7818608E-02  0.3354365E+00
         11   -1    0    0    0    0  0.00000000000E+00  0.00000000000E+00  0.39999999674E+01  0.40000000000E+01  0.51100000000E-03 0. -1.
    9000002   -1    0    0    0    0 -0.00000000000E+00 -0.00000000000E+00  0.00000000000E+00  0.93800000000E+00  0.93800000000E+00 0. -1.
         11    1    1    2    0    0 -0.13606338532E-01  0.42870674339E-01  0.17811719912E+00  0.18370907683E+00  0.51100000000E-03 0. -1.
    9000002    1    1    2    0    0  0.28995522807E+00 -0.61748289165E+00  0.33167715786E+00  0.12063220519E+01  0.93800000000E+00 0. -1.
         22    1    1    2    0    0 -0.27634888954E+00  0.57461221731E+00  0.34902056104E+01  0.35479688713E+01  0.00000000000E+00 0. -1.
</event>
<event>
 5    1  0.6172503E+001  0.1599674E+01  0.7818608E-02  0.3353717E+00
         11   -1    0    0    0    0  0.00000000000E+00  0.00000000000E+00  0.39999999674E+01  0.40000000000E+01  0.51100000000E-03 0.  1.
    9000002   -1    0    0    0    0 -0.00000000000E+00 -0.00000000000E+00  0.00000000000E+00  0.93800000000E+00  0.93800000000E+00 0.  1.
         11    1    1    2    0    0  0.30086099775E-01 -0.58456785512E-01  0.50501620518E+00  0.50927791802E+00  0.51100000000E-03 0. -1.
    9000002    1    1    2    0    0 -0.23683655411E+00  0.43989215144E+00  0.17085360418E+00  0.10763975159E+01  0.93800000000E+00 0.  1.
         22    1    1    2    0    0  0.20675045434E+00 -0.38143536592E+00  0.33241301580E+01  0.33523245660E+01  0.00000000000E+00 0.  1.
</event>
<event>
 5    1  0.6172503E+001  0.1599436E+01  0.7818608E-02  0.3353976E+00
         11   -1    0    0    0    0  0.00000000000E+00  0.00000000000E+00  0.39999999674E+01  0.40000000000E+01  0.51100000000E-03 0.  1.
    9000002   -1    0    0    0    0 -0.00000000000E+00 -0.00000000000E+00  0.00000000000E+00  0.93800000000E+00  0.93800000000E+00 0. -1.
         11    1    1    2    0    0  0.60757986473E-03  0.13670005193E-02  0.25610726553E-01  0.25659467634E-01  0.51100000000E-03 0.  1.
    9000002    1    1    2    0    0  0.35975366068E+00 -0.22455540694E+00  0.12190388200E+00  0.10366061854E+01  0.93800000000E+00 0. -1.
         22    1    1    2    0    0 -0.36036124054E+00  0.22318840642E+00  0.38524853588E+01  0.38757343470E+01  0.00000000000E+00 0.  1.
</event>
<event>
 5    1  0.6172503E+001  0.1599672E+01  0.7818608E-02  0.3353720E+00
         11   -1    0    0    0    0  0.00000000000E+00  0.00000000000E+00  0.39999999674E+01  0.40000000000E+01  0.51100000000E-03 0.  1.
    9000002   -1    0    0    0    0 -0.00000000000E+00 -0.00000000000E+00  0.00000000000E+00  0.93800000000E+00  0.93800000000E+00 0.  1.
         11    1    1    2    0    0  0.53570182944E-01 -0.38503569264E-01  0.69262781136E+00  0.69576277246E+00  0.51100000000E-03 0.  1.
    9000002    1    1    2    0    0 -0.31307597500E+00  0.21287580157E+00  0.96428022218E-01  0.10161077878E+01  0.93800000000E+00 0.  1.
         22    1    1    2    0    0  0.25950579206E+00 -0.17437223231E+00  0.32109441338E+01  0.32261294397E+01  0.00000000000E+00 0.  1.
</event>
<event>
 5    1  0.6172503E+001  0.1599416E+01  0.7818608E-02  0.3353998E+00
         11   -1    0    0    0    0  0.00000000000E+00  0.00000000000E+00  0.39999999674E+01  0.40000000000E+01  0.51100000000E-03 0. -1.
    9000002   -1    0    0    0    0 -0.00000000000E+00 -0.00000000000E+00  0.00000000000E+00  0.93800000000E+00  0.93800000000E+00 0.  1.
         11    1    1    2    0    0  0.10839893435E+00 -0.26355157302E-02  0.12838938017E+01  0.12884645242E+01  0.51100000000E-03 0. -1.
    9000002    1    1    2    0    0 -0.33849736224E+00  0.63301277988E-01  0.79674929615E-01  0.10023869564E+01  0.93800000000E+00 0.  1.
         22    1    1    2    0    0  0.23009842789E+00 -0.60665762257E-01  0.26364312360E+01  0.26471485194E+01  0.00000000000E+00 0. -1.
</event>
<event>
 5    1  0.6172503E+001  0.1541113E+01  0.7818608E-02  0.3419867E+00
         11   -1    0    0    0    0  0.00000000000E+00  0.00000000000E+00  0.39999999674E+01  0.40000000000E+01  0.51100000000E-03 0. -1.
    9000002   -1    0    0    0    0 -0.00000000000E+00 -0.00000000000E+00  0.00000000000E+00  0.93800000000E+00  0.93800000000E+00 0. -1.
         11    1    1    2    0    0  0.23993158537E+00 -0.12264389645E-01  0.73576854349E+00  0.77399818580E+00  0.51100000000E-03 0. -1.
    9000002    1    1    2    0    0 -0.69242246844E-01  0.24391712290E+00  0.88971388162E-01  0.97573047483E+00  0.93800000000E+00 0. -1.
         22    1    1    2    0    0 -0.17068933852E+00 -0.23165273326E+00  0.31752600357E+01  0.31882713394E+01  0.00000000000E+00 0. -1.
</event>
<event>
 5    1  0.6172503E+001  0.1599646E+01  0.7818608E-02  0.3353748E+00
         11   -1    0    0    0    0  0.00000000000E+00  0.00000000000E+00  0.39999999674E+01  0.40000000000E+01  0.51100000000E-03 0.  1.
    9000002   -1    0    0    0    0 -0.00000000000E+00 -0.00000000000E+00  0.00000000000E+00  0.93800000000E+00  0.93800000000E+00 0.  1.
         11    1    1    2    0    0  0.17638938629E+00 -0.15096886949E-01  0.12789104199E+01  0.12911054391E+01  0.51100000000E-03 0.  1.
    9000002    1    1    2    0    0 -0.52968710337E+00  0.63084232257E-01  0.19596131617E+00  0.10967191460E+01  0.93800000000E+00 0.  1.
         22    1    1    2    0    0  0.35329771708E+00 -0.47987345308E-01  0.25251282313E+01  0.25501754149E+01  0.00000000000E+00 0.  1.
</event>
<event>
 5    1  0.6172503E+001  0.1599120E+01  0.7818608E-02  0.3354319E+00
         11   -1    0    0    0    0  0.00000000000E+00  0.00000000000E+00  0.39999999674E+01  0.40000000000E+01  0.51100000000E-03 0. -1.
    9000002   -1    0    0    0    0 -0.00000000000E+00 -0.00000000000E+00  0.00000000000E+00  0.93800000000E+00  0.93800000000E+00 0.  1.
         11    1    1    2    0    0 -0.18476211577E-01 -0.29544779620E-01  0.32838997558E+00  0.33023401033E+00  0.51100000000E-03 0. -1.
    9000002    1    1    2    0    0  0.78929951388E-01  0.47120369083E+00  0.15618502859E+00  0.10641901233E+01  0.93800000000E+00 0.  1.
         22    1    1    2    0    0 -0.60453739811E-01 -0.44165891121E+00  0.35154249632E+01  0.35435758663E+01  0.00000000000E+00 0. -1.
</event>
<event>
 5    1  0.6172503E+001  0.1599568E+01  0.7818608E-02  0.3353832E+00
         11   -1    0    0    0    0  0.00000000000E+00  0.00000000000E+00  0.39999999674E+01  0.40000000000E+01  0.51100000000E-03 0.  1.
    9000002   -1    0    0    0    0 -0.00000000000E+00 -0.00000000000E+00  0.00000000000E+00  0.93800000000E+00  0.93800000000E+00 0.  1.
         11    1    1    2    0    0 -0.56062652393E+00 -0.25818263266E+00  0.13076994196E+01  0.14460423245E+01  0.51100000000E-03 0.  1.
    9000002    1    1    2    0    0  0.11138636756E+01  0.49505513476E+00  0.14605178490E+01  0.21210205707E+01  0.93800000000E+00 0.  1.
         22    1    1    2    0    0 -0.55323715165E+00 -0.23687250210E+00  0.12317826988E+01  0.13709371048E+01  0.00000000000E+00 0. -1.
</event>
<event>
 5    1  0.6172503E+001  0.1599673E+01  0.7818608E-02  0.3353718E+00
         11   -1    0    0    0    0  0.00000000000E+00  0.00000000000E+00  0.39999999674E+01  0.40000000000E+01  0.51100000000E-03 0. -1.
    9000002   -1    0    0    0    0 -0.00000000000E+00 -0.00000000000E+00  0.00000000000E+00  0.93800000000E+00  0.93800000000E+00 0. -1.
         11    1    1    2    0    0 -0.14673387448E+00 -0.79587628328E-01  0.13249341416E+01  0.13354084623E+01  0.51100000000E-03 0. -1.
    9000002    1    1    2    0    0  0.42115559322E+00  0.22656211433E+00  0.15600705251E+00  0.10643705303E+01  0.93800000000E+00 0. -1.
         22    1    1    2    0    0 -0.27442171874E+00 -0.14697448600E+00  0.25190587732E+01  0.25382210074E+01  0.00000000000E+00 0. -1.
</event>
<event>
 5    1  0.6172503E+001  0.1594014E+01  0.7818608E-02  0.3359886E+00
         11   -1    0    0    0    0  0.00000000000E+00  0.00000000000E+00  0.39999999674E+01  0.40000000000E+01  0.51100000000E-03 0. -1.
    9000002   -1    0    0    0    0 -0.00000000000E+00 -0.00000000000E+00  0.00000000000E+00  0.93800000000E+00  0.93800000000E+00 0.  1.
         11    1    1    2    0    0 -0.36070640283E+00 -0.25988319011E+00  0.13837045715E+01  0.14533709037E+01  0.51100000000E-03 0. -1.
    9000002    1    1    2    0    0  0.76488291957E+00  0.44760368608E+00  0.60621411870E+00  0.14257399827E+01  0.93800000000E+00 0.  1.
         22    1    1    2    0    0 -0.40417651674E+00 -0.18772049597E+00  0.20100812772E+01  0.20588891136E+01  0.00000000000E+00 0. -1.
</event>
<event>
 5    1  0.6172503E+001  0.1585787E+01  0.7818608E-02  0.3368935E+00
         11   -1    0    0    0    0  0.00000000000E+00  0.00000000000E+00  0.39999999674E+01  0.40000000000E+01  0.51100000000E-03 0. -1.
    9000002   -1    0    0    0    0 -0.00000000000E+00 -0.00000000000E+00  0.00000000000E+00  0.93800000000E+00  0.93800000000E+00 0. -1.
         11    1    1    2    0    0  0.15332193070E+00  0.86233580814E-01  0.51681549307E+00  0.54593255984E+00  0.51100000000E-03 0. -1.
    9000002    1    1    2    0    0 -0.40031351788E+00 -0.46280246967E+00  0.27604661700E+00  0.11534655492E+01  0.93800000000E+00 0. -1.
         22    1    1    2    0    0  0.24699158718E+00  0.37656888886E+00  0.32071378573E+01  0.32386018909E+01  0.00000000000E+00 0. -1.
</event>
<event>
 5    1  0.6172503E+001  0.1599675E+01  0.7818608E-02  0.3353716E+00
         11   -1    0    0    0    0  0.00000000000E+00  0.00000000000E+00  0.39999999674E+01  0.40000000000E+01  0.51100000000E-03 0. -1.
    9000002   -1    0    0    0    0 -0.00000000000E+00 -0.00000000000E+00  0.00000000000E+00  0.93800000000E+00  0.93800000000E+00 0.  1.
         11    1    1    2    0    0  0.75168011007E-01  0.28452547223E-01  0.70137688692E+00  0.70596712101E+00  0.51100000000E-03 0. -1.
    9000002    1    1    2    0    0 -0.42036668808E+00 -0.15855314411E+00  0.13707835196E+00  0.10490384771E+01  0.93800000000E+00 0.  1.
         22    1    1    2    0    0  0.34519867708E+00  0.13010059689E+00  0.31615447285E+01  0.31829944018E+01  0.00000000000E+00 0. -1.
</event>
<event>
 5    1  0.6172503E+001  0.1551573E+01  0.7818608E-02  0.3407662E+00
         11   -1    0    0    0    0  0.00000000000E+00  0.00000000000E+00  0.39999999674E+01  0.40000000000E+01  0.51100000000E-03 0.  1.
    9000002   -1    0    0    0    0 -0.00000000000E+00 -0.00000000000E+00  0.00000000000E+00  0.93800000000E+00  0.93800000000E+00 0. -1.
         11    1    1    2    0    0  0.17425957205E+00 -0.34759719265E-01  0.24103997957E+00  0.29945812630E+00  0.51100000000E-03 0.  1.
    9000002    1    1    2    0    0 -0.55213981827E+00  0.17794336904E+00  0.28225960809E+00  0.11384360798E+01  0.93800000000E+00 0. -1.
         22    1    1    2    0    0  0.37788024622E+00 -0.14318364977E+00  0.34767003797E+01  0.35001057939E+01  0.00000000000E+00 0.  1.
</event>
<event>
 5    1  0.6172503E+001  0.1598380E+01  0.7818608E-02  0.3355123E+00
         11   -1    0    0    0    0  0.00000000000E+00  0.00000000000E+00  0.39999999674E+01  0.40000000000E+01  0.51100000000E-03 0.  1.
    9000002   -1    0    0    0    0 -0.00000000000E+00 -0.00000000000E+00  0.00000000000E+00  0.93800000000E+00  0.93800000000E+00 0.  1.
         11    1    1    2    0    0 -0.28023733053E-01 -0.10836985582E+00  0.11115801675E+01  0.11172018999E+01  0.51100000000E-03 0.  1.
    9000002    1    1    2    0    0  0.21074878647E+00  0.44780373934E+00  0.16869866648E+00  0.10738931418E+01  0.93800000000E+00 0.  1.
         22    1    1    2    0    0 -0.18272505342E+00 -0.33943388352E+00  0.27197211334E+01  0.27469049583E+01  0.00000000000E+00 0.  1.
</event>
<event>
 5    1  0.6172503E+001  0.1599673E+01  0.7818608E-02  0.3353718E+00
         11   -1    0    0    0    0  0.00000000000E+00  0.00000000000E+00  0.39999999674E+01  0.40000000000E+01  0.51100000000E-03 0.  1.
    9000002   -1    0    0    0    0 -0.00000000000E+00 -0.00000000000E+00  0.00000000000E+00  0.93800000000E+00  0.93800000000E+00 0.  1.
         11    1    1    2    0    0  0.29523144672E-01 -0.19283442280E-01  0.31785539126E+00  0.31980584437E+00  0.51100000000E-03 0.  1.
    9000002    1    1    2    0    0 -0.36440447750E+00  0.22098394373E+00  0.12294069613E+00  0.10375851490E+01  0.93800000000E+00 0.  1.
         22    1    1    2    0    0  0.33488133283E+00 -0.20170050145E+00  0.35592038800E+01  0.35806090067E+01  0.00000000000E+00 0.  1.
</event>
<event>
 5    1  0.6172503E+001  0.1599434E+01  0.7818608E-02  0.3353978E+00
         11   -1    0    0    0    0  0.00000000000E+00  0.00000000000E+00  0.39999999674E+01  0.40000000000E+01  0.51100000000E-03 0. -1.
    9000002   -1    0    0    0    0 -0.00000000000E+00 -0.00000000000E+00  0.00000000000E+00  0.93800000000E+00  0.93800000000E+00 0.  1.
         11    1    1    2    0    0  0.15067193701E+00  0.38852266810E-01  0.14491644567E+01  0.14574942247E+01  0.51100000000E-03 0. -1.
    9000002    1    1    2    0    0 -0.36544894442E+00 -0.13272852985E+00  0.10202336401E+00  0.10205011320E+01  0.93800000000E+00 0.  1.
         22    1    1    2    0    0  0.21477700741E+00  0.93876263040E-01  0.24488121466E+01  0.24600046433E+01  0.00000000000E+00 0. -1.
</event>
<event>
 5    1  0.6172503E+001  0.1580397E+01  0.7818608E-02  0.3374918E+00
         11   -1    0    0    0    0  0.00000000000E+00  0.00000000000E+00  0.39999999674E+01  0.40000000000E+01  0.51100000000E-03 0.  1.
    9000002   -1    0    0    0    0 -0.00000000000E+00 -0.00000000000E+00  0.00000000000E+00  0.93800000000E+00  0.93800000000E+00 0.  1.
         11    1    1    2    0    0  0.17921892286E+00  0.47862845623E-02  0.12035237427E+01  0.12168040069E+01  0.51100000000E-03 0.  1.
    9000002    1    1    2    0    0 -0.18532305005E+00 -0.32226097085E+00  0.10880196926E+00  0.10148293624E+01  0.93800000000E+00 0.  1.
         22    1    1    2    0    0  0.61041271923E-02  0.31747468629E+00  0.26876742554E+01  0.27063666307E+01  0.00000000000E+00 0.  1.
</event>
<event>
 5    1  0.6172503E+001  0.1599646E+01  0.7818608E-02  0.3353747E+00
         11   -1    0    0    0    0  0.00000000000E+00  0.00000000000E+00  0.39999999674E+01  0.40000000000E+01  0.51100000000E-03 0. -1.
    9000002   -1    0    0    0    0 -0.00000000000E+00 -0.00000000000E+00  0.00000000000E+00  0.93800000000E+00  0.93800000000E+00 0. -1.
         11    1    1    2    0    0  0.67644615506E-01 -0.70721076512E-01  0.86894700557E+00  0.87444063508E+00  0.51100000000E-03 0. -1.
    9000002    1    1    2    0    0 -0.28687509489E+00  0.29674872617E+00  0.11512652523E+00  0.10312396634E+01  0.93800000000E+00 0. -1.
         22    1    1    2    0    0  0.21923047938E+00 -0.22602764966E+00  0.30159264366E+01  0.30323197015E+01  0.00000000000E+00 0. -1.
</event>
<event>
 5    1  0.6172503E+001  0.1591641E+01  0.7818608E-02  0.3362487E+00
         11   -1    0    0    0    0  0.00000000000E+00  0.00000000000E+00  0.39999999674E+01  0.40000000000E+01  0.51100000000E-03 0.  1.
    9000002   -1    0    0    0    0 -0.00000000000E+00 -0.00000000000E+00  0.00000000000E+00  0.93800000000E+00  0.93800000000E+00 0. -1.
         11    1    1    2    0    0 -0.36517310851E-01 -0.44472703229E-01  0.13993776903E+01  0.14005604295E+01  0.51100000000E-03 0.  1.
    9000002    1    1    2    0    0 -0.65643610023E-01  0.35987361132E+00  0.96450936178E-01  0.10114172644E+01  0.93800000000E+00 0. -1.
         22    1    1    2    0    0  0.10216092087E+00 -0.31540090809E+00  0.25041713409E+01  0.25260223061E+01  0.00000000000E+00 0. -1.
</event>
<event>
 5    1  0.6172503E+001  0.1599496E+01  0.7818608E-02  0.3353910E+00
         11   -1    0    0    0    0  0.00000000000E+00  0.00000000000E+00  0.39999999674E+01  0.40000000000E+01  0.51100000000E-03 0. -1.
    9000002   -1    0    0    0    0 -0.00000000000E+00 -0.00000000000E+00  0.00000000000E+00  0.93800000000E+00  0.93800000000E+00 0.  1.
         11    1    1    2    0    0  0.20302492861E-01  0.31479617175E-01  0.19688603986E+00  0.20041839069E+00  0.51100000000E-03 0. -1.
    9000002    1    1    2    0    0 -0.29713347190E+00 -0.49686803707E+00  0.23299583640E+00  0.11266309095E+01  0.93800000000E+00 0.  1.
         22    1    1    2    0    0  0.27683097904E+00  0.46538841990E+00  0.35701180911E+01  0.36109506998E+01  0.00000000000E+00 0. -1.
</event>
<event>
 5    1  0.6172503E+001  0.1599676E+01  0.7818608E-02  0.3353715E+00
         11   -1    0    0    0    0  0.00000000000E+00  0.00000000000E+00  0.39999999674E+01  0.40000000000E+01  0.51100000000E-03 0. -1.
    9000002   -1    0    0    0    0 -0.00000000000E+00 -0.00000000000E+00  0.00000000000E+00  0.93800000000E+00  0.93800000000E+00 0.  1.
         11    1    1    2    0    0  0.78265622274E-01  0.20015910058E+00  0.14326494930E+01  0.14486800903E+01  0.51100000000E-03 0. -1.
    9000002    1    1    2    0    0 -0.20864818496E+00 -0.52909038690E+00  0.22423701787E+00  0.11196414349E+01  0.93800000000E+00 0.  1.
         22    1    1    2    0    0  0.13038256268E+00  0.32893128632E+00  0.23431134565E+01  0.23696784748E+01  0.00000000000E+00 0. -1.
</event>
<event>
 5    1  0.6172503E+001  0.1599463E+01  0.7818608E-02  0.3353946E+00
         11   -1    0    0    0    0  0.00000000000E+00  0.00000000000E+00  0.39999999674E+01  0.40000000000E+01  0.51100000000E-03 0. -1.
    9000002   -1    0    0    0    0 -0.00000000000E+00 -0.00000000000E+00  0.00000000000E+00  0.93800000000E+00  0.93800000000E+00 0.  1.
         11    1    1    2    0    0 -0.29621506517E+00 -0.19758140814E-01  0.13451804538E+01  0.13775501672E+01  0.51100000000E-03 0. -1.
    9000002    1    1    2    0    0  0.77911682151E+00  0.72811395386E-02  0.44437930656E+00  0.12978416716E+01  0.93800000000E+00 0.  1.
         22    1    1    2    0    0 -0.48290175634E+00  0.12477001276E-01  0.22104402070E+01  0.22626081611E+01  0.00000000000E+00 0. -1.
</event>
<event>
 5    1  0.6172503E+001  0.1598691E+01  0.7818608E-02  0.3354786E+00
         11   -1    0    0    0    0  0.00000000000E+00  0.00000000000E+00  0.39999999674E+01  0.40000000000E+01  0.51100000000E-03 0.  1.
    9000002   -1    0    0    0    0 -0.00000000000E+00 -0.00000000000E+00  0.00000000000E+00  0.93800000000E+00  0.93800000000E+00 0.  1.
         11    1    1    2    0    0  0.13959711552E+00 -0.29224236682E-01  0.14719371686E+01  0.14788308558E+01  0.51100000000E-03 0.  1.
    9000002    1    1    2    0    0 -0.46010290432E+00  0.57012582790E-01  0.14714789057E+00  0.10566180099E+01  0.93800000000E+00 0.  1.
         22    1    1    2    0    0  0.32050578880E+00 -0.27788346108E-01  0.23809149082E+01  0.24025511343E+01  0.00000000000E+00 0.  1.
</event>
<event>
 5    1  0.6172503E+001  0.1599639E+01  0.7818608E-02  0.3353756E+00
         11   -1    0    0    0    0  0.00000000000E+00  0.00000000000E+00  0.39999999674E+01  0.40000000000E+01  0.51100000000E-03 0. -1.
    9000002   -1    0    0    0    0 -0.00000000000E+00 -0.00000000000E+00  0.00000000000E+00  0.93800000000E+00  0.93800000000E+00 0. -1.
         11    1    1    2    0    0  0.34226542148E-02 -0.15237034972E-01  0.14283668368E+00  0.14368876478E+00  0.51100000000E-03 0. -1.
    9000002    1    1    2    0    0 -0.36538383135E-01  0.36727220809E+00  0.91569218960E-01  0.10121525824E+01  0.93800000000E+00 0. -1.
         22    1    1    2    0    0  0.33115728920E-01 -0.35203517311E+00  0.37655940647E+01  0.37821586528E+01  0.00000000000E+00 0. -1.
</event>
<event>
 5    1  0.6172503E+001  0.1599675E+01  0.7818608E-02  0.3353716E+00
         11   -1    0    0    0    0  0.00000000000E+00  0.00000000000E+00  0.39999999674E+01  0.40000000000E+01  0.51100000000E-03 0. -1.
    9000002   -1    0    0    0    0 -0.00000000000E+00 -0.00000000000E+00  0.00000000000E+00  0.93800000000E+00  0.93800000000E+00 0.  1.
         11    1    1    2    0    0  0.65312109731E-01  0.12343658722E+00  0.11996413587E+01  0.12077424863E+01  0.51100000000E-03 0. -1.
    9000002    1    1    2    0    0 -0.20927214034E+00 -0.40207670645E+00  0.13961495323E+00  0.10510931651E+01  0.93800000000E+00 0.  1.
         22    1    1    2    0    0  0.14396003061E+00  0.27864011923E+00  0.26607436555E+01  0.26791643486E+01  0.00000000000E+00 0. -1.
</event>
<event>
 5    1  0.6172503E+001  0.1598109E+01  0.7818608E-02  0.3355418E+00
         11   -1    0    0    0    0  0.00000000000E+00  0.00000000000E+00  0.39999999674E+01  0.40000000000E+01  0.51100000000E-03 0. -1.
    9000002   -1    0    0    0    0 -0.00000000000E+00 -0.00000000000E+00  0.00000000000E+00  0.93800000000E+00  0.93800000000E+00 0.  1.
         11    1    1    2    0    0 -0.16631602034E+00 -0.38616803997E-01  0.14241329178E+01  0.14343315882E+01  0.51100000000E-03 0. -1.
    9000002    1    1    2    0    0  0.54581523530E+00  0.16700278167E+00  0.22745817689E+00  0.11213319858E+01  0.93800000000E+00 0.  1.
         22    1    1    2    0    0 -0.37949921496E+00 -0.12838597767E+00  0.23484088727E+01  0.23823364260E+01  0.00000000000E+00 0. -1.
</event>
<event>
 5    1  0.6172503E+001  0.1561739E+01  0.7818608E-02  0.3395967E+00
         11   -1    0    0    0    0  0.00000000000E+00  0.00000000000E+00  0.39999999674E+01  0.40000000000E+01  0.51100000000E-03 0. -1.
    9000002   -1    0    0    0    0 -0.00000000000E+00 -0.00000000000E+00  0.00000000000E+00  0.93800000000E+00  0.93800000000E+00 0.  1.
         11    1    1    2    0    0 -0.14689681813E+00  0.10270471773E+00  0.10103708286E+01  0.10261463865E+01  0.51100000000E-03 0. -1.
    9000002    1    1    2    0    0 -0.47776277945E-01  0.10088378537E+00  0.36502851932E-01  0.94532352615E+00  0.93800000000E+00 0.  1.
         22    1    1    2    0    0  0.19467309607E+00 -0.20358850310E+00  0.29531262868E+01  0.29665300873E+01  0.00000000000E+00 0. -1.
</event>
<event>
 5    1  0.6172503E+001  0.1599640E+01  0.7818608E-02  0.3353754E+00
         11   -1    0    0    0    0  0.00000000000E+00  0.00000000000E+00  0.39999999674E+01  0.40000000000E+01  0.51100000000E-03 0.  1.
    9000002   -1    0    0    0    0 -0.00000000000E+00 -0.00000000000E+00  0.00000000000E+00  0.93800000000E+00  0.93800000000E+00 0. -1.
         11    1    1    2    0    0 -0.72776144066E-01  0.34902834291E-02  0.82452629528E+00  0.82773934421E+00  0.51100000000E-03 0.  1.
    9000002    1    1    2    0    0  0.36674821106E+00  0.15589541274E-02  0.90389266285E-01  0.10111977552E+01  0.93800000000E+00 0. -1.
         22    1    1    2    0    0 -0.29397206699E+00 -0.50492375566E-02  0.30850844058E+01  0.30990629006E+01  0.00000000000E+00 0.  1.
</event>
<event>
 5    1  0.6172503E+001  0.1599646E+01  0.7818608E-02  0.3353748E+00
         11   -1    0    0    0    0  0.00000000000E+00  0.00000000000E+00  0.39999999674E+01  0.40000000000E+01  0.51100000000E-03 0.  1.
    9000002   -1    0    0    0    0 -0.00000000000E+00 -0.00000000000E+00  0.00000000000E+00  0.93800000000E+00  0.93800000000E+00 0.  1.
         11    1    1    2    0    0 -0.95916154349E-03  0.59872365950E-02  0.44083285605E-01  0.44501282944E-01  0.51100000000E-03 0. -1.
    9000002    1    1    2    0    0  0.63513969705E-01 -0.62116280302E+00  0.27351220287E+00  0.11595387778E+01  0.93800000000E+00 0.  1.
         22    1    1    2    0    0 -0.62554808162E-01  0.61517556643E+00  0.36824044789E+01  0.37339599392E+01  0.00000000000E+00 0.  1.
</event>
<event>
 5    1  0.6172503E+001  0.1599677E+01  0.7818608E-02  0.3353714E+00
         11   -1    0    0    0    0  0.00000000000E+00  0.00000000000E+00  0.39999999674E+01  0.40000000000E+01  0.51100000000E-03 0. -1.
    9000002   -1    0    0    0    0 -0.00000000000E+00 -0.00000000000E+00  0.00000000000E+00  0.93800000000E+00  0.93800000000E+00 0. -1.
         11    1    1    2    0    0  0.61371391103E-01  0.33536581471E-01  0.76219624730E+00  0.76539828224E+00  0.51100000000E-03 0.  1.
    9000002    1    1    2    0    0 -0.31548527337E+00 -0.17221157117E+00  0.86713307746E-01  0.10082415289E+01  0.93800000000E+00 0. -1.
         22    1    1    2    0    0  0.25411388227E+00  0.13867498970E+00  0.31510904123E+01  0.31643601888E+01  0.00000000000E+00 0. -1.
</event>
<event>
 5    1  0.6172503E+001  0.1599422E+01  0.7818608E-02  0.3353991E+00
         11   -1    0    0    0    0  0.00000000000E+00  0.00000000000E+00  0.39999999674E+01  0.40000000000E+01  0.51100000000E-03 0. -1.
    9000002   -1    0    0    0    0 -0.00000000000E+00 -0.00000000000E+00  0.00000000000E+00  0.93800000000E+00  0.93800000000E+00 0.  1.
         11    1    1    2    0    0  0.29292798102E-01  0.53340020929E-01  0.31521290174E+00  0.32103373716E+00  0.51100000000E-03 0. -1.
    9000002    1    1    2    0    0 -0.37629379137E+00 -0.50607198423E+00  0.27963117435E+00  0.11643639742E+01  0.93800000000E+00 0.  1.
         22    1    1    2    0    0  0.34700099327E+00  0.45273196330E+00  0.34051558913E+01  0.34526022887E+01  0.00000000000E+00 0. -1.
</event>
<event>
 5    1  0.6172503E+001  0.1596804E+01  0.7818608E-02  0.3356839E+00
         11   -1    0    0    0    0  0.00000000000E+00  0.00000000000E+00  0.39999999674E+01  0.40000000000E+01  0.51100000000E-03 0. -1.
    9000002   -1    0    0    0    0 -0.00000000000E+00 -0.00000000000E+00  0.00000000000E+00  0.93800000000E+00  0.93800000000E+00 0.  1.
         11    1    1    2    0    0  0.44758618966E-01 -0.29041775820E-01  0.97915625974E+00  0.98060899487E+00  0.51100000000E-03 0. -1.
    9000002    1    1    2    0    0 -0.29898251892E+00 -0.73259014530E-01  0.65521572706E-01  0.98939097748E+00  0.93800000000E+00 0.  1.
         22    1    1    2    0    0  0.25422389995E+00  0.10230079035E+00  0.29553221349E+01  0.29680000276E+01  0.00000000000E+00 0. -1.
</event>
<event>
 5    1  0.6172503E+001  0.1599671E+01  0.7818608E-02  0.3353720E+00
         11   -1    0    0    0    0  0.00000000000E+00  0.00000000000E+00  0.39999999674E+01  0.40000000000E+01  0.51100000000E-03 0. -1.
    9000002   -1    0    0    0    0 -0.00000000000E+00 -0.00000000000E+00  0.00000000000E+00  0.93800000000E+00  0.93800000000E+00 0. -1.
         11    1    1    2    0    0 -0.34349368791E-02 -0.63561620189E-01  0.36520419896E+00  0.37071046170E+00  0.51100000000E-03 0. -1.
    9000002    1    1    2    0    0  0.36844505170E-01  0.65951959662E+00  0.30868708042E+00  0.11880468549E+01  0.93800000000E+00 0. -1.
         22    1    1    2    0    0 -0.33409568291E-01 -0.59595797643E+00  0.33261086880E+01  0.33792426834E+01  0.00000000000E+00 0. -1.
</event>
<event>
 5    1  0.6172503E+001  0.1598760E+01  0.7818608E-02  0.3354711E+00
         11   -1    0    0    0    0  0.00000000000E+00  0.00000000000E+00  0.39999999674E+01  0.40000000000E+01  0.51100000000E-03 0.  1.
    9000002   -1    0    0    0    0 -0.00000000000E+00 -0.00000000000E+00  0.00000000000E+00  0.93800000000E+00  0.93800000000E+00 0. -1.
         11    1    1    2    0    0  0.16614805100E+00  0.84225915397E-01  0.14811647316E+01  0.14928323425E+01  0.51100000000E-03 0.  1.
    9000002    1    1    2    0    0 -0.34614924412E+00 -0.24813546727E+00  0.12355238907E+00  0.10375450362E+01  0.93800000000E+00 0. -1.
         22    1    1    2    0    0  0.18000119312E+00  0.16390955187E+00  0.23952828467E+01  0.24076226213E+01  0.00000000000E+00 0.  1.
</event>
<event>
 5    1  0.6172503E+001  0.1599676E+01  0.7818608E-02  0.3353715E+00
         11   -1    0    0    0    0  0.00000000000E+00  0.00000000000E+00  0.39999999674E+01  0.40000000000E+01  0.51100000000E-03 0. -1.
    9000002   -1    0    0    0    0 -0.00000000000E+00 -0.00000000000E+00  0.00000000000E+00  0.93800000000E+00  0.93800000000E+00 0. -1.
         11    1    1    2    0    0  0.22925722145E-01  0.55762046372E-01  0.61788715166E+00  0.62082186484E+00  0.51100000000E-03 0. -1.
    9000002    1    1    2    0    0 -0.14171401683E+00 -0.34845766867E+00  0.95167632713E-01  0.10150893989E+01  0.93800000000E+00 0. -1.
         22    1    1    2    0    0  0.11878829469E+00  0.29269562230E+00  0.32869451830E+01  0.33020887363E+01  0.00000000000E+00 0. -1.
</event>
<event>
 5    1  0.6172503E+001  0.1584457E+01  0.7818608E-02  0.3370408E+00
         11   -1    0    0    0    0  0.00000000000E+00  0.00000000000E+00  0.39999999674E+01  0.40000000000E+01  0.51100000000E-03 0. -1.
    9000002   -1    0    0    0    0 -0.00000000000E+00 -0.00000000000E+00  0.00000000000E+00  0.93800000000E+00  0.93800000000E+00 0.  1.
         11    1    1    2    0    0  0.95200093751E-01  0.73127232037E-03  0.14199174524E+01  0.14231055567E+01  0.51100000000E-03 0. -1.
    9000002    1    1    2    0    0  0.41777833568E-01 -0.25309761777E+00  0.55491551175E-01  0.97402623360E+00  0.93800000000E+00 0.  1.
         22    1    1    2    0    0 -0.13697792732E+00  0.25236634545E+00  0.25245909638E+01  0.25408682097E+01  0.00000000000E+00 0.  1.
</event>
<event>
 5    1  0.6172503E+001  0.1488421E+01  0.7818608E-02  0.3484147E+00
         11   -1    0    0    0    0  0.00000000000E+00  0.00000000000E+00  0.39999999674E+01  0.40000000000E+01  0.51100000000E-03 0.  1.
    9000002   -1    0    0    0    0 -0.00000000000E+00 -0.00000000000E+00  0.00000000000E+00  0.93800000000E+00  0.93800000000E+00 0. -1.
         11    1    1    2    0    0  0.36583582338E+00  0.32819268068E+00  0.14149242537E+01  0.14978508571E+01  0.51100000000E-03 0.  1.
    9000002    1    1    2    0    0 -0.30655527429E+00 -0.84290300405E-01  0.16136478654E+00  0.10034757522E+01  0.93800000000E+00 0. -1.
         22    1    1    2    0    0 -0.59280549092E-01 -0.24390238028E+00  0.24237109272E+01  0.24366733907E+01  0.00000000000E+00 0. -1.
</event>
<event>
 5    1  0.6172503E+001  0.1599676E+01  0.7818608E-02  0.3353715E+00
         11   -1    0    0    0    0  0.00000000000E+00  0.00000000000E+00  0.39999999674E+01  0.40000000000E+01  0.51100000000E-03 0. -1.
    9000002   -1    0    0    0    0 -0.00000000000E+00 -0.00000000000E+00  0.00000000000E+00  0.93800000000E+00  0.93800000000E+00 0. -1.
         11    1    1    2    0    0 -0.11441847912E+00  0.82352821719E-01  0.10821199916E+01  0.10912641811E+01  0.51100000000E-03 0. -1.
    9000002    1    1    2    0    0  0.40712772487E+00 -0.29285502617E+00  0.17222193285E+00  0.10775070510E+01  0.93800000000E+00 0. -1.
         22    1    1    2    0    0 -0.29270924575E+00  0.21050220445E+00  0.27456580429E+01  0.27692287679E+01  0.00000000000E+00 0. -1.
</event>
<event>
 5    1  0.6172503E+001  0.1599643E+01  0.7818608E-02  0.3353751E+00
         11   -1    0    0    0    0  0.00000000000E+00  0.00000000000E+00  0.39999999674E+01  0.40000000000E+01  0.51100000000E-03 0. -1.
    9000002   -1    0    0    0    0 -0.00000000000E+00 -0.00000000000E+00  0.00000000000E+00  0.93800000000E+00  0.93800000000E+00 0. -1.
         11    1    1    2    0    0 -0.47896727717E-01  0.60528942629E-01  0.79915969974E+00  0.80287878053E+00  0.51100000000E-03 0. -1.
    9000002    1    1    2    0    0  0.24036012040E+00 -0.26941114639E+00  0.87540338185E-01  0.10088918000E+01  0.93800000000E+00 0. -1.
         22    1    1    2    0    0 -0.19246339269E+00  0.20888220376E+00  0.31132999294E+01  0.31262294195E+01  0.00000000000E+00 0. -1.
</event>
<event>
 5    1  0.6172503E+001  0.1599674E+01  0.7818608E-02  0.3353717E+00
         11   -1    0    0    0    0  0.00000000000E+00  0.00000000000E+00  0.39999999674E+01  0.40000000000E+01  0.51100000000E-03 0. -1.
    9000002   -1    0    0    0    0 -0.00000000000E+00 -0.00000000000E+00  0.00000000000E+00  0.93800000000E+00  0.93800000000E+00 0.  1.
         11    1    1    2    0    0 -0.80061176491E-01  0.23851246281E-01  0.65053574352E+00  0.65587780008E+00  0.51100000000E-03 0. -1.
    9000002    1    1    2    0    0  0.47474746068E+00 -0.14873884393E+00  0.16936521347E+00  0.10751915972E+01  0.93800000000E+00 0.  1.
         22    1    1    2    0    0 -0.39468628418E+00  0.12488759765E+00  0.31800990104E+01  0.32069306027E+01  0.00000000000E+00 0. -1.
</event>
<event>
 5    1  0.6172503E+001  0.1599670E+01  0.7818608E-02  0.3353721E+00
         11   -1    0    0    0    0  0.00000000000E+00  0.00000000000E+00  0.39999999674E+01  0.40000000000E+01  0.51100000000E-03 0.  1.
    9000002   -1    0    0    0    0 -0.00000000000E+00 -0.00000000000E+00  0.00000000000E+00  0.93800000000E+00  0.93800000000E+00 0. -1.
         11    1    1    2    0    0  0.54848532437E-01  0.59747550699E-01  0.57782862785E+00  0.58349320099E+00  0.51100000000E-03 0.  1.
    9000002    1    1    2    0    0 -0.34753686758E+00 -0.39804644696E+00  0.19209718792E+00  0.10936033000E+01  0.93800000000E+00 0. -1.
         22    1    1    2    0    0  0.29268833514E+00  0.33829889627E+00  0.32300741516E+01  0.32609034990E+01  0.00000000000E+00 0.  1.
</event>
<event>
 5    1  0.6172503E+001  0.1585487E+01  0.7818608E-02  0.3369267E+00
         11   -1    0    0    0    0  0.00000000000E+00  0.00000000000E+00  0.39999999674E+01  0.40000000000E+01  0.51100000000E-03 0. -1.
    9000002   -1    0    0    0    0 -0.00000000000E+00 -0.00000000000E+00  0.00000000000E+00  0.93800000000E+00  0.93800000000E+00 0. -1.
         11    1    1    2    0    0  0.97374876547E-02  0.18532553144E+00  0.14167701136E+01  0.14288730479E+01  0.51100000000E-03 0. -1.
    9000002    1    1    2    0    0  0.23751778541E+00 -0.23810026563E+00  0.87146823091E-01  0.10002724647E+01  0.93800000000E+00 0. -1.
         22    1    1    2    0    0 -0.24725527306E+00  0.52774734182E-01  0.24960830307E+01  0.25088544874E+01  0.00000000000E+00 0. -1.
</event>
<event>
 5    1  0.6172503E+001  0.1595596E+01  0.7818608E-02  0.3358157E+00
         11   -1    0    0    0    0  0.00000000000E+00  0.00000000000E+00  0.39999999674E+01  0.40000000000E+01  0.51100000000E-03 0. -1.
    9000002   -1    0    0    0    0 -0.00000000000E+00 -0.00000000000E+00  0.00000000000E+00  0.93800000000E+00  0.93800000000E+00 0. -1.
         11    1    1    2    0    0  0.29915316766E-01 -0.23700060802E-01  0.45623213045E+00  0.45782598991E+00  0.51100000000E-03 0. -1.
    9000002    1    1    2    0    0 -0.17806396577E+00  0.60129497514E+00  0.28021698521E+00  0.11625953646E+01  0.93800000000E+00 0. -1.
         22    1    1    2    0    0  0.14814864901E+00 -0.57759491433E+00  0.32635508517E+01  0.33175786455E+01  0.00000000000E+00 0. -1.
</event>
<event>
 5    1  0.6172503E+001  0.1470653E+01  0.7818608E-02  0.3506944E+00
         11   -1    0    0    0    0  0.00000000000E+00  0.00000000000E+00  0.39999999674E+01  0.40000000000E+01  0.51100000000E-03 0. -1.
    9000002   -1    0    0    0    0 -0.00000000000E+00 -0.00000000000E+00  0.00000000000E+00  0.93800000000E+00  0.93800000000E+00 0.  1.
         11    1    1    2    0    0  0.25429141281E+00 -0.23509917217E+00  0.12250399965E+01  0.12730510584E+01  0.51100000000E-03 0. -1.
    9000002    1    1    2    0    0  0.16247968234E+00 -0.83535617344E-01  0.12524580434E+00  0.96379891992E+00  0.93800000000E+00 0.  1.
         22    1    1    2    0    0 -0.41677109515E+00  0.31863478951E+00  0.26497141666E+01  0.27011500216E+01  0.00000000000E+00 0. -1.
</event>
<event>
 5    1  0.6172503E+001  0.1599527E+01  0.7818608E-02  0.3353877E+00
         11   -1    0    0    0    0  0.00000000000E+00  0.00000000000E+00  0.39999999674E+01  0.40000000000E+01  0.51100000000E-03 0.  1.
    9000002   -1    0    0    0    0 -0.00000000000E+00 -0.00000000000E+00  0.00000000000E+00  0.93800000000E+00  0.93800000000E+00 0. -1.
         11    1    1    2    0    0  0.46129777559E-01  0.82239724424E-01  0.10802444541E+01  0.10843521892E+01  0.51100000000E-03 0.  1.
    9000002    1    1    2    0    0 -0.20524160649E+00 -0.32495583641E+00  0.99568118912E-01  0.10185667494E+01  0.93800000000E+00 0. -1.
         22    1    1    2    0    0  0.15911182893E+00  0.24271611199E+00  0.28201873944E+01  0.28350810614E+01  0.00000000000E+00 0.  1.
</event>
<event>
 5    1  0.8306214E+001  0.1594417E+01  0.7818608E-02  0.3359445E+00
         11   -1    0    0    0    0  0.00000000000E+00  0.00000000000E+00  0.39999999674E+01  0.40000000000E+01  0.51100000000E-03 0. -1.
    9000002   -1    0    0    0    0 -0.00000000000E+00 -0.00000000000E+00  0.00000000000E+00  0.93800000000E+00  0.93800000000E+00 0.  1.
         11    1    1    2    0    0 -0.12229428973E-01 -0.81579230329E-02  0.78312297903E+00  0.78326111358E+00  0.51100000000E-03 0. -1.
    9000002    1    1    2    0    0 -0.28819262748E+00  0.65741489370E-01  0.62385091229E-01  0.98545057388E+00  0.93800000000E+00 0.  1.
         22    1    1    2    0    0  0.30042205645E+00 -0.57583566337E-01  0.31544918971E+01  0.31692883125E+01  0.00000000000E+00 0. -1.
</event>
<event>
 5    1  0.6172503E+001  0.1532540E+01  0.7818608E-02  0.3430002E+00
         11   -1    0    0    0    0  0.00000000000E+00  0.00000000000E+00  0.39999999674E+01  0.40000000000E+01  0.51100000000E-03 0.  1.
    9000002   -1    0    0    0    0 -0.00000000000E+00 -0.00000000000E+00  0.00000000000E+00  0.93800000000E+00  0.93800000000E+00 0.  1.
         11    1    1    2    0    0 -0.88160506479E-02 -0.29448081937E+00  0.11759105703E+01  0.12122551737E+01  0.51100000000E-03 0.  1.
    9000002    1    1    2    0    0  0.26882221782E+00  0.56058797501E-01  0.10401412900E+00  0.98288906424E+00  0.93800000000E+00 0.  1.
         22    1    1    2    0    0 -0.26000616717E+00  0.23842202187E+00  0.27200752681E+01  0.27428557621E+01  0.00000000000E+00 0.  1.
</event>
<event>
 5    1  0.6172503E+001  0.1599587E+01  0.7818608E-02  0.3353811E+00
         11   -1    0    0    0    0  0.00000000000E+00  0.00000000000E+00  0.39999999674E+01  0.40000000000E+01  0.51100000000E-03 0.  1.
    9000002   -1    0    0    0    0 -0.00000000000E+00 -0.00000000000E+00  0.00000000000E+00  0.93800000000E+00  0.93800000000E+00 0.  1.
         11    1    1    2    0    0  0.12793114650E+00  0.60952892176E-01  0.12911200164E+01  0.12988736626E+01  0.51100000000E-03 0.  1.
    9000002    1    1    2    0    0 -0.41437257014E+00 -0.17610154314E+00  0.13776406500E+00  0.10495424327E+01  0.93800000000E+00 0.  1.
         22    1    1    2    0    0  0.28644142364E+00  0.11514865097E+00  0.25711158859E+01  0.25895839048E+01  0.00000000000E+00 0.  1.
</event>
<event>
 5    1  0.6172503E+001  0.1561309E+01  0.7818608E-02  0.3396458E+00
         11   -1    0    0    0    0  0.00000000000E+00  0.00000000000E+00  0.39999999674E+01  0.40000000000E+01  0.51100000000E-03 0. -1.
    9000002   -1    0    0    0    0 -0.00000000000E+00 -0.00000000000E+00  0.00000000000E+00  0.93800000000E+00  0.93800000000E+00 0. -1.
         11    1    1    2    0    0  0.15159625909E+00 -0.84741674906E-01  0.91023268069E+00  0.92665331778E+00  0.51100000000E-03 0. -1.
    9000002    1    1    2    0    0  0.36603470350E-01 -0.14296803085E+00  0.43232398101E-01  0.95052233647E+00  0.93800000000E+00 0. -1.
         22    1    1    2    0    0 -0.18819972944E+00  0.22770970575E+00  0.30465348886E+01  0.30608243457E+01  0.00000000000E+00 0. -1.
</event>
<event>
 5    1  0.6172503E+001  0.1587167E+01  0.7818608E-02  0.3367411E+00
         11   -1    0    0    0    0  0.00000000000E+00  0.00000000000E+00  0.39999999674E+01  0.40000000000E+01  0.51100000000E-03 0.  1.
    9000002   -1    0    0    0    0 -0.00000000000E+00 -0.00000000000E+00  0.00000000000E+00  0.93800000000E+00  0.93800000000E+00 0.  1.
         11    1    1    2    0    0  0.26268344485E+00  0.46173908715E+00  0.91990026801E+00  0.10622722537E+01  0.51100000000E-03 0.  1.
    9000002    1    1    2    0    0  0.36598090343E+00 -0.57217840151E-01  0.38601328503E+00  0.10798454330E+01  0.93800000000E+00 0.  1.
         22    1    1    2    0    0 -0.62866434828E+00 -0.40452124699E+00  0.26940864143E+01  0.27958823133E+01  0.00000000000E+00 0.  1.
</event>
<event>
 5    1  0.6172503E+001  0.1599675E+01  0.7818608E-02  0.3353716E+00
         11   -1    0    0    0    0  0.00000000000E+00  0.00000000000E+00  0.39999999674E+01  0.40000000000E+01  0.51100000000E-03 0.  1.
    9000002   -1    0    0    0    0 -0.00000000000E+00 -0.00000000000E+00  0.00000000000E+00  0.93800000000E+00  0.93800000000E+00 0.  1.
         11    1    1    2    0    0 -0.46382014251E-01  0.50672337028E-01  0.74822110941E+00  0.75136812993E+00  0.51100000000E-03 0.  1.
    9000002    1    1    2    0    0  0.23593101838E+00 -0.26684697464E+00  0.85128505203E-01  0.10069566106E+01  0.93800000000E+00 0. -1.
         22    1    1    2    0    0 -0.18954900412E+00  0.21617463761E+00  0.31666503527E+01  0.31796752594E+01  0.00000000000E+00 0.  1.
</event>
<event>
 5    1  0.6172503E+001  0.1599644E+01  0.7818608E-02  0.3353750E+00
         11   -1    0    0    0    0  0.00000000000E+00  0.00000000000E+00  0.39999999674E+01  0.40000000000E+01  0.51100000000E-03 0.  1.
    9000002   -1    0    0    0    0 -0.00000000000E+00 -0.00000000000E+00  0.00000000000E+00  0.93800000000E+00  0.93800000000E+00 0.  1.
         11    1    1    2    0    0  0.31805138252E-01  0.73256844670E-01  0.83133207431E+00  0.83515951231E+00  0.51100000000E-03 0.  1.
    9000002    1    1    2    0    0 -0.15905177820E+00 -0.36759300141E+00  0.10824278733E+00  0.10256620222E+01  0.93800000000E+00 0.  1.
         22    1    1    2    0    0  0.12724663995E+00  0.29433615674E+00  0.30604251057E+01  0.30771784655E+01  0.00000000000E+00 0.  1.
</event>
<event>
 5    1  0.6172503E+001  0.1599669E+01  0.7818608E-02  0.3353723E+00
         11   -1    0    0    0    0  0.00000000000E+00  0.00000000000E+00  0.39999999674E+01  0.40000000000E+01  0.51100000000E-03 0.  1.
    9000002   -1    0    0    0    0 -0.00000000000E+00 -0.00000000000E+00  0.00000000000E+00  0.93800000000E+00  0.93800000000E+00 0.  1.
         11    1    1    2    0    0 -0.17785932613E-01 -0.15342466201E+00  0.72075108943E+00  0.73711455036E+00  0.51100000000E-03 0.  1.
    9000002    1    1    2    0    0  0.77076022434E-01  0.75482494410E+00  0.41846872045E+00  0.12769735626E+01  0.93800000000E+00 0.  1.
         22    1    1    2    0    0 -0.59290089821E-01 -0.60140028209E+00  0.28607801575E+01  0.29239118871E+01  0.00000000000E+00 0.  1.
</event>
<event>
 5    1  0.6172503E+001  0.1223297E+01  0.7818608E-02  0.3940091E+00
         11   -1    0    0    0    0  0.00000000000E+00  0.00000000000E+00  0.39999999674E+01  0.40000000000E+01  0.51100000000E-03 0.  1.
    9000002   -1    0    0    0    0 -0.00000000000E+00 -0.00000000000E+00  0.00000000000E+00  0.93800000000E+00  0.93800000000E+00 0.  1.
         11    1    1    2    0    0  0.37563833280E+00  0.52227041353E+00  0.94312086398E+00  0.11416425742E+01  0.51100000000E-03 0.  1.
    9000002    1    1    2    0    0  0.14021242411E+00 -0.30168651790E-01  0.37329336198E+00  0.10196870135E+01  0.93800000000E+00 0.  1.
         22    1    1    2    0    0 -0.51585075691E+00 -0.49210176174E+00  0.26835857414E+01  0.27766704123E+01  0.00000000000E+00 0. -1.
</event>
<event>
 5    1  0.6172503E+001  0.1530041E+01  0.7818608E-02  0.3432980E+00
         11   -1    0    0    0    0  0.00000000000E+00  0.00000000000E+00  0.39999999674E+01  0.40000000000E+01  0.51100000000E-03 0. -1.
    9000002   -1    0    0    0    0 -0.00000000000E+00 -0.00000000000E+00  0.00000000000E+00  0.93800000000E+00  0.93800000000E+00 0.  1.
         11    1    1    2    0    0 -0.15413806513E-01 -0.27467195821E+00  0.13717232248E+01  0.13990379325E+01  0.51100000000E-03 0. -1.
    9000002    1    1    2    0    0 -0.61530152501E-02 -0.78827836378E-01  0.56614025571E-01  0.94302748384E+00  0.93800000000E+00 0.  1.
         22    1    1    2    0    0  0.21566821763E-01  0.35349979459E+00  0.25716627170E+01  0.25959345836E+01  0.00000000000E+00 0. -1.
</event>
<event>
 5    1  0.6172503E+001  0.1566735E+01  0.7818608E-02  0.3390279E+00
         11   -1    0    0    0    0  0.00000000000E+00  0.00000000000E+00  0.39999999674E+01  0.40000000000E+01  0.51100000000E-03 0.  1.
    9000002   -1    0    0    0    0 -0.00000000000E+00 -0.00000000000E+00  0.00000000000E+00  0.93800000000E+00  0.93800000000E+00 0. -1.
         11    1    1    2    0    0  0.22731285611E-01  0.22514875056E+00  0.56694126915E+00  0.61043536513E+00  0.51100000000E-03 0.  1.
    9000002    1    1    2    0    0 -0.27987793646E+00 -0.44415238812E+00  0.22050207985E+00  0.10973004012E+01  0.93800000000E+00 0. -1.
         22    1    1    2    0    0  0.25714665085E+00  0.21900363757E+00  0.32125566184E+01  0.32302642337E+01  0.00000000000E+00 0.  1.
</event>
<event>
 5    1  0.6172503E+001  0.1599618E+01  0.7818608E-02  0.3353778E+00
         11   -1    0    0    0    0  0.00000000000E+00  0.00000000000E+00  0.39999999674E+01  0.40000000000E+01  0.51100000000E-03 0. -1.
    9000002   -1    0    0    0    0 -0.00000000000E+00 -0.00000000000E+00  0.00000000000E+00  0.93800000000E+00  0.93800000000E+00 0. -1.
         11    1    1    2    0    0 -0.77915746715E-01 -0.53887719288E-01  0.10312362572E+01  0.10355786929E+01  0.51100000000E-03 0. -1.
    9000002    1    1    2    0    0  0.32542786610E+00  0.20760545058E+00  0.10037794004E+00  0.10192757478E+01  0.93800000000E+00 0. -1.
         22    1    1    2    0    0 -0.24751211939E+00 -0.15371773129E+00  0.28683857701E+01  0.28831455594E+01  0.00000000000E+00 0. -1.
</event>
<event>
 5    1  0.6172503E+001  0.1591439E+01  0.7818608E-02  0.3362708E+00
         11   -1    0    0    0    0  0.00000000000E+00  0.00000000000E+00  0.39999999674E+01  0.40000000000E+01  0.51100000000E-03 0. -1.
    9000002   -1    0    0    0    0 -0.00000000000E+00 -0.00000000000E+00  0.00000000000E+00  0.93800000000E+00  0.93800000000E+00 0. -1.
         11    1    1    2    0    0  0.34519443859E-02 -0.87927938632E-01  0.45107015956E+00  0.45957348517E+00  0.51100000000E-03 0. -1.
    9000002    1    1    2    0    0 -0.39442186129E+00  0.27231702931E+00  0.16405268658E+00  0.10660593103E+01  0.93800000000E+00 0. -1.
         22    1    1    2    0    0  0.39096991690E+00 -0.18438909068E+00  0.33848771212E+01  0.34123672045E+01  0.00000000000E+00 0. -1.
</event>
<event>
 5    1  0.6172503E+001  0.1599676E+01  0.7818608E-02  0.3353716E+00
         11   -1    0    0    0    0  0.00000000000E+00  0.00000000000E+00  0.39999999674E+01  0.40000000000E+01  0.51100000000E-03 0.  1.
    9000002   -1    0    0    0    0 -0.00000000000E+00 -0.00000000000E+00  0.00000000000E+00  0.93800000000E+00  0.93800000000E+00 0.  1.
         11    1    1    2    0    0  0.63521723602E-01  0.60824676201E-01  0.95541330680E+00  0.95945270782E+00  0.51100000000E-03 0.  1.
    9000002    1    1    2    0    0 -0.25580834335E+00 -0.25140867856E+00  0.86342106378E-01  0.10079400734E+01  0.93800000000E+00 0.  1.
         22    1    1    2    0    0  0.19228661975E+00  0.19058400236E+00  0.29582445542E+01  0.29706072188E+01  0.00000000000E+00 0.  1.
</event>
<event>
 5    1  0.7569391E+001  0.1599628E+01  0.7818608E-02  0.3353767E+00
         11   -1    0    0    0    0  0.00000000000E+00  0.00000000000E+00  0.39999999674E+01  0.40000000000E+01  0.51100000000E-03 0.  1.
    9000002   -1    0    0    0    0 -0.00000000000E+00 -0.00000000000E+00  0.00000000000E+00  0.93800000000E+00  0.93800000000E+00 0. -1.
         11    1    1    2    0    0  0.92064045923E-01 -0.30075978753E-02  0.11168673194E+01  0.11206594954E+01  0.51100000000E-03 0.  1.
    9000002    1    1    2    0    0 -0.34692855468E+00 -0.12701850164E-02  0.80715154902E-01  0.10033543600E+01  0.93800000000E+00 0. -1.
         22    1    1    2    0    0  0.25486450875E+00  0.42777828916E-02  0.28024174930E+01  0.28139861447E+01  0.00000000000E+00 0.  1.
</event>
<event>
 5    1  0.6172503E+001  0.1562746E+01  0.7818608E-02  0.3394818E+00
         11   -1    0    0    0    0  0.00000000000E+00  0.00000000000E+00  0.39999999674E+01  0.40000000000E+01  0.51100000000E-03 0. -1.
    9000002   -1    0    0    0    0 -0.00000000000E+00 -0.00000000000E+00  0.00000000000E+00  0.93800000000E+00  0.93800000000E+00 0.  1.
         11    1    1    2    0    0  0.29794232111E-01 -0.12008175522E+00  0.53188327741E+00  0.54608369882E+00  0.51100000000E-03 0. -1.
    9000002    1    1    2    0    0 -0.12420751888E+00 -0.28082216992E+00  0.92545741968E-01  0.99131090644E+00  0.93800000000E+00 0.  1.
         22    1    1    2    0    0  0.94413286764E-01  0.40090392514E+00  0.33755709480E+01  0.34006053947E+01  0.00000000000E+00 0.  1.
</event>
<event>
 5    1  0.6172503E+001  0.1599653E+01  0.7818608E-02  0.3353740E+00
         11   -1    0    0    0    0  0.00000000000E+00  0.00000000000E+00  0.39999999674E+01  0.40000000000E+01  0.51100000000E-03 0. -1.
    9000002   -1    0    0    0    0 -0.00000000000E+00 -0.00000000000E+00  0.00000000000E+00  0.93800000000E+00  0.93800000000E+00 0.  1.
         11    1    1    2    0    0 -0.60959637842E-02  0.12997374681E+00  0.11757907407E+01  0.11829684960E+01  0.51100000000E-03 0. -1.
    9000002    1    1    2    0    0  0.21089543177E-01 -0.41159076203E+00  0.11477003936E+00  0.10309548420E+01  0.93800000000E+00 0.  1.
         22    1    1    2    0    0 -0.14993579393E-01  0.28161701522E+00  0.27094391873E+01  0.27240766620E+01  0.00000000000E+00 0. -1.
</event>
<event>
 5    1  0.6172503E+001  0.1599631E+01  0.7818608E-02  0.3353764E+00
         11   -1    0    0    0    0  0.00000000000E+00  0.00000000000E+00  0.39999999674E+01  0.40000000000E+01  0.51100000000E-03 0.  1.
    9000002   -1    0    0    0    0 -0.00000000000E+00 -0.00000000000E+00  0.00000000000E+00  0.93800000000E+00  0.93800000000E+00 0.  1.
         11    1    1    2    0    0 -0.68125515859E-01 -0.75156650146E-02  0.65304632879E+00  0.65663333741E+00  0.51100000000E-03 0.  1.
    9000002    1    1    2    0    0  0.43192283357E+00  0.67319058434E-01  0.12958209895E+00  0.10429404154E+01  0.93800000000E+00 0.  1.
         22    1    1    2    0    0 -0.36379731772E+00 -0.59803393419E-01  0.32173715396E+01  0.32384262472E+01  0.00000000000E+00 0.  1.
</event>
<event>
 5    1  0.6172503E+001  0.1596188E+01  0.7818608E-02  0.3357512E+00
         11   -1    0    0    0    0  0.00000000000E+00  0.00000000000E+00  0.39999999674E+01  0.40000000000E+01  0.51100000000E-03 0.  1.
    9000002   -1    0    0    0    0 -0.00000000000E+00 -0.00000000000E+00  0.00000000000E+00  0.93800000000E+00  0.93800000000E+00 0.  1.
         11    1    1    2    0    0 -0.83706651822E-01  0.11906827083E+00  0.62589574142E+00  0.64259613828E+00  0.51100000000E-03 0.  1.
    9000002    1    1    2    0    0  0.38216883769E+00 -0.41844669196E+00  0.22589416108E+00  0.11189382586E+01  0.93800000000E+00 0.  1.
         22    1    1    2    0    0 -0.29846218587E+00  0.29937842113E+00  0.31482100649E+01  0.31764656031E+01  0.00000000000E+00 0.  1.
</event>
<event>
 5    1  0.6172503E+001  0.1599559E+01  0.7818608E-02  0.3353843E+00
         11   -1    0    0    0    0  0.00000000000E+00  0.00000000000E+00  0.39999999674E+01  0.40000000000E+01  0.51100000000E-03 0.  1.
    9000002   -1    0    0    0    0 -0.00000000000E+00 -0.00000000000E+00  0.00000000000E+00  0.93800000000E+00  0.93800000000E+00 0. -1.
         11    1    1    2    0    0 -0.15182045216E-01  0.10201333831E+00  0.11793380451E+01  0.11838393900E+01  0.51100000000E-03 0.  1.
    9000002    1    1    2    0    0  0.16052015487E-01 -0.35884483843E+00  0.86699189035E-01  0.10081607187E+01  0.93800000000E+00 0. -1.
         22    1    1    2    0    0 -0.86997027112E-03  0.25683150012E+00  0.27339627333E+01  0.27459998913E+01  0.00000000000E+00 0.  1.
</event>
<event>
 5    1  0.6172503E+001  0.1557056E+01  0.7818608E-02  0.3401335E+00
         11   -1    0    0    0    0  0.00000000000E+00  0.00000000000E+00  0.39999999674E+01  0.40000000000E+01  0.51100000000E-03 0. -1.
    9000002   -1    0    0    0    0 -0.00000000000E+00 -0.00000000000E+00  0.00000000000E+00  0.93800000000E+00  0.93800000000E+00 0.  1.
         11    1    1    2    0    0 -0.97627437037E-01  0.22981734682E+00  0.14060595535E+01  0.14280584226E+01  0.51100000000E-03 0. -1.
    9000002    1    1    2    0    0 -0.10883012692E+00 -0.97552121962E-01  0.46212146450E-01  0.95044198955E+00  0.93800000000E+00 0.  1.
         22    1    1    2    0    0  0.20645756396E+00 -0.13226522486E+00  0.25477282675E+01  0.25594995878E+01  0.00000000000E+00 0. -1.
</event>
<event>
 5    1  0.6172503E+001  0.1503467E+01  0.7818608E-02  0.3465298E+00
         11   -1    0    0    0    0  0.00000000000E+00  0.00000000000E+00  0.39999999674E+01  0.40000000000E+01  0.51100000000E-03 0.  1.
    9000002   -1    0    0    0    0 -0.00000000000E+00 -0.00000000000E+00  0.00000000000E+00  0.93800000000E+00  0.93800000000E+00 0. -1.
         11    1    1    2    0    0  0.15377109248E-01  0.30012719388E+00  0.28706211057E+00  0.41559319586E+00  0.51100000000E-03 0.  1.
    9000002    1    1    2    0    0 -0.18289660818E-01  0.15390823523E+00  0.18898071600E+00  0.96931933210E+00  0.93800000000E+00 0. -1.
         22    1    1    2    0    0  0.29125515694E-02 -0.45403542911E+00  0.35239571408E+01  0.35530874720E+01  0.00000000000E+00 0.  1.
</event>
<event>
 5    1  0.6172503E+001  0.1468946E+01  0.7818608E-02  0.3509165E+00
         11   -1    0    0    0    0  0.00000000000E+00  0.00000000000E+00  0.39999999674E+01  0.40000000000E+01  0.51100000000E-03 0.  1.
    9000002   -1    0    0    0    0 -0.00000000000E+00 -0.00000000000E+00  0.00000000000E+00  0.93800000000E+00  0.93800000000E+00 0. -1.
         11    1    1    2    0    0 -0.30995594382E+00 -0.29305750849E+00  0.10594989090E+01  0.11421442946E+01  0.51100000000E-03 0.  1.
    9000002    1    1    2    0    0  0.16358819187E-01  0.17504968271E+00  0.12483384668E+00  0.96246428072E+00  0.93800000000E+00 0. -1.
         22    1    1    2    0    0  0.29359712464E+00  0.11800782578E+00  0.28156672117E+01  0.28333914247E+01  0.00000000000E+00 0.  1.
</event>
<event>
 5    1  0.6172503E+001  0.1578661E+01  0.7818608E-02  0.3376854E+00
         11   -1    0    0    0    0  0.00000000000E+00  0.00000000000E+00  0.39999999674E+01  0.40000000000E+01  0.51100000000E-03 0.  1.
    9000002   -1    0    0    0    0 -0.00000000000E+00 -0.00000000000E+00  0.00000000000E+00  0.93800000000E+00  0.93800000000E+00 0. -1.
         11    1    1    2    0    0  0.57362768519E-01 -0.50998386562E+00  0.12329317696E+01  0.13354755857E+01  0.51100000000E-03 0.  1.
    9000002    1    1    2    0    0 -0.42976550915E+00  0.94695261237E+00  0.93823328332E+00  0.16856877934E+01  0.93800000000E+00 0. -1.
         22    1    1    2    0    0  0.37240274063E+00 -0.43696874675E+00  0.18288349145E+01  0.19168366209E+01  0.00000000000E+00 0.  1.
</event>
<event>
 5    1  0.6172503E+001  0.1599624E+01  0.7818608E-02  0.3353772E+00
         11   -1    0    0    0    0  0.00000000000E+00  0.00000000000E+00  0.39999999674E+01  0.40000000000E+01  0.51100000000E-03 0.  1.
    9000002   -1    0    0    0    0 -0.00000000000E+00 -0.00000000000E+00  0.00000000000E+00  0.93800000000E+00  0.93800000000E+00 0. -1.
         11    1    1    2    0    0  0.36067743015E-01  0.94780714692E-01  0.10732105842E+01  0.10779914124E+01  0.51100000000E-03 0.  1.
    9000002    1    1    2    0    0 -0.10409529670E+00 -0.35380311260E+00  0.91436333678E-01  0.10120361043E+01  0.93800000000E+00 0. -1.
         22    1    1    2    0    0  0.68027553687E-01  0.25902239791E+00  0.28353530495E+01  0.28479724834E+01  0.00000000000E+00 0.  1.
</event>
<event>
 5    1  0.6172503E+001  0.1571174E+01  0.7818608E-02  0.3385257E+00
         11   -1    0    0    0    0  0.00000000000E+00  0.00000000000E+00  0.39999999674E+01  0.40000000000E+01  0.51100000000E-03 0. -1.
    9000002   -1    0    0    0    0 -0.00000000000E+00 -0.00000000000E+00  0.00000000000E+00  0.93800000000E+00  0.93800000000E+00 0.  1.
         11    1    1    2    0    0  0.33693416817E-01 -0.15338558345E+00  0.12036052282E+01  0.12138073118E+01  0.51100000000E-03 0. -1.
    9000002    1    1    2    0    0 -0.22962846485E+00 -0.98791037590E-01  0.63618897606E-01  0.97282077749E+00  0.93800000000E+00 0.  1.
         22    1    1    2    0    0  0.19593504803E+00  0.25217662104E+00  0.27327758415E+01  0.27513719108E+01  0.00000000000E+00 0. -1.
</event>
<event>
 5    1  0.6172503E+001  0.1599146E+01  0.7818608E-02  0.3354291E+00
         11   -1    0    0    0    0  0.00000000000E+00  0.00000000000E+00  0.39999999674E+01  0.40000000000E+01  0.51100000000E-03 0. -1.
    9000002   -1    0    0    0    0 -0.00000000000E+00 -0.00000000000E+00  0.00000000000E+00  0.93800000000E+00  0.93800000000E+00 0.  1.
         11    1    1    2    0    0 -0.57431314557E-01  0.94984452279E-02  0.68980344451E+00  0.69225546551E+00  0.51100000000E-03 0. -1.
    9000002    1    1    2    0    0  0.44095967100E+00 -0.41929651981E-01  0.13357735206E+00  0.10458921723E+01  0.93800000000E+00 0.  1.
         22    1    1    2    0    0 -0.38352835644E+00  0.32431206753E-01  0.31766191708E+01  0.31998523622E+01  0.00000000000E+00 0. -1.
</event>
<event>
 5    1  0.6172503E+001  0.1598869E+01  0.7818608E-02  0.3354592E+00
         11   -1    0    0    0    0  0.00000000000E+00  0.00000000000E+00  0.39999999674E+01  0.40000000000E+01  0.51100000000E-03 0.  1.
    9000002   -1    0    0    0    0 -0.00000000000E+00 -0.00000000000E+00  0.00000000000E+00  0.93800000000E+00  0.93800000000E+00 0. -1.
         11    1    1    2    0    0 -0.17260855396E+00  0.21004065177E-01  0.69465842440E+00  0.71609040725E+00  0.51100000000E-03 0.  1.
    9000002    1    1    2    0    0  0.76320957593E+00 -0.18319776164E+00  0.45254064597E+00  0.13041040269E+01  0.93800000000E+00 0. -1.
         22    1    1    2    0    0 -0.59060102198E+00  0.16219369647E+00  0.28528008970E+01  0.29178055659E+01  0.00000000000E+00 0. -1.
</event>
<event>
 5    1  0.6172503E+001  0.1599443E+01  0.7818608E-02  0.3353968E+00
         11   -1    0    0    0    0  0.00000000000E+00  0.00000000000E+00  0.39999999674E+01  0.40000000000E+01  0.51100000000E-03 0.  1.
    9000002   -1    0    0    0    0 -0.00000000000E+00 -0.00000000000E+00  0.00000000000E+00  0.93800000000E+00  0.93800000000E+00 0.  1.
         11    1    1    2    0    0 -0.43054883440E-01  0.12345693456E+00  0.10916312291E+01  0.10994336447E+01  0.51100000000E-03 0.  1.
    9000002    1    1    2    0    0  0.16244985226E+00 -0.38084781748E+00  0.11604596903E+00  0.10318651470E+01  0.93800000000E+00 0.  1.
         22    1    1    2    0    0 -0.11939496882E+00  0.25739088292E+00  0.27923227693E+01  0.28067012084E+01  0.00000000000E+00 0.  1.
</event>
<event>
 5    1  0.6172503E+001  0.1599674E+01  0.7818608E-02  0.3353718E+00
         11   -1    0    0    0    0  0.00000000000E+00  0.00000000000E+00  0.39999999674E+01  0.40000000000E+01  0.51100000000E-03 0.  1.
    9000002   -1    0    0    0    0 -0.00000000000E+00 -0.00000000000E+00  0.00000000000E+00  0.93800000000E+00  0.93800000000E+00 0. -1.
         11    1    1    2    0    0 -0.14165864698E+00  0.10180377617E+00  0.10592831287E+01  0.10735512047E+01  0.51100000000E-03 0.  1.
    9000002    1    1    2    0    0  0.49313372667E+00 -0.35915900754E+00  0.26023573483E+00  0.11488005496E+01  0.93800000000E+00 0. -1.
         22    1    1    2    0    0 -0.35147507968E+00  0.25735523137E+00  0.26804811038E+01  0.27156482457E+01  0.00000000000E+00 0.  1.
</event>
<event>
 5    1  0.6172503E+001  0.1374942E+01  0.7818608E-02  0.3647899E+00
         11   -1    0    0    0    0  0.00000000000E+00  0.00000000000E+00  0.39999999674E+01  0.40000000000E+01  0.51100000000E-03 0.  1.
    9000002   -1    0    0    0    0 -0.00000000000E+00 -0.00000000000E+00  0.00000000000E+00  0.93800000000E+00  0.93800000000E+00 0.  1.
         11    1    1    2    0    0  0.77354532893E-01  0.57979661553E+00  0.13485099206E+01  0.14699071761E+01  0.51100000000E-03 0.  1.
    9000002    1    1    2    0    0  0.69249676984E-01 -0.11293966396E+00  0.19993419222E+00  0.96817796230E+00  0.93800000000E+00 0.  1.
         22    1    1    2    0    0 -0.14660420988E+00 -0.46685695157E+00  0.24515558545E+01  0.24999148616E+01  0.00000000000E+00 0. -1.
</event>
<event>
 5    1  0.6172503E+001  0.1599677E+01  0.7818608E-02  0.3353714E+00
         11   -1    0    0    0    0  0.00000000000E+00  0.00000000000E+00  0.39999999674E+01  0.40000000000E+01  0.51100000000E-03 0.  1.
    9000002   -1    0    0    0    0 -0.00000000000E+00 -0.00000000000E+00  0.00000000000E+00  0.93800000000E+00  0.93800000000E+00 0.  1.
         11    1    1    2    0    0  0.32951312709E-01 -0.71396505678E-01  0.70508429347E+00  0.70945568717E+00  0.51100000000E-03 0.  1.
    9000002    1    1    2    0    0 -0.18289320982E+00  0.39349680910E+00  0.12758727231E+00  0.10413511305E+01  0.93800000000E+00 0.  1.
         22    1    1    2    0    0  0.14994189711E+00 -0.32210030342E+00  0.31673284016E+01  0.31871931823E+01  0.00000000000E+00 0. -1.
</event>
<event>
 5    1  0.6172503E+001  0.1501029E+01  0.7818608E-02  0.3468324E+00
         11   -1    0    0    0    0  0.00000000000E+00  0.00000000000E+00  0.39999999674E+01  0.40000000000E+01  0.51100000000E-03 0. -1.
    9000002   -1    0    0    0    0 -0.00000000000E+00 -0.00000000000E+00  0.00000000000E+00  0.93800000000E+00  0.93800000000E+00 0. -1.
         11    1    1    2    0    0 -0.14935293406E-01 -0.16027767283E+00  0.21402698514E+00  0.26780553931E+00  0.51100000000E-03 0. -1.
    9000002    1    1    2    0    0  0.49254758564E+00 -0.39631837104E+00  0.39088432885E+00  0.11967898453E+01  0.93800000000E+00 0. -1.
         22    1    1    2    0    0 -0.47761229224E+00  0.55659604387E+00  0.33950886534E+01  0.34734046154E+01  0.00000000000E+00 0. -1.
</event>
<event>
 5    1  0.6172503E+001  0.1599660E+01  0.7818608E-02  0.3353733E+00
         11   -1    0    0    0    0  0.00000000000E+00  0.00000000000E+00  0.39999999674E+01  0.40000000000E+01  0.51100000000E-03 0.  1.
    9000002   -1    0    0    0    0 -0.00000000000E+00 -0.00000000000E+00  0.00000000000E+00  0.93800000000E+00  0.93800000000E+00 0. -1.
         11    1    1    2    0    0  0.67359993954E-02 -0.31173364355E-03  0.55126863464E-01  0.55540103188E-01  0.51100000000E-03 0. -1.
    9000002    1    1    2    0    0 -0.45647166015E+00 -0.52154552680E-01  0.14358392936E+00  0.10542992074E+01  0.93800000000E+00 0. -1.
         22    1    1    2    0    0  0.44973566075E+00  0.52466286323E-01  0.38012891745E+01  0.38281606894E+01  0.00000000000E+00 0.  1.
</event>
<event>
 5    1  0.6172503E+001  0.1598212E+01  0.7818608E-02  0.3355307E+00
         11   -1    0    0    0    0  0.00000000000E+00  0.00000000000E+00  0.39999999674E+01  0.40000000000E+01  0.51100000000E-03 0. -1.
    9000002   -1    0    0    0    0 -0.00000000000E+00 -0.00000000000E+00  0.00000000000E+00  0.93800000000E+00  0.93800000000E+00 0. -1.
         11    1    1    2    0    0 -0.10423236518E-01 -0.33405638835E-01  0.61975566066E+00  0.62074303911E+00  0.51100000000E-03 0. -1.
    9000002    1    1    2    0    0  0.12214570013E+00  0.41283462168E+00  0.12678393064E+00  0.10398414119E+01  0.93800000000E+00 0. -1.
         22    1    1    2    0    0 -0.11172246361E+00 -0.37942898284E+00  0.32534603761E+01  0.32774155490E+01  0.00000000000E+00 0. -1.
</event>
<event>
 5    1  0.7644131E+001  0.1585537E+01  0.7818608E-02  0.3369212E+00
         11   -1    0    0    0    0  0.00000000000E+00  0.00000000000E+00  0.39999999674E+01  0.40000000000E+01  0.51100000000E-03 0.  1.
    9000002   -1    0    0    0    0 -0.00000000000E+00 -0.00000000000E+00  0.00000000000E+00  0.93800000000E+00  0.93800000000E+00 0.  1.
         11    1    1    2    0    0  0.13677890106E+00 -0.24620937217E-01  0.14116626600E+01  0.14184873581E+01  0.51100000000E-03 0.  1.
    9000002    1    1    2    0    0 -0.39133177079E-01  0.23972157735E+00  0.50021952520E-01  0.97022885750E+00  0.93800000000E+00 0.  1.
         22    1    1    2    0    0 -0.97645723977E-01 -0.21510064013E+00  0.25383153549E+01  0.25492837844E+01  0.00000000000E+00 0. -1.
</event>
<event>
 5    1  0.6172503E+001  0.1599675E+01  0.7818608E-02  0.3353716E+00
         11   -1    0    0    0    0  0.00000000000E+00  0.00000000000E+00  0.39999999674E+01  0.40000000000E+01  0.51100000000E-03 0. -1.
    9000002   -1    0    0    0    0 -0.00000000000E+00 -0.00000000000E+00  0.00000000000E+00  0.93800000000E+00  0.93800000000E+00 0. -1.
         11    1    1    2    0    0  0.94181302541E-02  0.48095889685E-01  0.42380775094E+00  0.42663237883E+00  0.51100000000E-03 0. -1.
    9000002    1    1    2    0    0 -0.80739690359E-01 -0.44572190594E+00  0.13942290455E+00  0.10509375154E+01  0.93800000000E+00 0. -1.
         22    1    1    2    0    0  0.71321560105E-01  0.39762601625E+00  0.34367693119E+01  0.34604301057E+01  0.00000000000E+00 0. -1.
</event>
<event>
 5    1  0.6172503E+001  0.1599097E+01  0.7818608E-02  0.3354344E+00
         11   -1    0    0    0    0  0.00000000000E+00  0.00000000000E+00  0.39999999674E+01  0.40000000000E+01  0.51100000000E-03 0. -1.
    9000002   -1    0    0    0    0 -0.00000000000E+00 -0.00000000000E+00  0.00000000000E+00  0.93800000000E+00  0.93800000000E+00 0.  1.
         11    1    1    2    0    0 -0.74762390274E-01 -0.23108693014E-01  0.59202482628E+00  0.59717424822E+00  0.51100000000E-03 0. -1.
    9000002    1    1    2    0    0  0.41998187228E+00  0.33739611471E-01  0.12057125652E+00  0.10353282389E+01  0.93800000000E+00 0.  1.
         22    1    1    2    0    0 -0.34521948201E+00 -0.10630918457E-01  0.32874038846E+01  0.33054975128E+01  0.00000000000E+00 0. -1.
</event>
<event>
 5    1  0.6172503E+001  0.1599677E+01  0.7818608E-02  0.3353714E+00
         11   -1    0    0    0    0  0.00000000000E+00  0.00000000000E+00  0.39999999674E+01  0.40000000000E+01  0.51100000000E-03 0. -1.
    9000002   -1    0    0    0    0 -0.00000000000E+00 -0.00000000000E+00  0.00000000000E+00  0.93800000000E+00  0.93800000000E+00 0. -1.
         11    1    1    2    0    0  0.31319319956E-01 -0.15297518355E+00  0.13538501303E+01  0.13628252797E+01  0.51100000000E-03 0. -1.
    9000002    1    1    2    0    0 -0.89442328001E-01  0.43600136548E+00  0.13444756297E+00  0.10469084334E+01  0.93800000000E+00 0. -1.
         22    1    1    2    0    0  0.58123008046E-01 -0.28302618193E+00  0.25117022741E+01  0.25282662869E+01  0.00000000000E+00 0. -1.
</event>
<event>
 5    1  0.6172503E+001  0.1599635E+01  0.7818608E-02  0.3353759E+00
         11   -1    0    0    0    0  0.00000000000E+00  0.00000000000E+00  0.39999999674E+01  0.40000000000E+01  0.51100000000E-03 0. -1.
    9000002   -1    0    0    0    0 -0.00000000000E+00 -0.00000000000E+00  0.00000000000E+00  0.93800000000E+00  0.93800000000E+00 0.  1.
         11    1    1    2    0    0  0.74242005696E-01 -0.52793665075E-01  0.84077402854E+00  0.84569514287E+00  0.51100000000E-03 0. -1.
    9000002    1    1    2    0    0 -0.35566644263E+00  0.21726302377E+00  0.11745906597E+00  0.10331226801E+01  0.93800000000E+00 0.  1.
         22    1    1    2    0    0  0.28142443693E+00 -0.16446935870E+00  0.30417668728E+01  0.30591821771E+01  0.00000000000E+00 0. -1.
</event>
<event>
 5    1  0.6172503E+001  0.1593553E+01  0.7818608E-02  0.3360390E+00
         11   -1    0    0    0    0  0.00000000000E+00  0.00000000000E+00  0.39999999674E+01  0.40000000000E+01  0.51100000000E-03 0.  1.
    9000002   -1    0    0    0    0 -0.00000000000E+00 -0.00000000000E+00  0.00000000000E+00  0.93800000000E+00  0.93800000000E+00 0.  1.
         11    1    1    2    0    0  0.39573508074E+00 -0.11133842853E+00  0.13513362459E+01  0.14124844815E+01  0.51100000000E-03 0.  1.
    9000002    1    1    2    0    0 -0.77714698920E+00  0.28172679018E+00  0.51639914161E+00  0.13527156023E+01  0.93800000000E+00 0.  1.
         22    1    1    2    0    0  0.38141190846E+00 -0.17038836165E+00  0.21322645798E+01  0.21727999163E+01  0.00000000000E+00 0. -1.
</event>
<event>
 5    1  0.6172503E+001  0.1599640E+01  0.7818608E-02  0.3353754E+00
         11   -1    0    0    0    0  0.00000000000E+00  0.00000000000E+00  0.39999999674E+01  0.40000000000E+01  0.51100000000E-03 0. -1.
    9000002   -1    0    0    0    0 -0.00000000000E+00 -0.00000000000E+00  0.00000000000E+00  0.93800000000E+00  0.93800000000E+00 0.  1.
         11    1    1    2    0    0  0.92809547929E-01 -0.25878862993E-01  0.10416793550E+01  0.10461259329E+01  0.51100000000E-03 0. -1.
    9000002    1    1    2    0    0 -0.37117675576E+00  0.10255859762E+00  0.99868167302E-01  0.10188759006E+01  0.93800000000E+00 0.  1.
         22    1    1    2    0    0  0.27836720783E+00 -0.76679734631E-01  0.28584524451E+01  0.28729981665E+01  0.00000000000E+00 0. -1.
</event>
<event>
 5    1  0.6172503E+001  0.1599676E+01  0.7818608E-02  0.3353716E+00
         11   -1    0    0    0    0  0.00000000000E+00  0.00000000000E+00  0.39999999674E+01  0.40000000000E+01  0.51100000000E-03 0. -1.
    9000002   -1    0    0    0    0 -0.00000000000E+00 -0.00000000000E+00  0.00000000000E+00  0.93800000000E+00  0.93800000000E+00 0.  1.
         11    1    1    2    0    0 -0.80378225370E-01  0.12570681503E+00  0.14724583315E+01  0.14799988721E+01  0.51100000000E-03 0. -1.
    9000002    1    1    2    0    0  0.20961903171E+00 -0.33477437106E+00  0.10516858502E+00  0.10231903289E+01  0.93800000000E+00 0.  1.
         22    1    1    2    0    0 -0.12924080634E+00  0.20906755603E+00  0.24223730509E+01  0.24348107989E+01  0.00000000000E+00 0. -1.
</event>
<event>
 5    1  0.6172503E+001  0.1599670E+01  0.7818608E-02  0.3353722E+00
         11   -1    0    0    0    0  0.00000000000E+00  0.00000000000E+00  0.39999999674E+01  0.40000000000E+01  0.51100000000E-03 0. -1.
    9000002   -1    0    0    0    0 -0.00000000000E+00 -0.00000000000E+00  0.00000000000E+00  0.93800000000E+00  0.93800000000E+00 0. -1.
         11    1    1    2    0    0 -0.87239831942E-01  0.47944365343E-01  0.97242821076E+00  0.97751027445E+00  0.51100000000E-03 0. -1.
    9000002    1    1    2    0    0  0.34995290722E+00 -0.18104554739E+00  0.10464158471E+00  0.10227601814E+01  0.93800000000E+00 0. -1.
         22    1    1    2    0    0 -0.26271307527E+00  0.13310118205E+00  0.29229301719E+01  0.29377295441E+01  0.00000000000E+00 0. -1.
</event>
<event>
 5    1  0.6172503E+001  0.1597567E+01  0.7818608E-02  0.3356008E+00
         11   -1    0    0    0    0  0.00000000000E+00  0.00000000000E+00  0.39999999674E+01  0.40000000000E+01  0.51100000000E-03 0. -1.
    9000002   -1    0    0    0    0 -0.00000000000E+00 -0.00000000000E+00  0.00000000000E+00  0.93800000000E+00  0.93800000000E+00 0.  1.
         11    1    1    2    0    0  0.24763951132E-01 -0.13139158979E+00  0.10427623113E+01  0.10512994351E+01  0.51100000000E-03 0. -1.
    9000002    1    1    2    0    0 -0.19428742877E+00  0.33858102585E+00  0.10440716065E+00  0.10213371487E+01  0.93800000000E+00 0.  1.
         22    1    1    2    0    0  0.16952347764E+00 -0.20718943606E+00  0.28528304954E+01  0.28653634163E+01  0.00000000000E+00 0. -1.
</event>
<event>
 5    1  0.6172503E+001  0.1595550E+01  0.7818608E-02  0.3358207E+00
         11   -1    0    0    0    0  0.00000000000E+00  0.00000000000E+00  0.39999999674E+01  0.40000000000E+01  0.51100000000E-03 0.  1.
    9000002   -1    0    0    0    0 -0.00000000000E+00 -0.00000000000E+00  0.00000000000E+00  0.93800000000E+00  0.93800000000E+00 0.  1.
         11    1    1    2    0    0  0.30713647633E-01  0.25651978147E+00  0.13583307056E+01  0.13826815589E+01  0.51100000000E-03 0.  1.
    9000002    1    1    2    0    0 -0.17981585953E+00 -0.52877869798E+00  0.21974846405E+00  0.11135861180E+01  0.93800000000E+00 0.  1.
         22    1    1    2    0    0  0.14910221190E+00  0.27225891651E+00  0.24219207977E+01  0.24417323231E+01  0.00000000000E+00 0.  1.
</event>
<event>
 5    1  0.6172503E+001  0.1599672E+01  0.7818608E-02  0.3353719E+00
         11   -1    0    0    0    0  0.00000000000E+00  0.00000000000E+00  0.39999999674E+01  0.40000000000E+01  0.51100000000E-03 0. -1.
    9000002   -1    0    0    0    0 -0.00000000000E+00 -0.00000000000E+00  0.00000000000E+00  0.93800000000E+00  0.93800000000E+00 0. -1.
         11    1    1    2    0    0 -0.26764111678E-01  0.29797091829E-02  0.22526038165E+00  0.22686493119E+00  0.51100000000E-03 0. -1.
    9000002    1    1    2    0    0  0.47257625768E+00 -0.63275378842E-01  0.15503824163E+00  0.10635849516E+01  0.93800000000E+00 0. -1.
         22    1    1    2    0    0 -0.44581214600E+00  0.60295669659E-01  0.36197013441E+01  0.36475501172E+01  0.00000000000E+00 0. -1.
</event>
<event>
 5    1  0.6172503E+001  0.1598646E+01  0.7818608E-02  0.3354834E+00
         11   -1    0    0    0    0  0.00000000000E+00  0.00000000000E+00  0.39999999674E+01  0.40000000000E+01  0.51100000000E-03 0.  1.
    9000002   -1    0    0    0    0 -0.00000000000E+00 -0.00000000000E+00  0.00000000000E+00  0.93800000000E+00  0.93800000000E+00 0.  1.
         11    1    1    2    0    0  0.18550318519E-01 -0.17107606226E+00  0.13986167825E+01  0.14091629781E+01  0.51100000000E-03 0.  1.
    9000002    1    1    2    0    0  0.51205616262E-01  0.46976349729E+00  0.15308956723E+00  0.10614048116E+01  0.93800000000E+00 0.  1.
         22    1    1    2    0    0 -0.69755934781E-01 -0.29868743504E+00  0.24482936176E+01  0.24674322103E+01  0.00000000000E+00 0.  1.
</event>
<event>
 5    1  0.6172503E+001  0.1589663E+01  0.7818608E-02  0.3364659E+00
         11   -1    0    0    0    0  0.00000000000E+00  0.00000000000E+00  0.39999999674E+01  0.40000000000E+01  0.51100000000E-03 0. -1.
    9000002   -1    0    0    0    0 -0.00000000000E+00 -0.00000000000E+00  0.00000000000E+00  0.93800000000E+00  0.93800000000E+00 0.  1.
         11    1    1    2    0    0 -0.37273153577E-01  0.24354212913E-02  0.23246327217E+00  0.23544564826E+00  0.51100000000E-03 0. -1.
    9000002    1    1    2    0    0 -0.32838019632E+00 -0.11442179978E+00  0.89157729976E-01  0.10043500398E+01  0.93800000000E+00 0.  1.
         22    1    1    2    0    0  0.36565334990E+00  0.11198637849E+00  0.36783789652E+01  0.36982043120E+01  0.00000000000E+00 0. -1.
</event>
<event>
 5    1  0.6172503E+001  0.1597017E+01  0.7818608E-02  0.3356607E+00
         11   -1    0    0    0    0  0.00000000000E+00  0.00000000000E+00  0.39999999674E+01  0.40000000000E+01  0.51100000000E-03 0. -1.
    9000002   -1    0    0    0    0 -0.00000000000E+00 -0.00000000000E+00  0.00000000000E+00  0.93800000000E+00  0.93800000000E+00 0. -1.
         11    1    1    2    0    0  0.14331970777E-01 -0.36157157344E-03  0.67569066677E+00  0.67584293620E+00  0.51100000000E-03 0. -1.
    9000002    1    1    2    0    0 -0.25096051174E+00  0.21691386562E+00  0.75755207488E-01  0.99780541941E+00  0.93800000000E+00 0. -1.
         22    1    1    2    0    0  0.23662854096E+00 -0.21655229404E+00  0.32485540931E+01  0.32643516444E+01  0.00000000000E+00 0. -1.
</event>
<event>
 5    1  0.6172503E+001  0.1257965E+01  0.7818608E-02  0.3865659E+00
         11   -1    0    0    0    0  0.00000000000E+00  0.00000000000E+00  0.39999999674E+01  0.40000000000E+01  0.51100000000E-03 0. -1.
    9000002   -1    0    0    0    0 -0.00000000000E+00 -0.00000000000E+00  0.00000000000E+00  0.93800000000E+00  0.93800000000E+00 0. -1.
         11    1    1    2    0    0  0.29359383944E+00  0.51268840364E+00  0.61370509739E+00  0.85186909175E+00  0.51100000000E-03 0. -1.
    9000002    1    1    2    0    0  0.31778040148E+00 -0.35901852323E+00  0.56523768336E+00  0.11954983573E+01  0.93800000000E+00 0. -1.
         22    1    1    2    0    0 -0.61137424091E+00 -0.15366988042E+00  0.28210571866E+01  0.28906325510E+01  0.00000000000E+00 0. -1.
</event>
<event>
 5    1  0.6172503E+001  0.1566737E+01  0.7818608E-02  0.3390277E+00
         11   -1    0    0    0    0  0.00000000000E+00  0.00000000000E+00  0.39999999674E+01  0.40000000000E+01  0.51100000000E-03 0.  1.
    9000002   -1    0    0    0    0 -0.00000000000E+00 -0.00000000000E+00  0.00000000000E+00  0.93800000000E+00  0.93800000000E+00 0. -1.
         11    1    1    2    0    0 -0.33360583632E+00 -0.33299185928E-02  0.90242313051E+00  0.96211834510E+00  0.51100000000E-03 0.  1.
    9000002    1    1    2    0    0  0.59149381033E+00  0.13417833368E+00  0.29079528255E+00  0.11542420237E+01  0.93800000000E+00 0. -1.
         22    1    1    2    0    0 -0.25788797401E+00 -0.13084841509E+00  0.28067815543E+01  0.28216396312E+01  0.00000000000E+00 0.  1.
</event>
<event>
 5    1  0.6172503E+001  0.1599676E+01  0.7818608E-02  0.3353715E+00
         11   -1    0    0    0    0  0.00000000000E+00  0.00000000000E+00  0.39999999674E+01  0.40000000000E+01  0.51100000000E-03 0. -1.
    9000002   -1    0    0    0    0 -0.00000000000E+00 -0.00000000000E+00  0.00000000000E+00  0.93800000000E+00  0.93800000000E+00 0. -1.
         11    1    1    2    0    0 -0.61485557759E-01 -0.57079821937E-01  0.70295584860E+00  0.70794474790E+00  0.51100000000E-03 0. -1.
    9000002    1    1    2    0    0  0.33559254607E+00  0.30918074205E+00  0.14154988095E+00  0.10526611311E+01  0.93800000000E+00 0. -1.
         22    1    1    2    0    0 -0.27410698831E+00 -0.25210092011E+00  0.31554942378E+01  0.31773941209E+01  0.00000000000E+00 0. -1.
</event>
<event>
 5    1  0.6172503E+001  0.1599432E+01  0.7818608E-02  0.3353980E+00
         11   -1    0    0    0    0  0.00000000000E+00  0.00000000000E+00  0.39999999674E+01  0.40000000000E+01  0.51100000000E-03 0. -1.
    9000002   -1    0    0    0    0 -0.00000000000E+00 -0.00000000000E+00  0.00000000000E+00  0.93800000000E+00  0.93800000000E+00 0.  1.
         11    1    1    2    0    0 -0.11927189657E+00  0.53480316401E-01  0.11187696381E+01  0.11263799065E+01  0.51100000000E-03 0. -1.
    9000002    1    1    2    0    0  0.35809122880E+00 -0.20516303182E+00  0.11528136007E+00  0.10312395404E+01  0.93800000000E+00 0.  1.
         22    1    1    2    0    0 -0.23881933223E+00  0.15168271542E+00  0.27659489692E+01  0.27803805531E+01  0.00000000000E+00 0. -1.
</event>
<event>
 5    1  0.6172503E+001  0.1599651E+01  0.7818608E-02  0.3353742E+00
         11   -1    0    0    0    0  0.00000000000E+00  0.00000000000E+00  0.39999999674E+01  0.40000000000E+01  0.51100000000E-03 0. -1.
    9000002   -1    0    0    0    0 -0.00000000000E+00 -0.00000000000E+00  0.00000000000E+00  0.93800000000E+00  0.93800000000E+00 0. -1.
         11    1    1    2    0    0  0.46493770294E-02 -0.15023117138E+00  0.11595683090E+01  0.11692689793E+01  0.51100000000E-03 0. -1.
    9000002    1    1    2    0    0 -0.27553920738E-01  0.48337876509E+00  0.16007490660E+00  0.10676526705E+01  0.93800000000E+00 0. -1.
         22    1    1    2    0    0  0.22904543709E-01 -0.33314759371E+00  0.26803567518E+01  0.27010783502E+01  0.00000000000E+00 0. -1.
</event>
<event>
 5    1  0.6172503E+001  0.1599563E+01  0.7818608E-02  0.3353838E+00
         11   -1    0    0    0    0  0.00000000000E+00  0.00000000000E+00  0.39999999674E+01  0.40000000000E+01  0.51100000000E-03 0. -1.
    9000002   -1    0    0    0    0 -0.00000000000E+00 -0.00000000000E+00  0.00000000000E+00  0.93800000000E+00  0.93800000000E+00 0. -1.
         11    1    1    2    0    0  0.17340250576E+00  0.10214895228E-01  0.12512898577E+01  0.12632890968E+01  0.51100000000E-03 0. -1.
    9000002    1    1    2    0    0 -0.52019792329E+00  0.47044045651E-02  0.18601085227E+00  0.10886101451E+01  0.93800000000E+00 0. -1.
         22    1    1    2    0    0  0.34679541752E+00 -0.14919299793E-01  0.25626992574E+01  0.25861007581E+01  0.00000000000E+00 0. -1.
</event>
<event>
 5    1  0.6172503E+001  0.1591112E+01  0.7818608E-02  0.3363067E+00
         11   -1    0    0    0    0  0.00000000000E+00  0.00000000000E+00  0.39999999674E+01  0.40000000000E+01  0.51100000000E-03 0.  1.
    9000002   -1    0    0    0    0 -0.00000000000E+00 -0.00000000000E+00  0.00000000000E+00  0.93800000000E+00  0.93800000000E+00 0.  1.
         11    1    1    2    0    0 -0.15053386304E+00 -0.31234853233E-02  0.12375894822E+01  0.12467149584E+01  0.51100000000E-03 0.  1.
    9000002    1    1    2    0    0  0.27828394719E+00  0.27121491600E+00  0.10880990813E+00  0.10211185446E+01  0.93800000000E+00 0.  1.
         22    1    1    2    0    0 -0.12775008414E+00 -0.26809143068E+00  0.26536005771E+01  0.26701664970E+01  0.00000000000E+00 0.  1.
</event>
<event>
 5    1  0.6172503E+001  0.1599330E+01  0.7818608E-02  0.3354091E+00
         11   -1    0    0    0    0  0.00000000000E+00  0.00000000000E+00  0.39999999674E+01  0.40000000000E+01  0.51100000000E-03 0.  1.
    9000002   -1    0    0    0    0 -0.00000000000E+00 -0.00000000000E+00  0.00000000000E+00  0.93800000000E+00  0.93800000000E+00 0. -1.
         11    1    1    2    0    0 -0.64726949586E-01 -0.17134258787E+00  0.10571877292E+01  0.10729370980E+01  0.51100000000E-03 0.  1.
    9000002    1    1    2    0    0  0.28192245337E+00  0.55710733023E+00  0.27381357093E+00  0.11595976538E+01  0.93800000000E+00 0. -1.
         22    1    1    2    0    0 -0.21719550378E+00 -0.38576474236E+00  0.26689986672E+01  0.27054652482E+01  0.00000000000E+00 0.  1.
</event>
<event>
 5    1  0.6172503E+001  0.1599672E+01  0.7818608E-02  0.3353720E+00
         11   -1    0    0    0    0  0.00000000000E+00  0.00000000000E+00  0.39999999674E+01  0.40000000000E+01  0.51100000000E-03 0.  1.
    9000002   -1    0    0    0    0 -0.00000000000E+00 -0.00000000000E+00  0.00000000000E+00  0.93800000000E+00  0.93800000000E+00 0.  1.
         11    1    1    2    0    0 -0.21002170565E+00  0.12547404966E-01  0.14324215632E+01  0.14477908516E+01  0.51100000000E-03 0.  1.
    9000002    1    1    2    0    0  0.55195682180E+00 -0.39286582249E-01  0.21163256843E+00  0.11094287326E+01  0.93800000000E+00 0.  1.
         22    1    1    2    0    0 -0.34193511616E+00  0.26739177282E-01  0.23559458357E+01  0.23807804158E+01  0.00000000000E+00 0.  1.
</event>
<event>
 5    1  0.6172503E+001  0.1599674E+01  0.7818608E-02  0.3353717E+00
         11   -1    0    0    0    0  0.00000000000E+00  0.00000000000E+00  0.39999999674E+01  0.40000000000E+01  0.51100000000E-03 0.  1.
    9000002   -1    0    0    0    0 -0.00000000000E+00 -0.00000000000E+00  0.00000000000E+00  0.93800000000E+00  0.93800000000E+00 0. -1.
         11    1    1    2    0    0  0.40702523418E-01 -0.10274096290E+00  0.92512402289E+00  0.93170119658E+00  0.51100000000E-03 0.  1.
    9000002    1    1    2    0    0 -0.16427719865E+00  0.43309973614E+00  0.14601920763E+00  0.10562802604E+01  0.93800000000E+00 0. -1.
         22    1    1    2    0    0  0.12357467523E+00 -0.33035877324E+00  0.29288567368E+01  0.29500185431E+01  0.00000000000E+00 0.  1.
</event>
<event>
 5    1  0.6172503E+001  0.1599660E+01  0.7818608E-02  0.3353733E+00
         11   -1    0    0    0    0  0.00000000000E+00  0.00000000000E+00  0.39999999674E+01  0.40000000000E+01  0.51100000000E-03 0.  1.
    9000002   -1    0    0    0    0 -0.00000000000E+00 -0.00000000000E+00  0.00000000000E+00  0.93800000000E+00  0.93800000000E+00 0.  1.
         11    1    1    2    0    0  0.33323524657E-01 -0.45195311180E-01  0.40986409503E+00  0.41369301536E+00  0.51100000000E-03 0.  1.
    9000002    1    1    2    0    0 -0.32500726655E+00  0.44182740868E+00  0.20774829468E+00  0.11062750726E+01  0.93800000000E+00 0.  1.
         22    1    1    2    0    0  0.29168374189E+00 -0.39663209750E+00  0.33823875777E+01  0.34180319120E+01  0.00000000000E+00 0.  1.
</event>
<event>
 5    1  0.6172503E+001  0.1599284E+01  0.7818608E-02  0.3354141E+00
         11   -1    0    0    0    0  0.00000000000E+00  0.00000000000E+00  0.39999999674E+01  0.40000000000E+01  0.51100000000E-03 0. -1.
    9000002   -1    0    0    0    0 -0.00000000000E+00 -0.00000000000E+00  0.00000000000E+00  0.93800000000E+00  0.93800000000E+00 0. -1.
         11    1    1    2    0    0  0.16204993580E+00  0.97252089925E-01  0.12412472863E+01  0.12555529609E+01  0.51100000000E-03 0. -1.
    9000002    1    1    2    0    0 -0.53066743125E+00 -0.34266126714E+00  0.28076743064E+00  0.11652034229E+01  0.93800000000E+00 0. -1.
         22    1    1    2    0    0  0.36861749545E+00  0.24540917722E+00  0.24779852504E+01  0.25172436162E+01  0.00000000000E+00 0. -1.
</event>
<event>
 5    1  0.6172503E+001  0.1576047E+01  0.7818608E-02  0.3379779E+00
         11   -1    0    0    0    0  0.00000000000E+00  0.00000000000E+00  0.39999999674E+01  0.40000000000E+01  0.51100000000E-03 0. -1.
    9000002   -1    0    0    0    0 -0.00000000000E+00 -0.00000000000E+00  0.00000000000E+00  0.93800000000E+00  0.93800000000E+00 0. -1.
         11    1    1    2    0    0  0.19404244397E-01 -0.15129294170E+00  0.12098754041E+01  0.12194526778E+01  0.51100000000E-03 0. -1.
    9000002    1    1    2    0    0  0.32101890335E+00  0.91269008121E-01  0.93641706814E-01  0.99999796870E+00  0.93800000000E+00 0. -1.
         22    1    1    2    0    0 -0.34042314775E+00  0.60023933578E-01  0.26964828565E+01  0.27185493535E+01  0.00000000000E+00 0. -1.
</event>
<event>
 5    1  0.6172503E+001  0.1592247E+01  0.7818608E-02  0.3361821E+00
         11   -1    0    0    0    0  0.00000000000E+00  0.00000000000E+00  0.39999999674E+01  0.40000000000E+01  0.51100000000E-03 0.  1.
    9000002   -1    0    0    0    0 -0.00000000000E+00 -0.00000000000E+00  0.00000000000E+00  0.93800000000E+00  0.93800000000E+00 0.  1.
         11    1    1    2    0    0  0.17686594308E+00 -0.29068520808E+00  0.14172094939E+01  0.14574849786E+01  0.51100000000E-03 0.  1.
    9000002    1    1    2    0    0 -0.41013073968E+00  0.49702110129E+00  0.30042857319E+00  0.11770040469E+01  0.93800000000E+00 0.  1.
         22    1    1    2    0    0  0.23326479660E+00 -0.20633589321E+00  0.22823619003E+01  0.23035109746E+01  0.00000000000E+00 0.  1.
</event>
<event>
 5    1  0.6172503E+001  0.1599677E+01  0.7818608E-02  0.3353714E+00
         11   -1    0    0    0    0  0.00000000000E+00  0.00000000000E+00  0.39999999674E+01  0.40000000000E+01  0.51100000000E-03 0. -1.
    9000002   -1    0    0    0    0 -0.00000000000E+00 -0.00000000000E+00  0.00000000000E+00  0.93800000000E+00  0.93800000000E+00 0. -1.
         11    1    1    2    0    0 -0.12610896833E+00  0.31678702945E-01  0.13194671563E+01  0.13258585331E+01  0.51100000000E-03 0.  1.
    9000002    1    1    2    0    0  0.37378563909E+00 -0.92683245217E-01  0.99848456794E-01  0.10188815448E+01  0.93800000000E+00 0. -1.
         22    1    1    2    0    0 -0.24767667077E+00  0.61004542272E-01  0.25806843543E+01  0.25932599222E+01  0.00000000000E+00 0. -1.
</event>
<event>
 5    1  0.6172503E+001  0.1568677E+01  0.7818608E-02  0.3388078E+00
         11   -1    0    0    0    0  0.00000000000E+00  0.00000000000E+00  0.39999999674E+01  0.40000000000E+01  0.51100000000E-03 0. -1.
    9000002   -1    0    0    0    0 -0.00000000000E+00 -0.00000000000E+00  0.00000000000E+00  0.93800000000E+00  0.93800000000E+00 0.  1.
         11    1    1    2    0    0 -0.26779891492E-02 -0.71409269702E-01  0.99221613121E-01  0.12227691956E+00  0.51100000000E-03 0. -1.
    9000002    1    1    2    0    0 -0.39248604748E+00  0.80633778569E-01  0.13457597267E+00  0.10288351647E+01  0.93800000000E+00 0.  1.
         22    1    1    2    0    0  0.39516403663E+00 -0.92245088663E-02  0.37662023816E+01  0.37868879157E+01  0.00000000000E+00 0. -1.
</event>
<event>
 5    1  0.6172503E+001  0.1599312E+01  0.7818608E-02  0.3354110E+00
         11   -1    0    0    0    0  0.00000000000E+00  0.00000000000E+00  0.39999999674E+01  0.40000000000E+01  0.51100000000E-03 0. -1.
    9000002   -1    0    0    0    0 -0.00000000000E+00 -0.00000000000E+00  0.00000000000E+00  0.93800000000E+00  0.93800000000E+00 0.  1.
         11    1    1    2    0    0 -0.43541774166E-02 -0.38785268074E-01  0.53086800808E+00  0.53230100414E+00  0.51100000000E-03 0. -1.
    9000002    1    1    2    0    0  0.14163529899E+00  0.32471086313E+00  0.84481710802E-01  0.10062200863E+01  0.93800000000E+00 0.  1.
         22    1    1    2    0    0 -0.13728112158E+00 -0.28592559505E+00  0.33846502485E+01  0.33994789096E+01  0.00000000000E+00 0. -1.
</event>
<event>
 5    1  0.6172503E+001  0.1599673E+01  0.7818608E-02  0.3353718E+00
         11   -1    0    0    0    0  0.00000000000E+00  0.00000000000E+00  0.39999999674E+01  0.40000000000E+01  0.51100000000E-03 0.  1.
    9000002   -1    0    0    0    0 -0.00000000000E+00 -0.00000000000E+00  0.00000000000E+00  0.93800000000E+00  0.93800000000E+00 0. -1.
         11    1    1    2    0    0  0.77391217513E-02 -0.57035313864E-02  0.95083802435E-01  0.95569947589E-01  0.51100000000E-03 0.  1.
    9000002    1    1    2    0    0 -0.32264015733E+00  0.21323898980E+00  0.10072103734E+00  0.10195863206E+01  0.93800000000E+00 0. -1.
         22    1    1    2    0    0  0.31490103558E+00 -0.20753545841E+00  0.38041951276E+01  0.38228437318E+01  0.00000000000E+00 0.  1.
</event>
<event>
 5    1  0.6172503E+001  0.1599654E+01  0.7818608E-02  0.3353738E+00
         11   -1    0    0    0    0  0.00000000000E+00  0.00000000000E+00  0.39999999674E+01  0.40000000000E+01  0.51100000000E-03 0.  1.
    9000002   -1    0    0    0    0 -0.00000000000E+00 -0.00000000000E+00  0.00000000000E+00  0.93800000000E+00  0.93800000000E+00 0. -1.
         11    1    1    2    0    0 -0.14098137559E+00 -0.28275643890E-01  0.10560893594E+01  0.10658331279E+01  0.51100000000E-03 0.  1.
    9000002    1    1    2    0    0  0.50984840901E+00  0.12045875094E+00  0.18867899346E+00  0.10908251342E+01  0.93800000000E+00 0. -1.
         22    1    1    2    0    0 -0.36886703342E+00 -0.92183107053E-01  0.27552316145E+01  0.27813417379E+01  0.00000000000E+00 0.  1.
</event>
<event>
 5    1  0.6172503E+001  0.1599438E+01  0.7818608E-02  0.3353974E+00
         11   -1    0    0    0    0  0.00000000000E+00  0.00000000000E+00  0.39999999674E+01  0.40000000000E+01  0.51100000000E-03 0.  1.
    9000002   -1    0    0    0    0 -0.00000000000E+00 -0.00000000000E+00  0.00000000000E+00  0.93800000000E+00  0.93800000000E+00 0. -1.
         11    1    1    2    0    0  0.38110038715E-01  0.27791536869E-02  0.34060859440E+00  0.34274564103E+00  0.51100000000E-03 0.  1.
    9000002    1    1    2    0    0 -0.54202894114E+00 -0.80915371776E-02  0.20289225031E+00  0.11022114639E+01  0.93800000000E+00 0. -1.
         22    1    1    2    0    0  0.50391890242E+00  0.53123834907E-02  0.34564991227E+01  0.34930428950E+01  0.00000000000E+00 0.  1.
</event>
<event>
 5    1  0.6172503E+001  0.1551177E+01  0.7818608E-02  0.3408121E+00
         11   -1    0    0    0    0  0.00000000000E+00  0.00000000000E+00  0.39999999674E+01  0.40000000000E+01  0.51100000000E-03 0.  1.
    9000002   -1    0    0    0    0 -0.00000000000E+00 -0.00000000000E+00  0.00000000000E+00  0.93800000000E+00  0.93800000000E+00 0.  1.
         11    1    1    2    0    0  0.21389888526E+00  0.55868311548E-01  0.12655559647E+01  0.12847202662E+01  0.51100000000E-03 0.  1.
    9000002    1    1    2    0    0  0.96038844304E-01 -0.29262977542E+00  0.10247857404E+00  0.99257317272E+00  0.93800000000E+00 0.  1.
         22    1    1    2    0    0 -0.30993772956E+00  0.23676146387E+00  0.26319654286E+01  0.26607065611E+01  0.00000000000E+00 0.  1.
</event>
<event>
 5    1  0.6172503E+001  0.1504182E+01  0.7818608E-02  0.3464412E+00
         11   -1    0    0    0    0  0.00000000000E+00  0.00000000000E+00  0.39999999674E+01  0.40000000000E+01  0.51100000000E-03 0. -1.
    9000002   -1    0    0    0    0 -0.00000000000E+00 -0.00000000000E+00  0.00000000000E+00  0.93800000000E+00  0.93800000000E+00 0. -1.
         11    1    1    2    0    0 -0.23170803627E+00  0.84635970074E-01  0.61347774984E+00  0.66121635806E+00  0.51100000000E-03 0. -1.
    9000002    1    1    2    0    0 -0.11873215428E+00  0.15574900505E+00  0.10059753904E+00  0.96349309385E+00  0.93800000000E+00 0. -1.
         22    1    1    2    0    0  0.35044019054E+00 -0.24038497513E+00  0.32859246785E+01  0.33132905481E+01  0.00000000000E+00 0. -1.
</event>
<event>
 5    1  0.6172503E+001  0.1586536E+01  0.7818608E-02  0.3368107E+00
         11   -1    0    0    0    0  0.00000000000E+00  0.00000000000E+00  0.39999999674E+01  0.40000000000E+01  0.51100000000E-03 0. -1.
    9000002   -1    0    0    0    0 -0.00000000000E+00 -0.00000000000E+00  0.00000000000E+00  0.93800000000E+00  0.93800000000E+00 0.  1.
         11    1    1    2    0    0  0.12332180020E+00 -0.82575178350E-01  0.11003069265E+01  0.11102713722E+01  0.51100000000E-03 0. -1.
    9000002    1    1    2    0    0 -0.15458076870E-01  0.41924806416E+00  0.13019999847E+00  0.10357624878E+01  0.93800000000E+00 0.  1.
         22    1    1    2    0    0 -0.10786372333E+00 -0.33667288581E+00  0.27694930424E+01  0.27919661400E+01  0.00000000000E+00 0. -1.
</event>
<event>
 5    1  0.6670753E+001  0.1599663E+01  0.7818608E-02  0.3353729E+00
         11   -1    0    0    0    0  0.00000000000E+00  0.00000000000E+00  0.39999999674E+01  0.40000000000E+01  0.51100000000E-03 0.  1.
    9000002   -1    0    0    0    0 -0.00000000000E+00 -0.00000000000E+00  0.00000000000E+00  0.93800000000E+00  0.93800000000E+00 0.  1.
         11    1    1    2    0    0  0.12073596426E+00  0.34326839051E-01  0.14276722238E+01  0.14331795926E+01  0.51100000000E-03 0.  1.
    9000002    1    1    2    0    0 -0.33974846469E+00 -0.85698991997E-01  0.82335750225E-01  0.10046872709E+01  0.93800000000E+00 0.  1.
         22    1    1    2    0    0  0.21901250043E+00  0.51372152945E-01  0.24899919934E+01  0.25001331365E+01  0.00000000000E+00 0.  1.
</event>
<event>
 5    1  0.6172503E+001  0.1554828E+01  0.7818608E-02  0.3403899E+00
         11   -1    0    0    0    0  0.00000000000E+00  0.00000000000E+00  0.39999999674E+01  0.40000000000E+01  0.51100000000E-03 0. -1.
    9000002   -1    0    0    0    0 -0.00000000000E+00 -0.00000000000E+00  0.00000000000E+00  0.93800000000E+00  0.93800000000E+00 0. -1.
         11    1    1    2    0    0  0.15693259783E+00  0.68683734595E-01  0.95817780847E+00  0.97337057148E+00  0.51100000000E-03 0. -1.
    9000002    1    1    2    0    0  0.22761249967E+00 -0.48891388917E+00  0.24366396591E+00  0.11090808669E+01  0.93800000000E+00 0. -1.
         22    1    1    2    0    0 -0.38454509750E+00  0.42023015458E+00  0.27981581930E+01  0.28555485616E+01  0.00000000000E+00 0. -1.
</event>
<event>
 5    1  0.6172503E+001  0.1551121E+01  0.7818608E-02  0.3408186E+00
         11   -1    0    0    0    0  0.00000000000E+00  0.00000000000E+00  0.39999999674E+01  0.40000000000E+01  0.51100000000E-03 0. -1.
    9000002   -1    0    0    0    0 -0.00000000000E+00 -0.00000000000E+00  0.00000000000E+00  0.93800000000E+00  0.93800000000E+00 0. -1.
         11    1    1    2    0    0  0.16718562731E+00  0.11265485156E+00  0.88487457039E+00  0.90754912595E+00  0.51100000000E-03 0. -1.
    9000002    1    1    2    0    0  0.21406570085E+00 -0.25614311999E+00  0.11437551307E+00  0.10021772200E+01  0.93800000000E+00 0. -1.
         22    1    1    2    0    0 -0.38125132817E+00  0.14348826843E+00  0.30007498839E+01  0.30282736541E+01  0.00000000000E+00 0. -1.
</event>
<event>
 5    1  0.6172503E+001  0.1582300E+01  0.7818608E-02  0.3372802E+00
         11   -1    0    0    0    0  0.00000000000E+00  0.00000000000E+00  0.39999999674E+01  0.40000000000E+01  0.51100000000E-03 0.  1.
    9000002   -1    0    0    0    0 -0.00000000000E+00 -0.00000000000E+00  0.00000000000E+00  0.93800000000E+00  0.93800000000E+00 0.  1.
         11    1    1    2    0    0 -0.52922641900E-01 -0.19721769749E+00  0.14094567056E+01  0.14241713704E+01  0.51100000000E-03 0.  1.
    9000002    1    1    2    0    0 -0.26718364481E+00  0.53978584266E+00  0.27074874837E+00  0.11471289120E+01  0.93800000000E+00 0.  1.
         22    1    1    2    0    0  0.32010628671E+00 -0.34256814517E+00  0.23197945134E+01  0.23666997176E+01  0.00000000000E+00 0.  1.
</event>
<event>
 5    1  0.6172503E+001  0.1599659E+01  0.7818608E-02  0.3353734E+00
         11   -1    0    0    0    0  0.00000000000E+00  0.00000000000E+00  0.39999999674E+01  0.40000000000E+01  0.51100000000E-03 0. -1.
    9000002   -1    0    0    0    0 -0.00000000000E+00 -0.00000000000E+00  0.00000000000E+00  0.93800000000E+00  0.93800000000E+00 0.  1.
         11    1    1    2    0    0  0.82329663598E-01  0.48427251000E-01  0.71429804578E+00  0.72065618118E+00  0.51100000000E-03 0. -1.
    9000002    1    1    2    0    0 -0.45654682678E+00 -0.26987706244E+00  0.19358259614E+00  0.10947999157E+01  0.93800000000E+00 0.  1.
         22    1    1    2    0    0  0.37421716318E+00  0.22144981144E+00  0.30921193254E+01  0.31225439031E+01  0.00000000000E+00 0. -1.
</event>
<event>
 5    1  0.6172503E+001  0.1599672E+01  0.7818608E-02  0.3353719E+00
         11   -1    0    0    0    0  0.00000000000E+00  0.00000000000E+00  0.39999999674E+01  0.40000000000E+01  0.51100000000E-03 0.  1.
    9000002   -1    0    0    0    0 -0.00000000000E+00 -0.00000000000E+00  0.00000000000E+00  0.93800000000E+00  0.93800000000E+00 0.  1.
         11    1    1    2    0    0  0.23977276721E-01 -0.59715538792E-01  0.56901511272E+00  0.57264239714E+00  0.51100000000E-03 0.  1.
    9000002    1    1    2    0    0 -0.15772801144E+00  0.39550877811E+00  0.12271921267E+00  0.10374050917E+01  0.93800000000E+00 0.  1.
         22    1    1    2    0    0  0.13375073472E+00 -0.33579323932E+00  0.33082656420E+01  0.33279525112E+01  0.00000000000E+00 0.  1.
</event>
<event>
 5    1  0.6172503E+001  0.1599677E+01  0.7818608E-02  0.3353714E+00
         11   -1    0    0    0    0  0.00000000000E+00  0.00000000000E+00  0.39999999674E+01  0.40000000000E+01  0.51100000000E-03 0.  1.
    9000002   -1    0    0    0    0 -0.00000000000E+00 -0.00000000000E+00  0.00000000000E+00  0.93800000000E+00  0.93800000000E+00 0.  1.
         11    1    1    2    0    0  0.45419112116E-01  0.11107405237E+00  0.12188660022E+01  0.12247591328E+01  0.51100000000E-03 0.  1.
    9000002    1    1    2    0    0 -0.14616014009E+00 -0.35570892352E+00  0.99562884982E-01  0.10186502800E+01  0.93800000000E+00 0.  1.
         22    1    1    2    0    0  0.10074102797E+00  0.24463487115E+00  0.26815710802E+01  0.26945905873E+01  0.00000000000E+00 0.  1.
</event>
<event>
 5    1  0.6172503E+001  0.1599201E+01  0.7818608E-02  0.3354231E+00
         11   -1    0    0    0    0  0.00000000000E+00  0.00000000000E+00  0.39999999674E+01  0.40000000000E+01  0.51100000000E-03 0.  1.
    9000002   -1    0    0    0    0 -0.00000000000E+00 -0.00000000000E+00  0.00000000000E+00  0.93800000000E+00  0.93800000000E+00 0.  1.
         11    1    1    2    0    0 -0.41864277769E-01 -0.95910254140E-03  0.27025807484E+00  0.27348350182E+00  0.51100000000E-03 0.  1.
    9000002    1    1    2    0    0  0.41095288982E+00  0.45738464661E-01  0.11592925188E+00  0.10316287492E+01  0.93800000000E+00 0.  1.
         22    1    1    2    0    0 -0.36908861205E+00 -0.44779362119E-01  0.36138126406E+01  0.36328877489E+01  0.00000000000E+00 0.  1.
</event>
<event>
 5    1  0.6172503E+001  0.1590807E+01  0.7818608E-02  0.3363402E+00
         11   -1    0    0    0    0  0.00000000000E+00  0.00000000000E+00  0.39999999674E+01  0.40000000000E+01  0.51100000000E-03 0. -1.
    9000002   -1    0    0    0    0 -0.00000000000E+00 -0.00000000000E+00  0.00000000000E+00  0.93800000000E+00  0.93800000000E+00 0.  1.
         11    1    1    2    0    0 -0.57788996542E-01  0.13436344612E-01  0.62479783367E+00  0.62760871374E+00  0.51100000000E-03 0. -1.
    9000002    1    1    2    0    0 -0.21676642197E-01 -0.43351802582E+00  0.13527461785E+00  0.10423775601E+01  0.93800000000E+00 0.  1.
         22    1    1    2    0    0  0.79465638739E-01  0.42008168121E+00  0.32399275158E+01  0.32680137262E+01  0.00000000000E+00 0. -1.
</event>
<event>
 5    1  0.6172503E+001  0.1599675E+01  0.7818608E-02  0.3353716E+00
         11   -1    0    0    0    0  0.00000000000E+00  0.00000000000E+00  0.39999999674E+01  0.40000000000E+01  0.51100000000E-03 0.  1.
    9000002   -1    0    0    0    0 -0.00000000000E+00 -0.00000000000E+00  0.00000000000E+00  0.93800000000E+00  0.93800000000E+00 0.  1.
         11    1    1    2    0    0 -0.54300050556E-01  0.16225168258E+00  0.10741344094E+01  0.10876760062E+01  0.51100000000E-03 0.  1.
    9000002    1    1    2    0    0  0.19400729291E+00 -0.56352867410E+00  0.24761566424E+00  0.11385784617E+01  0.93800000000E+00 0.  1.
         22    1    1    2    0    0 -0.13970724235E+00  0.40127699152E+00  0.26782498937E+01  0.27117455321E+01  0.00000000000E+00 0.  1.
</event>
<event>
 5    1  0.6172503E+001  0.1599673E+01  0.7818608E-02  0.3353718E+00
         11   -1    0    0    0    0  0.00000000000E+00  0.00000000000E+00  0.39999999674E+01  0.40000000000E+01  0.51100000000E-03 0. -1.
    9000002   -1    0    0    0    0 -0.00000000000E+00 -0.00000000000E+00  0.00000000000E+00  0.93800000000E+00  0.93800000000E+00 0. -1.
         11    1    1    2    0    0  0.12907310520E+00  0.36001136167E-02  0.13512735467E+01  0.13574289250E+01  0.51100000000E-03 0. -1.
    9000002    1    1    2    0    0 -0.36828426857E+00 -0.14072779229E-01  0.91271340802E-01  0.10119317187E+01  0.93800000000E+00 0. -1.
         22    1    1    2    0    0  0.23921116337E+00  0.10472665613E-01  0.25574550798E+01  0.25686393563E+01  0.00000000000E+00 0. -1.
</event>
<event>
 5    1  0.6172503E+001  0.1455923E+01  0.7818608E-02  0.3526301E+00
         11   -1    0    0    0    0  0.00000000000E+00  0.00000000000E+00  0.39999999674E+01  0.40000000000E+01  0.51100000000E-03 0.  1.
    9000002   -1    0    0    0    0 -0.00000000000E+00 -0.00000000000E+00  0.00000000000E+00  0.93800000000E+00  0.93800000000E+00 0.  1.
         11    1    1    2    0    0 -0.28679275013E+00  0.18042027623E+00  0.71285771389E+00  0.78928318047E+00  0.51100000000E-03 0.  1.
    9000002    1    1    2    0    0 -0.91072098467E-01  0.24601235320E+00  0.18089483255E+00  0.99064784131E+00  0.93800000000E+00 0.  1.
         22    1    1    2    0    0  0.37786484859E+00 -0.42643262943E+00  0.31062474209E+01  0.31580689782E+01  0.00000000000E+00 0.  1.
</event>
<event>
 5    1  0.6172503E+001  0.1593314E+01  0.7818608E-02  0.3360652E+00
         11   -1    0    0    0    0  0.00000000000E+00  0.00000000000E+00  0.39999999674E+01  0.40000000000E+01  0.51100000000E-03 0.  1.
    9000002   -1    0    0    0    0 -0.00000000000E+00 -0.00000000000E+00  0.00000000000E+00  0.93800000000E+00  0.93800000000E+00 0.  1.
         11    1    1    2    0    0  0.27081753104E-01  0.10771042909E+00  0.11789434886E+01  0.11841634044E+01  0.51100000000E-03 0.  1.
    9000002    1    1    2    0    0 -0.28708282647E+00 -0.14169681539E+00  0.73559854708E-01  0.99385591962E+00  0.93800000000E+00 0.  1.
         22    1    1    2    0    0  0.26000107336E+00  0.33986386299E-01  0.27474966240E+01  0.27599806759E+01  0.00000000000E+00 0. -1.
</event>
<event>
 5    1  0.6172503E+001  0.1599619E+01  0.7818608E-02  0.3353777E+00
         11   -1    0    0    0    0  0.00000000000E+00  0.00000000000E+00  0.39999999674E+01  0.40000000000E+01  0.51100000000E-03 0.  1.
    9000002   -1    0    0    0    0 -0.00000000000E+00 -0.00000000000E+00  0.00000000000E+00  0.93800000000E+00  0.93800000000E+00 0. -1.
         11    1    1    2    0    0 -0.41505728533E-01  0.16328949913E-01  0.42005230136E+00  0.42241396415E+00  0.51100000000E-03 0.  1.
    9000002    1    1    2    0    0  0.34469727138E+00 -0.18553870508E+00  0.10330040375E+00  0.10216436724E+01  0.93800000000E+00 0. -1.
         22    1    1    2    0    0 -0.30319154285E+00  0.16920975516E+00  0.34766472622E+01  0.34939423634E+01  0.00000000000E+00 0.  1.
</event>
<event>
 5    1  0.6172503E+001  0.1599660E+01  0.7818608E-02  0.3353732E+00
         11   -1    0    0    0    0  0.00000000000E+00  0.00000000000E+00  0.39999999674E+01  0.40000000000E+01  0.51100000000E-03 0. -1.
    9000002   -1    0    0    0    0 -0.00000000000E+00 -0.00000000000E+00  0.00000000000E+00  0.93800000000E+00  0.93800000000E+00 0.  1.
         11    1    1    2    0    0 -0.11119453187E+00  0.12974041712E+00  0.11158958347E+01  0.11289023761E+01  0.51100000000E-03 0. -1.
    9000002    1    1    2    0    0  0.38577458778E+00 -0.42691636909E+00  0.22983288515E+00  0.11241649229E+01  0.93800000000E+00 0.  1.
         22    1    1    2    0    0 -0.27458005591E+00  0.29717595198E+00  0.26542712475E+01  0.26849327010E+01  0.00000000000E+00 0. -1.
</event>
<event>
 5    1  0.6172503E+001  0.1599501E+01  0.7818608E-02  0.3353905E+00
         11   -1    0    0    0    0  0.00000000000E+00  0.00000000000E+00  0.39999999674E+01  0.40000000000E+01  0.51100000000E-03 0.  1.
    9000002   -1    0    0    0    0 -0.00000000000E+00 -0.00000000000E+00  0.00000000000E+00  0.93800000000E+00  0.93800000000E+00 0. -1.
         11    1    1    2    0    0  0.10821219249E+00 -0.24059825001E-01  0.10348220848E+01  0.10407428895E+01  0.51100000000E-03 0.  1.
    9000002    1    1    2    0    0 -0.45044008456E+00  0.65227101709E-01  0.14095335796E+00  0.10520754221E+01  0.93800000000E+00 0. -1.
         22    1    1    2    0    0  0.34222789207E+00 -0.41167276708E-01  0.28242245246E+01  0.28451816885E+01  0.00000000000E+00 0.  1.
</event>
<event>
 5    1  0.6172503E+001  0.1533962E+01  0.7818608E-02  0.3428313E+00
         11   -1    0    0    0    0  0.00000000000E+00  0.00000000000E+00  0.39999999674E+01  0.40000000000E+01  0.51100000000E-03 0. -1.
    9000002   -1    0    0    0    0 -0.00000000000E+00 -0.00000000000E+00  0.00000000000E+00  0.93800000000E+00  0.93800000000E+00 0. -1.
         11    1    1    2    0    0 -0.49626886330E+00 -0.12255601200E+00  0.77237069589E+00  0.92620705770E+00  0.51100000000E-03 0. -1.
    9000002    1    1    2    0    0  0.76760332946E-01  0.18067305048E+00  0.23150932277E+00  0.98588816121E+00  0.93800000000E+00 0. -1.
         22    1    1    2    0    0  0.41950853035E+00 -0.58117038483E-01  0.29961199487E+01  0.30259047811E+01  0.00000000000E+00 0. -1.
</event>
<event>
 5    1  0.7367335E+001  0.1523898E+01  0.7818608E-02  0.3440343E+00
         11   -1    0    0    0    0  0.00000000000E+00  0.00000000000E+00  0.39999999674E+01  0.40000000000E+01  0.51100000000E-03 0. -1.
    9000002   -1    0    0    0    0 -0.00000000000E+00 -0.00000000000E+00  0.00000000000E+00  0.93800000000E+00  0.93800000000E+00 0.  1.
         11    1    1    2    0    0 -0.24545896502E+00 -0.45031786507E-01  0.70584874905E+00  0.74866593549E+00  0.51100000000E-03 0. -1.
    9000002    1    1    2    0    0 -0.23312028227E-01 -0.69229118936E-01  0.60781319229E-01  0.94280140557E+00  0.93800000000E+00 0.  1.
         22    1    1    2    0    0  0.26877099325E+00  0.11426090544E+00  0.32333698991E+01  0.32465326589E+01  0.00000000000E+00 0. -1.
</event>
<event>
 5    1  0.6172503E+001  0.1599635E+01  0.7818608E-02  0.3353760E+00
         11   -1    0    0    0    0  0.00000000000E+00  0.00000000000E+00  0.39999999674E+01  0.40000000000E+01  0.51100000000E-03 0. -1.
    9000002   -1    0    0    0    0 -0.00000000000E+00 -0.00000000000E+00  0.00000000000E+00  0.93800000000E+00  0.93800000000E+00 0.  1.
         11    1    1    2    0    0 -0.71338110724E-01  0.14562209745E+00  0.13461082613E+01  0.13558401947E+01  0.51100000000E-03 0. -1.
    9000002    1    1    2    0    0  0.21134630730E+00 -0.39750866259E+00  0.13769763460E+00  0.10495165730E+01  0.93800000000E+00 0.  1.
         22    1    1    2    0    0 -0.14000819658E+00  0.25188656514E+00  0.25161940715E+01  0.25326432323E+01  0.00000000000E+00 0. -1.
</event>
<event>
 5    1  0.6172503E+001  0.1445139E+01  0.7818608E-02  0.3540745E+00
         11   -1    0    0    0    0  0.00000000000E+00  0.00000000000E+00  0.39999999674E+01  0.40000000000E+01  0.51100000000E-03 0. -1.
    9000002   -1    0    0    0    0 -0.00000000000E+00 -0.00000000000E+00  0.00000000000E+00  0.93800000000E+00  0.93800000000E+00 0. -1.
         11    1    1    2    0    0 -0.60654366238E+00  0.19202273648E+00  0.12718511441E+01  0.14221018035E+01  0.51100000000E-03 0. -1.
    9000002    1    1    2    0    0  0.54436449423E+00  0.19141688651E-01  0.36785961837E+00  0.11453662321E+01  0.93800000000E+00 0. -1.
         22    1    1    2    0    0  0.62179168142E-01 -0.21116442513E+00  0.23602892049E+01  0.23705319644E+01  0.00000000000E+00 0. -1.
</event>
<event>
 5    1  0.6172503E+001  0.1512313E+01  0.7818608E-02  0.3454405E+00
         11   -1    0    0    0    0  0.00000000000E+00  0.00000000000E+00  0.39999999674E+01  0.40000000000E+01  0.51100000000E-03 0. -1.
    9000002   -1    0    0    0    0 -0.00000000000E+00 -0.00000000000E+00  0.00000000000E+00  0.93800000000E+00  0.93800000000E+00 0.  1.
         11    1    1    2    0    0 -0.36751054393E+00  0.79035594722E-01  0.97064847239E+00  0.10408983347E+01  0.51100000000E-03 0. -1.
    9000002    1    1    2    0    0  0.39337676957E+00  0.35214652319E+00  0.27753021405E+00  0.11115842192E+01  0.93800000000E+00 0.  1.
         22    1    1    2    0    0 -0.25866225641E-01 -0.43118211792E+00  0.27518212809E+01  0.27855174461E+01  0.00000000000E+00 0. -1.
</event>
<event>
 5    1  0.6172503E+001  0.1599676E+01  0.7818608E-02  0.3353715E+00
         11   -1    0    0    0    0  0.00000000000E+00  0.00000000000E+00  0.39999999674E+01  0.40000000000E+01  0.51100000000E-03 0. -1.
    9000002   -1    0    0    0    0 -0.00000000000E+00 -0.00000000000E+00  0.00000000000E+00  0.93800000000E+00  0.93800000000E+00 0.  1.
         11    1    1    2    0    0  0.47811663881E-01  0.14700330722E+00  0.13203802412E+01  0.13293984241E+01  0.51100000000E-03 0. -1.
    9000002    1    1    2    0    0 -0.13819515190E+00 -0.43193198242E+00  0.13975619844E+00  0.10512083202E+01  0.93800000000E+00 0.  1.
         22    1    1    2    0    0  0.90383488016E-01  0.28492867520E+00  0.25398635278E+01  0.25573932557E+01  0.00000000000E+00 0. -1.
</event>
<event>
 5    1  0.6172503E+001  0.1599659E+01  0.7818608E-02  0.3353734E+00
         11   -1    0    0    0    0  0.00000000000E+00  0.00000000000E+00  0.39999999674E+01  0.40000000000E+01  0.51100000000E-03 0.  1.
    9000002   -1    0    0    0    0 -0.00000000000E+00 -0.00000000000E+00  0.00000000000E+00  0.93800000000E+00  0.93800000000E+00 0. -1.
         11    1    1    2    0    0 -0.24013248919E-02 -0.54334310646E-01  0.56689590925E+00  0.56949909282E+00  0.51100000000E-03 0.  1.
    9000002    1    1    2    0    0  0.50926039069E-02  0.39534987688E+00  0.10539903996E+00  0.10233671958E+01  0.93800000000E+00 0. -1.
         22    1    1    2    0    0 -0.26912790151E-02 -0.34101556623E+00  0.33277050181E+01  0.33451337114E+01  0.00000000000E+00 0.  1.
</event>
<event>
 5    1  0.6172503E+001  0.1599674E+01  0.7818608E-02  0.3353717E+00
         11   -1    0    0    0    0  0.00000000000E+00  0.00000000000E+00  0.39999999674E+01  0.40000000000E+01  0.51100000000E-03 0.  1.
    9000002   -1    0    0    0    0 -0.00000000000E+00 -0.00000000000E+00  0.00000000000E+00  0.93800000000E+00  0.93800000000E+00 0.  1.
         11    1    1    2    0    0 -0.14304077845E+00  0.37310197957E-01  0.11929438904E+01  0.12020682601E+01  0.51100000000E-03 0.  1.
    9000002    1    1    2    0    0  0.45542342765E+00 -0.12044289907E+00  0.15120770749E+00  0.10604832678E+01  0.93800000000E+00 0.  1.
         22    1    1    2    0    0 -0.31238264920E+00  0.83132701108E-01  0.26558483695E+01  0.26754484722E+01  0.00000000000E+00 0.  1.
</event>
<event>
 5    1  0.6172503E+001  0.1561502E+01  0.7818608E-02  0.3396238E+00
         11   -1    0    0    0    0  0.00000000000E+00  0.00000000000E+00  0.39999999674E+01  0.40000000000E+01  0.51100000000E-03 0. -1.
    9000002   -1    0    0    0    0 -0.00000000000E+00 -0.00000000000E+00  0.00000000000E+00  0.93800000000E+00  0.93800000000E+00 0. -1.
         11    1    1    2    0    0 -0.17192152276E+00 -0.98254778599E-01  0.11964010211E+01  0.12126774822E+01  0.51100000000E-03 0. -1.
    9000002    1    1    2    0    0 -0.12650104052E+00  0.15795236814E+00  0.56313489466E-01  0.96123185182E+00  0.93800000000E+00 0. -1.
         22    1    1    2    0    0  0.29842256328E+00 -0.59697589543E-01  0.27472854568E+01  0.27640906660E+01  0.00000000000E+00 0. -1.
</event>
<event>
 5    1  0.6172503E+001  0.1599368E+01  0.7818608E-02  0.3354049E+00
         11   -1    0    0    0    0  0.00000000000E+00  0.00000000000E+00  0.39999999674E+01  0.40000000000E+01  0.51100000000E-03 0. -1.
    9000002   -1    0    0    0    0 -0.00000000000E+00 -0.00000000000E+00  0.00000000000E+00  0.93800000000E+00  0.93800000000E+00 0. -1.
         11    1    1    2    0    0  0.26123861348E-01 -0.25020273413E-01  0.49472258514E+00  0.49604351380E+00  0.51100000000E-03 0. -1.
    9000002    1    1    2    0    0 -0.30854217971E+00  0.15255985910E+00  0.79634700478E-01  0.10023265300E+01  0.93800000000E+00 0. -1.
         22    1    1    2    0    0  0.28241831836E+00 -0.12753958569E+00  0.34256426817E+01  0.34396299562E+01  0.00000000000E+00 0. -1.
</event>
<event>
 5    1  0.6172503E+001  0.1599666E+01  0.7818608E-02  0.3353726E+00
         11   -1    0    0    0    0  0.00000000000E+00  0.00000000000E+00  0.39999999674E+01  0.40000000000E+01  0.51100000000E-03 0.  1.
    9000002   -1    0    0    0    0 -0.00000000000E+00 -0.00000000000E+00  0.00000000000E+00  0.93800000000E+00  0.93800000000E+00 0.  1.
         11    1    1    2    0    0  0.19902135618E+00 -0.15297197201E+00  0.81962592798E+00  0.85720292077E+00  0.51100000000E-03 0.  1.
    9000002    1    1    2    0    0 -0.77247845567E+00  0.60066847743E+00  0.76121653013E+00  0.15546125530E+01  0.93800000000E+00 0.  1.
         22    1    1    2    0    0  0.57345709949E+00 -0.44769650541E+00  0.24191575093E+01  0.25261845262E+01  0.00000000000E+00 0.  1.
</event>
<event>
 5    1  0.6172503E+001  0.1599577E+01  0.7818608E-02  0.3353822E+00
         11   -1    0    0    0    0  0.00000000000E+00  0.00000000000E+00  0.39999999674E+01  0.40000000000E+01  0.51100000000E-03 0.  1.
    9000002   -1    0    0    0    0 -0.00000000000E+00 -0.00000000000E+00  0.00000000000E+00  0.93800000000E+00  0.93800000000E+00 0.  1.
         11    1    1    2    0    0 -0.13847612799E+00  0.82717095973E-01  0.11856521806E+01  0.11965739051E+01  0.51100000000E-03 0.  1.
    9000002    1    1    2    0    0  0.46333499042E+00 -0.29404000868E+00  0.20804185499E+00  0.11064647547E+01  0.93800000000E+00 0.  1.
         22    1    1    2    0    0 -0.32485886244E+00  0.21132291271E+00  0.26063059318E+01  0.26349613401E+01  0.00000000000E+00 0.  1.
</event>
<event>
 5    1  0.6891506E+001  0.1598355E+01  0.7818608E-02  0.3355151E+00
         11   -1    0    0    0    0  0.00000000000E+00  0.00000000000E+00  0.39999999674E+01  0.40000000000E+01  0.51100000000E-03 0.  1.
    9000002   -1    0    0    0    0 -0.00000000000E+00 -0.00000000000E+00  0.00000000000E+00  0.93800000000E+00  0.93800000000E+00 0. -1.
         11    1    1    2    0    0 -0.24039985460E-01 -0.55922790793E-01  0.11273347193E+01  0.11289770192E+01  0.51100000000E-03 0.  1.
    9000002    1    1    2    0    0  0.14965329189E+00  0.31551252670E+00  0.82822309987E-01  0.10043145908E+01  0.93800000000E+00 0. -1.
         22    1    1    2    0    0 -0.12561330643E+00 -0.25958973591E+00  0.27898429381E+01  0.28047083900E+01  0.00000000000E+00 0.  1.
</event>
<event>
 5    1  0.6172503E+001  0.1598523E+01  0.7818608E-02  0.3354968E+00
         11   -1    0    0    0    0  0.00000000000E+00  0.00000000000E+00  0.39999999674E+01  0.40000000000E+01  0.51100000000E-03 0. -1.
    9000002   -1    0    0    0    0 -0.00000000000E+00 -0.00000000000E+00  0.00000000000E+00  0.93800000000E+00  0.93800000000E+00 0.  1.
         11    1    1    2    0    0  0.46806624775E-01 -0.75599115775E-01  0.40069054853E+00  0.41043789205E+00  0.51100000000E-03 0. -1.
    9000002    1    1    2    0    0 -0.51764302186E+00  0.47322071642E+00  0.35296697596E+00  0.12232423434E+01  0.93800000000E+00 0.  1.
         22    1    1    2    0    0  0.47083639708E+00 -0.39762160065E+00  0.32463424429E+01  0.33043197646E+01  0.00000000000E+00 0. -1.
</event>
<event>
 5    1  0.6172503E+001  0.1585508E+01  0.7818608E-02  0.3369244E+00
         11   -1    0    0    0    0  0.00000000000E+00  0.00000000000E+00  0.39999999674E+01  0.40000000000E+01  0.51100000000E-03 0.  1.
    9000002   -1    0    0    0    0 -0.00000000000E+00 -0.00000000000E+00  0.00000000000E+00  0.93800000000E+00  0.93800000000E+00 0. -1.
         11    1    1    2    0    0  0.74904482485E-01 -0.46654177625E-01  0.97624869640E+00  0.98022909166E+00  0.51100000000E-03 0.  1.
    9000002    1    1    2    0    0 -0.89537674445E-02 -0.21550852140E+00  0.41586101207E-01  0.96337816903E+00  0.93800000000E+00 0. -1.
         22    1    1    2    0    0 -0.65950715040E-01  0.26216269902E+00  0.29821651697E+01  0.29943927393E+01  0.00000000000E+00 0.  1.
</event>
<event>
 5    1  0.6172503E+001  0.1585676E+01  0.7818608E-02  0.3369059E+00
         11   -1    0    0    0    0  0.00000000000E+00  0.00000000000E+00  0.39999999674E+01  0.40000000000E+01  0.51100000000E-03 0.  1.
    9000002   -1    0    0    0    0 -0.00000000000E+00 -0.00000000000E+00  0.00000000000E+00  0.93800000000E+00  0.93800000000E+00 0.  1.
         11    1    1    2    0    0 -0.87710056437E-01 -0.18078304797E+00  0.54334911065E+00  0.57931345712E+00  0.51100000000E-03 0.  1.
    9000002    1    1    2    0    0  0.22462690726E+00  0.62169098384E+00  0.32425717371E+00  0.11924527838E+01  0.93800000000E+00 0.  1.
         22    1    1    2    0    0 -0.13691685082E+00 -0.44090793587E+00  0.31323936830E+01  0.31662337591E+01  0.00000000000E+00 0.  1.
</event>
<event>
 5    1  0.6172503E+001  0.1599293E+01  0.7818608E-02  0.3354131E+00
         11   -1    0    0    0    0  0.00000000000E+00  0.00000000000E+00  0.39999999674E+01  0.40000000000E+01  0.51100000000E-03 0. -1.
    9000002   -1    0    0    0    0 -0.00000000000E+00 -0.00000000000E+00  0.00000000000E+00  0.93800000000E+00  0.93800000000E+00 0.  1.
         11    1    1    2    0    0  0.83124501810E-01 -0.85594821265E-01  0.78999591497E+00  0.79895554508E+00  0.51100000000E-03 0. -1.
    9000002    1    1    2    0    0 -0.47313241974E+00  0.35927442374E+00  0.24631060522E+00  0.11372973720E+01  0.93800000000E+00 0.  1.
         22    1    1    2    0    0  0.39000791793E+00 -0.27367960247E+00  0.29636934472E+01  0.30017470829E+01  0.00000000000E+00 0. -1.
</event>
<event>
 5    1  0.6172503E+001  0.1589898E+01  0.7818608E-02  0.3364402E+00
         11   -1    0    0    0    0  0.00000000000E+00  0.00000000000E+00  0.39999999674E+01  0.40000000000E+01  0.51100000000E-03 0.  1.
    9000002   -1    0    0    0    0 -0.00000000000E+00 -0.00000000000E+00  0.00000000000E+00  0.93800000000E+00  0.93800000000E+00 0.  1.
         11    1    1    2    0    0  0.16175867855E-01 -0.63110298589E-04  0.21037139256E-01  0.26542136931E-01  0.51100000000E-03 0.  1.
    9000002    1    1    2    0    0  0.38275383903E+00 -0.14233239261E+00  0.12083536525E+00  0.10301476578E+01  0.93800000000E+00 0.  1.
         22    1    1    2    0    0 -0.39892970688E+00  0.14239550291E+00  0.38581274629E+01  0.38813102053E+01  0.00000000000E+00 0.  1.
</event>
<event>
 5    1  0.6172503E+001  0.1598424E+01  0.7818608E-02  0.3355076E+00
         11   -1    0    0    0    0  0.00000000000E+00  0.00000000000E+00  0.39999999674E+01  0.40000000000E+01  0.51100000000E-03 0.  1.
    9000002   -1    0    0    0    0 -0.00000000000E+00 -0.00000000000E+00  0.00000000000E+00  0.93800000000E+00  0.93800000000E+00 0. -1.
         11    1    1    2    0    0 -0.31220108099E-02 -0.73090133560E-02  0.16898912556E+00  0.16917669552E+00  0.51100000000E-03 0.  1.
    9000002    1    1    2    0    0  0.42263955786E+00 -0.22808940297E-01  0.12227077354E+00  0.10363100818E+01  0.93800000000E+00 0. -1.
         22    1    1    2    0    0 -0.41951754705E+00  0.30117953653E-01  0.37087400683E+01  0.37325132227E+01  0.00000000000E+00 0.  1.
</event>
<event>
 5    1  0.6172503E+001  0.1599673E+01  0.7818608E-02  0.3353719E+00
         11   -1    0    0    0    0  0.00000000000E+00  0.00000000000E+00  0.39999999674E+01  0.40000000000E+01  0.51100000000E-03 0. -1.
    9000002   -1    0    0    0    0 -0.00000000000E+00 -0.00000000000E+00  0.00000000000E+00  0.93800000000E+00  0.93800000000E+00 0.  1.
         11    1    1    2    0    0 -0.19057860081E-01  0.19632895648E-01  0.26787727143E+00  0.26927151036E+00  0.51100000000E-03 0. -1.
    9000002    1    1    2    0    0  0.28527506010E+00 -0.29966062199E+00  0.11567474371E+00  0.10316990814E+01  0.93800000000E+00 0.  1.
         22    1    1    2    0    0 -0.26621720002E+00  0.28002772634E+00  0.36164479522E+01  0.36370294082E+01  0.00000000000E+00 0. -1.
</event>
<event>
 5    1  0.6172503E+001  0.1599591E+01  0.7818608E-02  0.3353807E+00
         11   -1    0    0    0    0  0.00000000000E+00  0.00000000000E+00  0.39999999674E+01  0.40000000000E+01  0.51100000000E-03 0. -1.
    9000002   -1    0    0    0    0 -0.00000000000E+00 -0.00000000000E+00  0.00000000000E+00  0.93800000000E+00  0.93800000000E+00 0. -1.
         11    1    1    2    0    0 -0.10334626111E+00  0.31309563099E-01  0.51671703865E+00  0.52788019245E+00  0.51100000000E-03 0. -1.
    9000002    1    1    2    0    0  0.74442739429E+00 -0.17104629361E+00  0.42484783965E+00  0.12820954203E+01  0.93800000000E+00 0. -1.
         22    1    1    2    0    0 -0.64108113318E+00  0.13973673051E+00  0.30584350891E+01  0.31280243872E+01  0.00000000000E+00 0. -1.
</event>
<event>
 5    1  0.6172503E+001  0.1599661E+01  0.7818608E-02  0.3353731E+00
         11   -1    0    0    0    0  0.00000000000E+00  0.00000000000E+00  0.39999999674E+01  0.40000000000E+01  0.51100000000E-03 0.  1.
    9000002   -1    0    0    0    0 -0.00000000000E+00 -0.00000000000E+00  0.00000000000E+00  0.93800000000E+00  0.93800000000E+00 0. -1.
         11    1    1    2    0    0  0.10657858271E-02 -0.59718066378E-01  0.60968389655E+00  0.61260272460E+00  0.51100000000E-03 0.  1.
    9000002    1    1    2    0    0  0.15376900795E-01  0.38371625106E+00  0.99288652464E-01  0.10184187974E+01  0.93800000000E+00 0. -1.
         22    1    1    2    0    0 -0.16442686622E-01 -0.32399818468E+00  0.32910274183E+01  0.33069784780E+01  0.00000000000E+00 0.  1.
</event>
<event>
 5    1  0.6172503E+001  0.1599083E+01  0.7818608E-02  0.3354359E+00
         11   -1    0    0    0    0  0.00000000000E+00  0.00000000000E+00  0.39999999674E+01  0.40000000000E+01  0.51100000000E-03 0.  1.
    9000002   -1    0    0    0    0 -0.00000000000E+00 -0.00000000000E+00  0.00000000000E+00  0.93800000000E+00  0.93800000000E+00 0.  1.
         11    1    1    2    0    0 -0.33116161701E-01 -0.26541795627E-01  0.36693169564E+00  0.36937823091E+00  0.51100000000E-03 0.  1.
    9000002    1    1    2    0    0  0.17698784241E+00  0.33181467707E+00  0.95598279898E-01  0.10150904922E+01  0.93800000000E+00 0.  1.
         22    1    1    2    0    0 -0.14387168071E+00 -0.30527288145E+00  0.35374699918E+01  0.35535312769E+01  0.00000000000E+00 0.  1.
</event>
<event>
 5    1  0.6172503E+001  0.1599498E+01  0.7818608E-02  0.3353908E+00
         11   -1    0    0    0    0  0.00000000000E+00  0.00000000000E+00  0.39999999674E+01  0.40000000000E+01  0.51100000000E-03 0.  1.
    9000002   -1    0    0    0    0 -0.00000000000E+00 -0.00000000000E+00  0.00000000000E+00  0.93800000000E+00  0.93800000000E+00 0.  1.
         11    1    1    2    0    0 -0.51339472884E-02  0.44265964873E-01  0.55831814100E+00  0.56009395708E+00  0.51100000000E-03 0.  1.
    9000002    1    1    2    0    0  0.18492616986E-01 -0.38612993763E+00  0.10077610158E+00  0.10195283852E+01  0.93800000000E+00 0.  1.
         22    1    1    2    0    0 -0.13358669697E-01  0.34186397275E+00  0.33409057248E+01  0.33583776577E+01  0.00000000000E+00 0.  1.
</event>
<event>
 5    1  0.6172503E+001  0.1595157E+01  0.7818608E-02  0.3358636E+00
         11   -1    0    0    0    0  0.00000000000E+00  0.00000000000E+00  0.39999999674E+01  0.40000000000E+01  0.51100000000E-03 0.  1.
    9000002   -1    0    0    0    0 -0.00000000000E+00 -0.00000000000E+00  0.00000000000E+00  0.93800000000E+00  0.93800000000E+00 0. -1.
         11    1    1    2    0    0  0.21916079596E+00  0.11623770400E+00  0.12802521149E+01  0.13040661015E+01  0.51100000000E-03 0.  1.
    9000002    1    1    2    0    0 -0.54966167020E+00 -0.13692565425E+00  0.22668666289E+00  0.11189760630E+01  0.93800000000E+00 0. -1.
         22    1    1    2    0    0  0.33050087424E+00  0.20687950248E-01  0.24930611896E+01  0.25149578354E+01  0.00000000000E+00 0.  1.
</event>
<event>
 5    1  0.6172503E+001  0.1599677E+01  0.7818608E-02  0.3353715E+00
         11   -1    0    0    0    0  0.00000000000E+00  0.00000000000E+00  0.39999999674E+01  0.40000000000E+01  0.51100000000E-03 0. -1.
    9000002   -1    0    0    0    0 -0.00000000000E+00 -0.00000000000E+00  0.00000000000E+00  0.93800000000E+00  0.93800000000E+00 0. -1.
         11    1    1    2    0    0  0.10213090276E+00  0.86030753252E-01  0.89168269119E+00  0.90162647183E+00  0.51100000000E-03 0. -1.
    9000002    1    1    2    0    0 -0.43529148950E+00 -0.36407814412E+00  0.22318297014E+00  0.11187878324E+01  0.93800000000E+00 0. -1.
         22    1    1    2    0    0  0.33316058674E+00  0.27804739086E+00  0.28851343060E+01  0.29175856957E+01  0.00000000000E+00 0. -1.
</event>
<event>
 5    1  0.6172503E+001  0.1599671E+01  0.7818608E-02  0.3353721E+00
         11   -1    0    0    0    0  0.00000000000E+00  0.00000000000E+00  0.39999999674E+01  0.40000000000E+01  0.51100000000E-03 0. -1.
    9000002   -1    0    0    0    0 -0.00000000000E+00 -0.00000000000E+00  0.00000000000E+00  0.93800000000E+00  0.93800000000E+00 0. -1.
         11    1    1    2    0    0 -0.44193846264E-01  0.96028027317E-01  0.10230864919E+01  0.10285332805E+01  0.51100000000E-03 0. -1.
    9000002    1    1    2    0    0  0.17721214988E+00 -0.36854264812E+00  0.11293482414E+00  0.10294785593E+01  0.93800000000E+00 0. -1.
         22    1    1    2    0    0 -0.13301830362E+00  0.27251462080E+00  0.28639786513E+01  0.28799881602E+01  0.00000000000E+00 0. -1.
</event>
<event>
 5    1  0.6172503E+001  0.1599446E+01  0.7818608E-02  0.3353964E+00
         11   -1    0    0    0    0  0.00000000000E+00  0.00000000000E+00  0.39999999674E+01  0.40000000000E+01  0.51100000000E-03 0.  1.
    9000002   -1    0    0    0    0 -0.00000000000E+00 -0.00000000000E+00  0.00000000000E+00  0.93800000000E+00  0.93800000000E+00 0. -1.
         11    1    1    2    0    0 -0.12609188639E-02 -0.34928657839E-02  0.12691251162E-01  0.13233253751E-01  0.51100000000E-03 0.  1.
    9000002    1    1    2    0    0  0.21428297454E+00  0.44797812632E+00  0.16892343675E+00  0.10747002942E+01  0.93800000000E+00 0. -1.
         22    1    1    2    0    0 -0.21302205567E+00 -0.44448526053E+00  0.38183852794E+01  0.38500664521E+01  0.00000000000E+00 0.  1.
</event>
<event>
 5    1  0.6172503E+001  0.1599577E+01  0.7818608E-02  0.3353822E+00
         11   -1    0    0    0    0  0.00000000000E+00  0.00000000000E+00  0.39999999674E+01  0.40000000000E+01  0.51100000000E-03 0. -1.
    9000002   -1    0    0    0    0 -0.00000000000E+00 -0.00000000000E+00  0.00000000000E+00  0.93800000000E+00  0.93800000000E+00 0.  1.
         11    1    1    2    0    0  0.51783246705E-01  0.34079860576E-01  0.36455473261E+00  0.36978825796E+00  0.51100000000E-03 0. -1.
    9000002    1    1    2    0    0 -0.46104558567E+00 -0.35862390988E+00  0.23734148111E+00  0.11301987080E+01  0.93800000000E+00 0.  1.
         22    1    1    2    0    0  0.40926233897E+00  0.32454404930E+00  0.33981037536E+01  0.34380130341E+01  0.00000000000E+00 0. -1.
</event>
<event>
 5    1  0.6172503E+001  0.1599645E+01  0.7818608E-02  0.3353749E+00
         11   -1    0    0    0    0  0.00000000000E+00  0.00000000000E+00  0.39999999674E+01  0.40000000000E+01  0.51100000000E-03 0.  1.
    9000002   -1    0    0    0    0 -0.00000000000E+00 -0.00000000000E+00  0.00000000000E+00  0.93800000000E+00  0.93800000000E+00 0.  1.
         11    1    1    2    0    0 -0.19530447365E-01  0.38056997168E-01  0.38605712936E+00  0.38842005826E+00  0.51100000000E-03 0.  1.
    9000002    1    1    2    0    0  0.19725785784E+00 -0.34262816299E+00  0.10539514972E+00  0.10233556851E+01  0.93800000000E+00 0.  1.
         22    1    1    2    0    0 -0.17772741047E+00  0.30457116582E+00  0.35085476883E+01  0.35262242567E+01  0.00000000000E+00 0.  1.
</event>
<event>
 5    1  0.6172503E+001  0.1530232E+01  0.7818608E-02  0.3432752E+00
         11   -1    0    0    0    0  0.00000000000E+00  0.00000000000E+00  0.39999999674E+01  0.40000000000E+01  0.51100000000E-03 0.  1.
    9000002   -1    0    0    0    0 -0.00000000000E+00 -0.00000000000E+00  0.00000000000E+00  0.93800000000E+00  0.93800000000E+00 0. -1.
         11    1    1    2    0    0 -0.22379595534E+00 -0.37075344193E+00  0.53201567742E+00  0.68599102507E+00  0.51100000000E-03 0.  1.
    9000002    1    1    2    0    0 -0.14090253999E+00  0.15499102970E+00  0.23240905563E+00  0.98880418395E+00  0.93800000000E+00 0. -1.
         22    1    1    2    0    0  0.36469849533E+00  0.21576241223E+00  0.32355752343E+01  0.32632047910E+01  0.00000000000E+00 0.  1.
</event>
<event>
 5    1  0.6172503E+001  0.1599579E+01  0.7818608E-02  0.3353821E+00
         11   -1    0    0    0    0  0.00000000000E+00  0.00000000000E+00  0.39999999674E+01  0.40000000000E+01  0.51100000000E-03 0. -1.
    9000002   -1    0    0    0    0 -0.00000000000E+00 -0.00000000000E+00  0.00000000000E+00  0.93800000000E+00  0.93800000000E+00 0. -1.
         11    1    1    2    0    0  0.48751002675E-03  0.36621828361E-01  0.35285661419E+00  0.35475265648E+00  0.51100000000E-03 0. -1.
    9000002    1    1    2    0    0 -0.80255746428E-01 -0.39576540806E+00  0.11013087966E+00  0.10271533740E+01  0.93800000000E+00 0. -1.
         22    1    1    2    0    0  0.79768236401E-01  0.35914357970E+00  0.35370124735E+01  0.35560939695E+01  0.00000000000E+00 0. -1.
</event>
<event>
 5    1  0.6172503E+001  0.1599366E+01  0.7818608E-02  0.3354051E+00
         11   -1    0    0    0    0  0.00000000000E+00  0.00000000000E+00  0.39999999674E+01  0.40000000000E+01  0.51100000000E-03 0.  1.
    9000002   -1    0    0    0    0 -0.00000000000E+00 -0.00000000000E+00  0.00000000000E+00  0.93800000000E+00  0.93800000000E+00 0.  1.
         11    1    1    2    0    0  0.20742723819E-01 -0.65704521599E-01  0.58544054343E+00  0.58948132774E+00  0.51100000000E-03 0.  1.
    9000002    1    1    2    0    0 -0.36741728803E-01  0.43809975955E+00  0.13134198956E+00  0.10442107413E+01  0.93800000000E+00 0.  1.
         22    1    1    2    0    0  0.15999004984E-01 -0.37239523795E+00  0.32832174344E+01  0.33043079310E+01  0.00000000000E+00 0.  1.
</event>
<event>
 5    1  0.6172503E+001  0.1509357E+01  0.7818608E-02  0.3458029E+00
         11   -1    0    0    0    0  0.00000000000E+00  0.00000000000E+00  0.39999999674E+01  0.40000000000E+01  0.51100000000E-03 0.  1.
    9000002   -1    0    0    0    0 -0.00000000000E+00 -0.00000000000E+00  0.00000000000E+00  0.93800000000E+00  0.93800000000E+00 0. -1.
         11    1    1    2    0    0 -0.36360638040E-01 -0.46870471175E+00  0.13031581249E+01  0.13853618886E+01  0.51100000000E-03 0.  1.
    9000002    1    1    2    0    0 -0.24145352901E+00  0.41144721410E+00  0.23985838002E+00  0.10793352858E+01  0.93800000000E+00 0. -1.
         22    1    1    2    0    0  0.27781416705E+00  0.57257497648E-01  0.24569834624E+01  0.24733028256E+01  0.00000000000E+00 0.  1.
</event>
<event>
 5    1  0.6172503E+001  0.1599665E+01  0.7818608E-02  0.3353727E+00
         11   -1    0    0    0    0  0.00000000000E+00  0.00000000000E+00  0.39999999674E+01  0.40000000000E+01  0.51100000000E-03 0. -1.
    9000002   -1    0    0    0    0 -0.00000000000E+00 -0.00000000000E+00  0.00000000000E+00  0.93800000000E+00  0.93800000000E+00 0. -1.
         11    1    1    2    0    0  0.14796410701E-01  0.12799114493E+00  0.11208315919E+01  0.11282129167E+01  0.51100000000E-03 0. -1.
    9000002    1    1    2    0    0 -0.49361834507E-01 -0.42929056062E+00  0.12650619930E+00  0.10404685457E+01  0.93800000000E+00 0. -1.
         22    1    1    2    0    0  0.34565423806E-01  0.30129941569E+00  0.27526621762E+01  0.27693185376E+01  0.00000000000E+00 0. -1.
</event>
<event>
 5    1  0.6172503E+001  0.1471097E+01  0.7818608E-02  0.3506367E+00
         11   -1    0    0    0    0  0.00000000000E+00  0.00000000000E+00  0.39999999674E+01  0.40000000000E+01  0.51100000000E-03 0. -1.
    9000002   -1    0    0    0    0 -0.00000000000E+00 -0.00000000000E+00  0.00000000000E+00  0.93800000000E+00  0.93800000000E+00 0.  1.
         11    1    1    2    0    0 -0.20762248974E+00 -0.20246805805E+00  0.12579160009E+01  0.12909118247E+01  0.51100000000E-03 0. -1.
    9000002    1    1    2    0    0  0.27268162109E-01 -0.45709127877E+00  0.26437658362E+00  0.10767613328E+01  0.93800000000E+00 0.  1.
         22    1    1    2    0    0  0.18035432763E+00  0.65955933682E+00  0.24777073829E+01  0.25703268425E+01  0.00000000000E+00 0. -1.
</event>
<event>
 5    1  0.6172503E+001  0.1599618E+01  0.7818608E-02  0.3353778E+00
         11   -1    0    0    0    0  0.00000000000E+00  0.00000000000E+00  0.39999999674E+01  0.40000000000E+01  0.51100000000E-03 0. -1.
    9000002   -1    0    0    0    0 -0.00000000000E+00 -0.00000000000E+00  0.00000000000E+00  0.93800000000E+00  0.93800000000E+00 0.  1.
         11    1    1    2    0    0 -0.68191335458E-01  0.10250482675E-01  0.80368363871E+00  0.80663671060E+00  0.51100000000E-03 0. -1.
    9000002    1    1    2    0    0  0.35677082410E+00 -0.23312114593E-01  0.85830114601E-01  0.10074917787E+01  0.93800000000E+00 0.  1.
         22    1    1    2    0    0 -0.28857948864E+00  0.13061631918E-01  0.31104862140E+01  0.31238715107E+01  0.00000000000E+00 0. -1.
</event>
<event>
 5    1  0.6172503E+001  0.1599672E+01  0.7818608E-02  0.3353720E+00
         11   -1    0    0    0    0  0.00000000000E+00  0.00000000000E+00  0.39999999674E+01  0.40000000000E+01  0.51100000000E-03 0.  1.
    9000002   -1    0    0    0    0 -0.00000000000E+00 -0.00000000000E+00  0.00000000000E+00  0.93800000000E+00  0.93800000000E+00 0. -1.
         11    1    1    2    0    0  0.29901953139E-01 -0.16549907728E+00  0.13133769224E+01  0.13241009300E+01  0.51100000000E-03 0.  1.
    9000002    1    1    2    0    0 -0.81699035401E-01  0.48826778725E+00  0.16763756819E+00  0.10737907239E+01  0.93800000000E+00 0. -1.
         22    1    1    2    0    0  0.51797082262E-01 -0.32276870996E+00  0.25189854767E+01  0.25401083461E+01  0.00000000000E+00 0.  1.
</event>
<event>
 5    1  0.6172503E+001  0.1599407E+01  0.7818608E-02  0.3354008E+00
         11   -1    0    0    0    0  0.00000000000E+00  0.00000000000E+00  0.39999999674E+01  0.40000000000E+01  0.51100000000E-03 0. -1.
    9000002   -1    0    0    0    0 -0.00000000000E+00 -0.00000000000E+00  0.00000000000E+00  0.93800000000E+00  0.93800000000E+00 0.  1.
         11    1    1    2    0    0 -0.75177995293E-01 -0.41815565343E-01  0.70540033749E+00  0.71062660359E+00  0.51100000000E-03 0. -1.
    9000002    1    1    2    0    0  0.33094246484E+00  0.24400141131E+00  0.11442709473E+00  0.10305324661E+01  0.93800000000E+00 0.  1.
         22    1    1    2    0    0 -0.25576446955E+00 -0.20218584597E+00  0.31801725351E+01  0.31968409303E+01  0.00000000000E+00 0. -1.
</event>
<event>
 5    1  0.6172503E+001  0.1592578E+01  0.7818608E-02  0.3361458E+00
         11   -1    0    0    0    0  0.00000000000E+00  0.00000000000E+00  0.39999999674E+01  0.40000000000E+01  0.51100000000E-03 0.  1.
    9000002   -1    0    0    0    0 -0.00000000000E+00 -0.00000000000E+00  0.00000000000E+00  0.93800000000E+00  0.93800000000E+00 0.  1.
         11    1    1    2    0    0  0.36416035771E-01 -0.12927859907E+00  0.11081575817E+01  0.11162672488E+01  0.51100000000E-03 0.  1.
    9000002    1    1    2    0    0 -0.31390326151E+00  0.19217907136E+00  0.96822501503E-01  0.10122680721E+01  0.93800000000E+00 0.  1.
         22    1    1    2    0    0  0.27748722574E+00 -0.62900472287E-01  0.27950198842E+01  0.28094646790E+01  0.00000000000E+00 0.  1.
</event>
<event>
 5    1  0.6172503E+001  0.1598824E+01  0.7818608E-02  0.3354641E+00
         11   -1    0    0    0    0  0.00000000000E+00  0.00000000000E+00  0.39999999674E+01  0.40000000000E+01  0.51100000000E-03 0. -1.
    9000002   -1    0    0    0    0 -0.00000000000E+00 -0.00000000000E+00  0.00000000000E+00  0.93800000000E+00  0.93800000000E+00 0. -1.
         11    1    1    2    0    0 -0.73944495387E-01 -0.10404248191E+00  0.92099047900E+00  0.92979371367E+00  0.51100000000E-03 0. -1.
    9000002    1    1    2    0    0  0.38140067643E+00  0.33175573558E+00  0.17585874353E+00  0.10799530739E+01  0.93800000000E+00 0. -1.
         22    1    1    2    0    0 -0.30745618104E+00 -0.22771325368E+00  0.29031507448E+01  0.29282532125E+01  0.00000000000E+00 0. -1.
</event>
<event>
 5    1  0.6172503E+001  0.1594242E+01  0.7818608E-02  0.3359637E+00
         11   -1    0    0    0    0  0.00000000000E+00  0.00000000000E+00  0.39999999674E+01  0.40000000000E+01  0.51100000000E-03 0.  1.
    9000002   -1    0    0    0    0 -0.00000000000E+00 -0.00000000000E+00  0.00000000000E+00  0.93800000000E+00  0.93800000000E+00 0. -1.
         11    1    1    2    0    0 -0.21160642552E+00 -0.77171118330E-01  0.81881258822E+00  0.84922728205E+00  0.51100000000E-03 0.  1.
    9000002    1    1    2    0    0  0.65611165918E+00  0.17414460817E+00  0.33345324421E+00  0.12049248607E+01  0.93800000000E+00 0. -1.
         22    1    1    2    0    0 -0.44450523367E+00 -0.96973489844E-01  0.28477341349E+01  0.28838478572E+01  0.00000000000E+00 0.  1.
</event>
<event>
 5    1  0.6172503E+001  0.1457582E+01  0.7818608E-02  0.3524099E+00
         11   -1    0    0    0    0  0.00000000000E+00  0.00000000000E+00  0.39999999674E+01  0.40000000000E+01  0.51100000000E-03 0.  1.
    9000002   -1    0    0    0    0 -0.00000000000E+00 -0.00000000000E+00  0.00000000000E+00  0.93800000000E+00  0.93800000000E+00 0.  1.
         11    1    1    2    0    0  0.28918130591E+00  0.27271504820E+00  0.11120711841E+01  0.11809749806E+01  0.51100000000E-03 0.  1.
    9000002    1    1    2    0    0 -0.19523713423E-01  0.90922817733E-01  0.11754913688E+00  0.94989995987E+00  0.93800000000E+00 0.  1.
         22    1    1    2    0    0 -0.26965759249E+00 -0.36363786594E+00  0.27703796464E+01  0.28071250596E+01  0.00000000000E+00 0.  1.
</event>
<event>
 5    1  0.6172503E+001  0.1599651E+01  0.7818608E-02  0.3353742E+00
         11   -1    0    0    0    0  0.00000000000E+00  0.00000000000E+00  0.39999999674E+01  0.40000000000E+01  0.51100000000E-03 0. -1.
    9000002   -1    0    0    0    0 -0.00000000000E+00 -0.00000000000E+00  0.00000000000E+00  0.93800000000E+00  0.93800000000E+00 0.  1.
         11    1    1    2    0    0 -0.14875983068E+00  0.47302117140E-01  0.12761591226E+01  0.12856707762E+01  0.51100000000E-03 0. -1.
    9000002    1    1    2    0    0  0.44845519319E+00 -0.12541252834E+00  0.14764489913E+00  0.10575837455E+01  0.93800000000E+00 0.  1.
         22    1    1    2    0    0 -0.29969536251E+00  0.78110411197E-01  0.25761959456E+01  0.25947454783E+01  0.00000000000E+00 0. -1.
</event>
<event>
 5    1  0.6172503E+001  0.1599676E+01  0.7818608E-02  0.3353715E+00
         11   -1    0    0    0    0  0.00000000000E+00  0.00000000000E+00  0.39999999674E+01  0.40000000000E+01  0.51100000000E-03 0. -1.
    9000002   -1    0    0    0    0 -0.00000000000E+00 -0.00000000000E+00  0.00000000000E+00  0.93800000000E+00  0.93800000000E+00 0.  1.
         11    1    1    2    0    0  0.96226951954E-01 -0.40576715734E-01  0.98163983447E+00  0.98717937675E+00  0.51100000000E-03 0. -1.
    9000002    1    1    2    0    0 -0.38165831969E+00  0.15610349398E+00  0.11487582812E+00  0.10310537472E+01  0.93800000000E+00 0.  1.
         22    1    1    2    0    0  0.28543136774E+00 -0.11552677825E+00  0.29034843048E+01  0.29197668760E+01  0.00000000000E+00 0. -1.
</event>
<event>
 5    1  0.6172503E+001  0.1599386E+01  0.7818608E-02  0.3354030E+00
         11   -1    0    0    0    0  0.00000000000E+00  0.00000000000E+00  0.39999999674E+01  0.40000000000E+01  0.51100000000E-03 0.  1.
    9000002   -1    0    0    0    0 -0.00000000000E+00 -0.00000000000E+00  0.00000000000E+00  0.93800000000E+00  0.93800000000E+00 0.  1.
         11    1    1    2    0    0 -0.12699520087E+00  0.11133458215E+00  0.14100664986E+01  0.14201446975E+01  0.51100000000E-03 0.  1.
    9000002    1    1    2    0    0  0.33788646082E+00 -0.35626018603E+00  0.16505254265E+00  0.10715292448E+01  0.93800000000E+00 0.  1.
         22    1    1    2    0    0 -0.21089125995E+00  0.24492560389E+00  0.24248809261E+01  0.24463260577E+01  0.00000000000E+00 0.  1.
</event>
<event>
 5    1  0.6172503E+001  0.1599675E+01  0.7818608E-02  0.3353716E+00
         11   -1    0    0    0    0  0.00000000000E+00  0.00000000000E+00  0.39999999674E+01  0.40000000000E+01  0.51100000000E-03 0.  1.
    9000002   -1    0    0    0    0 -0.00000000000E+00 -0.00000000000E+00  0.00000000000E+00  0.93800000000E+00  0.93800000000E+00 0. -1.
         11    1    1    2    0    0 -0.47615011810E-01  0.25377875593E-02  0.53259290035E+00  0.53472337553E+00  0.51100000000E-03 0.  1.
    9000002    1    1    2    0    0  0.35583009066E+00 -0.14599933236E-01  0.85098971498E-01  0.10069329900E+01  0.93800000000E+00 0. -1.
         22    1    1    2    0    0 -0.30821507885E+00  0.12062145677E-01  0.33823080955E+01  0.33963436344E+01  0.00000000000E+00 0.  1.
</event>
<event>
 5    1  0.6172503E+001  0.1599669E+01  0.7818608E-02  0.3353722E+00
         11   -1    0    0    0    0  0.00000000000E+00  0.00000000000E+00  0.39999999674E+01  0.40000000000E+01  0.51100000000E-03 0. -1.
    9000002   -1    0    0    0    0 -0.00000000000E+00 -0.00000000000E+00  0.00000000000E+00  0.93800000000E+00  0.93800000000E+00 0.  1.
         11    1    1    2    0    0  0.38634604040E-01 -0.11968803024E+00  0.67388667020E+00  0.68552269299E+00  0.51100000000E-03 0. -1.
    9000002    1    1    2    0    0 -0.19739128232E+00  0.64776608361E+00  0.32577776205E+00  0.12018899150E+01  0.93800000000E+00 0.  1.
         22    1    1    2    0    0  0.15875667828E+00 -0.52807805337E+00  0.30003355351E+01  0.30505873921E+01  0.00000000000E+00 0.  1.
</event>
<event>
 5    1  0.6172503E+001  0.1599674E+01  0.7818608E-02  0.3353718E+00
         11   -1    0    0    0    0  0.00000000000E+00  0.00000000000E+00  0.39999999674E+01  0.40000000000E+01  0.51100000000E-03 0. -1.
    9000002   -1    0    0    0    0 -0.00000000000E+00 -0.00000000000E+00  0.00000000000E+00  0.93800000000E+00  0.93800000000E+00 0.  1.
         11    1    1    2    0    0 -0.36343120868E-01  0.31469959842E+00  0.12425645686E+01  0.12823118294E+01  0.51100000000E-03 0. -1.
    9000002    1    1    2    0    0  0.10023626410E+00 -0.87143634185E+00  0.58332679978E+00  0.14105186145E+01  0.93800000000E+00 0.  1.
         22    1    1    2    0    0 -0.63893143231E-01  0.55673674342E+00  0.21741085990E+01  0.22451695561E+01  0.00000000000E+00 0. -1.
</event>
<event>
 5    1  0.6172503E+001  0.1642261E+01  0.7818608E-02  0.3308735E+00
         11   -1    0    0    0    0  0.00000000000E+00  0.00000000000E+00  0.39999999674E+01  0.40000000000E+01  0.51100000000E-03 0.  1.
    9000002   -1    0    0    0    0 -0.00000000000E+00 -0.00000000000E+00  0.00000000000E+00  0.93800000000E+00  0.93800000000E+00 0. -1.
         11    1    1    2    0    0  0.55305310155E-01 -0.43543632880E+00  0.18917279565E+00  0.47796451909E+00  0.51100000000E-03 0.  1.
    9000002    1    1    2    0    0  0.24078483296E+00  0.36395897246E+00  0.52502601821E+00  0.11601464516E+01  0.93800000000E+00 0. -1.
         22    1    1    2    0    0 -0.29609014311E+00  0.71477356342E-01  0.32858011535E+01  0.32998890293E+01  0.00000000000E+00 0. -1.
</event>
<event>
 5    1  0.6172503E+001  0.1599673E+01  0.7818608E-02  0.3353718E+00
         11   -1    0    0    0    0  0.00000000000E+00  0.00000000000E+00  0.39999999674E+01  0.40000000000E+01  0.51100000000E-03 0. -1.
    9000002   -1    0    0    0    0 -0.00000000000E+00 -0.00000000000E+00  0.00000000000E+00  0.93800000000E+00  0.93800000000E+00 0.  1.
         11    1    1    2    0    0  0.20614576903E-01 -0.87055376997E-01  0.96913590994E+00  0.97325652965E+00  0.51100000000E-03 0. -1.
    9000002    1    1    2    0    0 -0.82592181600E-01  0.35919102474E+00  0.91277213116E-01  0.10119363569E+01  0.93800000000E+00 0.  1.
         22    1    1    2    0    0  0.61977604696E-01 -0.27213564774E+00  0.29395868443E+01  0.29528071135E+01  0.00000000000E+00 0. -1.
</event>
<event>
 5    1  0.6172503E+001  0.1479081E+01  0.7818608E-02  0.3496057E+00
         11   -1    0    0    0    0  0.00000000000E+00  0.00000000000E+00  0.39999999674E+01  0.40000000000E+01  0.51100000000E-03 0.  1.
    9000002   -1    0    0    0    0 -0.00000000000E+00 -0.00000000000E+00  0.00000000000E+00  0.93800000000E+00  0.93800000000E+00 0.  1.
         11    1    1    2    0    0 -0.28601122910E+00 -0.20270505033E+00  0.70338709638E+00  0.78590421113E+00  0.51100000000E-03 0.  1.
    9000002    1    1    2    0    0  0.36565132760E+00 -0.25467335083E+00  0.24711332637E+00  0.10674588540E+01  0.93800000000E+00 0.  1.
         22    1    1    2    0    0 -0.79640098504E-01  0.45737840115E+00  0.30494995446E+01  0.30846369348E+01  0.00000000000E+00 0.  1.
</event>
<event>
 5    1  0.6172503E+001  0.1587727E+01  0.7818608E-02  0.3366792E+00
         11   -1    0    0    0    0  0.00000000000E+00  0.00000000000E+00  0.39999999674E+01  0.40000000000E+01  0.51100000000E-03 0.  1.
    9000002   -1    0    0    0    0 -0.00000000000E+00 -0.00000000000E+00  0.00000000000E+00  0.93800000000E+00  0.93800000000E+00 0.  1.
         11    1    1    2    0    0 -0.23945718122E-01  0.76472469750E-01  0.44708659213E+00  0.45421153446E+00  0.51100000000E-03 0.  1.
    9000002    1    1    2    0    0  0.38834136230E+00  0.43010771668E-01  0.11279615812E+00  0.10223629069E+01  0.93800000000E+00 0.  1.
         22    1    1    2    0    0 -0.36439564418E+00 -0.11948324142E+00  0.34401172171E+01  0.34614255586E+01  0.00000000000E+00 0.  1.
</event>
<event>
 5    1  0.6172503E+001  0.1595289E+01  0.7818608E-02  0.3358492E+00
         11   -1    0    0    0    0  0.00000000000E+00  0.00000000000E+00  0.39999999674E+01  0.40000000000E+01  0.51100000000E-03 0.  1.
    9000002   -1    0    0    0    0 -0.00000000000E+00 -0.00000000000E+00  0.00000000000E+00  0.93800000000E+00  0.93800000000E+00 0.  1.
         11    1    1    2    0    0 -0.72596484461E-01  0.10102554792E+00  0.59987870696E+00  0.61264274669E+00  0.51100000000E-03 0.  1.
    9000002    1    1    2    0    0  0.22650948562E+00 -0.36384658656E+00  0.12811440334E+00  0.10392055552E+01  0.93800000000E+00 0.  1.
         22    1    1    2    0    0 -0.15391300116E+00  0.26282103864E+00  0.32720068571E+01  0.32861516981E+01  0.00000000000E+00 0.  1.
</event>
<event>
 5    1  0.6172503E+001  0.1599507E+01  0.7818608E-02  0.3353899E+00
         11   -1    0    0    0    0  0.00000000000E+00  0.00000000000E+00  0.39999999674E+01  0.40000000000E+01  0.51100000000E-03 0. -1.
    9000002   -1    0    0    0    0 -0.00000000000E+00 -0.00000000000E+00  0.00000000000E+00  0.93800000000E+00  0.93800000000E+00 0. -1.
         11    1    1    2    0    0  0.25091965207E-01  0.14380620528E+00  0.13879033045E+01  0.13955592697E+01  0.51100000000E-03 0. -1.
    9000002    1    1    2    0    0 -0.11214746562E+00 -0.39878039474E+00  0.11610879571E+00  0.10319535405E+01  0.93800000000E+00 0. -1.
         22    1    1    2    0    0  0.87055500416E-01  0.25497418946E+00  0.24959878672E+01  0.25104871899E+01  0.00000000000E+00 0. -1.
</event>
<event>
 5    1  0.6172503E+001  0.1599674E+01  0.7818608E-02  0.3353718E+00
         11   -1    0    0    0    0  0.00000000000E+00  0.00000000000E+00  0.39999999674E+01  0.40000000000E+01  0.51100000000E-03 0. -1.
    9000002   -1    0    0    0    0 -0.00000000000E+00 -0.00000000000E+00  0.00000000000E+00  0.93800000000E+00  0.93800000000E+00 0. -1.
         11    1    1    2    0    0  0.90183087886E-02 -0.95757396817E-03  0.78192634631E-01  0.78718460814E-01  0.51100000000E-03 0.  1.
    9000002    1    1    2    0    0 -0.44378326404E+00  0.66398890255E-01  0.13673261181E+00  0.10487574578E+01  0.93800000000E+00 0. -1.
         22    1    1    2    0    0  0.43476495525E+00 -0.65441316287E-01  0.37850747209E+01  0.38105240814E+01  0.00000000000E+00 0. -1.
</event>
<event>
 5    1  0.6172503E+001  0.1596293E+01  0.7818608E-02  0.3357396E+00
         11   -1    0    0    0    0  0.00000000000E+00  0.00000000000E+00  0.39999999674E+01  0.40000000000E+01  0.51100000000E-03 0. -1.
    9000002   -1    0    0    0    0 -0.00000000000E+00 -0.00000000000E+00  0.00000000000E+00  0.93800000000E+00  0.93800000000E+00 0. -1.
         11    1    1    2    0    0  0.41593355806E-01  0.81269718584E-01  0.11884125144E+01  0.11919141496E+01  0.51100000000E-03 0. -1.
    9000002    1    1    2    0    0 -0.10193201710E+00 -0.47015099835E+00  0.16094149542E+00  0.10663856068E+01  0.93800000000E+00 0. -1.
         22    1    1    2    0    0  0.60338661296E-01  0.38888127976E+00  0.26506459575E+01  0.26797002436E+01  0.00000000000E+00 0. -1.
</event>
<event>
 5    1  0.6172503E+001  0.1599519E+01  0.7818608E-02  0.3353886E+00
         11   -1    0    0    0    0  0.00000000000E+00  0.00000000000E+00  0.39999999674E+01  0.40000000000E+01  0.51100000000E-03 0. -1.
    9000002   -1    0    0    0    0 -0.00000000000E+00 -0.00000000000E+00  0.00000000000E+00  0.93800000000E+00  0.93800000000E+00 0. -1.
         11    1    1    2    0    0 -0.26500044499E-02  0.47857408735E-01  0.34955309754E+00  0.35282429510E+00  0.51100000000E-03 0. -1.
    9000002    1    1    2    0    0  0.71641003938E-01 -0.44227901168E+00  0.13643902565E+00  0.10484287126E+01  0.93800000000E+00 0. -1.
         22    1    1    2    0    0 -0.68990999489E-01  0.39442160295E+00  0.35140078442E+01  0.35367469923E+01  0.00000000000E+00 0. -1.
</event>
<event>
 5    1  0.6172503E+001  0.1599670E+01  0.7818608E-02  0.3353721E+00
         11   -1    0    0    0    0  0.00000000000E+00  0.00000000000E+00  0.39999999674E+01  0.40000000000E+01  0.51100000000E-03 0.  1.
    9000002   -1    0    0    0    0 -0.00000000000E+00 -0.00000000000E+00  0.00000000000E+00  0.93800000000E+00  0.93800000000E+00 0. -1.
         11    1    1    2    0    0 -0.45369684141E-01  0.10001843690E-01  0.41525523602E+00  0.41784640393E+00  0.51100000000E-03 0.  1.
    9000002    1    1    2    0    0  0.42336387086E+00 -0.75675291332E-01  0.12527128189E+00  0.10394713132E+01  0.93800000000E+00 0. -1.
         22    1    1    2    0    0 -0.37799418672E+00  0.65673447642E-01  0.34594734495E+01  0.34806822829E+01  0.00000000000E+00 0.  1.
</event>
<event>
 5    1  0.6809354E+001  0.1525309E+01  0.7818608E-02  0.3438647E+00
         11   -1    0    0    0    0  0.00000000000E+00  0.00000000000E+00  0.39999999674E+01  0.40000000000E+01  0.51100000000E-03 0.  1.
    9000002   -1    0    0    0    0 -0.00000000000E+00 -0.00000000000E+00  0.00000000000E+00  0.93800000000E+00  0.93800000000E+00 0. -1.
         11    1    1    2    0    0 -0.18415204920E+00 -0.23116907930E+00  0.11617386413E+01  0.11987443648E+01  0.51100000000E-03 0.  1.
    9000002    1    1    2    0    0 -0.65068823342E-01  0.36138344423E-01  0.59817810453E-01  0.94284786798E+00  0.93800000000E+00 0. -1.
         22    1    1    2    0    0  0.24922087255E+00  0.19503073488E+00  0.27784435156E+01  0.27964077672E+01  0.00000000000E+00 0.  1.
</event>
<event>
 5    1  0.6172503E+001  0.1597714E+01  0.7818608E-02  0.3355848E+00
         11   -1    0    0    0    0  0.00000000000E+00  0.00000000000E+00  0.39999999674E+01  0.40000000000E+01  0.51100000000E-03 0. -1.
    9000002   -1    0    0    0    0 -0.00000000000E+00 -0.00000000000E+00  0.00000000000E+00  0.93800000000E+00  0.93800000000E+00 0.  1.
         11    1    1    2    0    0  0.43742235705E-01 -0.48835114088E-01  0.49181349918E+00  0.49616431820E+00  0.51100000000E-03 0. -1.
    9000002    1    1    2    0    0 -0.40871546876E+00  0.11247394716E+00  0.12325948953E+00  0.10366945669E+01  0.93800000000E+00 0.  1.
         22    1    1    2    0    0  0.36497323306E+00 -0.63638833072E-01  0.33849269786E+01  0.34051411149E+01  0.00000000000E+00 0. -1.
</event>
<event>
 5    1  0.6172503E+001  0.1597768E+01  0.7818608E-02  0.3355789E+00
         11   -1    0    0    0    0  0.00000000000E+00  0.00000000000E+00  0.39999999674E+01  0.40000000000E+01  0.51100000000E-03 0. -1.
    9000002   -1    0    0    0    0 -0.00000000000E+00 -0.00000000000E+00  0.00000000000E+00  0.93800000000E+00  0.93800000000E+00 0.  1.
         11    1    1    2    0    0 -0.15561092165E+00 -0.98612449968E-01  0.14644332790E+01  0.14759756990E+01  0.51100000000E-03 0. -1.
    9000002    1    1    2    0    0  0.28709964358E+00  0.31263608659E+00  0.12354054761E+00  0.10369540949E+01  0.93800000000E+00 0.  1.
         22    1    1    2    0    0 -0.13148872192E+00 -0.21402363662E+00  0.24120261407E+01  0.24250702061E+01  0.00000000000E+00 0.  1.
</event>
<event>
 5    1  0.6172503E+001  0.1599630E+01  0.7818608E-02  0.3353765E+00
         11   -1    0    0    0    0  0.00000000000E+00  0.00000000000E+00  0.39999999674E+01  0.40000000000E+01  0.51100000000E-03 0.  1.
    9000002   -1    0    0    0    0 -0.00000000000E+00 -0.00000000000E+00  0.00000000000E+00  0.93800000000E+00  0.93800000000E+00 0. -1.
         11    1    1    2    0    0  0.80659624194E-01 -0.73900072140E-01  0.10500755805E+01  0.10557585810E+01  0.51100000000E-03 0.  1.
    9000002    1    1    2    0    0 -0.27543219999E+00  0.26210018084E+00  0.97306682368E-01  0.10167949607E+01  0.93800000000E+00 0. -1.
         22    1    1    2    0    0  0.19477257579E+00 -0.18820010870E+00  0.28526177045E+01  0.28654464583E+01  0.00000000000E+00 0. -1.
</event>
<event>
 5    1  0.6172503E+001  0.1599004E+01  0.7818608E-02  0.3354445E+00
         11   -1    0    0    0    0  0.00000000000E+00  0.00000000000E+00  0.39999999674E+01  0.40000000000E+01  0.51100000000E-03 0. -1.
    9000002   -1    0    0    0    0 -0.00000000000E+00 -0.00000000000E+00  0.00000000000E+00  0.93800000000E+00  0.93800000000E+00 0.  1.
         11    1    1    2    0    0 -0.42390608013E-01 -0.59009398214E-01  0.62767452075E+00  0.63186599675E+00  0.51100000000E-03 0. -1.
    9000002    1    1    2    0    0  0.12189007129E+00  0.35064450241E+00  0.93175797737E-01  0.10130816778E+01  0.93800000000E+00 0.  1.
         22    1    1    2    0    0 -0.79499463273E-01 -0.29163510420E+00  0.32791496489E+01  0.32930523255E+01  0.00000000000E+00 0. -1.
</event>
<event>
 5    1  0.6172503E+001  0.1599622E+01  0.7818608E-02  0.3353773E+00
         11   -1    0    0    0    0  0.00000000000E+00  0.00000000000E+00  0.39999999674E+01  0.40000000000E+01  0.51100000000E-03 0. -1.
    9000002   -1    0    0    0    0 -0.00000000000E+00 -0.00000000000E+00  0.00000000000E+00  0.93800000000E+00  0.93800000000E+00 0. -1.
         11    1    1    2    0    0 -0.29372374220E-01 -0.81179654035E-01  0.88802107208E+00  0.89220768780E+00  0.51100000000E-03 0. -1.
    9000002    1    1    2    0    0  0.99795310092E-01  0.37142821636E+00  0.99626093715E-01  0.10186694176E+01  0.93800000000E+00 0. -1.
         22    1    1    2    0    0 -0.70422935873E-01 -0.29024856233E+00  0.30123528016E+01  0.30271228946E+01  0.00000000000E+00 0. -1.
</event>
<event>
 5    1  0.6172503E+001  0.1599671E+01  0.7818608E-02  0.3353721E+00
         11   -1    0    0    0    0  0.00000000000E+00  0.00000000000E+00  0.39999999674E+01  0.40000000000E+01  0.51100000000E-03 0. -1.
    9000002   -1    0    0    0    0 -0.00000000000E+00 -0.00000000000E+00  0.00000000000E+00  0.93800000000E+00  0.93800000000E+00 0.  1.
         11    1    1    2    0    0  0.12428876111E+00 -0.32274418047E-01  0.12103494274E+01  0.12171422808E+01  0.51100000000E-03 0. -1.
    9000002    1    1    2    0    0 -0.40532522464E+00  0.10933804543E+00  0.11919643146E+00  0.10345506924E+01  0.93800000000E+00 0.  1.
         22    1    1    2    0    0  0.28103646353E+00 -0.77063627380E-01  0.26704541085E+01  0.26863070268E+01  0.00000000000E+00 0. -1.
</event>
<event>
 5    1  0.6172503E+001  0.1598257E+01  0.7818608E-02  0.3355257E+00
         11   -1    0    0    0    0  0.00000000000E+00  0.00000000000E+00  0.39999999674E+01  0.40000000000E+01  0.51100000000E-03 0.  1.
    9000002   -1    0    0    0    0 -0.00000000000E+00 -0.00000000000E+00  0.00000000000E+00  0.93800000000E+00  0.93800000000E+00 0.  1.
         11    1    1    2    0    0  0.37871213738E-01 -0.93006769406E-01  0.13995177311E+01  0.14031160425E+01  0.51100000000E-03 0.  1.
    9000002    1    1    2    0    0 -0.67767211275E-01  0.37484415026E+00  0.98807234603E-01  0.10172056830E+01  0.93800000000E+00 0.  1.
         22    1    1    2    0    0  0.29895997537E-01 -0.28183738085E+00  0.25016750016E+01  0.25176782745E+01  0.00000000000E+00 0.  1.
</event>
<event>
 5    1  0.6172503E+001  0.1599647E+01  0.7818608E-02  0.3353746E+00
         11   -1    0    0    0    0  0.00000000000E+00  0.00000000000E+00  0.39999999674E+01  0.40000000000E+01  0.51100000000E-03 0. -1.
    9000002   -1    0    0    0    0 -0.00000000000E+00 -0.00000000000E+00  0.00000000000E+00  0.93800000000E+00  0.93800000000E+00 0. -1.
         11    1    1    2    0    0  0.32406282311E-01 -0.69494875184E-01  0.74815433332E+00  0.75207371473E+00  0.51100000000E-03 0. -1.
    9000002    1    1    2    0    0 -0.16628619919E+00  0.38724862543E+00  0.12016887766E+00  0.10353246627E+01  0.93800000000E+00 0. -1.
         22    1    1    2    0    0  0.13387991687E+00 -0.31775375025E+00  0.31316767564E+01  0.31506016226E+01  0.00000000000E+00 0. -1.
</event>
<event>
 5    1  0.6172503E+001  0.1599568E+01  0.7818608E-02  0.3353833E+00
         11   -1    0    0    0    0  0.00000000000E+00  0.00000000000E+00  0.39999999674E+01  0.40000000000E+01  0.51100000000E-03 0.  1.
    9000002   -1    0    0    0    0 -0.00000000000E+00 -0.00000000000E+00  0.00000000000E+00  0.93800000000E+00  0.93800000000E+00 0. -1.
         11    1    1    2    0    0 -0.72826292321E-02 -0.16661565221E-01  0.27078793310E+00  0.27139825032E+00  0.51100000000E-03 0.  1.
    9000002    1    1    2    0    0  0.16102613954E+00  0.31459086192E+00  0.83864391055E-01  0.10058698048E+01  0.93800000000E+00 0. -1.
         22    1    1    2    0    0 -0.15374351031E+00 -0.29792929670E+00  0.36453476432E+01  0.36607319449E+01  0.00000000000E+00 0.  1.
</event>
<event>
 5    1  0.6172503E+001  0.1557743E+01  0.7818608E-02  0.3400544E+00
         11   -1    0    0    0    0  0.00000000000E+00  0.00000000000E+00  0.39999999674E+01  0.40000000000E+01  0.51100000000E-03 0. -1.
    9000002   -1    0    0    0    0 -0.00000000000E+00 -0.00000000000E+00  0.00000000000E+00  0.93800000000E+00  0.93800000000E+00 0.  1.
         11    1    1    2    0    0  0.30666822086E+00 -0.69029875482E-01  0.79097567709E+00  0.85114822697E+00  0.51100000000E-03 0. -1.
    9000002    1    1    2    0    0 -0.46963766291E+00  0.42129594572E+00  0.32416677035E+00  0.11760008092E+01  0.93800000000E+00 0.  1.
         22    1    1    2    0    0  0.16296944205E+00 -0.35226607024E+00  0.28848575199E+01  0.29108509638E+01  0.00000000000E+00 0. -1.
</event>
<event>
 5    1  0.6172503E+001  0.1534599E+01  0.7818608E-02  0.3427557E+00
         11   -1    0    0    0    0  0.00000000000E+00  0.00000000000E+00  0.39999999674E+01  0.40000000000E+01  0.51100000000E-03 0.  1.
    9000002   -1    0    0    0    0 -0.00000000000E+00 -0.00000000000E+00  0.00000000000E+00  0.93800000000E+00  0.93800000000E+00 0.  1.
         11    1    1    2    0    0 -0.99605798903E-01  0.27333104391E+00  0.13487671779E+01  0.13797841628E+01  0.51100000000E-03 0.  1.
    9000002    1    1    2    0    0 -0.13275665554E+00 -0.59262297208E-01  0.63558139233E-01  0.95132538415E+00  0.93800000000E+00 0.  1.
         22    1    1    2    0    0  0.23236245444E+00 -0.21406874670E+00  0.25876746503E+01  0.26068904530E+01  0.00000000000E+00 0.  1.
</event>
<event>
 5    1  0.6446995E+001  0.1599600E+01  0.7818608E-02  0.3353798E+00
         11   -1    0    0    0    0  0.00000000000E+00  0.00000000000E+00  0.39999999674E+01  0.40000000000E+01  0.51100000000E-03 0.  1.
    9000002   -1    0    0    0    0 -0.00000000000E+00 -0.00000000000E+00  0.00000000000E+00  0.93800000000E+00  0.93800000000E+00 0. -1.
         11    1    1    2    0    0  0.37603687391E-01  0.12123190902E+00  0.14419801155E+01  0.14475559152E+01  0.51100000000E-03 0.  1.
    9000002    1    1    2    0    0 -0.90742630626E-01 -0.35415958186E+00  0.89843792592E-01  0.10107319830E+01  0.93800000000E+00 0. -1.
         22    1    1    2    0    0  0.53138943235E-01  0.23292767284E+00  0.24681760593E+01  0.24797121018E+01  0.00000000000E+00 0.  1.
</event>
<event>
 5    1  0.6172503E+001  0.1599472E+01  0.7818608E-02  0.3353937E+00
         11   -1    0    0    0    0  0.00000000000E+00  0.00000000000E+00  0.39999999674E+01  0.40000000000E+01  0.51100000000E-03 0. -1.
    9000002   -1    0    0    0    0 -0.00000000000E+00 -0.00000000000E+00  0.00000000000E+00  0.93800000000E+00  0.93800000000E+00 0.  1.
         11    1    1    2    0    0  0.29446181629E-02 -0.10330593038E-02  0.13741174253E-01  0.14100318383E-01  0.51100000000E-03 0. -1.
    9000002    1    1    2    0    0 -0.40505063188E+00 -0.79562399627E-01  0.11530046128E+00  0.10312780354E+01  0.93800000000E+00 0.  1.
         22    1    1    2    0    0  0.40210601372E+00  0.80595458931E-01  0.38709583318E+01  0.38926216463E+01  0.00000000000E+00 0. -1.
</event>
<event>
 5    1  0.6172503E+001  0.1599552E+01  0.7818608E-02  0.3353850E+00
         11   -1    0    0    0    0  0.00000000000E+00  0.00000000000E+00  0.39999999674E+01  0.40000000000E+01  0.51100000000E-03 0. -1.
    9000002   -1    0    0    0    0 -0.00000000000E+00 -0.00000000000E+00  0.00000000000E+00  0.93800000000E+00  0.93800000000E+00 0. -1.
         11    1    1    2    0    0 -0.15760150542E+00  0.24012851480E-01  0.11758082992E+01  0.11865665886E+01  0.51100000000E-03 0. -1.
    9000002    1    1    2    0    0  0.50970336667E+00 -0.37719510113E-01  0.17927193572E+00  0.10831448243E+01  0.93800000000E+00 0. -1.
         22    1    1    2    0    0 -0.35210186125E+00  0.13706658632E-01  0.26449197324E+01  0.26682885871E+01  0.00000000000E+00 0. -1.
</event>
<event>
 5    1  0.6172503E+001  0.1599568E+01  0.7818608E-02  0.3353832E+00
         11   -1    0    0    0    0  0.00000000000E+00  0.00000000000E+00  0.39999999674E+01  0.40000000000E+01  0.51100000000E-03 0.  1.
    9000002   -1    0    0    0    0 -0.00000000000E+00 -0.00000000000E+00  0.00000000000E+00  0.93800000000E+00  0.93800000000E+00 0. -1.
         11    1    1    2    0    0 -0.15013788201E-01 -0.30623605944E-02  0.11611424374E+00  0.11712203298E+00  0.51100000000E-03 0.  1.
    9000002    1    1    2    0    0  0.36867315104E+00  0.59392646665E-01  0.93840626361E-01  0.10139514002E+01  0.93800000000E+00 0. -1.
         22    1    1    2    0    0 -0.35365936284E+00 -0.56330286071E-01  0.37900450973E+01  0.38069265668E+01  0.00000000000E+00 0.  1.
</event>
<event>
 5    1  0.6172503E+001  0.1599492E+01  0.7818608E-02  0.3353915E+00
         11   -1    0    0    0    0  0.00000000000E+00  0.00000000000E+00  0.39999999674E+01  0.40000000000E+01  0.51100000000E-03 0.  1.
    9000002   -1    0    0    0    0 -0.00000000000E+00 -0.00000000000E+00  0.00000000000E+00  0.93800000000E+00  0.93800000000E+00 0. -1.
         11    1    1    2    0    0  0.34779520044E-01 -0.24120252510E-01  0.57914597407E+00  0.58069072836E+00  0.51100000000E-03 0.  1.
    9000002    1    1    2    0    0 -0.26411347138E+00  0.23620181511E+00  0.84370239168E-01  0.10062353405E+01  0.93800000000E+00 0. -1.
         22    1    1    2    0    0  0.22933395134E+00 -0.21208156260E+00  0.33364837541E+01  0.33510739311E+01  0.00000000000E+00 0.  1.
</event>
<event>
 5    1  0.6172503E+001  0.1599677E+01  0.7818608E-02  0.3353714E+00
         11   -1    0    0    0    0  0.00000000000E+00  0.00000000000E+00  0.39999999674E+01  0.40000000000E+01  0.51100000000E-03 0. -1.
    9000002   -1    0    0    0    0 -0.00000000000E+00 -0.00000000000E+00  0.00000000000E+00  0.93800000000E+00  0.93800000000E+00 0.  1.
         11    1    1    2    0    0  0.13869968919E+00 -0.46862705103E-01  0.12272687816E+01  0.12359703234E+01  0.51100000000E-03 0. -1.
    9000002    1    1    2    0    0 -0.43417054597E+00  0.14844810003E+00  0.14318529683E+00  0.10539862099E+01  0.93800000000E+00 0.  1.
         22    1    1    2    0    0  0.29547085678E+00 -0.10158539493E+00  0.26295458889E+01  0.26480434667E+01  0.00000000000E+00 0. -1.
</event>
<event>
 5    1  0.8620070E+001  0.1592812E+01  0.7818608E-02  0.3361202E+00
         11   -1    0    0    0    0  0.00000000000E+00  0.00000000000E+00  0.39999999674E+01  0.40000000000E+01  0.51100000000E-03 0. -1.
    9000002   -1    0    0    0    0 -0.00000000000E+00 -0.00000000000E+00  0.00000000000E+00  0.93800000000E+00  0.93800000000E+00 0.  1.
         11    1    1    2    0    0  0.66170621725E-01  0.89914583288E-01  0.13343566014E+01  0.13390186647E+01  0.51100000000E-03 0. -1.
    9000002    1    1    2    0    0  0.83171630635E-01 -0.27167813566E+00  0.59125193168E-01  0.98186878859E+00  0.93800000000E+00 0.  1.
         22    1    1    2    0    0 -0.14934225236E+00  0.18176355237E+00  0.26065181727E+01  0.26171125467E+01  0.00000000000E+00 0. -1.
</event>
<event>
 5    1  0.6172503E+001  0.1128339E+01  0.7818608E-02  0.4174122E+00
         11   -1    0    0    0    0  0.00000000000E+00  0.00000000000E+00  0.39999999674E+01  0.40000000000E+01  0.51100000000E-03 0.  1.
    9000002   -1    0    0    0    0 -0.00000000000E+00 -0.00000000000E+00  0.00000000000E+00  0.93800000000E+00  0.93800000000E+00 0.  1.
         11    1    1    2    0    0 -0.40146820592E+00 -0.48144928218E+00  0.58443582944E+00  0.85705054200E+00  0.51100000000E-03 0.  1.
    9000002    1    1    2    0    0  0.22709667375E+00 -0.51517485446E+00  0.10875976692E+01  0.15426246206E+01  0.93800000000E+00 0.  1.
         22    1    1    2    0    0  0.17437153218E+00  0.99662413664E+00  0.23279664687E+01  0.25383248374E+01  0.00000000000E+00 0.  1.
</event>
<event>
 5    1  0.6172503E+001  0.1583377E+01  0.7818608E-02  0.3371606E+00
         11   -1    0    0    0    0  0.00000000000E+00  0.00000000000E+00  0.39999999674E+01  0.40000000000E+01  0.51100000000E-03 0.  1.
    9000002   -1    0    0    0    0 -0.00000000000E+00 -0.00000000000E+00  0.00000000000E+00  0.93800000000E+00  0.93800000000E+00 0.  1.
         11    1    1    2    0    0 -0.13114030223E+00 -0.58488674075E-01  0.12553002884E+01  0.12634863589E+01  0.51100000000E-03 0.  1.
    9000002    1    1    2    0    0 -0.39650279927E-04  0.36294015994E+00  0.10180354499E+00  0.10109072772E+01  0.93800000000E+00 0.  1.
         22    1    1    2    0    0  0.13117995251E+00 -0.30445148587E+00  0.26428961340E+01  0.26636063639E+01  0.00000000000E+00 0.  1.
</event>
<event>
 5    1  0.6172503E+001  0.1598938E+01  0.7818608E-02  0.3354516E+00
         11   -1    0    0    0    0  0.00000000000E+00  0.00000000000E+00  0.39999999674E+01  0.40000000000E+01  0.51100000000E-03 0. -1.
    9000002   -1    0    0    0    0 -0.00000000000E+00 -0.00000000000E+00  0.00000000000E+00  0.93800000000E+00  0.93800000000E+00 0. -1.
         11    1    1    2    0    0  0.35428537457E-02 -0.10065925986E-01  0.25769764135E+00  0.25791899921E+00  0.51100000000E-03 0. -1.
    9000002    1    1    2    0    0 -0.20325339908E+00  0.34722088625E+00  0.10983598919E+00  0.10265389582E+01  0.93800000000E+00 0. -1.
         22    1    1    2    0    0  0.19971054534E+00 -0.33715496027E+00  0.36324663368E+01  0.36535420426E+01  0.00000000000E+00 0. -1.
</event>
<event>
 5    1  0.6172503E+001  0.1599673E+01  0.7818608E-02  0.3353719E+00
         11   -1    0    0    0    0  0.00000000000E+00  0.00000000000E+00  0.39999999674E+01  0.40000000000E+01  0.51100000000E-03 0. -1.
    9000002   -1    0    0    0    0 -0.00000000000E+00 -0.00000000000E+00  0.00000000000E+00  0.93800000000E+00  0.93800000000E+00 0. -1.
         11    1    1    2    0    0 -0.10359000743E+00 -0.57648540435E-02  0.10531001408E+01  0.10581986065E+01  0.51100000000E-03 0. -1.
    9000002    1    1    2    0    0  0.37869469241E+00  0.27818509769E-01  0.97012778640E-01  0.10165820276E+01  0.93800000000E+00 0. -1.
         22    1    1    2    0    0 -0.27510468498E+00 -0.22053655725E-01  0.28498870479E+01  0.28632193659E+01  0.00000000000E+00 0. -1.
</event>
<event>
 5    1  0.6172503E+001  0.1522373E+01  0.7818608E-02  0.3442181E+00
         11   -1    0    0    0    0  0.00000000000E+00  0.00000000000E+00  0.39999999674E+01  0.40000000000E+01  0.51100000000E-03 0. -1.
    9000002   -1    0    0    0    0 -0.00000000000E+00 -0.00000000000E+00  0.00000000000E+00  0.93800000000E+00  0.93800000000E+00 0. -1.
         11    1    1    2    0    0  0.37903529457E+00  0.36492541712E+00  0.10465248042E+01  0.11713465506E+01  0.51100000000E-03 0. -1.
    9000002    1    1    2    0    0  0.13645153869E+00 -0.20243626184E+00  0.23817625213E+00  0.99808385900E+00  0.93800000000E+00 0. -1.
         22    1    1    2    0    0 -0.51548683326E+00 -0.16248915528E+00  0.27152989110E+01  0.27685695904E+01  0.00000000000E+00 0. -1.
</event>
<event>
 5    1  0.6172503E+001  0.1599671E+01  0.7818608E-02  0.3353720E+00
         11   -1    0    0    0    0  0.00000000000E+00  0.00000000000E+00  0.39999999674E+01  0.40000000000E+01  0.51100000000E-03 0.  1.
    9000002   -1    0    0    0    0 -0.00000000000E+00 -0.00000000000E+00  0.00000000000E+00  0.93800000000E+00  0.93800000000E+00 0.  1.
         11    1    1    2    0    0  0.28175780362E-01  0.55962082346E-01  0.64134426631E+00  0.64439767094E+00  0.51100000000E-03 0.  1.
    9000002    1    1    2    0    0 -0.18399865954E+00 -0.34271358362E+00  0.10192327094E+00  0.10205588960E+01  0.93800000000E+00 0.  1.
         22    1    1    2    0    0  0.15582287918E+00  0.28675150127E+00  0.32567324301E+01  0.32730434330E+01  0.00000000000E+00 0.  1.
</event>
<event>
 5    1  0.6172503E+001  0.1599676E+01  0.7818608E-02  0.3353715E+00
         11   -1    0    0    0    0  0.00000000000E+00  0.00000000000E+00  0.39999999674E+01  0.40000000000E+01  0.51100000000E-03 0.  1.
    9000002   -1    0    0    0    0 -0.00000000000E+00 -0.00000000000E+00  0.00000000000E+00  0.93800000000E+00  0.93800000000E+00 0.  1.
         11    1    1    2    0    0 -0.24436178020E-01 -0.26629610453E+00  0.13120101173E+01  0.13389852692E+01  0.51100000000E-03 0.  1.
    9000002    1    1    2    0    0  0.67396757925E-01  0.72981202809E+00  0.38744867373E+00  0.12518499887E+01  0.93800000000E+00 0.  1.
         22    1    1    2    0    0 -0.42960579905E-01 -0.46351592356E+00  0.23005411763E+01  0.23471647422E+01  0.00000000000E+00 0.  1.
</event>
<event>
 5    1  0.6172503E+001  0.1599665E+01  0.7818608E-02  0.3353727E+00
         11   -1    0    0    0    0  0.00000000000E+00  0.00000000000E+00  0.39999999674E+01  0.40000000000E+01  0.51100000000E-03 0.  1.
    9000002   -1    0    0    0    0 -0.00000000000E+00 -0.00000000000E+00  0.00000000000E+00  0.93800000000E+00  0.93800000000E+00 0. -1.
         11    1    1    2    0    0 -0.88770507510E-01  0.44439220245E-01  0.89348872985E+00  0.89898688466E+00  0.51100000000E-03 0.  1.
    9000002    1    1    2    0    0  0.38824608079E+00 -0.20687787805E+00  0.13126228804E+00  0.10443214371E+01  0.93800000000E+00 0. -1.
         22    1    1    2    0    0 -0.29947557328E+00  0.16243865780E+00  0.29752489495E+01  0.29946916783E+01  0.00000000000E+00 0.  1.
</event>
<event>
 5    1  0.6172503E+001  0.1598185E+01  0.7818608E-02  0.3355336E+00
         11   -1    0    0    0    0  0.00000000000E+00  0.00000000000E+00  0.39999999674E+01  0.40000000000E+01  0.51100000000E-03 0.  1.
    9000002   -1    0    0    0    0 -0.00000000000E+00 -0.00000000000E+00  0.00000000000E+00  0.93800000000E+00  0.93800000000E+00 0.  1.
         11    1    1    2    0    0 -0.64432648478E-02  0.20945451177E+00  0.12478008519E+01  0.12652746482E+01  0.51100000000E-03 0.  1.
    9000002    1    1    2    0    0  0.14514936147E+00 -0.59001875246E+00  0.25950380414E+00  0.11473346023E+01  0.93800000000E+00 0.  1.
         22    1    1    2    0    0 -0.13870609662E+00  0.38056424069E+00  0.24926953113E+01  0.25253907495E+01  0.00000000000E+00 0.  1.
</event>
<event>
 5    1  0.6172503E+001  0.1599674E+01  0.7818608E-02  0.3353718E+00
         11   -1    0    0    0    0  0.00000000000E+00  0.00000000000E+00  0.39999999674E+01  0.40000000000E+01  0.51100000000E-03 0.  1.
    9000002   -1    0    0    0    0 -0.00000000000E+00 -0.00000000000E+00  0.00000000000E+00  0.93800000000E+00  0.93800000000E+00 0. -1.
         11    1    1    2    0    0  0.29587363163E-01  0.73481338120E-01  0.72244848037E+00  0.72677849928E+00  0.51100000000E-03 0.  1.
    9000002    1    1    2    0    0 -0.15434953177E+00 -0.40182886371E+00  0.12549605244E+00  0.10396554587E+01  0.93800000000E+00 0. -1.
         22    1    1    2    0    0  0.12476216860E+00  0.32834752559E+00  0.31520554346E+01  0.31715660420E+01  0.00000000000E+00 0.  1.
</event>
<event>
 5    1  0.6172503E+001  0.1599664E+01  0.7818608E-02  0.3353729E+00
         11   -1    0    0    0    0  0.00000000000E+00  0.00000000000E+00  0.39999999674E+01  0.40000000000E+01  0.51100000000E-03 0.  1.
    9000002   -1    0    0    0    0 -0.00000000000E+00 -0.00000000000E+00  0.00000000000E+00  0.93800000000E+00  0.93800000000E+00 0. -1.
         11    1    1    2    0    0  0.93876456004E-02  0.32559879034E-02  0.10868689352E+00  0.10914133631E+00  0.51100000000E-03 0.  1.
    9000002    1    1    2    0    0 -0.36547954678E+00 -0.76562941136E-01  0.93755936048E-01  0.10139385379E+01  0.93800000000E+00 0. -1.
         22    1    1    2    0    0  0.35609190118E+00  0.73306953233E-01  0.37975571378E+01  0.38149201258E+01  0.00000000000E+00 0.  1.
</event>
<event>
 5    1  0.6172503E+001  0.1594561E+01  0.7818608E-02  0.3359288E+00
         11   -1    0    0    0    0  0.00000000000E+00  0.00000000000E+00  0.39999999674E+01  0.40000000000E+01  0.51100000000E-03 0. -1.
    9000002   -1    0    0    0    0 -0.00000000000E+00 -0.00000000000E+00  0.00000000000E+00  0.93800000000E+00  0.93800000000E+00 0. -1.
         11    1    1    2    0    0  0.94543825274E-02  0.18278746824E-01  0.10171425999E+01  0.10173508871E+01  0.51100000000E-03 0. -1.
    9000002    1    1    2    0    0  0.11898413887E+00 -0.31676413284E+00  0.80776393811E-01  0.10004326899E+01  0.93800000000E+00 0. -1.
         22    1    1    2    0    0 -0.12843852140E+00  0.29848538601E+00  0.29020809737E+01  0.29202164230E+01  0.00000000000E+00 0. -1.
</event>
<event>
 5    1  0.8414850E+001  0.1593163E+01  0.7818608E-02  0.3360818E+00
         11   -1    0    0    0    0  0.00000000000E+00  0.00000000000E+00  0.39999999674E+01  0.40000000000E+01  0.51100000000E-03 0. -1.
    9000002   -1    0    0    0    0 -0.00000000000E+00 -0.00000000000E+00  0.00000000000E+00  0.93800000000E+00  0.93800000000E+00 0. -1.
         11    1    1    2    0    0  0.33681653689E-01  0.31600889895E-01  0.13238772098E+01  0.13246826782E+01  0.51100000000E-03 0. -1.
    9000002    1    1    2    0    0  0.13538814963E+00 -0.23301949120E+00  0.53360302939E-01  0.97740439751E+00  0.93800000000E+00 0. -1.
         22    1    1    2    0    0 -0.16906980332E+00  0.20141860131E+00  0.26227624546E+01  0.26359129243E+01  0.00000000000E+00 0. -1.
</event>
<event>
 5    1  0.6172503E+001  0.1599677E+01  0.7818608E-02  0.3353714E+00
         11   -1    0    0    0    0  0.00000000000E+00  0.00000000000E+00  0.39999999674E+01  0.40000000000E+01  0.51100000000E-03 0.  1.
    9000002   -1    0    0    0    0 -0.00000000000E+00 -0.00000000000E+00  0.00000000000E+00  0.93800000000E+00  0.93800000000E+00 0.  1.
         11    1    1    2    0    0 -0.16077625785E+00 -0.11270680885E+00  0.14548112418E+01  0.14680013080E+01  0.51100000000E-03 0.  1.
    9000002    1    1    2    0    0  0.42266397096E+00  0.29393155453E+00  0.18189605509E+00  0.10853436165E+01  0.93800000000E+00 0.  1.
         22    1    1    2    0    0 -0.26188771311E+00 -0.18122474567E+00  0.23632926705E+01  0.23846550755E+01  0.00000000000E+00 0.  1.
</event>
<event>
 5    1  0.6172503E+001  0.1599668E+01  0.7818608E-02  0.3353724E+00
         11   -1    0    0    0    0  0.00000000000E+00  0.00000000000E+00  0.39999999674E+01  0.40000000000E+01  0.51100000000E-03 0. -1.
    9000002   -1    0    0    0    0 -0.00000000000E+00 -0.00000000000E+00  0.00000000000E+00  0.93800000000E+00  0.93800000000E+00 0. -1.
         11    1    1    2    0    0  0.57046029763E-01  0.38370935237E-01  0.69987496854E+00  0.70324377771E+00  0.51100000000E-03 0. -1.
    9000002    1    1    2    0    0 -0.31550774508E+00 -0.22925322431E+00  0.10247409691E+00  0.10210029964E+01  0.93800000000E+00 0. -1.
         22    1    1    2    0    0  0.25846171531E+00  0.19088228908E+00  0.31976509019E+01  0.32137532259E+01  0.00000000000E+00 0. -1.
</event>
<event>
 5    1  0.6172503E+001  0.1522140E+01  0.7818608E-02  0.3442462E+00
         11   -1    0    0    0    0  0.00000000000E+00  0.00000000000E+00  0.39999999674E+01  0.40000000000E+01  0.51100000000E-03 0.  1.
    9000002   -1    0    0    0    0 -0.00000000000E+00 -0.00000000000E+00  0.00000000000E+00  0.93800000000E+00  0.93800000000E+00 0. -1.
         11    1    1    2    0    0 -0.26885624541E+00 -0.73203654112E-01  0.12838845662E+01  0.13137740658E+01  0.51100000000E-03 0.  1.
    9000002    1    1    2    0    0 -0.13431138254E+00  0.12076351116E+00  0.81704935358E-01  0.95871949473E+00  0.93800000000E+00 0. -1.
         22    1    1    2    0    0  0.40316762796E+00 -0.47559857046E-01  0.26344104658E+01  0.26655064394E+01  0.00000000000E+00 0.  1.
</event>
<event>
 5    1  0.6172503E+001  0.1597925E+01  0.7818608E-02  0.3355618E+00
         11   -1    0    0    0    0  0.00000000000E+00  0.00000000000E+00  0.39999999674E+01  0.40000000000E+01  0.51100000000E-03 0.  1.
    9000002   -1    0    0    0    0 -0.00000000000E+00 -0.00000000000E+00  0.00000000000E+00  0.93800000000E+00  0.93800000000E+00 0. -1.
         11    1    1    2    0    0 -0.25433108055E-02  0.18763121351E-02  0.35943479995E-02  0.48134639941E-02  0.51100000000E-03 0.  1.
    9000002    1    1    2    0    0  0.18965538835E+00  0.37878146995E+00  0.12290284362E+00  0.10365296316E+01  0.93800000000E+00 0. -1.
         22    1    1    2    0    0 -0.18711207754E+00 -0.38065778208E+00  0.38735027757E+01  0.38966569044E+01  0.00000000000E+00 0.  1.
</event>
<event>
 5    1  0.6172503E+001  0.1580219E+01  0.7818608E-02  0.3375116E+00
         11   -1    0    0    0    0  0.00000000000E+00  0.00000000000E+00  0.39999999674E+01  0.40000000000E+01  0.51100000000E-03 0.  1.
    9000002   -1    0    0    0    0 -0.00000000000E+00 -0.00000000000E+00  0.00000000000E+00  0.93800000000E+00  0.93800000000E+00 0. -1.
         11    1    1    2    0    0  0.63814469498E-02 -0.15191096819E+00  0.12219816663E+01  0.12314045310E+01  0.51100000000E-03 0.  1.
    9000002    1    1    2    0    0  0.44689634886E+00  0.33556730810E+00  0.23485896417E+00  0.11168368269E+01  0.93800000000E+00 0. -1.
         22    1    1    2    0    0 -0.45327779581E+00 -0.18365633991E+00  0.25431593369E+01  0.25897586421E+01  0.00000000000E+00 0.  1.
</event>
<event>
 5    1  0.6172503E+001  0.1599575E+01  0.7818608E-02  0.3353824E+00
         11   -1    0    0    0    0  0.00000000000E+00  0.00000000000E+00  0.39999999674E+01  0.40000000000E+01  0.51100000000E-03 0. -1.
    9000002   -1    0    0    0    0 -0.00000000000E+00 -0.00000000000E+00  0.00000000000E+00  0.93800000000E+00  0.93800000000E+00 0. -1.
         11    1    1    2    0    0  0.14441348458E+00  0.73497444120E-01  0.14270285632E+01  0.14361991192E+01  0.51100000000E-03 0. -1.
    9000002    1    1    2    0    0 -0.38837527113E+00 -0.23049176947E+00  0.13864862838E+00  0.10502519932E+01  0.93800000000E+00 0. -1.
         22    1    1    2    0    0  0.24396178655E+00  0.15699432535E+00  0.24343227758E+01  0.24515488876E+01  0.00000000000E+00 0. -1.
</event>
<event>
 5    1  0.6172503E+001  0.1597887E+01  0.7818608E-02  0.3355660E+00
         11   -1    0    0    0    0  0.00000000000E+00  0.00000000000E+00  0.39999999674E+01  0.40000000000E+01  0.51100000000E-03 0. -1.
    9000002   -1    0    0    0    0 -0.00000000000E+00 -0.00000000000E+00  0.00000000000E+00  0.93800000000E+00  0.93800000000E+00 0.  1.
         11    1    1    2    0    0  0.25214322995E-02 -0.47754120480E-02  0.54691323316E-01  0.54959659280E-01  0.51100000000E-03 0. -1.
    9000002    1    1    2    0    0  0.55063575377E+00 -0.94366093375E-01  0.21763554788E+00  0.11132447730E+01  0.93800000000E+00 0.  1.
         22    1    1    2    0    0 -0.55315718607E+00  0.99141505423E-01  0.37276730962E+01  0.37697955677E+01  0.00000000000E+00 0. -1.
</event>
<event>
 5    1  0.6172503E+001  0.1599676E+01  0.7818608E-02  0.3353715E+00
         11   -1    0    0    0    0  0.00000000000E+00  0.00000000000E+00  0.39999999674E+01  0.40000000000E+01  0.51100000000E-03 0.  1.
    9000002   -1    0    0    0    0 -0.00000000000E+00 -0.00000000000E+00  0.00000000000E+00  0.93800000000E+00  0.93800000000E+00 0. -1.
         11    1    1    2    0    0  0.49218215155E-01  0.62998871359E-01  0.64570168200E+00  0.65063216470E+00  0.51100000000E-03 0.  1.
    9000002    1    1    2    0    0 -0.28923192615E+00 -0.37275876868E+00  0.15169156412E+00  0.10608763063E+01  0.93800000000E+00 0. -1.
         22    1    1    2    0    0  0.24001371099E+00  0.30975989732E+00  0.32026067212E+01  0.32264915290E+01  0.00000000000E+00 0.  1.
</event>
<event>
 5    1  0.6172503E+001  0.1532533E+01  0.7818608E-02  0.3430011E+00
         11   -1    0    0    0    0  0.00000000000E+00  0.00000000000E+00  0.39999999674E+01  0.40000000000E+01  0.51100000000E-03 0. -1.
    9000002   -1    0    0    0    0 -0.00000000000E+00 -0.00000000000E+00  0.00000000000E+00  0.93800000000E+00  0.93800000000E+00 0. -1.
         11    1    1    2    0    0 -0.29310430228E+00 -0.77916986138E-01  0.12690783131E+01  0.13048146285E+01  0.51100000000E-03 0. -1.
    9000002    1    1    2    0    0  0.35854319666E-02  0.31292843353E+00  0.12036068019E+00  0.99612637410E+00  0.93800000000E+00 0. -1.
         22    1    1    2    0    0  0.28951887031E+00 -0.23501144739E+00  0.26105609741E+01  0.26370589974E+01  0.00000000000E+00 0. -1.
</event>
<event>
 5    1  0.6172503E+001  0.1491783E+01  0.7818608E-02  0.3479900E+00
         11   -1    0    0    0    0  0.00000000000E+00  0.00000000000E+00  0.39999999674E+01  0.40000000000E+01  0.51100000000E-03 0. -1.
    9000002   -1    0    0    0    0 -0.00000000000E+00 -0.00000000000E+00  0.00000000000E+00  0.93800000000E+00  0.93800000000E+00 0. -1.
         11    1    1    2    0    0  0.24385789679E+00  0.15234170212E+00  0.83448773378E+00  0.88263509277E+00  0.51100000000E-03 0. -1.
    9000002    1    1    2    0    0  0.39049904885E+00 -0.60632916336E+00  0.51140066037E+00  0.12889915426E+01  0.93800000000E+00 0. -1.
         22    1    1    2    0    0 -0.63435694564E+00  0.45398746125E+00  0.26541115732E+01  0.27663733646E+01  0.00000000000E+00 0. -1.
</event>
<event>
 5    1  0.6172503E+001  0.1599554E+01  0.7818608E-02  0.3353848E+00
         11   -1    0    0    0    0  0.00000000000E+00  0.00000000000E+00  0.39999999674E+01  0.40000000000E+01  0.51100000000E-03 0. -1.
    9000002   -1    0    0    0    0 -0.00000000000E+00 -0.00000000000E+00  0.00000000000E+00  0.93800000000E+00  0.93800000000E+00 0.  1.
         11    1    1    2    0    0 -0.37480563045E-01  0.92936090528E-01  0.93536661795E+00  0.94071934212E+00  0.51100000000E-03 0. -1.
    9000002    1    1    2    0    0  0.14462013665E+00 -0.34195759799E+00  0.92754803751E-01  0.10130633921E+01  0.93800000000E+00 0.  1.
         22    1    1    2    0    0 -0.10713957361E+00  0.24902150746E+00  0.29718785457E+01  0.29842172658E+01  0.00000000000E+00 0. -1.
</event>
<event>
 5    1  0.6172503E+001  0.1599674E+01  0.7818608E-02  0.3353717E+00
         11   -1    0    0    0    0  0.00000000000E+00  0.00000000000E+00  0.39999999674E+01  0.40000000000E+01  0.51100000000E-03 0. -1.
    9000002   -1    0    0    0    0 -0.00000000000E+00 -0.00000000000E+00  0.00000000000E+00  0.93800000000E+00  0.93800000000E+00 0.  1.
         11    1    1    2    0    0 -0.54479230860E-01  0.38740505302E-01  0.74923545575E+00  0.75221196655E+00  0.51100000000E-03 0. -1.
    9000002    1    1    2    0    0  0.29276729624E+00 -0.20483711622E+00  0.85677005176E-01  0.10074003589E+01  0.93800000000E+00 0.  1.
         22    1    1    2    0    0 -0.23828806538E+00  0.16609661092E+00  0.31650875064E+01  0.31783876745E+01  0.00000000000E+00 0. -1.
</event>
<event>
 5    1  0.6172503E+001  0.1595214E+01  0.7818608E-02  0.3358574E+00
         11   -1    0    0    0    0  0.00000000000E+00  0.00000000000E+00  0.39999999674E+01  0.40000000000E+01  0.51100000000E-03 0. -1.
    9000002   -1    0    0    0    0 -0.00000000000E+00 -0.00000000000E+00  0.00000000000E+00  0.93800000000E+00  0.93800000000E+00 0.  1.
         11    1    1    2    0    0 -0.74183889988E-02  0.60552660325E-01  0.49448557003E+00  0.49823478126E+00  0.51100000000E-03 0. -1.
    9000002    1    1    2    0    0 -0.34961481828E+00 -0.52468006100E+00  0.28383252034E+00  0.11653002133E+01  0.93800000000E+00 0.  1.
         22    1    1    2    0    0  0.35703320728E+00  0.46412740067E+00  0.32216818770E+01  0.32744650054E+01  0.00000000000E+00 0. -1.
</event>
<event>
 5    1  0.6172503E+001  0.1599384E+01  0.7818608E-02  0.3354032E+00
         11   -1    0    0    0    0  0.00000000000E+00  0.00000000000E+00  0.39999999674E+01  0.40000000000E+01  0.51100000000E-03 0.  1.
    9000002   -1    0    0    0    0 -0.00000000000E+00 -0.00000000000E+00  0.00000000000E+00  0.93800000000E+00  0.93800000000E+00 0. -1.
         11    1    1    2    0    0 -0.28431110830E-01 -0.39375857999E-01  0.39883465460E+00  0.40178119553E+00  0.51100000000E-03 0.  1.
    9000002    1    1    2    0    0  0.16944928065E+00  0.44040634924E+00  0.15199533658E+00  0.10609511740E+01  0.93800000000E+00 0. -1.
         22    1    1    2    0    0 -0.14101816982E+00 -0.40103049124E+00  0.34491699762E+01  0.34752676305E+01  0.00000000000E+00 0.  1.
</event>
<event>
 5    1  0.6172503E+001  0.1598155E+01  0.7818608E-02  0.3355368E+00
         11   -1    0    0    0    0  0.00000000000E+00  0.00000000000E+00  0.39999999674E+01  0.40000000000E+01  0.51100000000E-03 0. -1.
    9000002   -1    0    0    0    0 -0.00000000000E+00 -0.00000000000E+00  0.00000000000E+00  0.93800000000E+00  0.93800000000E+00 0.  1.
         11    1    1    2    0    0  0.34070998790E-01  0.10135510042E-01  0.36952015237E+00  0.37122629978E+00  0.51100000000E-03 0. -1.
    9000002    1    1    2    0    0 -0.31856301277E+00  0.18026267952E+00  0.91234738787E-01  0.10110117726E+01  0.93800000000E+00 0.  1.
         22    1    1    2    0    0  0.28449201398E+00 -0.19039818957E+00  0.35392450762E+01  0.35557619276E+01  0.00000000000E+00 0. -1.
</event>
<event>
 5    1  0.6172503E+001  0.1599677E+01  0.7818608E-02  0.3353714E+00
         11   -1    0    0    0    0  0.00000000000E+00  0.00000000000E+00  0.39999999674E+01  0.40000000000E+01  0.51100000000E-03 0.  1.
    9000002   -1    0    0    0    0 -0.00000000000E+00 -0.00000000000E+00  0.00000000000E+00  0.93800000000E+00  0.93800000000E+00 0.  1.
         11    1    1    2    0    0 -0.45347218468E-01 -0.53181527764E-01  0.66125494101E+00  0.66493834545E+00  0.51100000000E-03 0. -1.
    9000002    1    1    2    0    0  0.26529445753E+00  0.31420283080E+00  0.11423178051E+00  0.10305326136E+01  0.93800000000E+00 0.  1.
         22    1    1    2    0    0 -0.21994723906E+00 -0.26102130304E+00  0.32245132458E+01  0.32425290409E+01  0.00000000000E+00 0.  1.
</event>
<event>
 5    1  0.9171925E+001  0.1597779E+01  0.7818608E-02  0.3355777E+00
         11   -1    0    0    0    0  0.00000000000E+00  0.00000000000E+00  0.39999999674E+01  0.40000000000E+01  0.51100000000E-03 0.  1.
    9000002   -1    0    0    0    0 -0.00000000000E+00 -0.00000000000E+00  0.00000000000E+00  0.93800000000E+00  0.93800000000E+00 0.  1.
         11    1    1    2    0    0  0.46731972434E-01 -0.10593171324E-01  0.11855897609E+01  0.11865578093E+01  0.51100000000E-03 0.  1.
    9000002    1    1    2    0    0 -0.30579697229E+00 -0.18646880077E-01  0.64144085148E-01  0.98884678189E+00  0.93800000000E+00 0.  1.
         22    1    1    2    0    0  0.25906499986E+00  0.29240051401E-01  0.27502661213E+01  0.27625954088E+01  0.00000000000E+00 0.  1.
</event>
<event>
 5    1  0.6172503E+001  0.1351063E+01  0.7818608E-02  0.3688677E+00
         11   -1    0    0    0    0  0.00000000000E+00  0.00000000000E+00  0.39999999674E+01  0.40000000000E+01  0.51100000000E-03 0. -1.
    9000002   -1    0    0    0    0 -0.00000000000E+00 -0.00000000000E+00  0.00000000000E+00  0.93800000000E+00  0.93800000000E+00 0. -1.
         11    1    1    2    0    0 -0.16357353236E+00  0.64547662319E+00  0.10182442997E+01  0.12166421358E+01  0.51100000000E-03 0. -1.
    9000002    1    1    2    0    0  0.38254932751E+00 -0.31431795763E+00  0.43919428732E+00  0.11479875385E+01  0.93800000000E+00 0. -1.
         22    1    1    2    0    0 -0.21897579514E+00 -0.33115866556E+00  0.25425613803E+01  0.25733703257E+01  0.00000000000E+00 0. -1.
</event>
<event>
 5    1  0.6172503E+001  0.1582814E+01  0.7818608E-02  0.3372230E+00
         11   -1    0    0    0    0  0.00000000000E+00  0.00000000000E+00  0.39999999674E+01  0.40000000000E+01  0.51100000000E-03 0.  1.
    9000002   -1    0    0    0    0 -0.00000000000E+00 -0.00000000000E+00  0.00000000000E+00  0.93800000000E+00  0.93800000000E+00 0.  1.
         11    1    1    2    0    0 -0.59881142903E-01  0.86416339506E-01  0.23651346725E+00  0.25882893254E+00  0.51100000000E-03 0.  1.
    9000002    1    1    2    0    0  0.42488050559E+00 -0.26071281402E+00  0.18539501888E+00  0.10782902802E+01  0.93800000000E+00 0.  1.
         22    1    1    2    0    0 -0.36499936268E+00  0.17429647451E+00  0.35780914812E+01  0.36008807872E+01  0.00000000000E+00 0.  1.
</event>
<event>
 5    1  0.6172503E+001  0.1599672E+01  0.7818608E-02  0.3353720E+00
         11   -1    0    0    0    0  0.00000000000E+00  0.00000000000E+00  0.39999999674E+01  0.40000000000E+01  0.51100000000E-03 0.  1.
    9000002   -1    0    0    0    0 -0.00000000000E+00 -0.00000000000E+00  0.00000000000E+00  0.93800000000E+00  0.93800000000E+00 0.  1.
         11    1    1    2    0    0  0.41958323037E-01 -0.51254785174E-01  0.60102369856E+00  0.60466296499E+00  0.51100000000E-03 0.  1.
    9000002    1    1    2    0    0 -0.27351261667E+00  0.31867206139E+00  0.11927732061E+00  0.10346168921E+01  0.93800000000E+00 0.  1.
         22    1    1    2    0    0  0.23155429363E+00 -0.26741727622E+00  0.32796989482E+01  0.32987201429E+01  0.00000000000E+00 0.  1.
</event>
<event>
 5    1  0.6172503E+001  0.1599675E+01  0.7818608E-02  0.3353716E+00
         11   -1    0    0    0    0  0.00000000000E+00  0.00000000000E+00  0.39999999674E+01  0.40000000000E+01  0.51100000000E-03 0.  1.
    9000002   -1    0    0    0    0 -0.00000000000E+00 -0.00000000000E+00  0.00000000000E+00  0.93800000000E+00  0.93800000000E+00 0. -1.
         11    1    1    2    0    0  0.38732165781E-02 -0.18500199096E-01  0.18781369500E+00  0.18876309047E+00  0.51100000000E-03 0.  1.
    9000002    1    1    2    0    0 -0.93274542103E-01  0.38338211521E+00  0.10493985422E+00  0.10230045745E+01  0.93800000000E+00 0. -1.
         22    1    1    2    0    0  0.89401325525E-01 -0.36488191612E+00  0.37072464181E+01  0.37262323350E+01  0.00000000000E+00 0.  1.
</event>
<event>
 5    1  0.7215711E+001  0.1597797E+01  0.7818608E-02  0.3355758E+00
         11   -1    0    0    0    0  0.00000000000E+00  0.00000000000E+00  0.39999999674E+01  0.40000000000E+01  0.51100000000E-03 0. -1.
    9000002   -1    0    0    0    0 -0.00000000000E+00 -0.00000000000E+00  0.00000000000E+00  0.93800000000E+00  0.93800000000E+00 0. -1.
         11    1    1    2    0    0 -0.62699939801E-01 -0.64205525931E-01  0.12325473280E+01  0.12358101832E+01  0.51100000000E-03 0. -1.
    9000002    1    1    2    0    0  0.31447669558E+00  0.10137406273E+00  0.74545670949E-01  0.99728298377E+00  0.93800000000E+00 0. -1.
         22    1    1    2    0    0 -0.25177675578E+00 -0.37168536801E-01  0.26929069685E+01  0.27049068331E+01  0.00000000000E+00 0. -1.
</event>
<event>
 5    1  0.6172503E+001  0.1570439E+01  0.7818608E-02  0.3386087E+00
         11   -1    0    0    0    0  0.00000000000E+00  0.00000000000E+00  0.39999999674E+01  0.40000000000E+01  0.51100000000E-03 0.  1.
    9000002   -1    0    0    0    0 -0.00000000000E+00 -0.00000000000E+00  0.00000000000E+00  0.93800000000E+00  0.93800000000E+00 0.  1.
         11    1    1    2    0    0 -0.28753302181E+00 -0.10471108006E+00  0.99913251675E+00  0.10449429152E+01  0.51100000000E-03 0.  1.
    9000002    1    1    2    0    0  0.10957082887E+01 -0.19741002698E+00  0.11650602771E+01  0.18646063450E+01  0.93800000000E+00 0.  1.
         22    1    1    2    0    0 -0.80817526687E+00  0.30212110704E+00  0.18358071735E+01  0.20284507397E+01  0.00000000000E+00 0.  1.
</event>
<event>
 5    1  0.8263373E+001  0.1590445E+01  0.7818608E-02  0.3363800E+00
         11   -1    0    0    0    0  0.00000000000E+00  0.00000000000E+00  0.39999999674E+01  0.40000000000E+01  0.51100000000E-03 0. -1.
    9000002   -1    0    0    0    0 -0.00000000000E+00 -0.00000000000E+00  0.00000000000E+00  0.93800000000E+00  0.93800000000E+00 0. -1.
         11    1    1    2    0    0 -0.42829097583E-01 -0.30550637172E-01  0.13374707710E+01  0.13385051353E+01  0.51100000000E-03 0. -1.
    9000002    1    1    2    0    0  0.19808216713E-01 -0.21533884216E+00  0.37981578432E-01  0.96335340488E+00  0.93800000000E+00 0. -1.
         22    1    1    2    0    0  0.23020880870E-01  0.24588947933E+00  0.26245476180E+01  0.26361414598E+01  0.00000000000E+00 0. -1.
</event>
<event>
 5    1  0.6253737E+001  0.1599635E+01  0.7818608E-02  0.3353759E+00
         11   -1    0    0    0    0  0.00000000000E+00  0.00000000000E+00  0.39999999674E+01  0.40000000000E+01  0.51100000000E-03 0.  1.
    9000002   -1    0    0    0    0 -0.00000000000E+00 -0.00000000000E+00  0.00000000000E+00  0.93800000000E+00  0.93800000000E+00 0.  1.
         11    1    1    2    0    0  0.18284112714E-01  0.97443777556E-01  0.11932090816E+01  0.11973210815E+01  0.51100000000E-03 0.  1.
    9000002    1    1    2    0    0 -0.68933752411E-01 -0.34181917925E+00  0.81550715953E-01  0.10040352249E+01  0.93800000000E+00 0.  1.
         22    1    1    2    0    0  0.50649639697E-01  0.24437540170E+00  0.27252401698E+01  0.27366436937E+01  0.00000000000E+00 0.  1.
</event>
<event>
 5    1  0.6172503E+001  0.1594420E+01  0.7818608E-02  0.3359442E+00
         11   -1    0    0    0    0  0.00000000000E+00  0.00000000000E+00  0.39999999674E+01  0.40000000000E+01  0.51100000000E-03 0. -1.
    9000002   -1    0    0    0    0 -0.00000000000E+00 -0.00000000000E+00  0.00000000000E+00  0.93800000000E+00  0.93800000000E+00 0. -1.
         11    1    1    2    0    0  0.96806466530E-02  0.41275072715E-01  0.19973218631E+00  0.20418264842E+00  0.51100000000E-03 0. -1.
    9000002    1    1    2    0    0 -0.48396908366E+00 -0.10811164202E+00  0.17295976591E+00  0.10750224564E+01  0.93800000000E+00 0. -1.
         22    1    1    2    0    0  0.47428843701E+00  0.66836569308E-01  0.36273080151E+01  0.36587948952E+01  0.00000000000E+00 0. -1.
</event>
<event>
 5    1  0.6172503E+001  0.1592195E+01  0.7818608E-02  0.3361878E+00
         11   -1    0    0    0    0  0.00000000000E+00  0.00000000000E+00  0.39999999674E+01  0.40000000000E+01  0.51100000000E-03 0.  1.
    9000002   -1    0    0    0    0 -0.00000000000E+00 -0.00000000000E+00  0.00000000000E+00  0.93800000000E+00  0.93800000000E+00 0. -1.
         11    1    1    2    0    0 -0.79236342377E-01  0.18169077231E-01  0.67043458985E+00  0.67534532922E+00  0.51100000000E-03 0.  1.
    9000002    1    1    2    0    0  0.27854215419E+00  0.31318825945E+00  0.12513235927E+00  0.10349757122E+01  0.93800000000E+00 0. -1.
         22    1    1    2    0    0 -0.19930581181E+00 -0.33135733668E+00  0.32044330182E+01  0.32276789586E+01  0.00000000000E+00 0.  1.
</event>
<event>
 5    1  0.6172503E+001  0.1595117E+01  0.7818608E-02  0.3358681E+00
         11   -1    0    0    0    0  0.00000000000E+00  0.00000000000E+00  0.39999999674E+01  0.40000000000E+01  0.51100000000E-03 0. -1.
    9000002   -1    0    0    0    0 -0.00000000000E+00 -0.00000000000E+00  0.00000000000E+00  0.93800000000E+00  0.93800000000E+00 0.  1.
         11    1    1    2    0    0  0.11099840668E-01 -0.69722051399E-01  0.11827035250E+01  0.11848089551E+01  0.51100000000E-03 0. -1.
    9000002    1    1    2    0    0 -0.21708262461E+00  0.39348494687E+00  0.14109970603E+00  0.10496229782E+01  0.93800000000E+00 0.  1.
         22    1    1    2    0    0  0.20598278394E+00 -0.32376289547E+00  0.26761967364E+01  0.27035680667E+01  0.00000000000E+00 0. -1.
</event>
<event>
 5    1  0.6172503E+001  0.1521160E+01  0.7818608E-02  0.3443645E+00
         11   -1    0    0    0    0  0.00000000000E+00  0.00000000000E+00  0.39999999674E+01  0.40000000000E+01  0.51100000000E-03 0. -1.
    9000002   -1    0    0    0    0 -0.00000000000E+00 -0.00000000000E+00  0.00000000000E+00  0.93800000000E+00  0.93800000000E+00 0. -1.
         11    1    1    2    0    0  0.27864172617E+00  0.13030855771E-01  0.85056852339E+00  0.89514137926E+00  0.51100000000E-03 0. -1.
    9000002    1    1    2    0    0 -0.39528012201E-02 -0.22100613769E+00  0.94226769750E-01  0.96828819143E+00  0.93800000000E+00 0. -1.
         22    1    1    2    0    0 -0.27468892495E+00  0.20797528192E+00  0.30552046742E+01  0.30745704293E+01  0.00000000000E+00 0. -1.
</event>
<event>
 5    1  0.6944448E+001  0.1599624E+01  0.7818608E-02  0.3353772E+00
         11   -1    0    0    0    0  0.00000000000E+00  0.00000000000E+00  0.39999999674E+01  0.40000000000E+01  0.51100000000E-03 0.  1.
    9000002   -1    0    0    0    0 -0.00000000000E+00 -0.00000000000E+00  0.00000000000E+00  0.93800000000E+00  0.93800000000E+00 0. -1.
         11    1    1    2    0    0  0.13207379924E+00  0.41341580080E-01  0.14826627900E+01  0.14891077277E+01  0.51100000000E-03 0.  1.
    9000002    1    1    2    0    0 -0.35789214911E+00 -0.12886141275E+00  0.97402970688E-01  0.10168694079E+01  0.93800000000E+00 0. -1.
         22    1    1    2    0    0  0.22581834987E+00  0.87519832668E-01  0.24199342067E+01  0.24320228644E+01  0.00000000000E+00 0. -1.
</event>
<event>
 5    1  0.6172503E+001  0.1599654E+01  0.7818608E-02  0.3353739E+00
         11   -1    0    0    0    0  0.00000000000E+00  0.00000000000E+00  0.39999999674E+01  0.40000000000E+01  0.51100000000E-03 0. -1.
    9000002   -1    0    0    0    0 -0.00000000000E+00 -0.00000000000E+00  0.00000000000E+00  0.93800000000E+00  0.93800000000E+00 0.  1.
         11    1    1    2    0    0  0.34010136579E-01  0.45781859239E-01  0.53848843986E+00  0.54150044230E+00  0.51100000000E-03 0. -1.
    9000002    1    1    2    0    0 -0.25505365459E+00 -0.30354724544E+00  0.10600175337E+00  0.10238523666E+01  0.93800000000E+00 0.  1.
         22    1    1    2    0    0  0.22104351801E+00  0.25776538620E+00  0.33555097741E+01  0.33726471911E+01  0.00000000000E+00 0. -1.
</event>
<event>
 5    1  0.6172503E+001  0.1599653E+01  0.7818608E-02  0.3353740E+00
         11   -1    0    0    0    0  0.00000000000E+00  0.00000000000E+00  0.39999999674E+01  0.40000000000E+01  0.51100000000E-03 0. -1.
    9000002   -1    0    0    0    0 -0.00000000000E+00 -0.00000000000E+00  0.00000000000E+00  0.93800000000E+00  0.93800000000E+00 0. -1.
         11    1    1    2    0    0 -0.22483701337E-01  0.48692687322E-02  0.21825204049E+00  0.21946170714E+00  0.51100000000E-03 0. -1.
    9000002    1    1    2    0    0  0.37933514680E+00 -0.12945559896E+00  0.10839570146E+00  0.10257911746E+01  0.93800000000E+00 0. -1.
         22    1    1    2    0    0 -0.35685144546E+00  0.12458633023E+00  0.36733522254E+01  0.36927471183E+01  0.00000000000E+00 0. -1.
</event>
<event>
 5    1  0.6172503E+001  0.1530278E+01  0.7818608E-02  0.3432697E+00
         11   -1    0    0    0    0  0.00000000000E+00  0.00000000000E+00  0.39999999674E+01  0.40000000000E+01  0.51100000000E-03 0.  1.
    9000002   -1    0    0    0    0 -0.00000000000E+00 -0.00000000000E+00  0.00000000000E+00  0.93800000000E+00  0.93800000000E+00 0. -1.
         11    1    1    2    0    0 -0.14039362014E+00  0.40973486061E+00  0.13673467722E+01  0.14343048774E+01  0.51100000000E-03 0.  1.
    9000002    1    1    2    0    0 -0.85241361806E-01 -0.43201749663E+00  0.19362816945E+00  0.10541541989E+01  0.93800000000E+00 0. -1.
         22    1    1    2    0    0  0.22563498195E+00  0.22282636013E-01  0.24390250257E+01  0.24495409237E+01  0.00000000000E+00 0.  1.
</event>
<event>
 5    1  0.6172503E+001  0.1599663E+01  0.7818608E-02  0.3353730E+00
         11   -1    0    0    0    0  0.00000000000E+00  0.00000000000E+00  0.39999999674E+01  0.40000000000E+01  0.51100000000E-03 0.  1.
    9000002   -1    0    0    0    0 -0.00000000000E+00 -0.00000000000E+00  0.00000000000E+00  0.93800000000E+00  0.93800000000E+00 0.  1.
         11    1    1    2    0    0 -0.90847317645E-01 -0.92500806018E-02  0.48364434606E+00  0.49218991630E+00  0.51100000000E-03 0.  1.
    9000002    1    1    2    0    0  0.70082153670E+00  0.86394927145E-01  0.35695577647E+00  0.12271415306E+01  0.93800000000E+00 0.  1.
         22    1    1    2    0    0 -0.60997421906E+00 -0.77144846543E-01  0.31593998448E+01  0.32186685531E+01  0.00000000000E+00 0.  1.
</event>
<event>
 5    1  0.6172503E+001  0.1582594E+01  0.7818608E-02  0.3372475E+00
         11   -1    0    0    0    0  0.00000000000E+00  0.00000000000E+00  0.39999999674E+01  0.40000000000E+01  0.51100000000E-03 0. -1.
    9000002   -1    0    0    0    0 -0.00000000000E+00 -0.00000000000E+00  0.00000000000E+00  0.93800000000E+00  0.93800000000E+00 0. -1.
         11    1    1    2    0    0 -0.12795213663E-01  0.58487334423E-01  0.21039398044E+00  0.21874728320E+00  0.51100000000E-03 0. -1.
    9000002    1    1    2    0    0 -0.36842943900E+00  0.93182838428E-01  0.11133094476E+00  0.10181659355E+01  0.93800000000E+00 0. -1.
         22    1    1    2    0    0  0.38122465267E+00 -0.15167017285E+00  0.36782750422E+01  0.37010867813E+01  0.00000000000E+00 0. -1.
</event>
<event>
 5    1  0.6172503E+001  0.1599677E+01  0.7818608E-02  0.3353715E+00
         11   -1    0    0    0    0  0.00000000000E+00  0.00000000000E+00  0.39999999674E+01  0.40000000000E+01  0.51100000000E-03 0.  1.
    9000002   -1    0    0    0    0 -0.00000000000E+00 -0.00000000000E+00  0.00000000000E+00  0.93800000000E+00  0.93800000000E+00 0. -1.
         11    1    1    2    0    0  0.58600164950E-01  0.67370866986E-01  0.70757054210E+00  0.71318240739E+00  0.51100000000E-03 0.  1.
    9000002    1    1    2    0    0 -0.31791644729E+00 -0.36848881197E+00  0.16178465694E+00  0.10690524530E+01  0.93800000000E+00 0. -1.
         22    1    1    2    0    0  0.25931628234E+00  0.30111794498E+00  0.31306447683E+01  0.31557651396E+01  0.00000000000E+00 0.  1.
</event>
<event>
 5    1  0.6172503E+001  0.1599677E+01  0.7818608E-02  0.3353714E+00
         11   -1    0    0    0    0  0.00000000000E+00  0.00000000000E+00  0.39999999674E+01  0.40000000000E+01  0.51100000000E-03 0.  1.
    9000002   -1    0    0    0    0 -0.00000000000E+00 -0.00000000000E+00  0.00000000000E+00  0.93800000000E+00  0.93800000000E+00 0. -1.
         11    1    1    2    0    0 -0.75720274300E-01  0.11292962824E+00  0.13163847497E+01  0.13233879746E+01  0.51100000000E-03 0. -1.
    9000002    1    1    2    0    0  0.22309127605E+00 -0.33414449187E+00  0.10890745840E+00  0.10262198075E+01  0.93800000000E+00 0. -1.
         22    1    1    2    0    0 -0.14737100175E+00  0.22121486363E+00  0.25747077593E+01  0.25883922179E+01  0.00000000000E+00 0.  1.
</event>
<event>
 5    1  0.6172503E+001  0.1599676E+01  0.7818608E-02  0.3353715E+00
         11   -1    0    0    0    0  0.00000000000E+00  0.00000000000E+00  0.39999999674E+01  0.40000000000E+01  0.51100000000E-03 0. -1.
    9000002   -1    0    0    0    0 -0.00000000000E+00 -0.00000000000E+00  0.00000000000E+00  0.93800000000E+00  0.93800000000E+00 0.  1.
         11    1    1    2    0    0  0.13075605667E+00 -0.15711088832E+00  0.12686064889E+01  0.12849683507E+01  0.51100000000E-03 0. -1.
    9000002    1    1    2    0    0 -0.38966351698E+00  0.46321459720E+00  0.25593419260E+00  0.11453173056E+01  0.93800000000E+00 0.  1.
         22    1    1    2    0    0  0.25890746031E+00 -0.30610370888E+00  0.24754592859E+01  0.25077143437E+01  0.00000000000E+00 0. -1.
</event>
<event>
 5    1  0.6172503E+001  0.1599644E+01  0.7818608E-02  0.3353750E+00
         11   -1    0    0    0    0  0.00000000000E+00  0.00000000000E+00  0.39999999674E+01  0.40000000000E+01  0.51100000000E-03 0. -1.
    9000002   -1    0    0    0    0 -0.00000000000E+00 -0.00000000000E+00  0.00000000000E+00  0.93800000000E+00  0.93800000000E+00 0.  1.
         11    1    1    2    0    0  0.20338473488E-01 -0.37386613236E-01  0.49274101464E+00  0.49457596079E+00  0.51100000000E-03 0. -1.
    9000002    1    1    2    0    0 -0.18938696935E+00  0.31968010488E+00  0.92827696395E-01  0.10131750958E+01  0.93800000000E+00 0.  1.
         22    1    1    2    0    0  0.16904849586E+00 -0.28229349164E+00  0.34144312563E+01  0.34302489434E+01  0.00000000000E+00 0. -1.
</event>
<event>
 5    1  0.6172503E+001  0.1535147E+01  0.7818608E-02  0.3426907E+00
         11   -1    0    0    0    0  0.00000000000E+00  0.00000000000E+00  0.39999999674E+01  0.40000000000E+01  0.51100000000E-03 0.  1.
    9000002   -1    0    0    0    0 -0.00000000000E+00 -0.00000000000E+00  0.00000000000E+00  0.93800000000E+00  0.93800000000E+00 0.  1.
         11    1    1    2    0    0 -0.24769225842E+00  0.11094497153E-01  0.75946396035E+00  0.79891195443E+00  0.51100000000E-03 0.  1.
    9000002    1    1    2    0    0  0.61037354193E-01  0.25903997744E+00  0.98549623172E-01  0.97999147790E+00  0.93800000000E+00 0.  1.
         22    1    1    2    0    0  0.18665490423E+00 -0.27013447459E+00  0.31419863838E+01  0.31590965677E+01  0.00000000000E+00 0.  1.
</event>
<event>
 5    1  0.6172503E+001  0.1595991E+01  0.7818608E-02  0.3357726E+00
         11   -1    0    0    0    0  0.00000000000E+00  0.00000000000E+00  0.39999999674E+01  0.40000000000E+01  0.51100000000E-03 0. -1.
    9000002   -1    0    0    0    0 -0.00000000000E+00 -0.00000000000E+00  0.00000000000E+00  0.93800000000E+00  0.93800000000E+00 0. -1.
         11    1    1    2    0    0 -0.10949843977E-01 -0.11931490577E-01  0.44616781352E+00  0.44646191158E+00  0.51100000000E-03 0. -1.
    9000002    1    1    2    0    0  0.28143251301E+00 -0.25769727945E+00  0.10102698252E+00  0.10176750947E+01  0.93800000000E+00 0. -1.
         22    1    1    2    0    0 -0.27048266903E+00  0.26962877003E+00  0.34528051713E+01  0.34738629937E+01  0.00000000000E+00 0. -1.
</event>
<event>
 5    1  0.6172503E+001  0.1599566E+01  0.7818608E-02  0.3353835E+00
         11   -1    0    0    0    0  0.00000000000E+00  0.00000000000E+00  0.39999999674E+01  0.40000000000E+01  0.51100000000E-03 0.  1.
    9000002   -1    0    0    0    0 -0.00000000000E+00 -0.00000000000E+00  0.00000000000E+00  0.93800000000E+00  0.93800000000E+00 0.  1.
         11    1    1    2    0    0  0.13504017210E+00  0.71914163184E-01  0.14549938177E+01  0.14630156409E+01  0.51100000000E-03 0.  1.
    9000002    1    1    2    0    0 -0.36476583418E+00 -0.15972172851E+00  0.10702319794E+00  0.10246282786E+01  0.93800000000E+00 0.  1.
         22    1    1    2    0    0  0.22972566208E+00  0.87807565329E-01  0.24379829517E+01  0.24503560805E+01  0.00000000000E+00 0. -1.
</event>
<event>
 5    1  0.6172503E+001  0.1593971E+01  0.7818608E-02  0.3359933E+00
         11   -1    0    0    0    0  0.00000000000E+00  0.00000000000E+00  0.39999999674E+01  0.40000000000E+01  0.51100000000E-03 0.  1.
    9000002   -1    0    0    0    0 -0.00000000000E+00 -0.00000000000E+00  0.00000000000E+00  0.93800000000E+00  0.93800000000E+00 0.  1.
         11    1    1    2    0    0 -0.17669287601E+00  0.80214566000E-01  0.10424582112E+01  0.10603650939E+01  0.51100000000E-03 0.  1.
    9000002    1    1    2    0    0  0.35851199686E+00 -0.36893135565E+00  0.18683436616E+00  0.10859982861E+01  0.93800000000E+00 0.  1.
         22    1    1    2    0    0 -0.18181912085E+00  0.28871678965E+00  0.27707073900E+01  0.27916366200E+01  0.00000000000E+00 0. -1.
</event>
<event>
 5    1  0.6172503E+001  0.1599674E+01  0.7818608E-02  0.3353717E+00
         11   -1    0    0    0    0  0.00000000000E+00  0.00000000000E+00  0.39999999674E+01  0.40000000000E+01  0.51100000000E-03 0.  1.
    9000002   -1    0    0    0    0 -0.00000000000E+00 -0.00000000000E+00  0.00000000000E+00  0.93800000000E+00  0.93800000000E+00 0. -1.
         11    1    1    2    0    0  0.11363879265E-02 -0.36254576813E-01  0.39389044766E+00  0.39555736827E+00  0.51100000000E-03 0.  1.
    9000002    1    1    2    0    0 -0.21242829437E-02  0.36748668881E+00  0.90735369895E-01  0.10114978430E+01  0.93800000000E+00 0. -1.
         22    1    1    2    0    0  0.98789501725E-03 -0.33123211200E+00  0.35153741498E+01  0.35309447887E+01  0.00000000000E+00 0.  1.
</event>
<event>
 5    1  0.6172503E+001  0.1597882E+01  0.7818608E-02  0.3355666E+00
         11   -1    0    0    0    0  0.00000000000E+00  0.00000000000E+00  0.39999999674E+01  0.40000000000E+01  0.51100000000E-03 0.  1.
    9000002   -1    0    0    0    0 -0.00000000000E+00 -0.00000000000E+00  0.00000000000E+00  0.93800000000E+00  0.93800000000E+00 0.  1.
         11    1    1    2    0    0 -0.73512752073E-01  0.13696082815E+00  0.99012071403E+00  0.10022483139E+01  0.51100000000E-03 0.  1.
    9000002    1    1    2    0    0  0.11102878988E+00 -0.51328852512E+00  0.19127664955E+00  0.10918897650E+01  0.93800000000E+00 0.  1.
         22    1    1    2    0    0 -0.37516037802E-01  0.37632769697E+00  0.28186026038E+01  0.28438619212E+01  0.00000000000E+00 0.  1.
</event>
<event>
 5    1  0.6172503E+001  0.1599581E+01  0.7818608E-02  0.3353819E+00
         11   -1    0    0    0    0  0.00000000000E+00  0.00000000000E+00  0.39999999674E+01  0.40000000000E+01  0.51100000000E-03 0.  1.
    9000002   -1    0    0    0    0 -0.00000000000E+00 -0.00000000000E+00  0.00000000000E+00  0.93800000000E+00  0.93800000000E+00 0.  1.
         11    1    1    2    0    0  0.34958041215E-01  0.73991938383E-01  0.53827131812E+00  0.54445674266E+00  0.51100000000E-03 0.  1.
    9000002    1    1    2    0    0 -0.27334769474E+00 -0.56127699363E+00  0.27348393255E+00  0.11594775923E+01  0.93800000000E+00 0. -1.
         22    1    1    2    0    0  0.23838965353E+00  0.48728505525E+00  0.31882447167E+01  0.32340656650E+01  0.00000000000E+00 0.  1.
</event>
<event>
 5    1  0.6172503E+001  0.1599588E+01  0.7818608E-02  0.3353811E+00
         11   -1    0    0    0    0  0.00000000000E+00  0.00000000000E+00  0.39999999674E+01  0.40000000000E+01  0.51100000000E-03 0.  1.
    9000002   -1    0    0    0    0 -0.00000000000E+00 -0.00000000000E+00  0.00000000000E+00  0.93800000000E+00  0.93800000000E+00 0. -1.
         11    1    1    2    0    0 -0.14259498227E-01  0.96197356473E-03  0.13957841335E+00  0.14030913469E+00  0.51100000000E-03 0.  1.
    9000002    1    1    2    0    0  0.49088950609E+00  0.35237405448E-01  0.16567284825E+00  0.10721500243E+01  0.93800000000E+00 0. -1.
         22    1    1    2    0    0 -0.47663000786E+00 -0.36199379013E-01  0.36947487058E+01  0.37255408410E+01  0.00000000000E+00 0.  1.
</event>
<event>
 5    1  0.6172503E+001  0.1599668E+01  0.7818608E-02  0.3353724E+00
         11   -1    0    0    0    0  0.00000000000E+00  0.00000000000E+00  0.39999999674E+01  0.40000000000E+01  0.51100000000E-03 0. -1.
    9000002   -1    0    0    0    0 -0.00000000000E+00 -0.00000000000E+00  0.00000000000E+00  0.93800000000E+00  0.93800000000E+00 0. -1.
         11    1    1    2    0    0 -0.86548351526E-01 -0.17281752264E-01  0.78677454698E+00  0.79170936903E+00  0.51100000000E-03 0. -1.
    9000002    1    1    2    0    0  0.43826689515E+00  0.90524736710E-01  0.13598022164E+00  0.10481446561E+01  0.93800000000E+00 0. -1.
         22    1    1    2    0    0 -0.35171854363E+00 -0.73242984446E-01  0.30772451987E+01  0.30981459749E+01  0.00000000000E+00 0. -1.
</event>
<event>
 5    1  0.6172503E+001  0.1595033E+01  0.7818608E-02  0.3358773E+00
         11   -1    0    0    0    0  0.00000000000E+00  0.00000000000E+00  0.39999999674E+01  0.40000000000E+01  0.51100000000E-03 0.  1.
    9000002   -1    0    0    0    0 -0.00000000000E+00 -0.00000000000E+00  0.00000000000E+00  0.93800000000E+00  0.93800000000E+00 0. -1.
         11    1    1    2    0    0 -0.31527841228E-01 -0.66120749702E-02  0.11914290425E+00  0.12342210929E+00  0.51100000000E-03 0.  1.
    9000002    1    1    2    0    0  0.18250197760E+00  0.62948828874E+00  0.30845255203E+00  0.11851368927E+01  0.93800000000E+00 0. -1.
         22    1    1    2    0    0 -0.15097413637E+00 -0.62287621377E+00  0.35724045111E+01  0.36294409981E+01  0.00000000000E+00 0.  1.
</event>
<event>
 5    1  0.6172503E+001  0.1598523E+01  0.7818608E-02  0.3354968E+00
         11   -1    0    0    0    0  0.00000000000E+00  0.00000000000E+00  0.39999999674E+01  0.40000000000E+01  0.51100000000E-03 0.  1.
    9000002   -1    0    0    0    0 -0.00000000000E+00 -0.00000000000E+00  0.00000000000E+00  0.93800000000E+00  0.93800000000E+00 0.  1.
         11    1    1    2    0    0  0.49831305865E-01  0.98116431758E-01  0.10644262959E+01  0.10700998055E+01  0.51100000000E-03 0.  1.
    9000002    1    1    2    0    0 -0.57560239672E-01 -0.40556756006E+00  0.11429221436E+00  0.10299053050E+01  0.93800000000E+00 0.  1.
         22    1    1    2    0    0  0.77289338068E-02  0.30745112830E+00  0.28212814571E+01  0.28379948895E+01  0.00000000000E+00 0.  1.
</event>
<event>
 5    1  0.6172503E+001  0.1599674E+01  0.7818608E-02  0.3353717E+00
         11   -1    0    0    0    0  0.00000000000E+00  0.00000000000E+00  0.39999999674E+01  0.40000000000E+01  0.51100000000E-03 0. -1.
    9000002   -1    0    0    0    0 -0.00000000000E+00 -0.00000000000E+00  0.00000000000E+00  0.93800000000E+00  0.93800000000E+00 0.  1.
         11    1    1    2    0    0  0.10460690271E+00 -0.21903284922E+00  0.14131539605E+01  0.14338487962E+01  0.51100000000E-03 0. -1.
    9000002    1    1    2    0    0 -0.27817071518E+00  0.57184577434E+00  0.28441038062E+00  0.11683834135E+01  0.93800000000E+00 0.  1.
         22    1    1    2    0    0  0.17356381246E+00 -0.35281292512E+00  0.23024356262E+01  0.23357677902E+01  0.00000000000E+00 0. -1.
</event>
<event>
 5    1  0.6172503E+001  0.1526962E+01  0.7818608E-02  0.3436663E+00
         11   -1    0    0    0    0  0.00000000000E+00  0.00000000000E+00  0.39999999674E+01  0.40000000000E+01  0.51100000000E-03 0. -1.
    9000002   -1    0    0    0    0 -0.00000000000E+00 -0.00000000000E+00  0.00000000000E+00  0.93800000000E+00  0.93800000000E+00 0.  1.
         11    1    1    2    0    0  0.13121397255E+00  0.26257807136E+00  0.11610106728E+01  0.11975434830E+01  0.51100000000E-03 0. -1.
    9000002    1    1    2    0    0 -0.20872125942E+00  0.88746584861E-01  0.91329478078E-01  0.96934286711E+00  0.93800000000E+00 0.  1.
         22    1    1    2    0    0  0.77507286868E-01 -0.35132465622E+00  0.27476598165E+01  0.27711136499E+01  0.00000000000E+00 0. -1.
</event>
<event>
 5    1  0.9498235E+001  0.1598833E+01  0.7818608E-02  0.3354630E+00
         11   -1    0    0    0    0  0.00000000000E+00  0.00000000000E+00  0.39999999674E+01  0.40000000000E+01  0.51100000000E-03 0.  1.
    9000002   -1    0    0    0    0 -0.00000000000E+00 -0.00000000000E+00  0.00000000000E+00  0.93800000000E+00  0.93800000000E+00 0. -1.
         11    1    1    2    0    0  0.76973328191E-01  0.35507463478E-01  0.14231580645E+01  0.14256804730E+01  0.51100000000E-03 0.  1.
    9000002    1    1    2    0    0 -0.29923125031E+00 -0.13142956163E+00  0.72113370669E-01  0.99592038289E+00  0.93800000000E+00 0. -1.
         22    1    1    2    0    0  0.22225792212E+00  0.95922098149E-01  0.25047285322E+01  0.25163991441E+01  0.00000000000E+00 0.  1.
</event>
<event>
 5    1  0.6172503E+001  0.1565178E+01  0.7818608E-02  0.3392047E+00
         11   -1    0    0    0    0  0.00000000000E+00  0.00000000000E+00  0.39999999674E+01  0.40000000000E+01  0.51100000000E-03 0.  1.
    9000002   -1    0    0    0    0 -0.00000000000E+00 -0.00000000000E+00  0.00000000000E+00  0.93800000000E+00  0.93800000000E+00 0.  1.
         11    1    1    2    0    0 -0.15394171193E-02  0.11810713434E+00  0.46093522874E+00  0.47582897264E+00  0.51100000000E-03 0.  1.
    9000002    1    1    2    0    0  0.34430523594E+00  0.18068040197E+00  0.13089443668E+00  0.10238011803E+01  0.93800000000E+00 0.  1.
         22    1    1    2    0    0 -0.34276581882E+00 -0.29878753631E+00  0.34081703019E+01  0.34383698471E+01  0.00000000000E+00 0.  1.
</event>
<event>
 5    1  0.6172503E+001  0.1596181E+01  0.7818608E-02  0.3357519E+00
         11   -1    0    0    0    0  0.00000000000E+00  0.00000000000E+00  0.39999999674E+01  0.40000000000E+01  0.51100000000E-03 0.  1.
    9000002   -1    0    0    0    0 -0.00000000000E+00 -0.00000000000E+00  0.00000000000E+00  0.93800000000E+00  0.93800000000E+00 0.  1.
         11    1    1    2    0    0 -0.59352423776E-01 -0.12823618971E+00  0.79913795454E+00  0.81153494198E+00  0.51100000000E-03 0.  1.
    9000002    1    1    2    0    0  0.28612484837E+00  0.33950402513E+00  0.13678123323E+00  0.10467490233E+01  0.93800000000E+00 0.  1.
         22    1    1    2    0    0 -0.22677242460E+00 -0.21126783543E+00  0.30640807796E+01  0.30797160348E+01  0.00000000000E+00 0.  1.
</event>
<event>
 5    1  0.6172503E+001  0.1599648E+01  0.7818608E-02  0.3353746E+00
         11   -1    0    0    0    0  0.00000000000E+00  0.00000000000E+00  0.39999999674E+01  0.40000000000E+01  0.51100000000E-03 0. -1.
    9000002   -1    0    0    0    0 -0.00000000000E+00 -0.00000000000E+00  0.00000000000E+00  0.93800000000E+00  0.93800000000E+00 0. -1.
         11    1    1    2    0    0 -0.40690166629E-01  0.11799005155E+00  0.50266498950E+00  0.51792827179E+00  0.51100000000E-03 0. -1.
    9000002    1    1    2    0    0  0.29276920168E+00 -0.82881795583E+00  0.58623212424E+00  0.14128570745E+01  0.93800000000E+00 0. -1.
         22    1    1    2    0    0 -0.25207903505E+00  0.71082790427E+00  0.29111028536E+01  0.30072146538E+01  0.00000000000E+00 0. -1.
</event>
<event>
 5    1  0.6172503E+001  0.1597793E+01  0.7818608E-02  0.3355762E+00
         11   -1    0    0    0    0  0.00000000000E+00  0.00000000000E+00  0.39999999674E+01  0.40000000000E+01  0.51100000000E-03 0. -1.
    9000002   -1    0    0    0    0 -0.00000000000E+00 -0.00000000000E+00  0.00000000000E+00  0.93800000000E+00  0.93800000000E+00 0.  1.
         11    1    1    2    0    0  0.10245465434E+00 -0.21957492318E+00  0.13755158629E+01  0.13966940443E+01  0.51100000000E-03 0. -1.
    9000002    1    1    2    0    0 -0.14842909435E+00  0.63804816890E+00  0.30518884330E+00  0.11841118579E+01  0.93800000000E+00 0.  1.
         22    1    1    2    0    0  0.45974440016E-01 -0.41847324573E+00  0.23192952611E+01  0.23571940978E+01  0.00000000000E+00 0. -1.
</event>
<event>
 5    1  0.6172503E+001  0.1599673E+01  0.7818608E-02  0.3353719E+00
         11   -1    0    0    0    0  0.00000000000E+00  0.00000000000E+00  0.39999999674E+01  0.40000000000E+01  0.51100000000E-03 0. -1.
    9000002   -1    0    0    0    0 -0.00000000000E+00 -0.00000000000E+00  0.00000000000E+00  0.93800000000E+00  0.93800000000E+00 0.  1.
         11    1    1    2    0    0 -0.10828694061E-01 -0.23135649112E-01  0.25149558040E+00  0.25279004521E+00  0.51100000000E-03 0. -1.
    9000002    1    1    2    0    0  0.15085116792E+00  0.36421966242E+00  0.10475510661E+00  0.10228536893E+01  0.93800000000E+00 0.  1.
         22    1    1    2    0    0 -0.14002247386E+00 -0.34108401331E+00  0.36437492803E+01  0.36623562655E+01  0.00000000000E+00 0. -1.
</event>
<event>
 5    1  0.6172503E+001  0.1599675E+01  0.7818608E-02  0.3353716E+00
         11   -1    0    0    0    0  0.00000000000E+00  0.00000000000E+00  0.39999999674E+01  0.40000000000E+01  0.51100000000E-03 0.  1.
    9000002   -1    0    0    0    0 -0.00000000000E+00 -0.00000000000E+00  0.00000000000E+00  0.93800000000E+00  0.93800000000E+00 0.  1.
         11    1    1    2    0    0 -0.16193658781E+00  0.12292604822E+00  0.14449787644E+01  0.14592114865E+01  0.51100000000E-03 0.  1.
    9000002    1    1    2    0    0  0.42532621747E+00 -0.31919729470E+00  0.19466505638E+00  0.10956859899E+01  0.93800000000E+00 0.  1.
         22    1    1    2    0    0 -0.26338962967E+00  0.19627124648E+00  0.23603561466E+01  0.23831025236E+01  0.00000000000E+00 0. -1.
</event>
<event>
 5    1  0.6359204E+001  0.1598235E+01  0.7818608E-02  0.3355281E+00
         11   -1    0    0    0    0  0.00000000000E+00  0.00000000000E+00  0.39999999674E+01  0.40000000000E+01  0.51100000000E-03 0.  1.
    9000002   -1    0    0    0    0 -0.00000000000E+00 -0.00000000000E+00  0.00000000000E+00  0.93800000000E+00  0.93800000000E+00 0. -1.
         11    1    1    2    0    0  0.14676793740E+00  0.11473605070E+00  0.13722526782E+01  0.13848403744E+01  0.51100000000E-03 0.  1.
    9000002    1    1    2    0    0 -0.35594952580E+00 -0.21541316089E+00  0.11822228632E+00  0.10329198438E+01  0.93800000000E+00 0. -1.
         22    1    1    2    0    0  0.20918158841E+00  0.10067711019E+00  0.25095250029E+01  0.25202397817E+01  0.00000000000E+00 0. -1.
</event>
<event>
 5    1  0.6172503E+001  0.1599667E+01  0.7818608E-02  0.3353725E+00
         11   -1    0    0    0    0  0.00000000000E+00  0.00000000000E+00  0.39999999674E+01  0.40000000000E+01  0.51100000000E-03 0.  1.
    9000002   -1    0    0    0    0 -0.00000000000E+00 -0.00000000000E+00  0.00000000000E+00  0.93800000000E+00  0.93800000000E+00 0.  1.
         11    1    1    2    0    0 -0.99503167533E-01  0.86706818769E-01  0.11340640917E+01  0.11417182568E+01  0.51100000000E-03 0.  1.
    9000002    1    1    2    0    0  0.33063145910E+00 -0.28770084690E+00  0.13025082438E+00  0.10435028588E+01  0.93800000000E+00 0.  1.
         22    1    1    2    0    0 -0.23112829157E+00  0.20099402813E+00  0.27356850513E+01  0.27527788844E+01  0.00000000000E+00 0.  1.
</event>
<event>
 5    1  0.6172503E+001  0.1599601E+01  0.7818608E-02  0.3353796E+00
         11   -1    0    0    0    0  0.00000000000E+00  0.00000000000E+00  0.39999999674E+01  0.40000000000E+01  0.51100000000E-03 0. -1.
    9000002   -1    0    0    0    0 -0.00000000000E+00 -0.00000000000E+00  0.00000000000E+00  0.93800000000E+00  0.93800000000E+00 0.  1.
         11    1    1    2    0    0  0.13683739150E+00  0.16697324902E+00  0.78093161942E+00  0.81022157027E+00  0.51100000000E-03 0. -1.
    9000002    1    1    2    0    0 -0.56958830844E+00 -0.69219683626E+00  0.61423284201E+00  0.14355115066E+01  0.93800000000E+00 0.  1.
         22    1    1    2    0    0  0.43275091694E+00  0.52522358724E+00  0.26048355059E+01  0.26922669232E+01  0.00000000000E+00 0. -1.
</event>
<event>
 5    1  0.6172503E+001  0.1599673E+01  0.7818608E-02  0.3353718E+00
         11   -1    0    0    0    0  0.00000000000E+00  0.00000000000E+00  0.39999999674E+01  0.40000000000E+01  0.51100000000E-03 0.  1.
    9000002   -1    0    0    0    0 -0.00000000000E+00 -0.00000000000E+00  0.00000000000E+00  0.93800000000E+00  0.93800000000E+00 0.  1.
         11    1    1    2    0    0 -0.43195491732E-01  0.62646756735E-01  0.84347392163E+00  0.84689963055E+00  0.51100000000E-03 0.  1.
    9000002    1    1    2    0    0  0.20319962113E+00 -0.29934281287E+00  0.87887005043E-01  0.10091899382E+01  0.93800000000E+00 0.  1.
         22    1    1    2    0    0 -0.16000412940E+00  0.23669605614E+00  0.30686390407E+01  0.30819104313E+01  0.00000000000E+00 0.  1.
</event>
<event>
 5    1  0.6172503E+001  0.1599652E+01  0.7818608E-02  0.3353742E+00
         11   -1    0    0    0    0  0.00000000000E+00  0.00000000000E+00  0.39999999674E+01  0.40000000000E+01  0.51100000000E-03 0. -1.
    9000002   -1    0    0    0    0 -0.00000000000E+00 -0.00000000000E+00  0.00000000000E+00  0.93800000000E+00  0.93800000000E+00 0.  1.
         11    1    1    2    0    0  0.13303805623E+00  0.47673969774E-01  0.14223949762E+01  0.14293983563E+01  0.51100000000E-03 0. -1.
    9000002    1    1    2    0    0 -0.37554055078E+00 -0.11916375925E+00  0.10464719469E+00  0.10227539988E+01  0.93800000000E+00 0.  1.
         22    1    1    2    0    0  0.24250249454E+00  0.71489789475E-01  0.24729577965E+01  0.24858476448E+01  0.00000000000E+00 0. -1.
</event>
<event>
 5    1  0.6172503E+001  0.1599674E+01  0.7818608E-02  0.3353718E+00
         11   -1    0    0    0    0  0.00000000000E+00  0.00000000000E+00  0.39999999674E+01  0.40000000000E+01  0.51100000000E-03 0.  1.
    9000002   -1    0    0    0    0 -0.00000000000E+00 -0.00000000000E+00  0.00000000000E+00  0.93800000000E+00  0.93800000000E+00 0.  1.
         11    1    1    2    0    0 -0.37016741805E-01  0.12268958590E-01  0.28104852924E+00  0.28374161384E+00  0.51100000000E-03 0. -1.
    9000002    1    1    2    0    0  0.51441661287E+00 -0.16374828963E+00  0.20091664420E+00  0.11007494955E+01  0.93800000000E+00 0.  1.
         22    1    1    2    0    0 -0.47739987107E+00  0.15147933104E+00  0.35180347939E+01  0.35535088906E+01  0.00000000000E+00 0.  1.
</event>
<event>
 5    1  0.6388340E+001  0.1591713E+01  0.7818608E-02  0.3362407E+00
         11   -1    0    0    0    0  0.00000000000E+00  0.00000000000E+00  0.39999999674E+01  0.40000000000E+01  0.51100000000E-03 0.  1.
    9000002   -1    0    0    0    0 -0.00000000000E+00 -0.00000000000E+00  0.00000000000E+00  0.93800000000E+00  0.93800000000E+00 0.  1.
         11    1    1    2    0    0  0.18204938090E-02 -0.21133196530E-01  0.11873496687E+01  0.11875392301E+01  0.51100000000E-03 0.  1.
    9000002    1    1    2    0    0 -0.17352632022E+00 -0.21130173174E+00  0.55932538529E-01  0.97863795885E+00  0.93800000000E+00 0.  1.
         22    1    1    2    0    0  0.17170582641E+00  0.23243492827E+00  0.27567177601E+01  0.27718228110E+01  0.00000000000E+00 0. -1.
</event>
<event>
 5    1  0.6172503E+001  0.1560472E+01  0.7818608E-02  0.3397416E+00
         11   -1    0    0    0    0  0.00000000000E+00  0.00000000000E+00  0.39999999674E+01  0.40000000000E+01  0.51100000000E-03 0. -1.
    9000002   -1    0    0    0    0 -0.00000000000E+00 -0.00000000000E+00  0.00000000000E+00  0.93800000000E+00  0.93800000000E+00 0.  1.
         11    1    1    2    0    0  0.80435650263E-01 -0.14479655684E+00  0.12547869161E+01  0.12656723125E+01  0.51100000000E-03 0. -1.
    9000002    1    1    2    0    0 -0.28691003326E-01 -0.20544463333E+00  0.58559381360E-01  0.96244681525E+00  0.93800000000E+00 0.  1.
         22    1    1    2    0    0 -0.51744646937E-01  0.35024119017E+00  0.26866536699E+01  0.27098808723E+01  0.00000000000E+00 0. -1.
</event>
<event>
 5    1  0.6172503E+001  0.1599677E+01  0.7818608E-02  0.3353714E+00
         11   -1    0    0    0    0  0.00000000000E+00  0.00000000000E+00  0.39999999674E+01  0.40000000000E+01  0.51100000000E-03 0.  1.
    9000002   -1    0    0    0    0 -0.00000000000E+00 -0.00000000000E+00  0.00000000000E+00  0.93800000000E+00  0.93800000000E+00 0.  1.
         11    1    1    2    0    0 -0.68164579430E-01 -0.66251922127E-01  0.96360167644E+00  0.96827897790E+00  0.51100000000E-03 0. -1.
    9000002    1    1    2    0    0  0.27522854301E+00  0.26800140597E+00  0.99345067622E-01  0.10184738322E+01  0.93800000000E+00 0.  1.
         22    1    1    2    0    0 -0.20706396357E+00 -0.20174948384E+00  0.29370532233E+01  0.29512471899E+01  0.00000000000E+00 0.  1.
</event>
<event>
 5    1  0.6172503E+001  0.1591332E+01  0.7818608E-02  0.3362825E+00
         11   -1    0    0    0    0  0.00000000000E+00  0.00000000000E+00  0.39999999674E+01  0.40000000000E+01  0.51100000000E-03 0.  1.
    9000002   -1    0    0    0    0 -0.00000000000E+00 -0.00000000000E+00  0.00000000000E+00  0.93800000000E+00  0.93800000000E+00 0. -1.
         11    1    1    2    0    0 -0.44328538020E-01 -0.12403286765E-01  0.14559318345E+01  0.14566594072E+01  0.51100000000E-03 0.  1.
    9000002    1    1    2    0    0  0.37929147958E+00 -0.82510154124E-01  0.10839697380E+00  0.10209132460E+01  0.93800000000E+00 0. -1.
         22    1    1    2    0    0 -0.33496294156E+00  0.94913440889E-01  0.24356711591E+01  0.24604273467E+01  0.00000000000E+00 0.  1.
</event>
<event>
 5    1  0.6172503E+001  0.1550125E+01  0.7818608E-02  0.3409341E+00
         11   -1    0    0    0    0  0.00000000000E+00  0.00000000000E+00  0.39999999674E+01  0.40000000000E+01  0.51100000000E-03 0. -1.
    9000002   -1    0    0    0    0 -0.00000000000E+00 -0.00000000000E+00  0.00000000000E+00  0.93800000000E+00  0.93800000000E+00 0. -1.
         11    1    1    2    0    0 -0.21246409825E+00  0.23805453643E+00  0.14461973979E+01  0.14809787744E+01  0.51100000000E-03 0. -1.
    9000002    1    1    2    0    0 -0.13806770638E-01 -0.26313505129E+00  0.85290118089E-01  0.97803327468E+00  0.93800000000E+00 0. -1.
         22    1    1    2    0    0  0.22627086889E+00  0.25080514861E-01  0.24685124513E+01  0.24789879509E+01  0.00000000000E+00 0. -1.
</event>
<event>
 5    1  0.6172503E+001  0.1599242E+01  0.7818608E-02  0.3354187E+00
         11   -1    0    0    0    0  0.00000000000E+00  0.00000000000E+00  0.39999999674E+01  0.40000000000E+01  0.51100000000E-03 0.  1.
    9000002   -1    0    0    0    0 -0.00000000000E+00 -0.00000000000E+00  0.00000000000E+00  0.93800000000E+00  0.93800000000E+00 0. -1.
         11    1    1    2    0    0 -0.11845476011E-01 -0.21645297899E-01  0.44877497758E+00  0.44945308526E+00  0.51100000000E-03 0.  1.
    9000002    1    1    2    0    0  0.14180625371E+00  0.32336503007E+00  0.83974970058E-01  0.10057682396E+01  0.93800000000E+00 0. -1.
         22    1    1    2    0    0 -0.12996077770E+00 -0.30171973218E+00  0.34672500197E+01  0.34827786751E+01  0.00000000000E+00 0.  1.
</event>
<event>
 5    1  0.6172503E+001  0.1599673E+01  0.7818608E-02  0.3353719E+00
         11   -1    0    0    0    0  0.00000000000E+00  0.00000000000E+00  0.39999999674E+01  0.40000000000E+01  0.51100000000E-03 0.  1.
    9000002   -1    0    0    0    0 -0.00000000000E+00 -0.00000000000E+00  0.00000000000E+00  0.93800000000E+00  0.93800000000E+00 0. -1.
         11    1    1    2    0    0 -0.10066541536E+00 -0.12390482295E+00  0.13772821535E+01  0.13865036323E+01  0.51100000000E-03 0.  1.
    9000002    1    1    2    0    0  0.28095544562E+00  0.34128243514E+00  0.13256914371E+00  0.10453842551E+01  0.93800000000E+00 0. -1.
         22    1    1    2    0    0 -0.18029003026E+00 -0.21737761218E+00  0.24901486702E+01  0.25061121126E+01  0.00000000000E+00 0.  1.
</event>
<event>
 5    1  0.6172503E+001  0.1598533E+01  0.7818608E-02  0.3354957E+00
         11   -1    0    0    0    0  0.00000000000E+00  0.00000000000E+00  0.39999999674E+01  0.40000000000E+01  0.51100000000E-03 0.  1.
    9000002   -1    0    0    0    0 -0.00000000000E+00 -0.00000000000E+00  0.00000000000E+00  0.93800000000E+00  0.93800000000E+00 0. -1.
         11    1    1    2    0    0 -0.10616633571E+00 -0.27580271210E+00  0.13923741897E+01  0.14233919249E+01  0.51100000000E-03 0.  1.
    9000002    1    1    2    0    0  0.26761434419E+00  0.62233480911E+00  0.32728886043E+00  0.12024475248E+01  0.93800000000E+00 0. -1.
         22    1    1    2    0    0 -0.16144800848E+00 -0.34653209701E+00  0.22803369173E+01  0.23121605502E+01  0.00000000000E+00 0. -1.
</event>
<event>
 5    1  0.6172503E+001  0.1598607E+01  0.7818608E-02  0.3354877E+00
         11   -1    0    0    0    0  0.00000000000E+00  0.00000000000E+00  0.39999999674E+01  0.40000000000E+01  0.51100000000E-03 0.  1.
    9000002   -1    0    0    0    0 -0.00000000000E+00 -0.00000000000E+00  0.00000000000E+00  0.93800000000E+00  0.93800000000E+00 0. -1.
         11    1    1    2    0    0  0.10328871065E+00  0.15626299176E+00  0.10861944571E+01  0.11022274448E+01  0.51100000000E-03 0.  1.
    9000002    1    1    2    0    0 -0.27584869805E+00 -0.45524263911E+00  0.19605266073E+00  0.10961838397E+01  0.93800000000E+00 0. -1.
         22    1    1    2    0    0  0.17255998740E+00  0.29897964735E+00  0.27177528496E+01  0.27395887155E+01  0.00000000000E+00 0.  1.
</event>
<event>
 5    1  0.6172503E+001  0.1599672E+01  0.7818608E-02  0.3353720E+00
         11   -1    0    0    0    0  0.00000000000E+00  0.00000000000E+00  0.39999999674E+01  0.40000000000E+01  0.51100000000E-03 0.  1.
    9000002   -1    0    0    0    0 -0.00000000000E+00 -0.00000000000E+00  0.00000000000E+00  0.93800000000E+00  0.93800000000E+00 0.  1.
         11    1    1    2    0    0 -0.94953822383E-02 -0.11830358137E+00  0.95557130227E+00  0.96291363813E+00  0.51100000000E-03 0.  1.
    9000002    1    1    2    0    0  0.37835751951E-01  0.46703861018E+00  0.14954321510E+00  0.10591335047E+01  0.93800000000E+00 0.  1.
         22    1    1    2    0    0 -0.28340369713E-01 -0.34873502882E+00  0.28948854500E+01  0.29159528572E+01  0.00000000000E+00 0.  1.
</event>
<event>
 5    1  0.6172503E+001  0.1599677E+01  0.7818608E-02  0.3353714E+00
         11   -1    0    0    0    0  0.00000000000E+00  0.00000000000E+00  0.39999999674E+01  0.40000000000E+01  0.51100000000E-03 0. -1.
    9000002   -1    0    0    0    0 -0.00000000000E+00 -0.00000000000E+00  0.00000000000E+00  0.93800000000E+00  0.93800000000E+00 0.  1.
         11    1    1    2    0    0  0.19970138642E+00  0.13591147454E+00  0.14066701199E+01  0.14272608942E+01  0.51100000000E-03 0. -1.
    9000002    1    1    2    0    0 -0.52881990200E+00 -0.35801955545E+00  0.28700917451E+00  0.11704899645E+01  0.93800000000E+00 0.  1.
         22    1    1    2    0    0  0.32911851557E+00  0.22210808091E+00  0.23063206729E+01  0.23402491413E+01  0.00000000000E+00 0. -1.
</event>
<event>
 5    1  0.6172503E+001  0.1599649E+01  0.7818608E-02  0.3353744E+00
         11   -1    0    0    0    0  0.00000000000E+00  0.00000000000E+00  0.39999999674E+01  0.40000000000E+01  0.51100000000E-03 0. -1.
    9000002   -1    0    0    0    0 -0.00000000000E+00 -0.00000000000E+00  0.00000000000E+00  0.93800000000E+00  0.93800000000E+00 0.  1.
         11    1    1    2    0    0  0.12688180224E+00 -0.40344276354E-01  0.13709740390E+01  0.13774239467E+01  0.51100000000E-03 0. -1.
    9000002    1    1    2    0    0 -0.34600214408E+00  0.10861539678E+00  0.88330036421E-01  0.10095350333E+01  0.93800000000E+00 0.  1.
         22    1    1    2    0    0  0.21912034184E+00 -0.68271120430E-01  0.25406958920E+01  0.25510410200E+01  0.00000000000E+00 0. -1.
</event>
<event>
 5    1  0.6172503E+001  0.1599676E+01  0.7818608E-02  0.3353715E+00
         11   -1    0    0    0    0  0.00000000000E+00  0.00000000000E+00  0.39999999674E+01  0.40000000000E+01  0.51100000000E-03 0. -1.
    9000002   -1    0    0    0    0 -0.00000000000E+00 -0.00000000000E+00  0.00000000000E+00  0.93800000000E+00  0.93800000000E+00 0. -1.
         11    1    1    2    0    0 -0.71395511359E-01  0.13682572589E+00  0.14302838066E+01  0.14385863293E+01  0.51100000000E-03 0. -1.
    9000002    1    1    2    0    0  0.19106038133E+00 -0.37048245701E+00  0.11746614460E+00  0.10331522712E+01  0.93800000000E+00 0. -1.
         22    1    1    2    0    0 -0.11966486997E+00  0.23365673112E+00  0.24522500162E+01  0.24662613995E+01  0.00000000000E+00 0.  1.
</event>
<event>
 5    1  0.6172503E+001  0.1599578E+01  0.7818608E-02  0.3353822E+00
         11   -1    0    0    0    0  0.00000000000E+00  0.00000000000E+00  0.39999999674E+01  0.40000000000E+01  0.51100000000E-03 0.  1.
    9000002   -1    0    0    0    0 -0.00000000000E+00 -0.00000000000E+00  0.00000000000E+00  0.93800000000E+00  0.93800000000E+00 0.  1.
         11    1    1    2    0    0  0.56426983637E-01  0.10996061345E+00  0.78351412247E+00  0.79320235894E+00  0.51100000000E-03 0.  1.
    9000002    1    1    2    0    0 -0.29598484807E+00 -0.48938593200E+00  0.22699565177E+00  0.11218184553E+01  0.93800000000E+00 0.  1.
         22    1    1    2    0    0  0.23955786443E+00  0.37942531856E+00  0.29894901931E+01  0.30229791858E+01  0.00000000000E+00 0.  1.
</event>
<event>
 5    1  0.6172503E+001  0.1593794E+01  0.7818608E-02  0.3360127E+00
         11   -1    0    0    0    0  0.00000000000E+00  0.00000000000E+00  0.39999999674E+01  0.40000000000E+01  0.51100000000E-03 0. -1.
    9000002   -1    0    0    0    0 -0.00000000000E+00 -0.00000000000E+00  0.00000000000E+00  0.93800000000E+00  0.93800000000E+00 0.  1.
         11    1    1    2    0    0  0.11309333968E-01  0.19140835462E-01  0.45118823217E+00  0.45173593457E+00  0.51100000000E-03 0. -1.
    9000002    1    1    2    0    0  0.20180826050E+00  0.24867971480E+00  0.73228339839E-01  0.99386848442E+00  0.93800000000E+00 0.  1.
         22    1    1    2    0    0 -0.21311759446E+00 -0.26782055026E+00  0.34755833954E+01  0.34923955810E+01  0.00000000000E+00 0. -1.
</event>
<event>
 5    1  0.6268745E+001  0.1599609E+01  0.7818608E-02  0.3353788E+00
         11   -1    0    0    0    0  0.00000000000E+00  0.00000000000E+00  0.39999999674E+01  0.40000000000E+01  0.51100000000E-03 0. -1.
    9000002   -1    0    0    0    0 -0.00000000000E+00 -0.00000000000E+00  0.00000000000E+00  0.93800000000E+00  0.93800000000E+00 0. -1.
         11    1    1    2    0    0  0.26925257345E-01 -0.10313701119E+00  0.11793043256E+01  0.11841119737E+01  0.51100000000E-03 0. -1.
    9000002    1    1    2    0    0 -0.79182820275E-01  0.36999580998E+00  0.96365332992E-01  0.10160202241E+01  0.93800000000E+00 0. -1.
         22    1    1    2    0    0  0.52257562931E-01 -0.26685879879E+00  0.27243303087E+01  0.27378678022E+01  0.00000000000E+00 0. -1.
</event>
<event>
 5    1  0.6172503E+001  0.1572522E+01  0.7818608E-02  0.3383738E+00
         11   -1    0    0    0    0  0.00000000000E+00  0.00000000000E+00  0.39999999674E+01  0.40000000000E+01  0.51100000000E-03 0. -1.
    9000002   -1    0    0    0    0 -0.00000000000E+00 -0.00000000000E+00  0.00000000000E+00  0.93800000000E+00  0.93800000000E+00 0. -1.
         11    1    1    2    0    0  0.11084477405E+00 -0.15913566726E-01  0.32197542271E+00  0.34089329635E+00  0.51100000000E-03 0. -1.
    9000002    1    1    2    0    0 -0.15077205855E-01  0.34699760728E+00  0.10302415262E+00  0.10055310227E+01  0.93800000000E+00 0. -1.
         22    1    1    2    0    0 -0.95767568196E-01 -0.33108404055E+00  0.35750003920E+01  0.35915756810E+01  0.00000000000E+00 0. -1.
</event>
<event>
 5    1  0.6172503E+001  0.1599668E+01  0.7818608E-02  0.3353724E+00
         11   -1    0    0    0    0  0.00000000000E+00  0.00000000000E+00  0.39999999674E+01  0.40000000000E+01  0.51100000000E-03 0.  1.
    9000002   -1    0    0    0    0 -0.00000000000E+00 -0.00000000000E+00  0.00000000000E+00  0.93800000000E+00  0.93800000000E+00 0.  1.
         11    1    1    2    0    0 -0.77252121214E-02 -0.19475216793E-01  0.19074768988E+00  0.19189555827E+00  0.51100000000E-03 0.  1.
    9000002    1    1    2    0    0  0.13337191840E+00  0.37909751693E+00  0.10897069250E+00  0.10262658563E+01  0.93800000000E+00 0.  1.
         22    1    1    2    0    0 -0.12564670628E+00 -0.35962230013E+00  0.37002815850E+01  0.37198385854E+01  0.00000000000E+00 0.  1.
</event>
<event>
 5    1  0.6172503E+001  0.1598975E+01  0.7818608E-02  0.3354476E+00
         11   -1    0    0    0    0  0.00000000000E+00  0.00000000000E+00  0.39999999674E+01  0.40000000000E+01  0.51100000000E-03 0.  1.
    9000002   -1    0    0    0    0 -0.00000000000E+00 -0.00000000000E+00  0.00000000000E+00  0.93800000000E+00  0.93800000000E+00 0.  1.
         11    1    1    2    0    0 -0.17174823480E+00  0.23208450680E+00  0.11986358235E+01  0.12329188022E+01  0.51100000000E-03 0.  1.
    9000002    1    1    2    0    0  0.43399315830E+00 -0.63979055434E+00  0.43726398608E+00  0.12917917047E+01  0.93800000000E+00 0.  1.
         22    1    1    2    0    0 -0.26224492350E+00  0.40770604754E+00  0.23641001578E+01  0.24132894931E+01  0.00000000000E+00 0.  1.
</event>
<event>
 5    1  0.6172503E+001  0.1584052E+01  0.7818608E-02  0.3370857E+00
         11   -1    0    0    0    0  0.00000000000E+00  0.00000000000E+00  0.39999999674E+01  0.40000000000E+01  0.51100000000E-03 0.  1.
    9000002   -1    0    0    0    0 -0.00000000000E+00 -0.00000000000E+00  0.00000000000E+00  0.93800000000E+00  0.93800000000E+00 0.  1.
         11    1    1    2    0    0 -0.30816566318E+00 -0.16182640685E-01  0.13356029428E+01  0.13707893477E+01  0.51100000000E-03 0.  1.
    9000002    1    1    2    0    0  0.52127965272E+00 -0.16625405009E+00  0.22152424050E+00  0.11082823984E+01  0.93800000000E+00 0.  1.
         22    1    1    2    0    0 -0.21311398954E+00  0.18243669078E+00  0.24428727841E+01  0.24589282539E+01  0.00000000000E+00 0.  1.
</event>
<event>
 5    1  0.6172503E+001  0.1599675E+01  0.7818608E-02  0.3353716E+00
         11   -1    0    0    0    0  0.00000000000E+00  0.00000000000E+00  0.39999999674E+01  0.40000000000E+01  0.51100000000E-03 0.  1.
    9000002   -1    0    0    0    0 -0.00000000000E+00 -0.00000000000E+00  0.00000000000E+00  0.93800000000E+00  0.93800000000E+00 0. -1.
         11    1    1    2    0    0 -0.19819064337E-01 -0.11603299357E+00  0.91118090752E+00  0.91875315415E+00  0.51100000000E-03 0.  1.
    9000002    1    1    2    0    0  0.77815048843E-01  0.49082926381E+00  0.16897983147E+00  0.10748798684E+01  0.93800000000E+00 0. -1.
         22    1    1    2    0    0 -0.57995984506E-01 -0.37479627024E+00  0.29198392284E+01  0.29443669775E+01  0.00000000000E+00 0.  1.
</event>
<event>
 5    1  0.6172503E+001  0.1505887E+01  0.7818608E-02  0.3462304E+00
         11   -1    0    0    0    0  0.00000000000E+00  0.00000000000E+00  0.39999999674E+01  0.40000000000E+01  0.51100000000E-03 0. -1.
    9000002   -1    0    0    0    0 -0.00000000000E+00 -0.00000000000E+00  0.00000000000E+00  0.93800000000E+00  0.93800000000E+00 0. -1.
         11    1    1    2    0    0  0.37911720861E-01  0.27524981860E+00  0.78594106312E+00  0.83360864741E+00  0.51100000000E-03 0. -1.
    9000002    1    1    2    0    0  0.79218589141E-01  0.83915275783E-01  0.80888296265E-01  0.94852742440E+00  0.93800000000E+00 0. -1.
         22    1    1    2    0    0 -0.11713031000E+00 -0.35916509438E+00  0.31331706080E+01  0.31558639282E+01  0.00000000000E+00 0. -1.
</event>
<event>
 5    1  0.6172503E+001  0.1599659E+01  0.7818608E-02  0.3353733E+00
         11   -1    0    0    0    0  0.00000000000E+00  0.00000000000E+00  0.39999999674E+01  0.40000000000E+01  0.51100000000E-03 0. -1.
    9000002   -1    0    0    0    0 -0.00000000000E+00 -0.00000000000E+00  0.00000000000E+00  0.93800000000E+00  0.93800000000E+00 0. -1.
         11    1    1    2    0    0  0.27291082502E-01 -0.77757591630E-01  0.93795997628E+00  0.94157327090E+00  0.51100000000E-03 0. -1.
    9000002    1    1    2    0    0 -0.10153914180E+00  0.33789064752E+00  0.83505819987E-01  0.10056328898E+01  0.93800000000E+00 0. -1.
         22    1    1    2    0    0  0.74248059295E-01 -0.26013305589E+00  0.29785341711E+01  0.29907938393E+01  0.00000000000E+00 0. -1.
</event>
<event>
 5    1  0.6172503E+001  0.1487977E+01  0.7818608E-02  0.3484709E+00
         11   -1    0    0    0    0  0.00000000000E+00  0.00000000000E+00  0.39999999674E+01  0.40000000000E+01  0.51100000000E-03 0. -1.
    9000002   -1    0    0    0    0 -0.00000000000E+00 -0.00000000000E+00  0.00000000000E+00  0.93800000000E+00  0.93800000000E+00 0.  1.
         11    1    1    2    0    0 -0.39777016568E+00  0.51748403045E-01  0.13745288351E+01  0.14318619981E+01  0.51100000000E-03 0. -1.
    9000002    1    1    2    0    0  0.75895483032E-01  0.14842515578E+00  0.10629975914E+00  0.95861034316E+00  0.93800000000E+00 0.  1.
         22    1    1    2    0    0  0.32187468265E+00 -0.20017355883E+00  0.25191713731E+01  0.25475276588E+01  0.00000000000E+00 0. -1.
</event>
<event>
 5    1  0.6172503E+001  0.1599494E+01  0.7818608E-02  0.3353913E+00
         11   -1    0    0    0    0  0.00000000000E+00  0.00000000000E+00  0.39999999674E+01  0.40000000000E+01  0.51100000000E-03 0.  1.
    9000002   -1    0    0    0    0 -0.00000000000E+00 -0.00000000000E+00  0.00000000000E+00  0.93800000000E+00  0.93800000000E+00 0. -1.
         11    1    1    2    0    0 -0.69621345387E-01  0.89391440287E-03  0.53013911922E+00  0.53469213353E+00  0.51100000000E-03 0.  1.
    9000002    1    1    2    0    0  0.42956700809E+00  0.15353741919E-01  0.12528150293E+00  0.10393762585E+01  0.93800000000E+00 0. -1.
         22    1    1    2    0    0 -0.35994566271E+00 -0.16247656322E-01  0.33445793452E+01  0.33639316079E+01  0.00000000000E+00 0.  1.
</event>
<event>
 5    1  0.6172503E+001  0.1554153E+01  0.7818608E-02  0.3404679E+00
         11   -1    0    0    0    0  0.00000000000E+00  0.00000000000E+00  0.39999999674E+01  0.40000000000E+01  0.51100000000E-03 0. -1.
    9000002   -1    0    0    0    0 -0.00000000000E+00 -0.00000000000E+00  0.00000000000E+00  0.93800000000E+00  0.93800000000E+00 0.  1.
         11    1    1    2    0    0 -0.89249861037E-01  0.20676905306E+00  0.10624957012E+01  0.10861014480E+01  0.51100000000E-03 0. -1.
    9000002    1    1    2    0    0  0.24172100331E+00  0.75751092086E-01  0.78327378061E-01  0.97475455862E+00  0.93800000000E+00 0.  1.
         22    1    1    2    0    0 -0.15247114227E+00 -0.28252014515E+00  0.28591768881E+01  0.28771439934E+01  0.00000000000E+00 0. -1.
</event>
<event>
 5    1  0.6172503E+001  0.1599675E+01  0.7818608E-02  0.3353716E+00
         11   -1    0    0    0    0  0.00000000000E+00  0.00000000000E+00  0.39999999674E+01  0.40000000000E+01  0.51100000000E-03 0. -1.
    9000002   -1    0    0    0    0 -0.00000000000E+00 -0.00000000000E+00  0.00000000000E+00  0.93800000000E+00  0.93800000000E+00 0. -1.
         11    1    1    2    0    0 -0.40606770416E-01 -0.96289339792E-01  0.78921164876E+00  0.79610039218E+00  0.51100000000E-03 0. -1.
    9000002    1    1    2    0    0  0.19262318365E+00  0.47090340320E+00  0.17746566749E+00  0.10817540243E+01  0.93800000000E+00 0. -1.
         22    1    1    2    0    0 -0.15201641323E+00 -0.37461406341E+00  0.30333226511E+01  0.30601455835E+01  0.00000000000E+00 0. -1.
</event>
<event>
 5    1  0.6172503E+001  0.1599596E+01  0.7818608E-02  0.3353802E+00
         11   -1    0    0    0    0  0.00000000000E+00  0.00000000000E+00  0.39999999674E+01  0.40000000000E+01  0.51100000000E-03 0. -1.
    9000002   -1    0    0    0    0 -0.00000000000E+00 -0.00000000000E+00  0.00000000000E+00  0.93800000000E+00  0.93800000000E+00 0.  1.
         11    1    1    2    0    0  0.89571571000E-01 -0.63347961942E-01  0.81289480414E+00  0.82026474649E+00  0.51100000000E-03 0. -1.
    9000002    1    1    2    0    0 -0.40555421731E+00  0.33597390925E+00  0.19081844929E+00  0.10925238540E+01  0.93800000000E+00 0.  1.
         22    1    1    2    0    0  0.31598264631E+00 -0.27262594731E+00  0.29962867139E+01  0.30252113996E+01  0.00000000000E+00 0. -1.
</event>
<event>
 5    1  0.6172503E+001  0.1594371E+01  0.7818608E-02  0.3359496E+00
         11   -1    0    0    0    0  0.00000000000E+00  0.00000000000E+00  0.39999999674E+01  0.40000000000E+01  0.51100000000E-03 0. -1.
    9000002   -1    0    0    0    0 -0.00000000000E+00 -0.00000000000E+00  0.00000000000E+00  0.93800000000E+00  0.93800000000E+00 0. -1.
         11    1    1    2    0    0 -0.20223743059E-02  0.49079380501E-01  0.98587303788E-01  0.11014805117E+00  0.51100000000E-03 0. -1.
    9000002    1    1    2    0    0  0.30881866980E+00 -0.70769263073E+00  0.44178708887E+00  0.12927558402E+01  0.93800000000E+00 0. -1.
         22    1    1    2    0    0 -0.30679629549E+00  0.65861325023E+00  0.34596255747E+01  0.35350961087E+01  0.00000000000E+00 0. -1.
</event>
<event>
 5    1  0.6172503E+001  0.1559845E+01  0.7818608E-02  0.3398134E+00
         11   -1    0    0    0    0  0.00000000000E+00  0.00000000000E+00  0.39999999674E+01  0.40000000000E+01  0.51100000000E-03 0. -1.
    9000002   -1    0    0    0    0 -0.00000000000E+00 -0.00000000000E+00  0.00000000000E+00  0.93800000000E+00  0.93800000000E+00 0. -1.
         11    1    1    2    0    0  0.60221443631E-01 -0.16569735543E+00  0.60059539605E+00  0.62593715878E+00  0.51100000000E-03 0. -1.
    9000002    1    1    2    0    0 -0.40633120649E+00 -0.60088596638E-01  0.14815293708E+00  0.10346540396E+01  0.93800000000E+00 0. -1.
         22    1    1    2    0    0  0.34610976286E+00  0.22578595206E+00  0.32512516342E+01  0.32774088017E+01  0.00000000000E+00 0. -1.
</event>
<event>
 5    1  0.6172503E+001  0.1557588E+01  0.7818608E-02  0.3400723E+00
         11   -1    0    0    0    0  0.00000000000E+00  0.00000000000E+00  0.39999999674E+01  0.40000000000E+01  0.51100000000E-03 0.  1.
    9000002   -1    0    0    0    0 -0.00000000000E+00 -0.00000000000E+00  0.00000000000E+00  0.93800000000E+00  0.93800000000E+00 0.  1.
         11    1    1    2    0    0 -0.22831985318E+00  0.81446163572E-01  0.55215791148E+00  0.60302740672E+00  0.51100000000E-03 0.  1.
    9000002    1    1    2    0    0  0.50878383953E+00  0.69281136251E-01  0.22035186370E+00  0.10918149179E+01  0.93800000000E+00 0.  1.
         22    1    1    2    0    0 -0.28046398635E+00 -0.15072729982E+00  0.32274901922E+01  0.32431576753E+01  0.00000000000E+00 0.  1.
</event>
<event>
 5    1  0.6172503E+001  0.1599660E+01  0.7818608E-02  0.3353733E+00
         11   -1    0    0    0    0  0.00000000000E+00  0.00000000000E+00  0.39999999674E+01  0.40000000000E+01  0.51100000000E-03 0.  1.
    9000002   -1    0    0    0    0 -0.00000000000E+00 -0.00000000000E+00  0.00000000000E+00  0.93800000000E+00  0.93800000000E+00 0. -1.
         11    1    1    2    0    0  0.27758537335E-01 -0.57293564065E-01  0.44554566520E+00  0.45007142742E+00  0.51100000000E-03 0.  1.
    9000002    1    1    2    0    0 -0.21096703475E+00  0.48263583062E+00  0.19082557118E+00  0.10925670842E+01  0.93800000000E+00 0. -1.
         22    1    1    2    0    0  0.18320849742E+00 -0.42534226656E+00  0.33636287310E+01  0.33953614884E+01  0.00000000000E+00 0.  1.
</event>
<event>
 5    1  0.6172503E+001  0.1595246E+01  0.7818608E-02  0.3358539E+00
         11   -1    0    0    0    0  0.00000000000E+00  0.00000000000E+00  0.39999999674E+01  0.40000000000E+01  0.51100000000E-03 0.  1.
    9000002   -1    0    0    0    0 -0.00000000000E+00 -0.00000000000E+00  0.00000000000E+00  0.93800000000E+00  0.93800000000E+00 0. -1.
         11    1    1    2    0    0 -0.16899283075E-01  0.10774288731E-01  0.10454669447E+00  0.10645160174E+00  0.51100000000E-03 0.  1.
    9000002    1    1    2    0    0  0.19037216288E+00  0.46066234621E+00  0.17403073588E+00  0.10763744955E+01  0.93800000000E+00 0. -1.
         22    1    1    2    0    0 -0.17347287980E+00 -0.47143663494E+00  0.37214225370E+01  0.37551739027E+01  0.00000000000E+00 0.  1.
</event>
<event>
 5    1  0.6172503E+001  0.1560347E+01  0.7818608E-02  0.3397559E+00
         11   -1    0    0    0    0  0.00000000000E+00  0.00000000000E+00  0.39999999674E+01  0.40000000000E+01  0.51100000000E-03 0. -1.
    9000002   -1    0    0    0    0 -0.00000000000E+00 -0.00000000000E+00  0.00000000000E+00  0.93800000000E+00  0.93800000000E+00 0.  1.
         11    1    1    2    0    0 -0.14186222690E+00  0.91532914165E-01  0.12474174009E+01  0.12587905302E+01  0.51100000000E-03 0. -1.
    9000002    1    1    2    0    0 -0.17232653433E+00  0.37507214226E-01  0.50401686114E-01  0.95576542913E+00  0.93800000000E+00 0.  1.
         22    1    1    2    0    0  0.31418876124E+00 -0.12904012839E+00  0.27021808803E+01  0.27234440406E+01  0.00000000000E+00 0. -1.
</event>
<event>
 5    1  0.6172503E+001  0.1594188E+01  0.7818608E-02  0.3359695E+00
         11   -1    0    0    0    0  0.00000000000E+00  0.00000000000E+00  0.39999999674E+01  0.40000000000E+01  0.51100000000E-03 0. -1.
    9000002   -1    0    0    0    0 -0.00000000000E+00 -0.00000000000E+00  0.00000000000E+00  0.93800000000E+00  0.93800000000E+00 0. -1.
         11    1    1    2    0    0 -0.10031396469E-01  0.10040170748E+00  0.84737733787E+00  0.85336378271E+00  0.51100000000E-03 0. -1.
    9000002    1    1    2    0    0  0.14477338002E+00 -0.73409394218E+00  0.41224241607E+00  0.12687163028E+01  0.93800000000E+00 0. -1.
         22    1    1    2    0    0 -0.13474198355E+00  0.63369223471E+00  0.27403802134E+01  0.28159199144E+01  0.00000000000E+00 0. -1.
</event>
<event>
 5    1  0.6172503E+001  0.1599674E+01  0.7818608E-02  0.3353717E+00
         11   -1    0    0    0    0  0.00000000000E+00  0.00000000000E+00  0.39999999674E+01  0.40000000000E+01  0.51100000000E-03 0.  1.
    9000002   -1    0    0    0    0 -0.00000000000E+00 -0.00000000000E+00  0.00000000000E+00  0.93800000000E+00  0.93800000000E+00 0.  1.
         11    1    1    2    0    0 -0.28602336093E-01  0.76833572425E-01  0.59268232766E+00  0.59832607675E+00  0.51100000000E-03 0.  1.
    9000002    1    1    2    0    0  0.17531602816E+00 -0.49193556542E+00  0.18742407397E+00  0.10898202117E+01  0.93800000000E+00 0.  1.
         22    1    1    2    0    0 -0.14671369206E+00  0.41510199300E+00  0.32198935657E+01  0.32498537116E+01  0.00000000000E+00 0.  1.
</event>
<event>
 5    1  0.6172503E+001  0.1582150E+01  0.7818608E-02  0.3372968E+00
         11   -1    0    0    0    0  0.00000000000E+00  0.00000000000E+00  0.39999999674E+01  0.40000000000E+01  0.51100000000E-03 0.  1.
    9000002   -1    0    0    0    0 -0.00000000000E+00 -0.00000000000E+00  0.00000000000E+00  0.93800000000E+00  0.93800000000E+00 0.  1.
         11    1    1    2    0    0  0.40407654510E-01  0.45351348218E-01  0.92838926602E-01  0.11094526011E+00  0.51100000000E-03 0.  1.
    9000002    1    1    2    0    0 -0.41799125896E+00 -0.14029518118E+00  0.14704543580E+00  0.10468360858E+01  0.93800000000E+00 0.  1.
         22    1    1    2    0    0  0.37758360445E+00  0.94943832957E-01  0.37601156050E+01  0.37802186540E+01  0.00000000000E+00 0.  1.
</event>
<event>
 5    1  0.6172503E+001  0.1599653E+01  0.7818608E-02  0.3353741E+00
         11   -1    0    0    0    0  0.00000000000E+00  0.00000000000E+00  0.39999999674E+01  0.40000000000E+01  0.51100000000E-03 0. -1.
    9000002   -1    0    0    0    0 -0.00000000000E+00 -0.00000000000E+00  0.00000000000E+00  0.93800000000E+00  0.93800000000E+00 0. -1.
         11    1    1    2    0    0 -0.28336029478E-01  0.61574208341E-01  0.63729036659E+00  0.64088500230E+00  0.51100000000E-03 0. -1.
    9000002    1    1    2    0    0  0.16433586980E+00 -0.39984970437E+00  0.12662776983E+00  0.10405597803E+01  0.93800000000E+00 0. -1.
         22    1    1    2    0    0 -0.13599984032E+00  0.33827549603E+00  0.32360818309E+01  0.32565552174E+01  0.00000000000E+00 0. -1.
</event>
<event>
 5    1  0.6172503E+001  0.1567773E+01  0.7818608E-02  0.3389102E+00
         11   -1    0    0    0    0  0.00000000000E+00  0.00000000000E+00  0.39999999674E+01  0.40000000000E+01  0.51100000000E-03 0. -1.
    9000002   -1    0    0    0    0 -0.00000000000E+00 -0.00000000000E+00  0.00000000000E+00  0.93800000000E+00  0.93800000000E+00 0.  1.
         11    1    1    2    0    0 -0.67833366465E-02  0.20526395659E-01 -0.29845964315E-03  0.21626298203E-01  0.51100000000E-03 0. -1.
    9000002    1    1    2    0    0 -0.38281381493E+00  0.22107420391E+00  0.16048884823E+00  0.10492954260E+01  0.93800000000E+00 0.  1.
         22    1    1    2    0    0  0.38959715157E+00 -0.24160059956E+00  0.38398095788E+01  0.38670782758E+01  0.00000000000E+00 0. -1.
</event>
<event>
 5    1  0.6172503E+001  0.1580967E+01  0.7818608E-02  0.3374284E+00
         11   -1    0    0    0    0  0.00000000000E+00  0.00000000000E+00  0.39999999674E+01  0.40000000000E+01  0.51100000000E-03 0.  1.
    9000002   -1    0    0    0    0 -0.00000000000E+00 -0.00000000000E+00  0.00000000000E+00  0.93800000000E+00  0.93800000000E+00 0.  1.
         11    1    1    2    0    0  0.27014309065E-01 -0.25262995708E-01  0.14345122154E+01  0.14349890414E+01  0.51100000000E-03 0.  1.
    9000002    1    1    2    0    0 -0.68002994105E-01 -0.36335997500E+00  0.10724716945E+00  0.10139037597E+01  0.93800000000E+00 0.  1.
         22    1    1    2    0    0  0.40988685040E-01  0.38862297071E+00  0.24582405825E+01  0.24891071988E+01  0.00000000000E+00 0.  1.
</event>
<event>
 5    1  0.6172503E+001  0.1599674E+01  0.7818608E-02  0.3353717E+00
         11   -1    0    0    0    0  0.00000000000E+00  0.00000000000E+00  0.39999999674E+01  0.40000000000E+01  0.51100000000E-03 0. -1.
    9000002   -1    0    0    0    0 -0.00000000000E+00 -0.00000000000E+00  0.00000000000E+00  0.93800000000E+00  0.93800000000E+00 0.  1.
         11    1    1    2    0    0 -0.71947584397E-01 -0.98336928547E-01  0.12187231391E+01  0.12247991498E+01  0.51100000000E-03 0. -1.
    9000002    1    1    2    0    0  0.23617505851E+00  0.31542827943E+00  0.10465848797E+00  0.10227761519E+01  0.93800000000E+00 0.  1.
         22    1    1    2    0    0 -0.16422747411E+00 -0.21709135089E+00  0.26766183403E+01  0.26904246983E+01  0.00000000000E+00 0. -1.
</event>
<event>
 5    1  0.6172503E+001  0.1595588E+01  0.7818608E-02  0.3358166E+00
         11   -1    0    0    0    0  0.00000000000E+00  0.00000000000E+00  0.39999999674E+01  0.40000000000E+01  0.51100000000E-03 0. -1.
    9000002   -1    0    0    0    0 -0.00000000000E+00 -0.00000000000E+00  0.00000000000E+00  0.93800000000E+00  0.93800000000E+00 0. -1.
         11    1    1    2    0    0 -0.15213627870E-02 -0.10691153840E+00  0.69652968604E+00  0.70468876552E+00  0.51100000000E-03 0. -1.
    9000002    1    1    2    0    0 -0.31160989122E+00  0.57294418419E+00  0.30464469119E+00  0.11823781757E+01  0.93800000000E+00 0. -1.
         22    1    1    2    0    0  0.31313125400E+00 -0.46603264579E+00  0.29988255901E+01  0.30509330588E+01  0.00000000000E+00 0. -1.
</event>
<event>
 5    1  0.6172503E+001  0.1599677E+01  0.7818608E-02  0.3353714E+00
         11   -1    0    0    0    0  0.00000000000E+00  0.00000000000E+00  0.39999999674E+01  0.40000000000E+01  0.51100000000E-03 0. -1.
    9000002   -1    0    0    0    0 -0.00000000000E+00 -0.00000000000E+00  0.00000000000E+00  0.93800000000E+00  0.93800000000E+00 0.  1.
         11    1    1    2    0    0 -0.70262238034E-01 -0.84662172528E-01  0.94063263234E+00  0.94704512865E+00  0.51100000000E-03 0.  1.
    9000002    1    1    2    0    0  0.28837658399E+00  0.34740525013E+00  0.13848342725E+00  0.10501776619E+01  0.93800000000E+00 0.  1.
         22    1    1    2    0    0 -0.21811434595E+00 -0.26274307760E+00  0.29208839078E+01  0.29407772094E+01  0.00000000000E+00 0. -1.
</event>
<event>
 5    1  0.6172503E+001  0.1599674E+01  0.7818608E-02  0.3353717E+00
         11   -1    0    0    0    0  0.00000000000E+00  0.00000000000E+00  0.39999999674E+01  0.40000000000E+01  0.51100000000E-03 0. -1.
    9000002   -1    0    0    0    0 -0.00000000000E+00 -0.00000000000E+00  0.00000000000E+00  0.93800000000E+00  0.93800000000E+00 0. -1.
         11    1    1    2    0    0 -0.28597043593E-01 -0.12575086571E-01  0.31443173763E+00  0.31598022478E+00  0.51100000000E-03 0. -1.
    9000002    1    1    2    0    0  0.36594105960E+00  0.15064141336E+00  0.10557862688E+00  0.10235216368E+01  0.93800000000E+00 0. -1.
         22    1    1    2    0    0 -0.33734401600E+00 -0.13806632679E+00  0.35799896029E+01  0.35984981384E+01  0.00000000000E+00 0. -1.
</event>
<event>
 5    1  0.6172503E+001  0.1599677E+01  0.7818608E-02  0.3353714E+00
         11   -1    0    0    0    0  0.00000000000E+00  0.00000000000E+00  0.39999999674E+01  0.40000000000E+01  0.51100000000E-03 0.  1.
    9000002   -1    0    0    0    0 -0.00000000000E+00 -0.00000000000E+00  0.00000000000E+00  0.93800000000E+00  0.93800000000E+00 0. -1.
         11    1    1    2    0    0  0.59757668191E-01 -0.10834815057E+00  0.13585311618E+01  0.13641544924E+01  0.51100000000E-03 0.  1.
    9000002    1    1    2    0    0 -0.17395026372E+00  0.31284015200E+00  0.85987506506E-01  0.10076534653E+01  0.93800000000E+00 0. -1.
         22    1    1    2    0    0  0.11419259553E+00 -0.20449200142E+00  0.25554812991E+01  0.25661920422E+01  0.00000000000E+00 0.  1.
</event>
<event>
 5    1  0.6172503E+001  0.1588026E+01  0.7818608E-02  0.3366463E+00
         11   -1    0    0    0    0  0.00000000000E+00  0.00000000000E+00  0.39999999674E+01  0.40000000000E+01  0.51100000000E-03 0. -1.
    9000002   -1    0    0    0    0 -0.00000000000E+00 -0.00000000000E+00  0.00000000000E+00  0.93800000000E+00  0.93800000000E+00 0.  1.
         11    1    1    2    0    0 -0.24370000399E+00  0.47961384256E-01  0.92284928763E+00  0.95568878570E+00  0.51100000000E-03 0. -1.
    9000002    1    1    2    0    0  0.53473104670E+00 -0.15066821466E+00  0.22454602104E+00  0.11130602494E+01  0.93800000000E+00 0.  1.
         22    1    1    2    0    0 -0.29103104271E+00  0.10270683040E+00  0.28526046587E+01  0.28692509649E+01  0.00000000000E+00 0. -1.
</event>
<event>
 5    1  0.6172503E+001  0.1599642E+01  0.7818608E-02  0.3353752E+00
         11   -1    0    0    0    0  0.00000000000E+00  0.00000000000E+00  0.39999999674E+01  0.40000000000E+01  0.51100000000E-03 0.  1.
    9000002   -1    0    0    0    0 -0.00000000000E+00 -0.00000000000E+00  0.00000000000E+00  0.93800000000E+00  0.93800000000E+00 0.  1.
         11    1    1    2    0    0 -0.22331348565E-01 -0.10638129765E-01  0.12495201032E+00  0.12737788245E+00  0.51100000000E-03 0.  1.
    9000002    1    1    2    0    0  0.61008519978E+00  0.25669484941E+00  0.31007456738E+00  0.11891536629E+01  0.93800000000E+00 0.  1.
         22    1    1    2    0    0 -0.58775385121E+00 -0.24605671964E+00  0.35649733897E+01  0.36214684546E+01  0.00000000000E+00 0.  1.
</event>
<event>
 5    1  0.6172503E+001  0.1599556E+01  0.7818608E-02  0.3353845E+00
         11   -1    0    0    0    0  0.00000000000E+00  0.00000000000E+00  0.39999999674E+01  0.40000000000E+01  0.51100000000E-03 0. -1.
    9000002   -1    0    0    0    0 -0.00000000000E+00 -0.00000000000E+00  0.00000000000E+00  0.93800000000E+00  0.93800000000E+00 0.  1.
         11    1    1    2    0    0 -0.51906669267E-01 -0.40936757798E-01  0.60491951014E+00  0.60852115437E+00  0.51100000000E-03 0. -1.
    9000002    1    1    2    0    0  0.29196573538E+00  0.22033279207E+00  0.89966371142E-01  0.10108058557E+01  0.93800000000E+00 0.  1.
         22    1    1    2    0    0 -0.24005906611E+00 -0.17939603427E+00  0.33051140861E+01  0.33186729900E+01  0.00000000000E+00 0. -1.
</event>
<event>
 5    1  0.6172503E+001  0.1599676E+01  0.7818608E-02  0.3353715E+00
         11   -1    0    0    0    0  0.00000000000E+00  0.00000000000E+00  0.39999999674E+01  0.40000000000E+01  0.51100000000E-03 0. -1.
    9000002   -1    0    0    0    0 -0.00000000000E+00 -0.00000000000E+00  0.00000000000E+00  0.93800000000E+00  0.93800000000E+00 0.  1.
         11    1    1    2    0    0 -0.11995824300E+00  0.33254192892E-01  0.11807215969E+01  0.11872655861E+01  0.51100000000E-03 0. -1.
    9000002    1    1    2    0    0  0.39308045487E+00 -0.10682198568E+00  0.11202577662E+00  0.10287453306E+01  0.93800000000E+00 0.  1.
         22    1    1    2    0    0 -0.27312221187E+00  0.73567792789E-01  0.27072525938E+01  0.27219890833E+01  0.00000000000E+00 0. -1.
</event>
<event>
 5    1  0.6172503E+001  0.1599647E+01  0.7818608E-02  0.3353746E+00
         11   -1    0    0    0    0  0.00000000000E+00  0.00000000000E+00  0.39999999674E+01  0.40000000000E+01  0.51100000000E-03 0.  1.
    9000002   -1    0    0    0    0 -0.00000000000E+00 -0.00000000000E+00  0.00000000000E+00  0.93800000000E+00  0.93800000000E+00 0. -1.
         11    1    1    2    0    0 -0.55153913300E-01  0.36919743975E-01  0.69668417703E+00  0.69983864232E+00  0.51100000000E-03 0.  1.
    9000002    1    1    2    0    0  0.33552394018E+00 -0.19848563727E+00  0.10240165736E+00  0.10209323984E+01  0.93800000000E+00 0. -1.
         22    1    1    2    0    0 -0.28037002688E+00  0.16156589329E+00  0.32009141330E+01  0.32172289593E+01  0.00000000000E+00 0.  1.
</event>
<event>
 5    1  0.6172503E+001  0.1598891E+01  0.7818608E-02  0.3354567E+00
         11   -1    0    0    0    0  0.00000000000E+00  0.00000000000E+00  0.39999999674E+01  0.40000000000E+01  0.51100000000E-03 0.  1.
    9000002   -1    0    0    0    0 -0.00000000000E+00 -0.00000000000E+00  0.00000000000E+00  0.93800000000E+00  0.93800000000E+00 0.  1.
         11    1    1    2    0    0 -0.19595455629E-01 -0.10898059679E-01  0.49130522891E+00  0.49181687513E+00  0.51100000000E-03 0.  1.
    9000002    1    1    2    0    0  0.32062529574E+00  0.15595919891E+00  0.85935383038E-01  0.10071508040E+01  0.93800000000E+00 0.  1.
         22    1    1    2    0    0 -0.30102984011E+00 -0.14506113924E+00  0.34227593554E+01  0.34390323208E+01  0.00000000000E+00 0.  1.
</event>
<event>
 5    1  0.6172503E+001  0.1599567E+01  0.7818608E-02  0.3353833E+00
         11   -1    0    0    0    0  0.00000000000E+00  0.00000000000E+00  0.39999999674E+01  0.40000000000E+01  0.51100000000E-03 0.  1.
    9000002   -1    0    0    0    0 -0.00000000000E+00 -0.00000000000E+00  0.00000000000E+00  0.93800000000E+00  0.93800000000E+00 0.  1.
         11    1    1    2    0    0  0.59719491417E-01  0.28126319281E-01  0.60787255598E+00  0.61144649228E+00  0.51100000000E-03 0.  1.
    9000002    1    1    2    0    0 -0.32633766535E+00 -0.19497585861E+00  0.97325361262E-01  0.10167733687E+01  0.93800000000E+00 0.  1.
         22    1    1    2    0    0  0.26661817393E+00  0.16684953933E+00  0.32948020501E+01  0.33097801391E+01  0.00000000000E+00 0.  1.
</event>
<event>
 5    1  0.6172503E+001  0.1599677E+01  0.7818608E-02  0.3353714E+00
         11   -1    0    0    0    0  0.00000000000E+00  0.00000000000E+00  0.39999999674E+01  0.40000000000E+01  0.51100000000E-03 0.  1.
    9000002   -1    0    0    0    0 -0.00000000000E+00 -0.00000000000E+00  0.00000000000E+00  0.93800000000E+00  0.93800000000E+00 0. -1.
         11    1    1    2    0    0  0.21409187000E-01  0.14608932942E+00  0.13533981590E+01  0.13614283982E+01  0.51100000000E-03 0. -1.
    9000002    1    1    2    0    0 -0.61994536692E-01 -0.41869890696E+00  0.12121537498E+00  0.10361897820E+01  0.93800000000E+00 0. -1.
         22    1    1    2    0    0  0.40585349692E-01  0.27260957754E+00  0.25253864334E+01  0.25403818198E+01  0.00000000000E+00 0.  1.
</event>
<event>
 5    1  0.6172503E+001  0.1599677E+01  0.7818608E-02  0.3353714E+00
         11   -1    0    0    0    0  0.00000000000E+00  0.00000000000E+00  0.39999999674E+01  0.40000000000E+01  0.51100000000E-03 0.  1.
    9000002   -1    0    0    0    0 -0.00000000000E+00 -0.00000000000E+00  0.00000000000E+00  0.93800000000E+00  0.93800000000E+00 0.  1.
         11    1    1    2    0    0  0.91327486103E-01 -0.14817282744E+00  0.14783171464E+01  0.14885287175E+01  0.51100000000E-03 0.  1.
    9000002    1    1    2    0    0 -0.23682686673E+00  0.38755713035E+00  0.14019456162E+00  0.10515636021E+01  0.93800000000E+00 0.  1.
         22    1    1    2    0    0  0.14549938062E+00 -0.23938430292E+00  0.23814882594E+01  0.23979076804E+01  0.00000000000E+00 0.  1.
</event>
<event>
 5    1  0.6172503E+001  0.1598126E+01  0.7818608E-02  0.3355399E+00
         11   -1    0    0    0    0  0.00000000000E+00  0.00000000000E+00  0.39999999674E+01  0.40000000000E+01  0.51100000000E-03 0. -1.
    9000002   -1    0    0    0    0 -0.00000000000E+00 -0.00000000000E+00  0.00000000000E+00  0.93800000000E+00  0.93800000000E+00 0.  1.
         11    1    1    2    0    0 -0.23058224220E-01  0.16735350124E+00  0.94533624285E+00  0.96031231860E+00  0.51100000000E-03 0. -1.
    9000002    1    1    2    0    0 -0.44670462935E-01 -0.57543689836E+00  0.23282356150E+00  0.11256881829E+01  0.93800000000E+00 0.  1.
         22    1    1    2    0    0  0.67728687155E-01  0.40808339712E+00  0.28218401630E+01  0.28519994985E+01  0.00000000000E+00 0. -1.
</event>
<event>
 5    1  0.6172503E+001  0.1493908E+01  0.7818608E-02  0.3477225E+00
         11   -1    0    0    0    0  0.00000000000E+00  0.00000000000E+00  0.39999999674E+01  0.40000000000E+01  0.51100000000E-03 0.  1.
    9000002   -1    0    0    0    0 -0.00000000000E+00 -0.00000000000E+00  0.00000000000E+00  0.93800000000E+00  0.93800000000E+00 0. -1.
         11    1    1    2    0    0 -0.19887020303E+00 -0.12806829668E+00  0.89817453062E+00  0.92879954503E+00  0.51100000000E-03 0.  1.
    9000002    1    1    2    0    0 -0.30926130402E+00 -0.26818375892E+00  0.20780862068E+00  0.10443148498E+01  0.93800000000E+00 0. -1.
         22    1    1    2    0    0  0.50813150705E+00  0.39625205560E+00  0.28940168161E+01  0.29648856052E+01  0.00000000000E+00 0.  1.
</event>
<event>
 5    1  0.6172503E+001  0.1599669E+01  0.7818608E-02  0.3353722E+00
         11   -1    0    0    0    0  0.00000000000E+00  0.00000000000E+00  0.39999999674E+01  0.40000000000E+01  0.51100000000E-03 0.  1.
    9000002   -1    0    0    0    0 -0.00000000000E+00 -0.00000000000E+00  0.00000000000E+00  0.93800000000E+00  0.93800000000E+00 0. -1.
         11    1    1    2    0    0 -0.97853899606E-01  0.12295184144E+00  0.12526228184E+01  0.12624407817E+01  0.51100000000E-03 0.  1.
    9000002    1    1    2    0    0  0.29592907840E+00 -0.38558990103E+00  0.16136426619E+00  0.10687076390E+01  0.93800000000E+00 0. -1.
         22    1    1    2    0    0 -0.19807517879E+00  0.26263805959E+00  0.25860128828E+01  0.26068515794E+01  0.00000000000E+00 0. -1.
</event>
<event>
 5    1  0.6172503E+001  0.1599675E+01  0.7818608E-02  0.3353716E+00
         11   -1    0    0    0    0  0.00000000000E+00  0.00000000000E+00  0.39999999674E+01  0.40000000000E+01  0.51100000000E-03 0.  1.
    9000002   -1    0    0    0    0 -0.00000000000E+00 -0.00000000000E+00  0.00000000000E+00  0.93800000000E+00  0.93800000000E+00 0.  1.
         11    1    1    2    0    0 -0.22257321757E+00 -0.22913809771E+00  0.93937189443E+00  0.99220104927E+00  0.51100000000E-03 0.  1.
    9000002    1    1    2    0    0  0.73538712827E+00  0.75140760304E+00  0.91814728062E+00  0.16817389938E+01  0.93800000000E+00 0.  1.
         22    1    1    2    0    0 -0.51281391070E+00 -0.52226950533E+00  0.21424807923E+01  0.22640599569E+01  0.00000000000E+00 0.  1.
</event>
<event>
 5    1  0.6172503E+001  0.1599677E+01  0.7818608E-02  0.3353714E+00
         11   -1    0    0    0    0  0.00000000000E+00  0.00000000000E+00  0.39999999674E+01  0.40000000000E+01  0.51100000000E-03 0.  1.
    9000002   -1    0    0    0    0 -0.00000000000E+00 -0.00000000000E+00  0.00000000000E+00  0.93800000000E+00  0.93800000000E+00 0. -1.
         11    1    1    2    0    0 -0.23193402460E-01  0.16218309290E+00  0.11924755339E+01  0.12036774691E+01  0.51100000000E-03 0. -1.
    9000002    1    1    2    0    0  0.74585831448E-01 -0.51990798934E+00  0.18967439351E+00  0.10916445114E+01  0.93800000000E+00 0. -1.
         22    1    1    2    0    0 -0.51392428988E-01  0.35772489645E+00  0.26178500400E+01  0.26426780196E+01  0.00000000000E+00 0.  1.
</event>
<event>
 5    1  0.6172503E+001  0.1596087E+01  0.7818608E-02  0.3357622E+00
         11   -1    0    0    0    0  0.00000000000E+00  0.00000000000E+00  0.39999999674E+01  0.40000000000E+01  0.51100000000E-03 0. -1.
    9000002   -1    0    0    0    0 -0.00000000000E+00 -0.00000000000E+00  0.00000000000E+00  0.93800000000E+00  0.93800000000E+00 0. -1.
         11    1    1    2    0    0 -0.13075319140E-01 -0.72964761762E-01  0.64158016582E+00  0.64584842705E+00  0.51100000000E-03 0. -1.
    9000002    1    1    2    0    0 -0.24340840618E+00  0.43623752478E+00  0.17405817899E+00  0.10768895393E+01  0.93800000000E+00 0. -1.
         22    1    1    2    0    0  0.25648372532E+00 -0.36327276302E+00  0.31843616225E+01  0.32152620336E+01  0.00000000000E+00 0. -1.
</event>
<event>
 5    1  0.6172503E+001  0.1453606E+01  0.7818608E-02  0.3529385E+00
         11   -1    0    0    0    0  0.00000000000E+00  0.00000000000E+00  0.39999999674E+01  0.40000000000E+01  0.51100000000E-03 0. -1.
    9000002   -1    0    0    0    0 -0.00000000000E+00 -0.00000000000E+00  0.00000000000E+00  0.93800000000E+00  0.93800000000E+00 0.  1.
         11    1    1    2    0    0 -0.18429060728E+00  0.24656842082E+00  0.34490452403E+00  0.46229688069E+00  0.51100000000E-03 0. -1.
    9000002    1    1    2    0    0 -0.19200376161E+00 -0.33882510423E+00  0.24644722746E+00  0.10451067561E+01  0.93800000000E+00 0.  1.
         22    1    1    2    0    0  0.37629436889E+00  0.92256683418E-01  0.34086482159E+01  0.34305963632E+01  0.00000000000E+00 0. -1.
</event>
<event>
 5    1  0.6172503E+001  0.1550386E+01  0.7818608E-02  0.3409038E+00
         11   -1    0    0    0    0  0.00000000000E+00  0.00000000000E+00  0.39999999674E+01  0.40000000000E+01  0.51100000000E-03 0.  1.
    9000002   -1    0    0    0    0 -0.00000000000E+00 -0.00000000000E+00  0.00000000000E+00  0.93800000000E+00  0.93800000000E+00 0. -1.
         11    1    1    2    0    0 -0.14560993228E+00 -0.53202436893E-01  0.45919039023E+00  0.48465330626E+00  0.51100000000E-03 0.  1.
    9000002    1    1    2    0    0 -0.65620142636E-01 -0.22970633389E+00  0.76357908074E-01  0.97095083968E+00  0.93800000000E+00 0. -1.
         22    1    1    2    0    0  0.21123007492E+00  0.28290877078E+00  0.34644516691E+01  0.34823958541E+01  0.00000000000E+00 0.  1.
</event>
<event>
 5    1  0.6172503E+001  0.1456932E+01  0.7818608E-02  0.3524961E+00
         11   -1    0    0    0    0  0.00000000000E+00  0.00000000000E+00  0.39999999674E+01  0.40000000000E+01  0.51100000000E-03 0.  1.
    9000002   -1    0    0    0    0 -0.00000000000E+00 -0.00000000000E+00  0.00000000000E+00  0.93800000000E+00  0.93800000000E+00 0.  1.
         11    1    1    2    0    0 -0.23666253228E+00 -0.15131048926E+00  0.26109692178E+00  0.38350473534E+00  0.51100000000E-03 0.  1.
    9000002    1    1    2    0    0  0.52974383556E+00 -0.24003398605E+00  0.39070210141E+00  0.11707847701E+01  0.93800000000E+00 0.  1.
         22    1    1    2    0    0 -0.29308130328E+00  0.39134447530E+00  0.33482009442E+01  0.33837104946E+01  0.00000000000E+00 0.  1.
</event>
<event>
 5    1  0.6172503E+001  0.1599665E+01  0.7818608E-02  0.3353727E+00
         11   -1    0    0    0    0  0.00000000000E+00  0.00000000000E+00  0.39999999674E+01  0.40000000000E+01  0.51100000000E-03 0. -1.
    9000002   -1    0    0    0    0 -0.00000000000E+00 -0.00000000000E+00  0.00000000000E+00  0.93800000000E+00  0.93800000000E+00 0. -1.
         11    1    1    2    0    0  0.96971921169E-02 -0.61758123929E-01  0.67882534334E+00  0.68169803381E+00  0.51100000000E-03 0. -1.
    9000002    1    1    2    0    0 -0.62934486014E-01  0.37154598019E+00  0.95521244943E-01  0.10153696239E+01  0.93800000000E+00 0. -1.
         22    1    1    2    0    0  0.53237293897E-01 -0.30978785626E+00  0.32256533791E+01  0.32409323423E+01  0.00000000000E+00 0. -1.
</event>
<event>
 5    1  0.6172503E+001  0.1487577E+01  0.7818608E-02  0.3485216E+00
         11   -1    0    0    0    0  0.00000000000E+00  0.00000000000E+00  0.39999999674E+01  0.40000000000E+01  0.51100000000E-03 0.  1.
    9000002   -1    0    0    0    0 -0.00000000000E+00 -0.00000000000E+00  0.00000000000E+00  0.93800000000E+00  0.93800000000E+00 0. -1.
         11    1    1    2    0    0  0.93795303933E-01 -0.42056530335E+00  0.13060575021E+01  0.13753033095E+01  0.51100000000E-03 0.  1.
    9000002    1    1    2    0    0 -0.34225776883E+00  0.10933684147E+00  0.18377266126E+00  0.10211323696E+01  0.93800000000E+00 0. -1.
         22    1    1    2    0    0  0.24846246490E+00  0.31122846188E+00  0.25101698040E+01  0.25415643209E+01  0.00000000000E+00 0.  1.
</event>
<event>
 5    1  0.6172503E+001  0.1599674E+01  0.7818608E-02  0.3353717E+00
         11   -1    0    0    0    0  0.00000000000E+00  0.00000000000E+00  0.39999999674E+01  0.40000000000E+01  0.51100000000E-03 0. -1.
    9000002   -1    0    0    0    0 -0.00000000000E+00 -0.00000000000E+00  0.00000000000E+00  0.93800000000E+00  0.93800000000E+00 0.  1.
         11    1    1    2    0    0 -0.58387417666E-01  0.28124541735E-01  0.64253860957E+00  0.64579888998E+00  0.51100000000E-03 0. -1.
    9000002    1    1    2    0    0  0.35417178361E+00 -0.16142505096E+00  0.10205033132E+00  0.10206634947E+01  0.93800000000E+00 0.  1.
         22    1    1    2    0    0 -0.29578436594E+00  0.13330050922E+00  0.32554110265E+01  0.32715376153E+01  0.00000000000E+00 0. -1.
</event>
<event>
 5    1  0.6172503E+001  0.1599612E+01  0.7818608E-02  0.3353785E+00
         11   -1    0    0    0    0  0.00000000000E+00  0.00000000000E+00  0.39999999674E+01  0.40000000000E+01  0.51100000000E-03 0. -1.
    9000002   -1    0    0    0    0 -0.00000000000E+00 -0.00000000000E+00  0.00000000000E+00  0.93800000000E+00  0.93800000000E+00 0.  1.
         11    1    1    2    0    0 -0.12801681987E-01  0.13920886852E+00  0.13985216820E+01  0.14054914259E+01  0.51100000000E-03 0. -1.
    9000002    1    1    2    0    0  0.50837732145E-01 -0.40783861448E+00  0.11415582482E+00  0.10304330948E+01  0.93800000000E+00 0.  1.
         22    1    1    2    0    0 -0.38036050158E-01  0.26862974597E+00  0.24873224605E+01  0.25020754793E+01  0.00000000000E+00 0. -1.
</event>
<event>
 5    1  0.6172503E+001  0.1598711E+01  0.7818608E-02  0.3354764E+00
         11   -1    0    0    0    0  0.00000000000E+00  0.00000000000E+00  0.39999999674E+01  0.40000000000E+01  0.51100000000E-03 0.  1.
    9000002   -1    0    0    0    0 -0.00000000000E+00 -0.00000000000E+00  0.00000000000E+00  0.93800000000E+00  0.93800000000E+00 0. -1.
         11    1    1    2    0    0  0.19519441970E+00  0.56375904743E-01  0.14319600657E+01  0.14463018340E+01  0.51100000000E-03 0.  1.
    9000002    1    1    2    0    0 -0.44706640844E+00 -0.93548433852E-01  0.14267322397E+00  0.10530049059E+01  0.93800000000E+00 0. -1.
         22    1    1    2    0    0  0.25187198874E+00  0.37172529109E-01  0.24253666777E+01  0.24386932601E+01  0.00000000000E+00 0. -1.
</event>
<event>
 5    1  0.6172503E+001  0.1599360E+01  0.7818608E-02  0.3354058E+00
         11   -1    0    0    0    0  0.00000000000E+00  0.00000000000E+00  0.39999999674E+01  0.40000000000E+01  0.51100000000E-03 0.  1.
    9000002   -1    0    0    0    0 -0.00000000000E+00 -0.00000000000E+00  0.00000000000E+00  0.93800000000E+00  0.93800000000E+00 0.  1.
         11    1    1    2    0    0 -0.63148075980E-01  0.85902013903E-01  0.97541184530E+00  0.98122136369E+00  0.51100000000E-03 0.  1.
    9000002    1    1    2    0    0  0.17838279062E+00 -0.33890208740E+00  0.98985348534E-01  0.10179966326E+01  0.93800000000E+00 0.  1.
         22    1    1    2    0    0 -0.11523471464E+00  0.25300007350E+00  0.29256027735E+01  0.29387820037E+01  0.00000000000E+00 0.  1.
</event>
<event>
 5    1  0.6172503E+001  0.1599625E+01  0.7818608E-02  0.3353771E+00
         11   -1    0    0    0    0  0.00000000000E+00  0.00000000000E+00  0.39999999674E+01  0.40000000000E+01  0.51100000000E-03 0. -1.
    9000002   -1    0    0    0    0 -0.00000000000E+00 -0.00000000000E+00  0.00000000000E+00  0.93800000000E+00  0.93800000000E+00 0.  1.
         11    1    1    2    0    0 -0.15703153472E+00 -0.11289898919E+00  0.14367801946E+01  0.14497388293E+01  0.51100000000E-03 0. -1.
    9000002    1    1    2    0    0  0.40610162412E+00  0.28245155555E+00  0.16740719664E+00  0.10735765366E+01  0.93800000000E+00 0.  1.
         22    1    1    2    0    0 -0.24907008940E+00 -0.16955256636E+00  0.23958125762E+01  0.24146846341E+01  0.00000000000E+00 0. -1.
</event>
<event>
 5    1  0.6172503E+001  0.1599665E+01  0.7818608E-02  0.3353727E+00
         11   -1    0    0    0    0  0.00000000000E+00  0.00000000000E+00  0.39999999674E+01  0.40000000000E+01  0.51100000000E-03 0.  1.
    9000002   -1    0    0    0    0 -0.00000000000E+00 -0.00000000000E+00  0.00000000000E+00  0.93800000000E+00  0.93800000000E+00 0.  1.
         11    1    1    2    0    0 -0.10416285879E+00  0.49285353128E-01  0.12397957407E+01  0.12451396255E+01  0.51100000000E-03 0.  1.
    9000002    1    1    2    0    0  0.33813638324E+00 -0.14812088745E+00  0.91583346714E-01  0.10121795890E+01  0.93800000000E+00 0.  1.
         22    1    1    2    0    0 -0.23397352444E+00  0.98835534324E-01  0.26686208799E+01  0.26806807855E+01  0.00000000000E+00 0.  1.
</event>
<event>
 5    1  0.6172503E+001  0.1571949E+01  0.7818608E-02  0.3384383E+00
         11   -1    0    0    0    0  0.00000000000E+00  0.00000000000E+00  0.39999999674E+01  0.40000000000E+01  0.51100000000E-03 0. -1.
    9000002   -1    0    0    0    0 -0.00000000000E+00 -0.00000000000E+00  0.00000000000E+00  0.93800000000E+00  0.93800000000E+00 0.  1.
         11    1    1    2    0    0  0.81703030835E-01  0.12295002943E+00  0.10868651120E+01  0.10968446233E+01  0.51100000000E-03 0. -1.
    9000002    1    1    2    0    0  0.21646364357E+00 -0.47349253850E-01  0.53794120326E-01  0.96531666732E+00  0.93800000000E+00 0.  1.
         22    1    1    2    0    0 -0.29816667441E+00 -0.75600775583E-01  0.28593407351E+01  0.28758387093E+01  0.00000000000E+00 0. -1.
</event>
<event>
 5    1  0.6172503E+001  0.1599671E+01  0.7818608E-02  0.3353720E+00
         11   -1    0    0    0    0  0.00000000000E+00  0.00000000000E+00  0.39999999674E+01  0.40000000000E+01  0.51100000000E-03 0. -1.
    9000002   -1    0    0    0    0 -0.00000000000E+00 -0.00000000000E+00  0.00000000000E+00  0.93800000000E+00  0.93800000000E+00 0.  1.
         11    1    1    2    0    0 -0.74739040172E-02 -0.17995366552E-01  0.22294727416E+00  0.22379776727E+00  0.51100000000E-03 0.  1.
    9000002    1    1    2    0    0  0.14133604410E+00  0.33573790699E+00  0.89122127649E-01  0.10101893749E+01  0.93800000000E+00 0.  1.
         22    1    1    2    0    0 -0.13386214008E+00 -0.31774254044E+00  0.36879305656E+01  0.37040128578E+01  0.00000000000E+00 0. -1.
</event>
<event>
 5    1  0.6172503E+001  0.1599604E+01  0.7818608E-02  0.3353794E+00
         11   -1    0    0    0    0  0.00000000000E+00  0.00000000000E+00  0.39999999674E+01  0.40000000000E+01  0.51100000000E-03 0. -1.
    9000002   -1    0    0    0    0 -0.00000000000E+00 -0.00000000000E+00  0.00000000000E+00  0.93800000000E+00  0.93800000000E+00 0. -1.
         11    1    1    2    0    0  0.10767820610E+00 -0.43454668864E-02  0.11201623244E+01  0.11253343385E+01  0.51100000000E-03 0. -1.
    9000002    1    1    2    0    0 -0.36144633467E+00  0.44331653493E-01  0.89117281446E-01  0.10101458500E+01  0.93800000000E+00 0. -1.
         22    1    1    2    0    0  0.25376812857E+00 -0.39986186607E-01  0.27907203615E+01  0.28025198115E+01  0.00000000000E+00 0. -1.
</event>
<event>
 5    1  0.6172503E+001  0.1599677E+01  0.7818608E-02  0.3353714E+00
         11   -1    0    0    0    0  0.00000000000E+00  0.00000000000E+00  0.39999999674E+01  0.40000000000E+01  0.51100000000E-03 0.  1.
    9000002   -1    0    0    0    0 -0.00000000000E+00 -0.00000000000E+00  0.00000000000E+00  0.93800000000E+00  0.93800000000E+00 0.  1.
         11    1    1    2    0    0  0.12801336590E+00  0.13148898891E-01  0.12749580467E+01  0.12814361464E+01  0.51100000000E-03 0. -1.
    9000002    1    1    2    0    0 -0.39065549884E+00 -0.40918402800E-01  0.10397385545E+00  0.10222233597E+01  0.93800000000E+00 0.  1.
         22    1    1    2    0    0  0.26264213293E+00  0.27769503909E-01  0.26210680653E+01  0.26343404939E+01  0.00000000000E+00 0.  1.
</event>
<event>
 5    1  0.6172503E+001  0.1543236E+01  0.7818608E-02  0.3417375E+00
         11   -1    0    0    0    0  0.00000000000E+00  0.00000000000E+00  0.39999999674E+01  0.40000000000E+01  0.51100000000E-03 0. -1.
    9000002   -1    0    0    0    0 -0.00000000000E+00 -0.00000000000E+00  0.00000000000E+00  0.93800000000E+00  0.93800000000E+00 0. -1.
         11    1    1    2    0    0 -0.26533079147E+00  0.37500341441E-01  0.11200373253E+01  0.11516468972E+01  0.51100000000E-03 0. -1.
    9000002    1    1    2    0    0  0.24129754010E-01 -0.12916105500E+00  0.54065459590E-01  0.94870010914E+00  0.93800000000E+00 0. -1.
         22    1    1    2    0    0  0.24120103746E+00  0.91660713563E-01  0.28258971824E+01  0.28376529937E+01  0.00000000000E+00 0. -1.
</event>
<event>
 5    1  0.6172503E+001  0.1599474E+01  0.7818608E-02  0.3353935E+00
         11   -1    0    0    0    0  0.00000000000E+00  0.00000000000E+00  0.39999999674E+01  0.40000000000E+01  0.51100000000E-03 0.  1.
    9000002   -1    0    0    0    0 -0.00000000000E+00 -0.00000000000E+00  0.00000000000E+00  0.93800000000E+00  0.93800000000E+00 0. -1.
         11    1    1    2    0    0  0.20900286116E+00 -0.18816839250E+00  0.14303917850E+01  0.14577758606E+01  0.51100000000E-03 0.  1.
    9000002    1    1    2    0    0 -0.54053407048E+00  0.43821670130E+00  0.34589597868E+00  0.12180718315E+01  0.93800000000E+00 0. -1.
         22    1    1    2    0    0  0.33153120933E+00 -0.25004830880E+00  0.22237122037E+01  0.22621523079E+01  0.00000000000E+00 0.  1.
</event>
<event>
 5    1  0.6207738E+001  0.1599672E+01  0.7818608E-02  0.3353719E+00
         11   -1    0    0    0    0  0.00000000000E+00  0.00000000000E+00  0.39999999674E+01  0.40000000000E+01  0.51100000000E-03 0. -1.
    9000002   -1    0    0    0    0 -0.00000000000E+00 -0.00000000000E+00  0.00000000000E+00  0.93800000000E+00  0.93800000000E+00 0.  1.
         11    1    1    2    0    0  0.51379919367E-01 -0.13219802283E+00  0.14364303998E+01  0.14434156601E+01  0.51100000000E-03 0. -1.
    9000002    1    1    2    0    0 -0.14232085865E+00  0.36497639926E+00  0.10340958439E+00  0.10217634467E+01  0.93800000000E+00 0.  1.
         22    1    1    2    0    0  0.90940939280E-01 -0.23277837643E+00  0.24601599832E+01  0.24728208932E+01  0.00000000000E+00 0. -1.
</event>
<event>
 5    1  0.6172503E+001  0.1590937E+01  0.7818608E-02  0.3363259E+00
         11   -1    0    0    0    0  0.00000000000E+00  0.00000000000E+00  0.39999999674E+01  0.40000000000E+01  0.51100000000E-03 0. -1.
    9000002   -1    0    0    0    0 -0.00000000000E+00 -0.00000000000E+00  0.00000000000E+00  0.93800000000E+00  0.93800000000E+00 0.  1.
         11    1    1    2    0    0 -0.10958286735E+00  0.86149390974E-03  0.14564705374E+01  0.14605874963E+01  0.51100000000E-03 0. -1.
    9000002    1    1    2    0    0  0.32865801977E+00  0.28517157778E+00  0.13581954485E+00  0.10428949475E+01  0.93800000000E+00 0.  1.
         22    1    1    2    0    0 -0.21907515243E+00 -0.28603307169E+00  0.24077098851E+01  0.24345175562E+01  0.00000000000E+00 0.  1.
</event>
<event>
 5    1  0.6172503E+001  0.1584484E+01  0.7818608E-02  0.3370378E+00
         11   -1    0    0    0    0  0.00000000000E+00  0.00000000000E+00  0.39999999674E+01  0.40000000000E+01  0.51100000000E-03 0.  1.
    9000002   -1    0    0    0    0 -0.00000000000E+00 -0.00000000000E+00  0.00000000000E+00  0.93800000000E+00  0.93800000000E+00 0. -1.
         11    1    1    2    0    0 -0.61338672986E-01  0.13450638142E-01  0.40836957401E+00  0.41316984712E+00  0.51100000000E-03 0.  1.
    9000002    1    1    2    0    0 -0.26265673782E+00  0.47494459552E-01  0.59182690708E-01  0.97703166606E+00  0.93800000000E+00 0. -1.
         22    1    1    2    0    0  0.32399541081E+00 -0.60945097694E-01  0.35324477026E+01  0.35477984868E+01  0.00000000000E+00 0.  1.
</event>
<event>
 5    1  0.6172503E+001  0.1599677E+01  0.7818608E-02  0.3353714E+00
         11   -1    0    0    0    0  0.00000000000E+00  0.00000000000E+00  0.39999999674E+01  0.40000000000E+01  0.51100000000E-03 0. -1.
    9000002   -1    0    0    0    0 -0.00000000000E+00 -0.00000000000E+00  0.00000000000E+00  0.93800000000E+00  0.93800000000E+00 0.  1.
         11    1    1    2    0    0 -0.11406790869E+00 -0.77542769217E-01  0.13026121171E+01  0.13098942544E+01  0.51100000000E-03 0.  1.
    9000002    1    1    2    0    0  0.33900981158E+00  0.23120018223E+00  0.11372975515E+00  0.10301260281E+01  0.93800000000E+00 0.  1.
         22    1    1    2    0    0 -0.22494190289E+00 -0.15365741301E+00  0.25836580951E+01  0.25979797175E+01  0.00000000000E+00 0. -1.
</event>
<event>
 5    1  0.6172503E+001  0.1509755E+01  0.7818608E-02  0.3457540E+00
         11   -1    0    0    0    0  0.00000000000E+00  0.00000000000E+00  0.39999999674E+01  0.40000000000E+01  0.51100000000E-03 0. -1.
    9000002   -1    0    0    0    0 -0.00000000000E+00 -0.00000000000E+00  0.00000000000E+00  0.93800000000E+00  0.93800000000E+00 0. -1.
         11    1    1    2    0    0 -0.17528810006E+00  0.26309270068E+00  0.29852144387E+00  0.43480915439E+00  0.51100000000E-03 0. -1.
    9000002    1    1    2    0    0 -0.38119947891E+00 -0.11495939265E+00  0.31280702809E+00  0.10659366499E+01  0.93800000000E+00 0. -1.
         22    1    1    2    0    0  0.55648757897E+00 -0.14813330802E+00  0.33886714954E+01  0.34372541958E+01  0.00000000000E+00 0. -1.
</event>
<event>
 5    1  0.6172503E+001  0.1599653E+01  0.7818608E-02  0.3353741E+00
         11   -1    0    0    0    0  0.00000000000E+00  0.00000000000E+00  0.39999999674E+01  0.40000000000E+01  0.51100000000E-03 0. -1.
    9000002   -1    0    0    0    0 -0.00000000000E+00 -0.00000000000E+00  0.00000000000E+00  0.93800000000E+00  0.93800000000E+00 0. -1.
         11    1    1    2    0    0  0.18484358866E-01  0.95314952024E-02  0.22404257961E+00  0.22500635441E+00  0.51100000000E-03 0. -1.
    9000002    1    1    2    0    0 -0.30799884742E+00 -0.21159660636E+00  0.93901836931E-01  0.10140502792E+01  0.93800000000E+00 0. -1.
         22    1    1    2    0    0  0.28951448855E+00  0.20206511116E+00  0.36820555508E+01  0.36989433664E+01  0.00000000000E+00 0. -1.
</event>
<event>
 5    1  0.6172503E+001  0.1599655E+01  0.7818608E-02  0.3353737E+00
         11   -1    0    0    0    0  0.00000000000E+00  0.00000000000E+00  0.39999999674E+01  0.40000000000E+01  0.51100000000E-03 0. -1.
    9000002   -1    0    0    0    0 -0.00000000000E+00 -0.00000000000E+00  0.00000000000E+00  0.93800000000E+00  0.93800000000E+00 0. -1.
         11    1    1    2    0    0  0.26506255010E-02  0.86090653388E-01  0.87904800553E+00  0.88325776734E+00  0.51100000000E-03 0. -1.
    9000002    1    1    2    0    0 -0.16469638019E-03 -0.36572017756E+00  0.89858704446E-01  0.10107768607E+01  0.93800000000E+00 0. -1.
         22    1    1    2    0    0 -0.24859291208E-02  0.27962952417E+00  0.30310932574E+01  0.30439653719E+01  0.00000000000E+00 0. -1.
</event>
<event>
 5    1  0.7022482E+001  0.1594870E+01  0.7818608E-02  0.3358951E+00
         11   -1    0    0    0    0  0.00000000000E+00  0.00000000000E+00  0.39999999674E+01  0.40000000000E+01  0.51100000000E-03 0.  1.
    9000002   -1    0    0    0    0 -0.00000000000E+00 -0.00000000000E+00  0.00000000000E+00  0.93800000000E+00  0.93800000000E+00 0. -1.
         11    1    1    2    0    0 -0.73889480482E-01 -0.33026233981E-01  0.10689063097E+01  0.10719661130E+01  0.51100000000E-03 0.  1.
    9000002    1    1    2    0    0  0.26655881839E+00 -0.15158665490E+00  0.66554691037E-01  0.98909334469E+00  0.93800000000E+00 0. -1.
         22    1    1    2    0    0 -0.19266933791E+00  0.18461288888E+00  0.28645389666E+01  0.28769405423E+01  0.00000000000E+00 0.  1.
</event>
<event>
 5    1  0.6172503E+001  0.1530999E+01  0.7818608E-02  0.3431837E+00
         11   -1    0    0    0    0  0.00000000000E+00  0.00000000000E+00  0.39999999674E+01  0.40000000000E+01  0.51100000000E-03 0. -1.
    9000002   -1    0    0    0    0 -0.00000000000E+00 -0.00000000000E+00  0.00000000000E+00  0.93800000000E+00  0.93800000000E+00 0. -1.
         11    1    1    2    0    0  0.21992834298E-01 -0.19508368854E+00  0.41666404851E+00  0.46059800340E+00  0.51100000000E-03 0. -1.
    9000002    1    1    2    0    0 -0.26112269528E+00 -0.30378800299E-01  0.10074485610E+00  0.97933725525E+00  0.93800000000E+00 0. -1.
         22    1    1    2    0    0  0.23912986098E+00  0.22546248884E+00  0.34825910628E+01  0.34980647414E+01  0.00000000000E+00 0. -1.
</event>
<event>
 5    1  0.6172503E+001  0.1497265E+01  0.7818608E-02  0.3473017E+00
         11   -1    0    0    0    0  0.00000000000E+00  0.00000000000E+00  0.39999999674E+01  0.40000000000E+01  0.51100000000E-03 0. -1.
    9000002   -1    0    0    0    0 -0.00000000000E+00 -0.00000000000E+00  0.00000000000E+00  0.93800000000E+00  0.93800000000E+00 0.  1.
         11    1    1    2    0    0  0.22433758722E+00 -0.21811296034E-01  0.13422442315E+00  0.26233479100E+00  0.51100000000E-03 0. -1.
    9000002    1    1    2    0    0  0.26061619125E+00  0.53686275155E-01  0.22244717445E+00  0.10000648782E+01  0.93800000000E+00 0.  1.
         22    1    1    2    0    0 -0.48495377848E+00 -0.31874979122E-01  0.36433283698E+01  0.36756003308E+01  0.00000000000E+00 0. -1.
</event>
<event>
 5    1  0.6172503E+001  0.1599250E+01  0.7818608E-02  0.3354178E+00
         11   -1    0    0    0    0  0.00000000000E+00  0.00000000000E+00  0.39999999674E+01  0.40000000000E+01  0.51100000000E-03 0. -1.
    9000002   -1    0    0    0    0 -0.00000000000E+00 -0.00000000000E+00  0.00000000000E+00  0.93800000000E+00  0.93800000000E+00 0. -1.
         11    1    1    2    0    0  0.13643460602E+00  0.11899037821E-01  0.99642893012E+00  0.10057966309E+01  0.51100000000E-03 0. -1.
    9000002    1    1    2    0    0 -0.53372174946E+00 -0.12736703911E+00  0.20830857958E+00  0.11064889212E+01  0.93800000000E+00 0. -1.
         22    1    1    2    0    0  0.39728714344E+00  0.11546800129E+00  0.27952624577E+01  0.28257144479E+01  0.00000000000E+00 0. -1.
</event>
<event>
 5    1  0.6172503E+001  0.1599659E+01  0.7818608E-02  0.3353734E+00
         11   -1    0    0    0    0  0.00000000000E+00  0.00000000000E+00  0.39999999674E+01  0.40000000000E+01  0.51100000000E-03 0.  1.
    9000002   -1    0    0    0    0 -0.00000000000E+00 -0.00000000000E+00  0.00000000000E+00  0.93800000000E+00  0.93800000000E+00 0. -1.
         11    1    1    2    0    0 -0.67967019387E-01  0.93280063525E-01  0.12665047996E+01  0.12717528669E+01  0.51100000000E-03 0.  1.
    9000002    1    1    2    0    0  0.22475150518E+00 -0.28862764221E+00  0.89902683840E-01  0.10108143487E+01  0.93800000000E+00 0. -1.
         22    1    1    2    0    0 -0.15678448579E+00  0.19534757868E+00  0.26435924839E+01  0.26554327844E+01  0.00000000000E+00 0.  1.
</event>
<event>
 5    1  0.6172503E+001  0.1599673E+01  0.7818608E-02  0.3353719E+00
         11   -1    0    0    0    0  0.00000000000E+00  0.00000000000E+00  0.39999999674E+01  0.40000000000E+01  0.51100000000E-03 0. -1.
    9000002   -1    0    0    0    0 -0.00000000000E+00 -0.00000000000E+00  0.00000000000E+00  0.93800000000E+00  0.93800000000E+00 0. -1.
         11    1    1    2    0    0  0.11312659434E+00  0.12764757361E+00  0.12642382601E+01  0.12756920352E+01  0.51100000000E-03 0. -1.
    9000002    1    1    2    0    0 -0.34085886780E+00 -0.37889181578E+00  0.17810488999E+00  0.10822703579E+01  0.93800000000E+00 0. -1.
         22    1    1    2    0    0  0.22773227346E+00  0.25124424217E+00  0.25576568173E+01  0.25800376068E+01  0.00000000000E+00 0. -1.
</event>
<event>
 5    1  0.6172503E+001  0.1599673E+01  0.7818608E-02  0.3353718E+00
         11   -1    0    0    0    0  0.00000000000E+00  0.00000000000E+00  0.39999999674E+01  0.40000000000E+01  0.51100000000E-03 0.  1.
    9000002   -1    0    0    0    0 -0.00000000000E+00 -0.00000000000E+00  0.00000000000E+00  0.93800000000E+00  0.93800000000E+00 0.  1.
         11    1    1    2    0    0  0.33851498506E-01  0.73513806946E-01  0.81335904177E+00  0.81737592069E+00  0.51100000000E-03 0.  1.
    9000002    1    1    2    0    0 -0.16270039117E+00 -0.36077920256E+00  0.10559810314E+00  0.10235370094E+01  0.93800000000E+00 0.  1.
         22    1    1    2    0    0  0.12884889267E+00  0.28726539562E+00  0.30810428225E+01  0.30970870699E+01  0.00000000000E+00 0.  1.
</event>
<event>
 5    1  0.7774628E+001  0.1552869E+01  0.7818608E-02  0.3406163E+00
         11   -1    0    0    0    0  0.00000000000E+00  0.00000000000E+00  0.39999999674E+01  0.40000000000E+01  0.51100000000E-03 0.  1.
    9000002   -1    0    0    0    0 -0.00000000000E+00 -0.00000000000E+00  0.00000000000E+00  0.93800000000E+00  0.93800000000E+00 0.  1.
         11    1    1    2    0    0  0.11405379980E+00 -0.18841595723E+00  0.13373800234E+01  0.13553945663E+01  0.51100000000E-03 0.  1.
    9000002    1    1    2    0    0 -0.56323131015E-02 -0.91431844102E-01  0.40464153699E-01  0.94333072292E+00  0.93800000000E+00 0.  1.
         22    1    1    2    0    0 -0.10842148670E+00  0.27984780133E+00  0.26221557902E+01  0.26392747108E+01  0.00000000000E+00 0.  1.
</event>
<event>
 5    1  0.6172503E+001  0.1573278E+01  0.7818608E-02  0.3382887E+00
         11   -1    0    0    0    0  0.00000000000E+00  0.00000000000E+00  0.39999999674E+01  0.40000000000E+01  0.51100000000E-03 0. -1.
    9000002   -1    0    0    0    0 -0.00000000000E+00 -0.00000000000E+00  0.00000000000E+00  0.93800000000E+00  0.93800000000E+00 0.  1.
         11    1    1    2    0    0  0.13854627069E+00  0.42847050031E-01  0.14283047633E+01  0.14356481800E+01  0.51100000000E-03 0. -1.
    9000002    1    1    2    0    0  0.23945334962E-01  0.20431635640E+00  0.48117101845E-01  0.96149769009E+00  0.93800000000E+00 0.  1.
         22    1    1    2    0    0 -0.16249160565E+00 -0.24716340643E+00  0.25235781022E+01  0.25408541299E+01  0.00000000000E+00 0. -1.
</event>
<event>
 5    1  0.6172503E+001  0.1599676E+01  0.7818608E-02  0.3353715E+00
         11   -1    0    0    0    0  0.00000000000E+00  0.00000000000E+00  0.39999999674E+01  0.40000000000E+01  0.51100000000E-03 0. -1.
    9000002   -1    0    0    0    0 -0.00000000000E+00 -0.00000000000E+00  0.00000000000E+00  0.93800000000E+00  0.93800000000E+00 0. -1.
         11    1    1    2    0    0  0.13539914998E-01 -0.20184860119E-01  0.19497631291E+00  0.19648608499E+00  0.51100000000E-03 0.  1.
    9000002    1    1    2    0    0 -0.26228461930E+00  0.39232031507E+00  0.15176552491E+00  0.10609360139E+01  0.93800000000E+00 0. -1.
         22    1    1    2    0    0  0.24874470430E+00 -0.37213545496E+00  0.36532581295E+01  0.36805779011E+01  0.00000000000E+00 0. -1.
</event>
<event>
 5    1  0.6172503E+001  0.1599677E+01  0.7818608E-02  0.3353714E+00
         11   -1    0    0    0    0  0.00000000000E+00  0.00000000000E+00  0.39999999674E+01  0.40000000000E+01  0.51100000000E-03 0.  1.
    9000002   -1    0    0    0    0 -0.00000000000E+00 -0.00000000000E+00  0.00000000000E+00  0.93800000000E+00  0.93800000000E+00 0. -1.
         11    1    1    2    0    0 -0.35763025748E-02  0.37412331211E-01  0.35329161846E+00  0.35528538003E+00  0.51100000000E-03 0. -1.
    9000002    1    1    2    0    0  0.40606639353E-01 -0.41226483523E+00  0.11597200201E+00  0.10319421974E+01  0.93800000000E+00 0. -1.
         22    1    1    2    0    0 -0.37030336778E-01  0.37485250402E+00  0.35307363469E+01  0.35507724226E+01  0.00000000000E+00 0.  1.
</event>
<event>
 5    1  0.6172503E+001  0.1595714E+01  0.7818608E-02  0.3358028E+00
         11   -1    0    0    0    0  0.00000000000E+00  0.00000000000E+00  0.39999999674E+01  0.40000000000E+01  0.51100000000E-03 0.  1.
    9000002   -1    0    0    0    0 -0.00000000000E+00 -0.00000000000E+00  0.00000000000E+00  0.93800000000E+00  0.93800000000E+00 0.  1.
         11    1    1    2    0    0 -0.14027377687E+00 -0.57477246265E-01  0.14703421209E+01  0.14781361845E+01  0.51100000000E-03 0.  1.
    9000002    1    1    2    0    0  0.46965299659E+00  0.30494870313E+00  0.22078363510E+00  0.11145210013E+01  0.93800000000E+00 0.  1.
         22    1    1    2    0    0 -0.32937921972E+00 -0.24747145687E+00  0.23088742113E+01  0.23453428142E+01  0.00000000000E+00 0.  1.
</event>
<event>
 5    1  0.6172503E+001  0.1588598E+01  0.7818608E-02  0.3365832E+00
         11   -1    0    0    0    0  0.00000000000E+00  0.00000000000E+00  0.39999999674E+01  0.40000000000E+01  0.51100000000E-03 0. -1.
    9000002   -1    0    0    0    0 -0.00000000000E+00 -0.00000000000E+00  0.00000000000E+00  0.93800000000E+00  0.93800000000E+00 0. -1.
         11    1    1    2    0    0  0.32655611740E-01 -0.18043279469E+00  0.64991070589E+00  0.67528258465E+00  0.51100000000E-03 0. -1.
    9000002    1    1    2    0    0  0.56212726586E-01  0.54198494233E+00  0.21535641006E+00  0.11059520476E+01  0.93800000000E+00 0. -1.
         22    1    1    2    0    0 -0.88868338326E-01 -0.36155214764E+00  0.31347328514E+01  0.31567653677E+01  0.00000000000E+00 0. -1.
</event>
<event>
 5    1  0.6172503E+001  0.1599675E+01  0.7818608E-02  0.3353717E+00
         11   -1    0    0    0    0  0.00000000000E+00  0.00000000000E+00  0.39999999674E+01  0.40000000000E+01  0.51100000000E-03 0. -1.
    9000002   -1    0    0    0    0 -0.00000000000E+00 -0.00000000000E+00  0.00000000000E+00  0.93800000000E+00  0.93800000000E+00 0. -1.
         11    1    1    2    0    0  0.14776137288E+00  0.44559497973E-01  0.13022460944E+01  0.13113596470E+01  0.51100000000E-03 0.  1.
    9000002    1    1    2    0    0 -0.43296569675E+00 -0.13294793701E+00  0.13938628855E+00  0.10509076962E+01  0.93800000000E+00 0. -1.
         22    1    1    2    0    0  0.28520432387E+00  0.88388439039E-01  0.25583675844E+01  0.25757326568E+01  0.00000000000E+00 0. -1.
</event>
<event>
 5    1  0.6172503E+001  0.1599676E+01  0.7818608E-02  0.3353715E+00
         11   -1    0    0    0    0  0.00000000000E+00  0.00000000000E+00  0.39999999674E+01  0.40000000000E+01  0.51100000000E-03 0.  1.
    9000002   -1    0    0    0    0 -0.00000000000E+00 -0.00000000000E+00  0.00000000000E+00  0.93800000000E+00  0.93800000000E+00 0.  1.
         11    1    1    2    0    0 -0.14809458047E+00 -0.90789184195E-01  0.10873232877E+01  0.11011116537E+01  0.51100000000E-03 0.  1.
    9000002    1    1    2    0    0  0.50716246199E+00  0.31298112489E+00  0.24759066345E+00  0.11385587749E+01  0.93800000000E+00 0.  1.
         22    1    1    2    0    0 -0.35906788152E+00 -0.22219194069E+00  0.26650860162E+01  0.26983295714E+01  0.00000000000E+00 0.  1.
</event>
<event>
 5    1  0.6172503E+001  0.1639152E+01  0.7818608E-02  0.3311936E+00
         11   -1    0    0    0    0  0.00000000000E+00  0.00000000000E+00  0.39999999674E+01  0.40000000000E+01  0.51100000000E-03 0. -1.
    9000002   -1    0    0    0    0 -0.00000000000E+00 -0.00000000000E+00  0.00000000000E+00  0.93800000000E+00  0.93800000000E+00 0.  1.
         11    1    1    2    0    0  0.42615843212E+00 -0.45252851467E-01  0.29330387398E+00  0.51931325176E+00  0.51100000000E-03 0. -1.
    9000002    1    1    2    0    0  0.33512446381E+00 -0.75334716420E+00  0.15024123688E+01  0.19536958008E+01  0.93800000000E+00 0.  1.
         22    1    1    2    0    0 -0.76128289593E+00  0.79860001567E+00  0.22042837246E+01  0.24649909475E+01  0.00000000000E+00 0. -1.
</event>
<event>
 5    1  0.6172503E+001  0.1594132E+01  0.7818608E-02  0.3359757E+00
         11   -1    0    0    0    0  0.00000000000E+00  0.00000000000E+00  0.39999999674E+01  0.40000000000E+01  0.51100000000E-03 0. -1.
    9000002   -1    0    0    0    0 -0.00000000000E+00 -0.00000000000E+00  0.00000000000E+00  0.93800000000E+00  0.93800000000E+00 0.  1.
         11    1    1    2    0    0  0.17132859656E+00 -0.23229353257E-02  0.13067517891E+01  0.13179375491E+01  0.51100000000E-03 0. -1.
    9000002    1    1    2    0    0 -0.35363795351E+00 -0.19097563600E+00  0.11361748930E+00  0.10267835359E+01  0.93800000000E+00 0.  1.
         22    1    1    2    0    0  0.18230935695E+00  0.19329857133E+00  0.25796306890E+01  0.25932789150E+01  0.00000000000E+00 0. -1.
</event>
<event>
 5    1  0.6172503E+001  0.1599677E+01  0.7818608E-02  0.3353714E+00
         11   -1    0    0    0    0  0.00000000000E+00  0.00000000000E+00  0.39999999674E+01  0.40000000000E+01  0.51100000000E-03 0.  1.
    9000002   -1    0    0    0    0 -0.00000000000E+00 -0.00000000000E+00  0.00000000000E+00  0.93800000000E+00  0.93800000000E+00 0. -1.
         11    1    1    2    0    0 -0.11994807060E+00  0.41931282120E-01  0.12324074112E+01  0.12389407009E+01  0.51100000000E-03 0.  1.
    9000002    1    1    2    0    0  0.37851999606E+00 -0.13097492422E+00  0.10822212883E+00  0.10256645881E+01  0.93800000000E+00 0. -1.
         22    1    1    2    0    0 -0.25857192546E+00  0.89043642099E-01  0.26593704274E+01  0.26733947110E+01  0.00000000000E+00 0.  1.
</event>
<event>
 5    1  0.6172503E+001  0.1564591E+01  0.7818608E-02  0.3392715E+00
         11   -1    0    0    0    0  0.00000000000E+00  0.00000000000E+00  0.39999999674E+01  0.40000000000E+01  0.51100000000E-03 0. -1.
    9000002   -1    0    0    0    0 -0.00000000000E+00 -0.00000000000E+00  0.00000000000E+00  0.93800000000E+00  0.93800000000E+00 0.  1.
         11    1    1    2    0    0 -0.37936366885E-01 -0.25325654302E+00  0.57929698782E+00  0.63337453827E+00  0.51100000000E-03 0. -1.
    9000002    1    1    2    0    0  0.33495200741E+00  0.53777064882E+00  0.31932886354E+00  0.11760973774E+01  0.93800000000E+00 0.  1.
         22    1    1    2    0    0 -0.29701564053E+00 -0.28451410580E+00  0.31013741160E+01  0.31285280843E+01  0.00000000000E+00 0. -1.
</event>
<event>
 5    1  0.6172503E+001  0.1598878E+01  0.7818608E-02  0.3354582E+00
         11   -1    0    0    0    0  0.00000000000E+00  0.00000000000E+00  0.39999999674E+01  0.40000000000E+01  0.51100000000E-03 0. -1.
    9000002   -1    0    0    0    0 -0.00000000000E+00 -0.00000000000E+00  0.00000000000E+00  0.93800000000E+00  0.93800000000E+00 0.  1.
         11    1    1    2    0    0  0.10000112233E-01 -0.15511076780E+00  0.13355233113E+01  0.13445378867E+01  0.51100000000E-03 0. -1.
    9000002    1    1    2    0    0 -0.98199954069E-01  0.38782463706E+00  0.10862373273E+00  0.10255214749E+01  0.93800000000E+00 0.  1.
         22    1    1    2    0    0  0.88199841837E-01 -0.23271386926E+00  0.25558529233E+01  0.25679406384E+01  0.00000000000E+00 0.  1.
</event>
<event>
 5    1  0.6172503E+001  0.1599677E+01  0.7818608E-02  0.3353714E+00
         11   -1    0    0    0    0  0.00000000000E+00  0.00000000000E+00  0.39999999674E+01  0.40000000000E+01  0.51100000000E-03 0.  1.
    9000002   -1    0    0    0    0 -0.00000000000E+00 -0.00000000000E+00  0.00000000000E+00  0.93800000000E+00  0.93800000000E+00 0.  1.
         11    1    1    2    0    0 -0.31733398434E-02 -0.14185866204E+00  0.13235807398E+01  0.13311649733E+01  0.51100000000E-03 0.  1.
    9000002    1    1    2    0    0  0.75884746176E-02  0.41642197243E+00  0.11725963475E+00  0.10329853174E+01  0.93800000000E+00 0.  1.
         22    1    1    2    0    0 -0.44151347742E-02 -0.27456331039E+00  0.25591595928E+01  0.25738497093E+01  0.00000000000E+00 0.  1.
</event>
<event>
 5    1  0.6172503E+001  0.1586985E+01  0.7818608E-02  0.3367611E+00
         11   -1    0    0    0    0  0.00000000000E+00  0.00000000000E+00  0.39999999674E+01  0.40000000000E+01  0.51100000000E-03 0.  1.
    9000002   -1    0    0    0    0 -0.00000000000E+00 -0.00000000000E+00  0.00000000000E+00  0.93800000000E+00  0.93800000000E+00 0. -1.
         11    1    1    2    0    0  0.49849594701E-01  0.13510779161E-01  0.73341037098E+00  0.73522687425E+00  0.51100000000E-03 0.  1.
    9000002    1    1    2    0    0  0.17893285272E+00  0.27576166781E+00  0.82452754180E-01  0.99734844457E+00  0.93800000000E+00 0. -1.
         22    1    1    2    0    0 -0.22878244742E+00 -0.28927244697E+00  0.31841368422E+01  0.32054246812E+01  0.00000000000E+00 0.  1.
</event>
<event>
 5    1  0.6172503E+001  0.1599605E+01  0.7818608E-02  0.3353792E+00
         11   -1    0    0    0    0  0.00000000000E+00  0.00000000000E+00  0.39999999674E+01  0.40000000000E+01  0.51100000000E-03 0.  1.
    9000002   -1    0    0    0    0 -0.00000000000E+00 -0.00000000000E+00  0.00000000000E+00  0.93800000000E+00  0.93800000000E+00 0.  1.
         11    1    1    2    0    0 -0.26705314942E-01  0.90021709410E-01  0.36894300013E+00  0.38070497827E+00  0.51100000000E-03 0.  1.
    9000002    1    1    2    0    0  0.29501968312E+00 -0.85388921771E+00  0.62574902798E+00  0.14448422944E+01  0.93800000000E+00 0.  1.
         22    1    1    2    0    0 -0.26831436818E+00  0.76386750830E+00  0.30053079393E+01  0.31124527274E+01  0.00000000000E+00 0.  1.
</event>
<event>
 5    1  0.6172503E+001  0.1599585E+01  0.7818608E-02  0.3353814E+00
         11   -1    0    0    0    0  0.00000000000E+00  0.00000000000E+00  0.39999999674E+01  0.40000000000E+01  0.51100000000E-03 0. -1.
    9000002   -1    0    0    0    0 -0.00000000000E+00 -0.00000000000E+00  0.00000000000E+00  0.93800000000E+00  0.93800000000E+00 0.  1.
         11    1    1    2    0    0 -0.62243746058E-01  0.67925334687E-01  0.59836177814E+00  0.60541325859E+00  0.51100000000E-03 0. -1.
    9000002    1    1    2    0    0  0.37650796362E+00 -0.47641870482E+00  0.25775840864E+00  0.11467416563E+01  0.93800000000E+00 0.  1.
         22    1    1    2    0    0 -0.31426421756E+00  0.40849337013E+00  0.31438797806E+01  0.31858450852E+01  0.00000000000E+00 0. -1.
</event>
<event>
 5    1  0.6172503E+001  0.1585842E+01  0.7818608E-02  0.3368875E+00
         11   -1    0    0    0    0  0.00000000000E+00  0.00000000000E+00  0.39999999674E+01  0.40000000000E+01  0.51100000000E-03 0.  1.
    9000002   -1    0    0    0    0 -0.00000000000E+00 -0.00000000000E+00  0.00000000000E+00  0.93800000000E+00  0.93800000000E+00 0.  1.
         11    1    1    2    0    0  0.38502828430E-01 -0.66356039017E-02  0.37779550639E+00  0.37981074867E+00  0.51100000000E-03 0.  1.
    9000002    1    1    2    0    0  0.26496330540E+00 -0.48089880519E+00  0.22135316769E+00  0.11091935985E+01  0.93800000000E+00 0.  1.
         22    1    1    2    0    0 -0.30346613383E+00  0.48753440909E+00  0.34008512933E+01  0.34489956529E+01  0.00000000000E+00 0.  1.
</event>
<event>
 5    1  0.6172503E+001  0.1598578E+01  0.7818608E-02  0.3354908E+00
         11   -1    0    0    0    0  0.00000000000E+00  0.00000000000E+00  0.39999999674E+01  0.40000000000E+01  0.51100000000E-03 0. -1.
    9000002   -1    0    0    0    0 -0.00000000000E+00 -0.00000000000E+00  0.00000000000E+00  0.93800000000E+00  0.93800000000E+00 0. -1.
         11    1    1    2    0    0  0.11046317092E-01  0.13539295874E+00  0.98907423505E+00  0.99835934310E+00  0.51100000000E-03 0. -1.
    9000002    1    1    2    0    0 -0.69950983513E-01 -0.39758110969E+00  0.11089169617E+00  0.10271829667E+01  0.93800000000E+00 0. -1.
         22    1    1    2    0    0  0.58904666421E-01  0.26218815094E+00  0.29000340361E+01  0.29124576902E+01  0.00000000000E+00 0. -1.
</event>
<event>
 5    1  0.6172503E+001  0.1599672E+01  0.7818608E-02  0.3353719E+00
         11   -1    0    0    0    0  0.00000000000E+00  0.00000000000E+00  0.39999999674E+01  0.40000000000E+01  0.51100000000E-03 0.  1.
    9000002   -1    0    0    0    0 -0.00000000000E+00 -0.00000000000E+00  0.00000000000E+00  0.93800000000E+00  0.93800000000E+00 0.  1.
         11    1    1    2    0    0  0.20668111352E+00  0.86971057342E-01  0.14116439914E+01  0.14293425297E+01  0.51100000000E-03 0.  1.
    9000002    1    1    2    0    0 -0.54490938065E+00 -0.22713232624E+00  0.24266803287E+00  0.11345691257E+01  0.93800000000E+00 0.  1.
         22    1    1    2    0    0  0.33822826713E+00  0.14016126890E+00  0.23456879431E+01  0.23740883447E+01  0.00000000000E+00 0.  1.
</event>
<event>
 5    1  0.6172503E+001  0.1598571E+01  0.7818608E-02  0.3354916E+00
         11   -1    0    0    0    0  0.00000000000E+00  0.00000000000E+00  0.39999999674E+01  0.40000000000E+01  0.51100000000E-03 0. -1.
    9000002   -1    0    0    0    0 -0.00000000000E+00 -0.00000000000E+00  0.00000000000E+00  0.93800000000E+00  0.93800000000E+00 0.  1.
         11    1    1    2    0    0  0.10537124494E-01 -0.25815501561E-01  0.27357673744E+00  0.27499447904E+00  0.51100000000E-03 0. -1.
    9000002    1    1    2    0    0  0.13743663820E+00  0.32323994350E+00  0.83625827352E-01  0.10050921200E+01  0.93800000000E+00 0.  1.
         22    1    1    2    0    0 -0.14797376270E+00 -0.29742444194E+00  0.36427974026E+01  0.36579134010E+01  0.00000000000E+00 0. -1.
</event>
<event>
 5    1  0.6172503E+001  0.1599484E+01  0.7818608E-02  0.3353923E+00
         11   -1    0    0    0    0  0.00000000000E+00  0.00000000000E+00  0.39999999674E+01  0.40000000000E+01  0.51100000000E-03 0. -1.
    9000002   -1    0    0    0    0 -0.00000000000E+00 -0.00000000000E+00  0.00000000000E+00  0.93800000000E+00  0.93800000000E+00 0.  1.
         11    1    1    2    0    0  0.29610632541E-01  0.17422357575E+00  0.10761100005E+01  0.10905244785E+01  0.51100000000E-03 0. -1.
    9000002    1    1    2    0    0 -0.73392440658E-01 -0.64385686635E+00  0.29639114664E+00  0.11779770059E+01  0.93800000000E+00 0.  1.
         22    1    1    2    0    0  0.43781808116E-01  0.46963329060E+00  0.26274988202E+01  0.26694985156E+01  0.00000000000E+00 0. -1.
</event>
<event>
 5    1  0.6172503E+001  0.1599606E+01  0.7818608E-02  0.3353791E+00
         11   -1    0    0    0    0  0.00000000000E+00  0.00000000000E+00  0.39999999674E+01  0.40000000000E+01  0.51100000000E-03 0.  1.
    9000002   -1    0    0    0    0 -0.00000000000E+00 -0.00000000000E+00  0.00000000000E+00  0.93800000000E+00  0.93800000000E+00 0.  1.
         11    1    1    2    0    0 -0.13193965826E-01 -0.28804709967E-01  0.25948876771E+00  0.26141628438E+00  0.51100000000E-03 0.  1.
    9000002    1    1    2    0    0  0.19925844275E+00  0.49684827617E+00  0.19745295237E+00  0.10979042786E+01  0.93800000000E+00 0.  1.
         22    1    1    2    0    0 -0.18606447692E+00 -0.46804356620E+00  0.35430582473E+01  0.35786794370E+01  0.00000000000E+00 0.  1.
</event>
<event>
 5    1  0.6172503E+001  0.1546035E+01  0.7818608E-02  0.3414102E+00
         11   -1    0    0    0    0  0.00000000000E+00  0.00000000000E+00  0.39999999674E+01  0.40000000000E+01  0.51100000000E-03 0. -1.
    9000002   -1    0    0    0    0 -0.00000000000E+00 -0.00000000000E+00  0.00000000000E+00  0.93800000000E+00  0.93800000000E+00 0. -1.
         11    1    1    2    0    0  0.15342414280E+00  0.13007577722E+00  0.55504427486E+00  0.59036690590E+00  0.51100000000E-03 0. -1.
    9000002    1    1    2    0    0 -0.21942377901E+00  0.16858540733E+00  0.93692652923E-01  0.98244091302E+00  0.93800000000E+00 0. -1.
         22    1    1    2    0    0  0.65999636214E-01 -0.29866118455E+00  0.33512630396E+01  0.33651921811E+01  0.00000000000E+00 0. -1.
</event>
<event>
 5    1  0.6172503E+001  0.1599674E+01  0.7818608E-02  0.3353717E+00
         11   -1    0    0    0    0  0.00000000000E+00  0.00000000000E+00  0.39999999674E+01  0.40000000000E+01  0.51100000000E-03 0. -1.
    9000002   -1    0    0    0    0 -0.00000000000E+00 -0.00000000000E+00  0.00000000000E+00  0.93800000000E+00  0.93800000000E+00 0.  1.
         11    1    1    2    0    0 -0.36409563320E-01 -0.15478059095E-01  0.36038808961E+00  0.36255353104E+00  0.51100000000E-03 0. -1.
    9000002    1    1    2    0    0  0.38504755058E+00  0.17594900189E+00  0.12126469653E+00  0.10362281574E+01  0.93800000000E+00 0.  1.
         22    1    1    2    0    0 -0.34863798726E+00 -0.16047094279E+00  0.35183471812E+01  0.35392183116E+01  0.00000000000E+00 0. -1.
</event>
<event>
 5    1  0.8277546E+001  0.1581190E+01  0.7818608E-02  0.3374036E+00
         11   -1    0    0    0    0  0.00000000000E+00  0.00000000000E+00  0.39999999674E+01  0.40000000000E+01  0.51100000000E-03 0.  1.
    9000002   -1    0    0    0    0 -0.00000000000E+00 -0.00000000000E+00  0.00000000000E+00  0.93800000000E+00  0.93800000000E+00 0. -1.
         11    1    1    2    0    0 -0.98738350622E-01  0.12220147779E+00  0.13784825687E+01  0.13874065433E+01  0.51100000000E-03 0.  1.
    9000002    1    1    2    0    0  0.21740560264E+00  0.91942604170E-01  0.51153964855E-01  0.96859659644E+00  0.93800000000E+00 0. -1.
         22    1    1    2    0    0 -0.11866725202E+00 -0.21414408196E+00  0.25703634338E+01  0.25819968603E+01  0.00000000000E+00 0.  1.
</event>
<event>
 5    1  0.6172503E+001  0.1592424E+01  0.7818608E-02  0.3361628E+00
         11   -1    0    0    0    0  0.00000000000E+00  0.00000000000E+00  0.39999999674E+01  0.40000000000E+01  0.51100000000E-03 0.  1.
    9000002   -1    0    0    0    0 -0.00000000000E+00 -0.00000000000E+00  0.00000000000E+00  0.93800000000E+00  0.93800000000E+00 0. -1.
         11    1    1    2    0    0 -0.23401309526E-01 -0.12324940512E+00  0.94721627540E+00  0.95548781816E+00  0.51100000000E-03 0.  1.
    9000002    1    1    2    0    0  0.34949923570E+00  0.24825930762E+00  0.13062957872E+00  0.10395626419E+01  0.93800000000E+00 0. -1.
         22    1    1    2    0    0 -0.32609792618E+00 -0.12500990250E+00  0.29221541132E+01  0.29429495399E+01  0.00000000000E+00 0.  1.
</event>
<event>
 5    1  0.6172503E+001  0.1598995E+01  0.7818608E-02  0.3354455E+00
         11   -1    0    0    0    0  0.00000000000E+00  0.00000000000E+00  0.39999999674E+01  0.40000000000E+01  0.51100000000E-03 0.  1.
    9000002   -1    0    0    0    0 -0.00000000000E+00 -0.00000000000E+00  0.00000000000E+00  0.93800000000E+00  0.93800000000E+00 0.  1.
         11    1    1    2    0    0 -0.76415873827E-01  0.11339009219E+00  0.12200756571E+01  0.12277139605E+01  0.51100000000E-03 0.  1.
    9000002    1    1    2    0    0  0.15093871058E+00 -0.35877270397E+00  0.10261474382E+00  0.10207223585E+01  0.93800000000E+00 0.  1.
         22    1    1    2    0    0 -0.74522836749E-01  0.24538261178E+00  0.26773095665E+01  0.26895636810E+01  0.00000000000E+00 0.  1.
</event>
<event>
 5    1  0.6172503E+001  0.1599661E+01  0.7818608E-02  0.3353732E+00
         11   -1    0    0    0    0  0.00000000000E+00  0.00000000000E+00  0.39999999674E+01  0.40000000000E+01  0.51100000000E-03 0.  1.
    9000002   -1    0    0    0    0 -0.00000000000E+00 -0.00000000000E+00  0.00000000000E+00  0.93800000000E+00  0.93800000000E+00 0. -1.
         11    1    1    2    0    0  0.16874851034E+00  0.12920375796E-01  0.14708336982E+01  0.14805387617E+01  0.51100000000E-03 0.  1.
    9000002    1    1    2    0    0 -0.44191579685E+00 -0.46255078937E-01  0.13399351769E+00  0.10465311112E+01  0.93800000000E+00 0. -1.
         22    1    1    2    0    0  0.27316728651E+00  0.33334703141E-01  0.23951727514E+01  0.24109301272E+01  0.00000000000E+00 0.  1.
</event>
<event>
 5    1  0.6172503E+001  0.1599672E+01  0.7818608E-02  0.3353719E+00
         11   -1    0    0    0    0  0.00000000000E+00  0.00000000000E+00  0.39999999674E+01  0.40000000000E+01  0.51100000000E-03 0.  1.
    9000002   -1    0    0    0    0 -0.00000000000E+00 -0.00000000000E+00  0.00000000000E+00  0.93800000000E+00  0.93800000000E+00 0. -1.
         11    1    1    2    0    0  0.50022185753E-01 -0.97003303201E-01  0.10906514390E+01  0.10960988470E+01  0.51100000000E-03 0.  1.
    9000002    1    1    2    0    0 -0.17451235549E+00  0.33972699575E+00  0.98173511780E-01  0.10175220058E+01  0.93800000000E+00 0. -1.
         22    1    1    2    0    0  0.12449016974E+00 -0.24272369255E+00  0.28111750166E+01  0.28243791472E+01  0.00000000000E+00 0.  1.
</event>
<event>
 5    1  0.6172503E+001  0.1595479E+01  0.7818608E-02  0.3358285E+00
         11   -1    0    0    0    0  0.00000000000E+00  0.00000000000E+00  0.39999999674E+01  0.40000000000E+01  0.51100000000E-03 0. -1.
    9000002   -1    0    0    0    0 -0.00000000000E+00 -0.00000000000E+00  0.00000000000E+00  0.93800000000E+00  0.93800000000E+00 0. -1.
         11    1    1    2    0    0  0.73691751265E-02  0.21488183846E-01  0.13118173763E+00  0.13313510505E+00  0.51100000000E-03 0. -1.
    9000002    1    1    2    0    0 -0.33448686790E+00  0.18969439177E+00  0.10300884237E+00  0.10189800041E+01  0.93800000000E+00 0. -1.
         22    1    1    2    0    0  0.32711769277E+00 -0.21118257561E+00  0.37658093874E+01  0.37858848909E+01  0.00000000000E+00 0. -1.
</event>
<event>
 5    1  0.6172503E+001  0.1599542E+01  0.7818608E-02  0.3353860E+00
         11   -1    0    0    0    0  0.00000000000E+00  0.00000000000E+00  0.39999999674E+01  0.40000000000E+01  0.51100000000E-03 0.  1.
    9000002   -1    0    0    0    0 -0.00000000000E+00 -0.00000000000E+00  0.00000000000E+00  0.93800000000E+00  0.93800000000E+00 0. -1.
         11    1    1    2    0    0  0.50309154312E-01 -0.12403903015E-01  0.43489415024E+00  0.43797037668E+00  0.51100000000E-03 0.  1.
    9000002    1    1    2    0    0 -0.39293627138E+00  0.16611741106E+00  0.12330897460E+00  0.10378068273E+01  0.93800000000E+00 0. -1.
         22    1    1    2    0    0  0.34262711707E+00 -0.15371350805E+00  0.34417968425E+01  0.34622227960E+01  0.00000000000E+00 0.  1.
</event>
<event>
 5    1  0.6172503E+001  0.1596627E+01  0.7818608E-02  0.3357032E+00
         11   -1    0    0    0    0  0.00000000000E+00  0.00000000000E+00  0.39999999674E+01  0.40000000000E+01  0.51100000000E-03 0. -1.
    9000002   -1    0    0    0    0 -0.00000000000E+00 -0.00000000000E+00  0.00000000000E+00  0.93800000000E+00  0.93800000000E+00 0.  1.
         11    1    1    2    0    0  0.18399902031E+00  0.24716424212E+00  0.13407273952E+01  0.13756801995E+01  0.51100000000E-03 0. -1.
    9000002    1    1    2    0    0 -0.37394717516E+00 -0.55652704391E+00  0.32212932740E+00  0.11971508443E+01  0.93800000000E+00 0.  1.
         22    1    1    2    0    0  0.18994815486E+00  0.30936280179E+00  0.23371432448E+01  0.23651689562E+01  0.00000000000E+00 0.  1.
</event>
<event>
 5    1  0.1043111E+002  0.1599047E+01  0.7818608E-02  0.3354399E+00
         11   -1    0    0    0    0  0.00000000000E+00  0.00000000000E+00  0.39999999674E+01  0.40000000000E+01  0.51100000000E-03 0.  1.
    9000002   -1    0    0    0    0 -0.00000000000E+00 -0.00000000000E+00  0.00000000000E+00  0.93800000000E+00  0.93800000000E+00 0. -1.
         11    1    1    2    0    0 -0.80584339379E-01 -0.37464762371E-01  0.12861836948E+01  0.12892502480E+01  0.51100000000E-03 0.  1.
    9000002    1    1    2    0    0  0.26201150939E+00  0.19961364713E+00  0.73089219771E-01  0.99683583063E+00  0.93800000000E+00 0. -1.
         22    1    1    2    0    0 -0.18142717001E+00 -0.16214888476E+00  0.26407270528E+01  0.26519139214E+01  0.00000000000E+00 0.  1.
</event>
<event>
 5    1  0.6172503E+001  0.1599324E+01  0.7818608E-02  0.3354098E+00
         11   -1    0    0    0    0  0.00000000000E+00  0.00000000000E+00  0.39999999674E+01  0.40000000000E+01  0.51100000000E-03 0. -1.
    9000002   -1    0    0    0    0 -0.00000000000E+00 -0.00000000000E+00  0.00000000000E+00  0.93800000000E+00  0.93800000000E+00 0. -1.
         11    1    1    2    0    0 -0.18183079045E+00 -0.41662321272E-01  0.13291290700E+01  0.13421559266E+01  0.51100000000E-03 0. -1.
    9000002    1    1    2    0    0  0.52769422524E+00  0.57949899167E-01  0.19429058965E+00  0.10951767982E+01  0.93800000000E+00 0. -1.
         22    1    1    2    0    0 -0.34586343480E+00 -0.16287577895E-01  0.24765803077E+01  0.25006672752E+01  0.00000000000E+00 0. -1.
</event>
<event>
 5    1  0.6172503E+001  0.1555619E+01  0.7818608E-02  0.3402988E+00
         11   -1    0    0    0    0  0.00000000000E+00  0.00000000000E+00  0.39999999674E+01  0.40000000000E+01  0.51100000000E-03 0.  1.
    9000002   -1    0    0    0    0 -0.00000000000E+00 -0.00000000000E+00  0.00000000000E+00  0.93800000000E+00  0.93800000000E+00 0. -1.
         11    1    1    2    0    0  0.81365644114E-01  0.32092701395E+00  0.24059804113E+00  0.40927032001E+00  0.51100000000E-03 0.  1.
    9000002    1    1    2    0    0 -0.95243959594E-01  0.14113120459E+00  0.24533679936E+00  0.98438995010E+00  0.93800000000E+00 0. -1.
         22    1    1    2    0    0  0.13878315480E-01 -0.46205821853E+00  0.35140651269E+01  0.35443397299E+01  0.00000000000E+00 0.  1.
</event>
<event>
 5    1  0.6172503E+001  0.1599675E+01  0.7818608E-02  0.3353717E+00
         11   -1    0    0    0    0  0.00000000000E+00  0.00000000000E+00  0.39999999674E+01  0.40000000000E+01  0.51100000000E-03 0. -1.
    9000002   -1    0    0    0    0 -0.00000000000E+00 -0.00000000000E+00  0.00000000000E+00  0.93800000000E+00  0.93800000000E+00 0.  1.
         11    1    1    2    0    0  0.47539239708E-01  0.55348919861E-01  0.67174966973E+00  0.67570064536E+00  0.51100000000E-03 0. -1.
    9000002    1    1    2    0    0 -0.28189740109E+00 -0.32160128175E+00  0.12382391316E+00  0.10383014450E+01  0.93800000000E+00 0.  1.
         22    1    1    2    0    0  0.23435816138E+00  0.26625236189E+00  0.32044263845E+01  0.32239979097E+01  0.00000000000E+00 0. -1.
</event>
<event>
 5    1  0.6172503E+001  0.1599673E+01  0.7818608E-02  0.3353718E+00
         11   -1    0    0    0    0  0.00000000000E+00  0.00000000000E+00  0.39999999674E+01  0.40000000000E+01  0.51100000000E-03 0. -1.
    9000002   -1    0    0    0    0 -0.00000000000E+00 -0.00000000000E+00  0.00000000000E+00  0.93800000000E+00  0.93800000000E+00 0.  1.
         11    1    1    2    0    0  0.69299097939E-02 -0.39246152130E-02  0.48652958305E-01  0.49303120867E-01  0.51100000000E-03 0.  1.
    9000002    1    1    2    0    0 -0.52304653078E+00  0.30534216953E+00  0.25623878176E+00  0.11455626684E+01  0.93800000000E+00 0.  1.
         22    1    1    2    0    0  0.51611662098E+00 -0.30141755432E+00  0.36951082273E+01  0.37431342108E+01  0.00000000000E+00 0. -1.
</event>
<event>
 5    1  0.6172503E+001  0.1597893E+01  0.7818608E-02  0.3355653E+00
         11   -1    0    0    0    0  0.00000000000E+00  0.00000000000E+00  0.39999999674E+01  0.40000000000E+01  0.51100000000E-03 0. -1.
    9000002   -1    0    0    0    0 -0.00000000000E+00 -0.00000000000E+00  0.00000000000E+00  0.93800000000E+00  0.93800000000E+00 0.  1.
         11    1    1    2    0    0 -0.58232559365E-02  0.14680454058E-02  0.94437007983E-02  0.11203127813E-01  0.51100000000E-03 0. -1.
    9000002    1    1    2    0    0  0.18479057962E+00 -0.62717418193E+00  0.30382776715E+00  0.11830681827E+01  0.93800000000E+00 0.  1.
         22    1    1    2    0    0 -0.17896732368E+00  0.62570613652E+00  0.36867284994E+01  0.37437286895E+01  0.00000000000E+00 0. -1.
</event>
<event>
 5    1  0.6172503E+001  0.1599633E+01  0.7818608E-02  0.3353761E+00
         11   -1    0    0    0    0  0.00000000000E+00  0.00000000000E+00  0.39999999674E+01  0.40000000000E+01  0.51100000000E-03 0. -1.
    9000002   -1    0    0    0    0 -0.00000000000E+00 -0.00000000000E+00  0.00000000000E+00  0.93800000000E+00  0.93800000000E+00 0.  1.
         11    1    1    2    0    0  0.22067161189E-01 -0.72847186084E-01  0.90038145652E+00  0.90359321627E+00  0.51100000000E-03 0. -1.
    9000002    1    1    2    0    0 -0.11189974110E+00  0.34102177662E+00  0.86494877250E-01  0.10080390707E+01  0.93800000000E+00 0.  1.
         22    1    1    2    0    0  0.89832579910E-01 -0.26817459053E+00  0.30131236336E+01  0.30263677131E+01  0.00000000000E+00 0. -1.
</event>
<event>
 5    1  0.6172503E+001  0.1599660E+01  0.7818608E-02  0.3353732E+00
         11   -1    0    0    0    0  0.00000000000E+00  0.00000000000E+00  0.39999999674E+01  0.40000000000E+01  0.51100000000E-03 0.  1.
    9000002   -1    0    0    0    0 -0.00000000000E+00 -0.00000000000E+00  0.00000000000E+00  0.93800000000E+00  0.93800000000E+00 0.  1.
         11    1    1    2    0    0 -0.90132785351E-01  0.69440119921E-01  0.97169567218E+00  0.97833460007E+00  0.51100000000E-03 0.  1.
    9000002    1    1    2    0    0  0.37195198772E+00 -0.28397080359E+00  0.14915194431E+00  0.10588097095E+01  0.93800000000E+00 0.  1.
         22    1    1    2    0    0 -0.28181920237E+00  0.21453068367E+00  0.28791523509E+01  0.29008556904E+01  0.00000000000E+00 0.  1.
</event>
<event>
 5    1  0.6172503E+001  0.1550780E+01  0.7818608E-02  0.3408581E+00
         11   -1    0    0    0    0  0.00000000000E+00  0.00000000000E+00  0.39999999674E+01  0.40000000000E+01  0.51100000000E-03 0.  1.
    9000002   -1    0    0    0    0 -0.00000000000E+00 -0.00000000000E+00  0.00000000000E+00  0.93800000000E+00  0.93800000000E+00 0.  1.
         11    1    1    2    0    0 -0.50880863813E-01 -0.23131368146E+00  0.11878934682E+01  0.12112745496E+01  0.51100000000E-03 0.  1.
    9000002    1    1    2    0    0 -0.16597040601E+00  0.28889890967E-01  0.55948475169E-01  0.95464916768E+00  0.93800000000E+00 0.  1.
         22    1    1    2    0    0  0.21685126982E+00  0.20242379049E+00  0.27561580240E+01  0.27720762827E+01  0.00000000000E+00 0.  1.
</event>
<event>
 5    1  0.6172503E+001  0.1599209E+01  0.7818608E-02  0.3354223E+00
         11   -1    0    0    0    0  0.00000000000E+00  0.00000000000E+00  0.39999999674E+01  0.40000000000E+01  0.51100000000E-03 0. -1.
    9000002   -1    0    0    0    0 -0.00000000000E+00 -0.00000000000E+00  0.00000000000E+00  0.93800000000E+00  0.93800000000E+00 0.  1.
         11    1    1    2    0    0 -0.98744312590E-01  0.29030786808E-01  0.94426942987E+00  0.94986222325E+00  0.51100000000E-03 0. -1.
    9000002    1    1    2    0    0  0.43078745566E+00 -0.31049100150E-01  0.12676563118E+00  0.10404111706E+01  0.93800000000E+00 0.  1.
         22    1    1    2    0    0 -0.33204314307E+00  0.20183133420E-02  0.29289649063E+01  0.29477266062E+01  0.00000000000E+00 0. -1.
</event>
<event>
 5    1  0.6172503E+001  0.1599654E+01  0.7818608E-02  0.3353739E+00
         11   -1    0    0    0    0  0.00000000000E+00  0.00000000000E+00  0.39999999674E+01  0.40000000000E+01  0.51100000000E-03 0. -1.
    9000002   -1    0    0    0    0 -0.00000000000E+00 -0.00000000000E+00  0.00000000000E+00  0.93800000000E+00  0.93800000000E+00 0.  1.
         11    1    1    2    0    0  0.43466081509E-02  0.14408039804E+00  0.78888164612E+00  0.80194299473E+00  0.51100000000E-03 0. -1.
    9000002    1    1    2    0    0 -0.13160347049E-01 -0.68966512326E+00  0.33915352487E+00  0.12127160799E+01  0.93800000000E+00 0.  1.
         22    1    1    2    0    0  0.88137388978E-02  0.54558472522E+00  0.28719647964E+01  0.29233409254E+01  0.00000000000E+00 0. -1.
</event>
<event>
 5    1  0.6172503E+001  0.1599619E+01  0.7818608E-02  0.3353777E+00
         11   -1    0    0    0    0  0.00000000000E+00  0.00000000000E+00  0.39999999674E+01  0.40000000000E+01  0.51100000000E-03 0.  1.
    9000002   -1    0    0    0    0 -0.00000000000E+00 -0.00000000000E+00  0.00000000000E+00  0.93800000000E+00  0.93800000000E+00 0.  1.
         11    1    1    2    0    0  0.36464975444E+00 -0.53653516369E-01  0.12572780187E+01  0.13101894598E+01  0.51100000000E-03 0.  1.
    9000002    1    1    2    0    0 -0.96491874847E+00  0.13183110947E+00  0.75221697403E+00  0.15472950619E+01  0.93800000000E+00 0.  1.
         22    1    1    2    0    0  0.60026899404E+00 -0.78177593100E-01  0.19905049746E+01  0.20805154783E+01  0.00000000000E+00 0. -1.
</event>
<event>
 5    1  0.6172503E+001  0.1585697E+01  0.7818608E-02  0.3369035E+00
         11   -1    0    0    0    0  0.00000000000E+00  0.00000000000E+00  0.39999999674E+01  0.40000000000E+01  0.51100000000E-03 0. -1.
    9000002   -1    0    0    0    0 -0.00000000000E+00 -0.00000000000E+00  0.00000000000E+00  0.93800000000E+00  0.93800000000E+00 0. -1.
         11    1    1    2    0    0 -0.72183667094E-01 -0.56378990458E-02  0.36091632261E+00  0.36810748532E+00  0.51100000000E-03 0. -1.
    9000002    1    1    2    0    0 -0.71413777449E-01  0.32593554103E+00  0.85751766732E-01  0.99926536516E+00  0.93800000000E+00 0. -1.
         22    1    1    2    0    0  0.14359744454E+00 -0.32029764198E+00  0.35533318780E+01  0.35706271495E+01  0.00000000000E+00 0. -1.
</event>
<event>
 5    1  0.6172503E+001  0.1594636E+01  0.7818608E-02  0.3359206E+00
         11   -1    0    0    0    0  0.00000000000E+00  0.00000000000E+00  0.39999999674E+01  0.40000000000E+01  0.51100000000E-03 0.  1.
    9000002   -1    0    0    0    0 -0.00000000000E+00 -0.00000000000E+00  0.00000000000E+00  0.93800000000E+00  0.93800000000E+00 0.  1.
         11    1    1    2    0    0  0.54523695299E-01 -0.12644855439E-01  0.51151336465E+00  0.51456671973E+00  0.51100000000E-03 0.  1.
    9000002    1    1    2    0    0 -0.25045921893E+00 -0.31106956851E+00  0.11177729105E+00  0.10255887380E+01  0.93800000000E+00 0.  1.
         22    1    1    2    0    0  0.19593552363E+00  0.32371442395E+00  0.33767093117E+01  0.33978445422E+01  0.00000000000E+00 0.  1.
</event>
<event>
 5    1  0.6172503E+001  0.1599279E+01  0.7818608E-02  0.3354146E+00
         11   -1    0    0    0    0  0.00000000000E+00  0.00000000000E+00  0.39999999674E+01  0.40000000000E+01  0.51100000000E-03 0. -1.
    9000002   -1    0    0    0    0 -0.00000000000E+00 -0.00000000000E+00  0.00000000000E+00  0.93800000000E+00  0.93800000000E+00 0.  1.
         11    1    1    2    0    0 -0.35793143603E-02  0.49472347328E-02  0.11670908200E+00  0.11686983171E+00  0.51100000000E-03 0. -1.
    9000002    1    1    2    0    0  0.34954393222E+00 -0.16915506477E-01  0.82435365376E-01  0.10045430227E+01  0.93800000000E+00 0.  1.
         22    1    1    2    0    0 -0.34596461786E+00  0.11968271744E-01  0.38008555200E+01  0.38165871456E+01  0.00000000000E+00 0. -1.
</event>
<event>
 5    1  0.6826646E+001  0.1589922E+01  0.7818608E-02  0.3364374E+00
         11   -1    0    0    0    0  0.00000000000E+00  0.00000000000E+00  0.39999999674E+01  0.40000000000E+01  0.51100000000E-03 0. -1.
    9000002   -1    0    0    0    0 -0.00000000000E+00 -0.00000000000E+00  0.00000000000E+00  0.93800000000E+00  0.93800000000E+00 0.  1.
         11    1    1    2    0    0  0.48551771579E-01  0.41174339852E-01  0.10082545874E+01  0.10102624288E+01  0.51100000000E-03 0. -1.
    9000002    1    1    2    0    0 -0.13321253996E+00  0.24056854247E+00  0.57912489736E-01  0.97919184070E+00  0.93800000000E+00 0. -1.
         22    1    1    2    0    0  0.84660768380E-01 -0.28174288233E+00  0.29338328902E+01  0.29485457305E+01  0.00000000000E+00 0. -1.
</event>
<event>
 5    1  0.6172503E+001  0.1599672E+01  0.7818608E-02  0.3353719E+00
         11   -1    0    0    0    0  0.00000000000E+00  0.00000000000E+00  0.39999999674E+01  0.40000000000E+01  0.51100000000E-03 0.  1.
    9000002   -1    0    0    0    0 -0.00000000000E+00 -0.00000000000E+00  0.00000000000E+00  0.93800000000E+00  0.93800000000E+00 0.  1.
         11    1    1    2    0    0 -0.16980992530E-01 -0.33352990113E+00  0.14087008674E+01  0.14477461601E+01  0.51100000000E-03 0.  1.
    9000002    1    1    2    0    0  0.48491494419E-01  0.82698302227E+00  0.51057464932E+00  0.13515852976E+01  0.93800000000E+00 0.  1.
         22    1    1    2    0    0 -0.31510501890E-01 -0.49345312114E+00  0.20807244506E+01  0.21386685423E+01  0.00000000000E+00 0.  1.
</event>
<event>
 5    1  0.6172503E+001  0.1599463E+01  0.7818608E-02  0.3353946E+00
         11   -1    0    0    0    0  0.00000000000E+00  0.00000000000E+00  0.39999999674E+01  0.40000000000E+01  0.51100000000E-03 0. -1.
    9000002   -1    0    0    0    0 -0.00000000000E+00 -0.00000000000E+00  0.00000000000E+00  0.93800000000E+00  0.93800000000E+00 0.  1.
         11    1    1    2    0    0  0.46545909970E-01  0.18058720947E-01  0.26867842384E+00  0.27327823861E+00  0.51100000000E-03 0. -1.
    9000002    1    1    2    0    0 -0.52387318370E+00 -0.25390117907E+00  0.23578338108E+00  0.11288696666E+01  0.93800000000E+00 0.  1.
         22    1    1    2    0    0  0.47732727373E+00  0.23584245812E+00  0.34955381624E+01  0.35358520948E+01  0.00000000000E+00 0. -1.
</event>
<event>
 5    1  0.6172503E+001  0.1599674E+01  0.7818608E-02  0.3353717E+00
         11   -1    0    0    0    0  0.00000000000E+00  0.00000000000E+00  0.39999999674E+01  0.40000000000E+01  0.51100000000E-03 0. -1.
    9000002   -1    0    0    0    0 -0.00000000000E+00 -0.00000000000E+00  0.00000000000E+00  0.93800000000E+00  0.93800000000E+00 0.  1.
         11    1    1    2    0    0  0.34301152759E-01  0.10084761682E+00  0.10265828653E+01  0.10320946911E+01  0.51100000000E-03 0. -1.
    9000002    1    1    2    0    0 -0.13642176403E+00 -0.38341477798E+00  0.11181572552E+00  0.10285740353E+01  0.93800000000E+00 0.  1.
         22    1    1    2    0    0  0.10212061127E+00  0.28256716116E+00  0.28616013765E+01  0.28773312736E+01  0.00000000000E+00 0. -1.
</event>
<event>
 5    1  0.6172503E+001  0.1599282E+01  0.7818608E-02  0.3354143E+00
         11   -1    0    0    0    0  0.00000000000E+00  0.00000000000E+00  0.39999999674E+01  0.40000000000E+01  0.51100000000E-03 0.  1.
    9000002   -1    0    0    0    0 -0.00000000000E+00 -0.00000000000E+00  0.00000000000E+00  0.93800000000E+00  0.93800000000E+00 0.  1.
         11    1    1    2    0    0  0.67297990735E-01  0.85001883687E-01  0.11211978099E+01  0.11264275963E+01  0.51100000000E-03 0.  1.
    9000002    1    1    2    0    0 -0.29708421007E+00 -0.33082843918E+00  0.13451368788E+00  0.10467303455E+01  0.93800000000E+00 0.  1.
         22    1    1    2    0    0  0.22978621934E+00  0.24582655549E+00  0.27442884696E+01  0.27648420581E+01  0.00000000000E+00 0.  1.
</event>
<event>
 5    1  0.6172503E+001  0.1599671E+01  0.7818608E-02  0.3353720E+00
         11   -1    0    0    0    0  0.00000000000E+00  0.00000000000E+00  0.39999999674E+01  0.40000000000E+01  0.51100000000E-03 0.  1.
    9000002   -1    0    0    0    0 -0.00000000000E+00 -0.00000000000E+00  0.00000000000E+00  0.93800000000E+00  0.93800000000E+00 0.  1.
         11    1    1    2    0    0  0.25560342850E-01  0.47097548185E-01  0.61471277311E+00  0.61704421618E+00  0.51100000000E-03 0.  1.
    9000002    1    1    2    0    0 -0.16842998523E+00 -0.31205640648E+00  0.84363119138E-01  0.10063344358E+01  0.93800000000E+00 0.  1.
         22    1    1    2    0    0  0.14286964238E+00  0.26495885830E+00  0.33009240751E+01  0.33146213480E+01  0.00000000000E+00 0.  1.
</event>
<event>
 5    1  0.6172503E+001  0.1599677E+01  0.7818608E-02  0.3353715E+00
         11   -1    0    0    0    0  0.00000000000E+00  0.00000000000E+00  0.39999999674E+01  0.40000000000E+01  0.51100000000E-03 0. -1.
    9000002   -1    0    0    0    0 -0.00000000000E+00 -0.00000000000E+00  0.00000000000E+00  0.93800000000E+00  0.93800000000E+00 0. -1.
         11    1    1    2    0    0 -0.87350048506E-01 -0.24362514647E+00  0.12980037710E+01  0.13235547943E+01  0.51100000000E-03 0. -1.
    9000002    1    1    2    0    0  0.24197572885E+00  0.67973048252E+00  0.37426388218E+00  0.12411701075E+01  0.93800000000E+00 0. -1.
         22    1    1    2    0    0 -0.15462568034E+00 -0.43610533605E+00  0.23277323142E+01  0.23732750982E+01  0.00000000000E+00 0. -1.
</event>
<event>
 5    1  0.6172503E+001  0.1599665E+01  0.7818608E-02  0.3353728E+00
         11   -1    0    0    0    0  0.00000000000E+00  0.00000000000E+00  0.39999999674E+01  0.40000000000E+01  0.51100000000E-03 0.  1.
    9000002   -1    0    0    0    0 -0.00000000000E+00 -0.00000000000E+00  0.00000000000E+00  0.93800000000E+00  0.93800000000E+00 0. -1.
         11    1    1    2    0    0  0.17233940086E-02  0.15410288554E-02  0.24608027095E-01  0.24721670157E-01  0.51100000000E-03 0.  1.
    9000002    1    1    2    0    0 -0.33567253449E+00 -0.21263179611E+00  0.10647310599E+00  0.10242406228E+01  0.93800000000E+00 0. -1.
         22    1    1    2    0    0  0.33394914048E+00  0.21109076726E+00  0.38689188343E+01  0.38890377070E+01  0.00000000000E+00 0.  1.
</event>
<event>
 5    1  0.6172503E+001  0.1524279E+01  0.7818608E-02  0.3439885E+00
         11   -1    0    0    0    0  0.00000000000E+00  0.00000000000E+00  0.39999999674E+01  0.40000000000E+01  0.51100000000E-03 0.  1.
    9000002   -1    0    0    0    0 -0.00000000000E+00 -0.00000000000E+00  0.00000000000E+00  0.93800000000E+00  0.93800000000E+00 0. -1.
         11    1    1    2    0    0  0.13390070601E+00  0.37311944344E+00  0.73134930285E+00  0.83187714360E+00  0.51100000000E-03 0.  1.
    9000002    1    1    2    0    0  0.28579817873E+00 -0.79326490025E+00  0.64600112366E+00  0.14170784215E+01  0.93800000000E+00 0. -1.
         22    1    1    2    0    0 -0.41969888474E+00  0.42014545680E+00  0.26226495408E+01  0.26890444349E+01  0.00000000000E+00 0.  1.
</event>
<event>
 5    1  0.6172503E+001  0.1597332E+01  0.7818608E-02  0.3356264E+00
         11   -1    0    0    0    0  0.00000000000E+00  0.00000000000E+00  0.39999999674E+01  0.40000000000E+01  0.51100000000E-03 0. -1.
    9000002   -1    0    0    0    0 -0.00000000000E+00 -0.00000000000E+00  0.00000000000E+00  0.93800000000E+00  0.93800000000E+00 0. -1.
         11    1    1    2    0    0  0.59599150982E-01 -0.11056562707E-02  0.56316176608E+00  0.56630797025E+00  0.51100000000E-03 0. -1.
    9000002    1    1    2    0    0 -0.25833396933E+00 -0.22995340680E+00  0.82052215701E-01  0.10030910104E+01  0.93800000000E+00 0. -1.
         22    1    1    2    0    0  0.19873481835E+00  0.23105906307E+00  0.33547859856E+01  0.33686010194E+01  0.00000000000E+00 0. -1.
</event>
<event>
 5    1  0.6172503E+001  0.1123909E+01  0.7818608E-02  0.4186296E+00
         11   -1    0    0    0    0  0.00000000000E+00  0.00000000000E+00  0.39999999674E+01  0.40000000000E+01  0.51100000000E-03 0.  1.
    9000002   -1    0    0    0    0 -0.00000000000E+00 -0.00000000000E+00  0.00000000000E+00  0.93800000000E+00  0.93800000000E+00 0.  1.
         11    1    1    2    0    0  0.39255426086E-01  0.41960632768E+00 -0.70353658882E-02  0.42149758741E+00  0.51100000000E-03 0.  1.
    9000002    1    1    2    0    0  0.25367191098E+00 -0.39219844208E+00  0.85956031556E+00  0.13553069735E+01  0.93800000000E+00 0.  1.
         22    1    1    2    0    0 -0.29292733707E+00 -0.27407885599E-01  0.31474750177E+01  0.31611954391E+01  0.00000000000E+00 0.  1.
</event>
<event>
 5    1  0.6172503E+001  0.1496519E+01  0.7818608E-02  0.3473952E+00
         11   -1    0    0    0    0  0.00000000000E+00  0.00000000000E+00  0.39999999674E+01  0.40000000000E+01  0.51100000000E-03 0. -1.
    9000002   -1    0    0    0    0 -0.00000000000E+00 -0.00000000000E+00  0.00000000000E+00  0.93800000000E+00  0.93800000000E+00 0. -1.
         11    1    1    2    0    0 -0.41217724010E-01 -0.22141338719E-01 -0.28307535050E-01  0.54687451161E-01  0.51100000000E-03 0. -1.
    9000002    1    1    2    0    0  0.40405553497E+00  0.16677605839E+00  0.22376065183E+00  0.10587671880E+01  0.93800000000E+00 0. -1.
         22    1    1    2    0    0 -0.36283781096E+00 -0.14463471967E+00  0.38045468506E+01  0.38245453609E+01  0.00000000000E+00 0. -1.
</event>
<event>
 5    1  0.6172503E+001  0.1584052E+01  0.7818608E-02  0.3370857E+00
         11   -1    0    0    0    0  0.00000000000E+00  0.00000000000E+00  0.39999999674E+01  0.40000000000E+01  0.51100000000E-03 0. -1.
    9000002   -1    0    0    0    0 -0.00000000000E+00 -0.00000000000E+00  0.00000000000E+00  0.93800000000E+00  0.93800000000E+00 0. -1.
         11    1    1    2    0    0 -0.44040788769E-01 -0.36091731080E-01  0.11899230797E+01  0.11912847690E+01  0.51100000000E-03 0. -1.
    9000002    1    1    2    0    0 -0.19327110573E+00 -0.18771103681E+00  0.60439441390E-01  0.97779654312E+00  0.93800000000E+00 0. -1.
         22    1    1    2    0    0  0.23731189450E+00  0.22380276789E+00  0.27496374463E+01  0.27689186879E+01  0.00000000000E+00 0. -1.
</event>
<event>
 5    1  0.6172503E+001  0.1597605E+01  0.7818608E-02  0.3355967E+00
         11   -1    0    0    0    0  0.00000000000E+00  0.00000000000E+00  0.39999999674E+01  0.40000000000E+01  0.51100000000E-03 0.  1.
    9000002   -1    0    0    0    0 -0.00000000000E+00 -0.00000000000E+00  0.00000000000E+00  0.93800000000E+00  0.93800000000E+00 0.  1.
         11    1    1    2    0    0 -0.58291862729E-01 -0.15994568774E+00  0.54079494488E+00  0.56695678655E+00  0.51100000000E-03 0.  1.
    9000002    1    1    2    0    0  0.10459345963E+00  0.97652388600E+00  0.77208882205E+00  0.15622112024E+01  0.93800000000E+00 0.  1.
         22    1    1    2    0    0 -0.46301596905E-01 -0.81657819826E+00  0.26871162004E+01  0.28088320111E+01  0.00000000000E+00 0.  1.
</event>
<event>
 5    1  0.6172503E+001  0.1599461E+01  0.7818608E-02  0.3353949E+00
         11   -1    0    0    0    0  0.00000000000E+00  0.00000000000E+00  0.39999999674E+01  0.40000000000E+01  0.51100000000E-03 0. -1.
    9000002   -1    0    0    0    0 -0.00000000000E+00 -0.00000000000E+00  0.00000000000E+00  0.93800000000E+00  0.93800000000E+00 0.  1.
         11    1    1    2    0    0  0.12225013503E-01  0.11624502227E+00  0.13277884552E+01  0.13329234033E+01  0.51100000000E-03 0. -1.
    9000002    1    1    2    0    0 -0.34181293511E-03 -0.37606214918E+00  0.95286842941E-01  0.10150598206E+01  0.93800000000E+00 0.  1.
         22    1    1    2    0    0 -0.11883200568E-01  0.25981712691E+00  0.25769246692E+01  0.25900167762E+01  0.00000000000E+00 0. -1.
</event>
<event>
 5    1  0.6172503E+001  0.1493934E+01  0.7818608E-02  0.3477193E+00
         11   -1    0    0    0    0  0.00000000000E+00  0.00000000000E+00  0.39999999674E+01  0.40000000000E+01  0.51100000000E-03 0. -1.
    9000002   -1    0    0    0    0 -0.00000000000E+00 -0.00000000000E+00  0.00000000000E+00  0.93800000000E+00  0.93800000000E+00 0. -1.
         11    1    1    2    0    0 -0.38960198192E-01 -0.25793550382E+00  0.56241454519E+00  0.61996693697E+00  0.51100000000E-03 0. -1.
    9000002    1    1    2    0    0  0.87737532245E-01 -0.13539390214E+00  0.10001776151E+00  0.95701459546E+00  0.93800000000E+00 0. -1.
         22    1    1    2    0    0 -0.48777334052E-01  0.39332940596E+00  0.33375676607E+01  0.33610184676E+01  0.00000000000E+00 0. -1.
</event>
<event>
 5    1  0.6172503E+001  0.1599676E+01  0.7818608E-02  0.3353715E+00
         11   -1    0    0    0    0  0.00000000000E+00  0.00000000000E+00  0.39999999674E+01  0.40000000000E+01  0.51100000000E-03 0. -1.
    9000002   -1    0    0    0    0 -0.00000000000E+00 -0.00000000000E+00  0.00000000000E+00  0.93800000000E+00  0.93800000000E+00 0. -1.
         11    1    1    2    0    0 -0.23998033360E-02  0.12966750817E+00  0.13404799661E+01  0.13467391070E+01  0.51100000000E-03 0. -1.
    9000002    1    1    2    0    0  0.96284162578E-02 -0.37619450925E+00  0.95242753049E-01  0.10151503323E+01  0.93800000000E+00 0. -1.
         22    1    1    2    0    0 -0.72286129218E-02  0.24652700108E+00  0.25642772483E+01  0.25761105607E+01  0.00000000000E+00 0. -1.
</event>
<event>
 5    1  0.6172503E+001  0.1599526E+01  0.7818608E-02  0.3353878E+00
         11   -1    0    0    0    0  0.00000000000E+00  0.00000000000E+00  0.39999999674E+01  0.40000000000E+01  0.51100000000E-03 0.  1.
    9000002   -1    0    0    0    0 -0.00000000000E+00 -0.00000000000E+00  0.00000000000E+00  0.93800000000E+00  0.93800000000E+00 0. -1.
         11    1    1    2    0    0 -0.19527225571E-01  0.13256349781E+00  0.11646428993E+01  0.11723257813E+01  0.51100000000E-03 0.  1.
    9000002    1    1    2    0    0  0.39294017099E-01 -0.47502800227E+00  0.15507072644E+00  0.10635255300E+01  0.93800000000E+00 0. -1.
         22    1    1    2    0    0 -0.19766791529E-01  0.34246450446E+00  0.26802863416E+01  0.27021486887E+01  0.00000000000E+00 0.  1.
</event>
<event>
 5    1  0.6172503E+001  0.1599674E+01  0.7818608E-02  0.3353718E+00
         11   -1    0    0    0    0  0.00000000000E+00  0.00000000000E+00  0.39999999674E+01  0.40000000000E+01  0.51100000000E-03 0.  1.
    9000002   -1    0    0    0    0 -0.00000000000E+00 -0.00000000000E+00  0.00000000000E+00  0.93800000000E+00  0.93800000000E+00 0.  1.
         11    1    1    2    0    0  0.96277297502E-01 -0.83905748972E-01  0.12654196596E+01  0.12718477380E+01  0.51100000000E-03 0.  1.
    9000002    1    1    2    0    0 -0.29962239622E+00  0.25286779483E+00  0.10358276088E+00  0.10219046386E+01  0.93800000000E+00 0.  1.
         22    1    1    2    0    0  0.20334509872E+00 -0.16896204586E+00  0.26309975469E+01  0.26442476234E+01  0.00000000000E+00 0.  1.
</event>
<event>
 5    1  0.6172503E+001  0.1540330E+01  0.7818608E-02  0.3420787E+00
         11   -1    0    0    0    0  0.00000000000E+00  0.00000000000E+00  0.39999999674E+01  0.40000000000E+01  0.51100000000E-03 0. -1.
    9000002   -1    0    0    0    0 -0.00000000000E+00 -0.00000000000E+00  0.00000000000E+00  0.93800000000E+00  0.93800000000E+00 0.  1.
         11    1    1    2    0    0 -0.19086350719E+00 -0.17369337488E+00  0.11278242725E+01  0.11569728249E+01  0.51100000000E-03 0. -1.
    9000002    1    1    2    0    0 -0.13862186400E+00  0.14585390296E+00  0.72699501658E-01  0.96209074402E+00  0.93800000000E+00 0.  1.
         22    1    1    2    0    0  0.32948537119E+00  0.27839471928E-01  0.27994761932E+01  0.28189364310E+01  0.00000000000E+00 0. -1.
</event>
<event>
 5    1  0.1022223E+002  0.1596864E+01  0.7818608E-02  0.3356774E+00
         11   -1    0    0    0    0  0.00000000000E+00  0.00000000000E+00  0.39999999674E+01  0.40000000000E+01  0.51100000000E-03 0. -1.
    9000002   -1    0    0    0    0 -0.00000000000E+00 -0.00000000000E+00  0.00000000000E+00  0.93800000000E+00  0.93800000000E+00 0.  1.
         11    1    1    2    0    0 -0.18967015569E-01 -0.10166986309E+00  0.14294862718E+01  0.14332228616E+01  0.51100000000E-03 0. -1.
    9000002    1    1    2    0    0  0.21375760378E+00  0.23040581814E+00  0.68208701470E-01  0.99160253185E+00  0.93800000000E+00 0.  1.
         22    1    1    2    0    0 -0.19479058821E+00 -0.12873595505E+00  0.25023049941E+01  0.25131746065E+01  0.00000000000E+00 0. -1.
</event>
<event>
 5    1  0.6172503E+001  0.1599480E+01  0.7818608E-02  0.3353928E+00
         11   -1    0    0    0    0  0.00000000000E+00  0.00000000000E+00  0.39999999674E+01  0.40000000000E+01  0.51100000000E-03 0. -1.
    9000002   -1    0    0    0    0 -0.00000000000E+00 -0.00000000000E+00  0.00000000000E+00  0.93800000000E+00  0.93800000000E+00 0. -1.
         11    1    1    2    0    0  0.10533630431E+00  0.62540323643E-01  0.14461471090E+01  0.14513265487E+01  0.51100000000E-03 0. -1.
    9000002    1    1    2    0    0 -0.32832962950E+00 -0.16170551757E+00  0.90136707104E-01  0.10108994243E+01  0.93800000000E+00 0. -1.
         22    1    1    2    0    0  0.22299332519E+00  0.99165193927E-01  0.24637161513E+01  0.24757740270E+01  0.00000000000E+00 0. -1.
</event>
<event>
 5    1  0.6172503E+001  0.1599676E+01  0.7818608E-02  0.3353715E+00
         11   -1    0    0    0    0  0.00000000000E+00  0.00000000000E+00  0.39999999674E+01  0.40000000000E+01  0.51100000000E-03 0.  1.
    9000002   -1    0    0    0    0 -0.00000000000E+00 -0.00000000000E+00  0.00000000000E+00  0.93800000000E+00  0.93800000000E+00 0.  1.
         11    1    1    2    0    0  0.76564886988E-02 -0.21084263294E+00  0.12827501396E+01  0.12999851613E+01  0.51100000000E-03 0.  1.
    9000002    1    1    2    0    0 -0.21040896381E-01  0.61157225907E+00  0.26194006785E+00  0.11501825710E+01  0.93800000000E+00 0.  1.
         22    1    1    2    0    0  0.13384407682E-01 -0.40072962614E+00  0.24553097599E+01  0.24878322678E+01  0.00000000000E+00 0. -1.
</event>
<event>
 5    1  0.6172503E+001  0.1599399E+01  0.7818608E-02  0.3354016E+00
         11   -1    0    0    0    0  0.00000000000E+00  0.00000000000E+00  0.39999999674E+01  0.40000000000E+01  0.51100000000E-03 0.  1.
    9000002   -1    0    0    0    0 -0.00000000000E+00 -0.00000000000E+00  0.00000000000E+00  0.93800000000E+00  0.93800000000E+00 0. -1.
         11    1    1    2    0    0 -0.34682401368E-02  0.26245544406E-02  0.20014208739E-01  0.20487719446E-01  0.51100000000E-03 0.  1.
    9000002    1    1    2    0    0  0.36975465773E+00 -0.49037862935E-01  0.93756695411E-01  0.10137837722E+01  0.93800000000E+00 0. -1.
         22    1    1    2    0    0 -0.36628641759E+00  0.46413308495E-01  0.38862290632E+01  0.39037285083E+01  0.00000000000E+00 0.  1.
</event>
<event>
 5    1  0.6172503E+001  0.1599493E+01  0.7818608E-02  0.3353914E+00
         11   -1    0    0    0    0  0.00000000000E+00  0.00000000000E+00  0.39999999674E+01  0.40000000000E+01  0.51100000000E-03 0.  1.
    9000002   -1    0    0    0    0 -0.00000000000E+00 -0.00000000000E+00  0.00000000000E+00  0.93800000000E+00  0.93800000000E+00 0. -1.
         11    1    1    2    0    0  0.76861035572E-02  0.24699713507E-01  0.21731614852E+00  0.21885091173E+00  0.51100000000E-03 0.  1.
    9000002    1    1    2    0    0 -0.29376187720E-01 -0.36491714898E+00  0.90180551298E-01  0.10109421437E+01  0.93800000000E+00 0. -1.
         22    1    1    2    0    0  0.21690084163E-01  0.34021743548E+00  0.36925032675E+01  0.37082069446E+01  0.00000000000E+00 0.  1.
</event>
<event>
 5    1  0.6172503E+001  0.1505312E+01  0.7818608E-02  0.3463014E+00
         11   -1    0    0    0    0  0.00000000000E+00  0.00000000000E+00  0.39999999674E+01  0.40000000000E+01  0.51100000000E-03 0. -1.
    9000002   -1    0    0    0    0 -0.00000000000E+00 -0.00000000000E+00  0.00000000000E+00  0.93800000000E+00  0.93800000000E+00 0.  1.
         11    1    1    2    0    0  0.16228271361E+00  0.26358661963E+00  0.84652773921E+00  0.90134513898E+00  0.51100000000E-03 0. -1.
    9000002    1    1    2    0    0  0.34185709415E-01 -0.38027193720E-01  0.73579179786E-01  0.94226993260E+00  0.93800000000E+00 0.  1.
         22    1    1    2    0    0 -0.19646842303E+00 -0.22555942591E+00  0.30798930484E+01  0.30943849284E+01  0.00000000000E+00 0. -1.
</event>
<event>
 5    1  0.6172503E+001  0.1599667E+01  0.7818608E-02  0.3353725E+00
         11   -1    0    0    0    0  0.00000000000E+00  0.00000000000E+00  0.39999999674E+01  0.40000000000E+01  0.51100000000E-03 0. -1.
    9000002   -1    0    0    0    0 -0.00000000000E+00 -0.00000000000E+00  0.00000000000E+00  0.93800000000E+00  0.93800000000E+00 0.  1.
         11    1    1    2    0    0  0.12313594088E+00 -0.42524203397E-01  0.14056449852E+01  0.14116688186E+01  0.51100000000E-03 0. -1.
    9000002    1    1    2    0    0 -0.34720769342E+00  0.10920305013E+00  0.88976499146E-01  0.10100689610E+01  0.93800000000E+00 0.  1.
         22    1    1    2    0    0  0.22407175254E+00 -0.66678846736E-01  0.25053784830E+01  0.25162622204E+01  0.00000000000E+00 0.  1.
</event>
<event>
 5    1  0.6172503E+001  0.1599677E+01  0.7818608E-02  0.3353714E+00
         11   -1    0    0    0    0  0.00000000000E+00  0.00000000000E+00  0.39999999674E+01  0.40000000000E+01  0.51100000000E-03 0. -1.
    9000002   -1    0    0    0    0 -0.00000000000E+00 -0.00000000000E+00  0.00000000000E+00  0.93800000000E+00  0.93800000000E+00 0. -1.
         11    1    1    2    0    0  0.19375584739E+00  0.80026427631E-01  0.85417860291E+00  0.87952652280E+00  0.51100000000E-03 0. -1.
    9000002    1    1    2    0    0 -0.78333682217E+00 -0.32286954191E+00  0.53783712848E+00  0.13736717566E+01  0.93800000000E+00 0. -1.
         22    1    1    2    0    0  0.58958097478E+00  0.24284311428E+00  0.26079842360E+01  0.26848017206E+01  0.00000000000E+00 0. -1.
</event>
<event>
 5    1  0.6172503E+001  0.1599656E+01  0.7818608E-02  0.3353736E+00
         11   -1    0    0    0    0  0.00000000000E+00  0.00000000000E+00  0.39999999674E+01  0.40000000000E+01  0.51100000000E-03 0.  1.
    9000002   -1    0    0    0    0 -0.00000000000E+00 -0.00000000000E+00  0.00000000000E+00  0.93800000000E+00  0.93800000000E+00 0.  1.
         11    1    1    2    0    0 -0.43492019298E-01  0.18467607201E+00  0.13905522595E+01  0.14034360174E+01  0.51100000000E-03 0.  1.
    9000002    1    1    2    0    0  0.13358051909E+00 -0.50689314055E+00  0.18891367460E+00  0.10910164011E+01  0.93800000000E+00 0.  1.
         22    1    1    2    0    0 -0.90088499796E-01  0.32221706854E+00  0.24205340332E+01  0.24435475815E+01  0.00000000000E+00 0.  1.
</event>
<event>
 5    1  0.6172503E+001  0.1598959E+01  0.7818608E-02  0.3354494E+00
         11   -1    0    0    0    0  0.00000000000E+00  0.00000000000E+00  0.39999999674E+01  0.40000000000E+01  0.51100000000E-03 0.  1.
    9000002   -1    0    0    0    0 -0.00000000000E+00 -0.00000000000E+00  0.00000000000E+00  0.93800000000E+00  0.93800000000E+00 0. -1.
         11    1    1    2    0    0 -0.70679268966E-01  0.13948280016E+00  0.97875184961E+00  0.99116419167E+00  0.51100000000E-03 0.  1.
    9000002    1    1    2    0    0  0.37349926081E+00 -0.50338060212E+00  0.27648235941E+00  0.11615421746E+01  0.93800000000E+00 0. -1.
         22    1    1    2    0    0 -0.30281999184E+00  0.36389780196E+00  0.27447657583E+01  0.27852936337E+01  0.00000000000E+00 0.  1.
</event>
<event>
 5    1  0.6172503E+001  0.1599505E+01  0.7818608E-02  0.3353901E+00
         11   -1    0    0    0    0  0.00000000000E+00  0.00000000000E+00  0.39999999674E+01  0.40000000000E+01  0.51100000000E-03 0. -1.
    9000002   -1    0    0    0    0 -0.00000000000E+00 -0.00000000000E+00  0.00000000000E+00  0.93800000000E+00  0.93800000000E+00 0.  1.
         11    1    1    2    0    0  0.95369480042E-01 -0.86280827824E-01  0.98239139434E+00  0.99077385501E+00  0.51100000000E-03 0. -1.
    9000002    1    1    2    0    0 -0.33534752385E+00  0.37584486937E+00  0.17394794603E+00  0.10788045307E+01  0.93800000000E+00 0.  1.
         22    1    1    2    0    0  0.23997804381E+00 -0.28956404155E+00  0.28436606270E+01  0.28684216143E+01  0.00000000000E+00 0. -1.
</event>
<event>
 5    1  0.6718366E+001  0.1599663E+01  0.7818608E-02  0.3353730E+00
         11   -1    0    0    0    0  0.00000000000E+00  0.00000000000E+00  0.39999999674E+01  0.40000000000E+01  0.51100000000E-03 0. -1.
    9000002   -1    0    0    0    0 -0.00000000000E+00 -0.00000000000E+00  0.00000000000E+00  0.93800000000E+00  0.93800000000E+00 0. -1.
         11    1    1    2    0    0 -0.40422592717E-01 -0.11962984558E+00  0.12383308469E+01  0.12447525189E+01  0.51100000000E-03 0. -1.
    9000002    1    1    2    0    0  0.12457052981E+00  0.38872396193E+00  0.11252302262E+00  0.10291402072E+01  0.93800000000E+00 0. -1.
         22    1    1    2    0    0 -0.84147937097E-01 -0.26909411635E+00  0.26491460979E+01  0.26641072739E+01  0.00000000000E+00 0. -1.
</event>
<event>
 5    1  0.6172503E+001  0.1599473E+01  0.7818608E-02  0.3353935E+00
         11   -1    0    0    0    0  0.00000000000E+00  0.00000000000E+00  0.39999999674E+01  0.40000000000E+01  0.51100000000E-03 0.  1.
    9000002   -1    0    0    0    0 -0.00000000000E+00 -0.00000000000E+00  0.00000000000E+00  0.93800000000E+00  0.93800000000E+00 0.  1.
         11    1    1    2    0    0  0.11087200065E+00  0.77077219238E-02  0.12889160552E+01  0.12936989094E+01  0.51100000000E-03 0.  1.
    9000002    1    1    2    0    0 -0.35706872739E+00 -0.67864970334E-01  0.88876634574E-01  0.10098746390E+01  0.93800000000E+00 0.  1.
         22    1    1    2    0    0  0.24619672674E+00  0.60157248410E-01  0.26222072775E+01  0.26344264517E+01  0.00000000000E+00 0.  1.
</event>
<event>
 5    1  0.6172503E+001  0.1599675E+01  0.7818608E-02  0.3353717E+00
         11   -1    0    0    0    0  0.00000000000E+00  0.00000000000E+00  0.39999999674E+01  0.40000000000E+01  0.51100000000E-03 0.  1.
    9000002   -1    0    0    0    0 -0.00000000000E+00 -0.00000000000E+00  0.00000000000E+00  0.93800000000E+00  0.93800000000E+00 0. -1.
         11    1    1    2    0    0 -0.99825432709E-01 -0.58810038414E-01  0.97859949016E+00  0.98543440213E+00  0.51100000000E-03 0.  1.
    9000002    1    1    2    0    0  0.39833300158E+00  0.23545141073E+00  0.14569756912E+00  0.10560200418E+01  0.93800000000E+00 0. -1.
         22    1    1    2    0    0 -0.29850756887E+00 -0.17664137232E+00  0.28757029081E+01  0.28965455561E+01  0.00000000000E+00 0.  1.
</event>
<event>
 5    1  0.6172503E+001  0.1542260E+01  0.7818608E-02  0.3418520E+00
         11   -1    0    0    0    0  0.00000000000E+00  0.00000000000E+00  0.39999999674E+01  0.40000000000E+01  0.51100000000E-03 0. -1.
    9000002   -1    0    0    0    0 -0.00000000000E+00 -0.00000000000E+00  0.00000000000E+00  0.93800000000E+00  0.93800000000E+00 0.  1.
         11    1    1    2    0    0  0.81103641230E-01 -0.16657036702E+00  0.64623399564E+00  0.67226641001E+00  0.51100000000E-03 0. -1.
    9000002    1    1    2    0    0  0.32696290427E+00 -0.54532258309E-02  0.11862639682E+00  0.10004252598E+01  0.93800000000E+00 0.  1.
         22    1    1    2    0    0 -0.40806654550E+00  0.17202359285E+00  0.32351395749E+01  0.32653083302E+01  0.00000000000E+00 0. -1.
</event>
<event>
 5    1  0.6172503E+001  0.1595303E+01  0.7818608E-02  0.3358477E+00
         11   -1    0    0    0    0  0.00000000000E+00  0.00000000000E+00  0.39999999674E+01  0.40000000000E+01  0.51100000000E-03 0. -1.
    9000002   -1    0    0    0    0 -0.00000000000E+00 -0.00000000000E+00  0.00000000000E+00  0.93800000000E+00  0.93800000000E+00 0.  1.
         11    1    1    2    0    0 -0.59498629392E-01 -0.40171639235E-01  0.25544561862E+00  0.26534236882E+00  0.51100000000E-03 0. -1.
    9000002    1    1    2    0    0  0.37868669063E+00  0.28418061978E+00  0.15665243274E+00  0.10623305601E+01  0.93800000000E+00 0.  1.
         22    1    1    2    0    0 -0.31918806124E+00 -0.24400898055E+00  0.35879019160E+01  0.36103270710E+01  0.00000000000E+00 0. -1.
</event>
<event>
 5    1  0.6172503E+001  0.1579097E+01  0.7818608E-02  0.3376368E+00
         11   -1    0    0    0    0  0.00000000000E+00  0.00000000000E+00  0.39999999674E+01  0.40000000000E+01  0.51100000000E-03 0.  1.
    9000002   -1    0    0    0    0 -0.00000000000E+00 -0.00000000000E+00  0.00000000000E+00  0.93800000000E+00  0.93800000000E+00 0.  1.
         11    1    1    2    0    0  0.10073304601E+00  0.17240416491E+00  0.13701343160E+01  0.13846077595E+01  0.51100000000E-03 0.  1.
    9000002    1    1    2    0    0  0.12579191063E+00 -0.26857153978E+00  0.74913459279E-01  0.98661558022E+00  0.93800000000E+00 0.  1.
         22    1    1    2    0    0 -0.22652495664E+00  0.96167374867E-01  0.25549521921E+01  0.25667766603E+01  0.00000000000E+00 0.  1.
</event>
<event>
 5    1  0.6172503E+001  0.1599379E+01  0.7818608E-02  0.3354037E+00
         11   -1    0    0    0    0  0.00000000000E+00  0.00000000000E+00  0.39999999674E+01  0.40000000000E+01  0.51100000000E-03 0. -1.
    9000002   -1    0    0    0    0 -0.00000000000E+00 -0.00000000000E+00  0.00000000000E+00  0.93800000000E+00  0.93800000000E+00 0. -1.
         11    1    1    2    0    0 -0.96372135326E-01 -0.10984053346E+00  0.12997769827E+01  0.13079652125E+01  0.51100000000E-03 0. -1.
    9000002    1    1    2    0    0  0.26718432231E+00  0.38087362112E+00  0.14760886540E+00  0.10573951742E+01  0.93800000000E+00 0. -1.
         22    1    1    2    0    0 -0.17081218698E+00 -0.27103308766E+00  0.25526141193E+01  0.25726396133E+01  0.00000000000E+00 0. -1.
</event>
<event>
 5    1  0.6172503E+001  0.1599448E+01  0.7818608E-02  0.3353963E+00
         11   -1    0    0    0    0  0.00000000000E+00  0.00000000000E+00  0.39999999674E+01  0.40000000000E+01  0.51100000000E-03 0.  1.
    9000002   -1    0    0    0    0 -0.00000000000E+00 -0.00000000000E+00  0.00000000000E+00  0.93800000000E+00  0.93800000000E+00 0. -1.
         11    1    1    2    0    0 -0.54296779715E-02 -0.51949630051E-02  0.69277478790E-01  0.69685717561E-01  0.51100000000E-03 0.  1.
    9000002    1    1    2    0    0  0.70436866448E-01  0.42350668757E+00  0.12501066849E+00  0.10391298927E+01  0.93800000000E+00 0. -1.
         22    1    1    2    0    0 -0.65007188476E-01 -0.41831172457E+00  0.38057118201E+01  0.38291843898E+01  0.00000000000E+00 0.  1.
</event>
<event>
 5    1  0.6172503E+001  0.1598124E+01  0.7818608E-02  0.3355402E+00
         11   -1    0    0    0    0  0.00000000000E+00  0.00000000000E+00  0.39999999674E+01  0.40000000000E+01  0.51100000000E-03 0. -1.
    9000002   -1    0    0    0    0 -0.00000000000E+00 -0.00000000000E+00  0.00000000000E+00  0.93800000000E+00  0.93800000000E+00 0.  1.
         11    1    1    2    0    0 -0.70901488358E-01  0.50590612115E-01  0.79937626959E+00  0.80410764988E+00  0.51100000000E-03 0. -1.
    9000002    1    1    2    0    0  0.51761266005E+00 -0.21157758043E+00  0.21783546040E+00  0.11135457899E+01  0.93800000000E+00 0.  1.
         22    1    1    2    0    0 -0.44671117169E+00  0.16098696831E+00  0.29827882374E+01  0.30203465602E+01  0.00000000000E+00 0. -1.
</event>
<event>
 5    1  0.6172503E+001  0.1483755E+01  0.7818608E-02  0.3490077E+00
         11   -1    0    0    0    0  0.00000000000E+00  0.00000000000E+00  0.39999999674E+01  0.40000000000E+01  0.51100000000E-03 0. -1.
    9000002   -1    0    0    0    0 -0.00000000000E+00 -0.00000000000E+00  0.00000000000E+00  0.93800000000E+00  0.93800000000E+00 0.  1.
         11    1    1    2    0    0  0.11279600883E-01  0.32163908302E+00  0.73540954692E+00  0.80274927091E+00  0.51100000000E-03 0. -1.
    9000002    1    1    2    0    0 -0.66703425105E+00 -0.60933790382E-01  0.45627157456E+00  0.12396271087E+01  0.93800000000E+00 0.  1.
         22    1    1    2    0    0  0.65575465017E+00 -0.26070529264E+00  0.28083188459E+01  0.28956236204E+01  0.00000000000E+00 0. -1.
</event>
<event>
 5    1  0.6172503E+001  0.1599632E+01  0.7818608E-02  0.3353762E+00
         11   -1    0    0    0    0  0.00000000000E+00  0.00000000000E+00  0.39999999674E+01  0.40000000000E+01  0.51100000000E-03 0.  1.
    9000002   -1    0    0    0    0 -0.00000000000E+00 -0.00000000000E+00  0.00000000000E+00  0.93800000000E+00  0.93800000000E+00 0. -1.
         11    1    1    2    0    0 -0.92186033145E-02  0.11535164752E-01  0.14541144210E+00  0.14616015629E+00  0.51100000000E-03 0.  1.
    9000002    1    1    2    0    0  0.27173879072E+00 -0.23314998145E+00  0.86073426081E-01  0.10076971365E+01  0.93800000000E+00 0. -1.
         22    1    1    2    0    0 -0.26252018741E+00  0.22161481669E+00  0.37685150992E+01  0.37841427072E+01  0.00000000000E+00 0.  1.
</event>
<event>
 5    1  0.6172503E+001  0.1599657E+01  0.7818608E-02  0.3353736E+00
         11   -1    0    0    0    0  0.00000000000E+00  0.00000000000E+00  0.39999999674E+01  0.40000000000E+01  0.51100000000E-03 0.  1.
    9000002   -1    0    0    0    0 -0.00000000000E+00 -0.00000000000E+00  0.00000000000E+00  0.93800000000E+00  0.93800000000E+00 0.  1.
         11    1    1    2    0    0 -0.16876923033E+00 -0.99962972161E-02  0.12178728125E+01  0.12295517181E+01  0.51100000000E-03 0.  1.
    9000002    1    1    2    0    0  0.54101063584E+00  0.37066379438E-01  0.20283625656E+00  0.11022944124E+01  0.93800000000E+00 0.  1.
         22    1    1    2    0    0 -0.37224140551E+00 -0.27070082222E-01  0.25792908983E+01  0.26061538695E+01  0.00000000000E+00 0.  1.
</event>
<event>
 5    1  0.6172503E+001  0.1595178E+01  0.7818608E-02  0.3358614E+00
         11   -1    0    0    0    0  0.00000000000E+00  0.00000000000E+00  0.39999999674E+01  0.40000000000E+01  0.51100000000E-03 0. -1.
    9000002   -1    0    0    0    0 -0.00000000000E+00 -0.00000000000E+00  0.00000000000E+00  0.93800000000E+00  0.93800000000E+00 0.  1.
         11    1    1    2    0    0 -0.31054103950E-01  0.91676573034E-01  0.37905886214E+00  0.39122223033E+00  0.51100000000E-03 0. -1.
    9000002    1    1    2    0    0  0.10166689762E+00 -0.47945942272E+00  0.16820123861E+00  0.10716124079E+01  0.93800000000E+00 0.  1.
         22    1    1    2    0    0 -0.70612793669E-01  0.38778284969E+00  0.34527398666E+01  0.34751653618E+01  0.00000000000E+00 0. -1.
</event>
<event>
 5    1  0.6172503E+001  0.1599677E+01  0.7818608E-02  0.3353715E+00
         11   -1    0    0    0    0  0.00000000000E+00  0.00000000000E+00  0.39999999674E+01  0.40000000000E+01  0.51100000000E-03 0. -1.
    9000002   -1    0    0    0    0 -0.00000000000E+00 -0.00000000000E+00  0.00000000000E+00  0.93800000000E+00  0.93800000000E+00 0.  1.
         11    1    1    2    0    0 -0.83655727013E-01 -0.64785338769E-01  0.71610405660E+00  0.72387892757E+00  0.51100000000E-03 0. -1.
    9000002    1    1    2    0    0  0.44050338457E+00  0.34485396698E+00  0.21655935233E+00  0.11134224012E+01  0.93800000000E+00 0.  1.
         22    1    1    2    0    0 -0.35684765756E+00 -0.28006862821E+00  0.30673365584E+01  0.31006986713E+01  0.00000000000E+00 0. -1.
</event>
<event>
 5    1  0.6172503E+001  0.1595514E+01  0.7818608E-02  0.3358247E+00
         11   -1    0    0    0    0  0.00000000000E+00  0.00000000000E+00  0.39999999674E+01  0.40000000000E+01  0.51100000000E-03 0. -1.
    9000002   -1    0    0    0    0 -0.00000000000E+00 -0.00000000000E+00  0.00000000000E+00  0.93800000000E+00  0.93800000000E+00 0. -1.
         11    1    1    2    0    0 -0.31136889577E-01 -0.26378730871E-02  0.66872987158E+00  0.66945975721E+00  0.51100000000E-03 0. -1.
    9000002    1    1    2    0    0  0.56443213325E-01  0.33402547584E+00  0.80190140172E-01  0.10005165233E+01  0.93800000000E+00 0. -1.
         22    1    1    2    0    0 -0.25306323747E-01 -0.33138760275E+00  0.32510799556E+01  0.32680237195E+01  0.00000000000E+00 0. -1.
</event>
<event>
 5    1  0.6172503E+001  0.1599552E+01  0.7818608E-02  0.3353850E+00
         11   -1    0    0    0    0  0.00000000000E+00  0.00000000000E+00  0.39999999674E+01  0.40000000000E+01  0.51100000000E-03 0. -1.
    9000002   -1    0    0    0    0 -0.00000000000E+00 -0.00000000000E+00  0.00000000000E+00  0.93800000000E+00  0.93800000000E+00 0. -1.
         11    1    1    2    0    0  0.48490806664E-01 -0.72927210848E-01  0.80708042543E+00  0.81181821281E+00  0.51100000000E-03 0. -1.
    9000002    1    1    2    0    0 -0.22491410729E+00  0.30078967920E+00  0.94963460525E-01  0.10148511446E+01  0.93800000000E+00 0. -1.
         22    1    1    2    0    0  0.17642330063E+00 -0.22786246835E+00  0.30979560814E+01  0.31113306426E+01  0.00000000000E+00 0. -1.
</event>
<event>
 5    1  0.6172503E+001  0.1599657E+01  0.7818608E-02  0.3353736E+00
         11   -1    0    0    0    0  0.00000000000E+00  0.00000000000E+00  0.39999999674E+01  0.40000000000E+01  0.51100000000E-03 0. -1.
    9000002   -1    0    0    0    0 -0.00000000000E+00 -0.00000000000E+00  0.00000000000E+00  0.93800000000E+00  0.93800000000E+00 0.  1.
         11    1    1    2    0    0 -0.10320035595E+00  0.16700821480E+00  0.13265376257E+01  0.13409863499E+01  0.51100000000E-03 0. -1.
    9000002    1    1    2    0    0  0.29923955488E+00 -0.46313973516E+00  0.21007729781E+00  0.11081602757E+01  0.93800000000E+00 0.  1.
         22    1    1    2    0    0 -0.19603919893E+00  0.29613152036E+00  0.24633850439E+01  0.24888533744E+01  0.00000000000E+00 0. -1.
</event>
<event>
 5    1  0.6172503E+001  0.1599674E+01  0.7818608E-02  0.3353718E+00
         11   -1    0    0    0    0  0.00000000000E+00  0.00000000000E+00  0.39999999674E+01  0.40000000000E+01  0.51100000000E-03 0.  1.
    9000002   -1    0    0    0    0 -0.00000000000E+00 -0.00000000000E+00  0.00000000000E+00  0.93800000000E+00  0.93800000000E+00 0.  1.
         11    1    1    2    0    0  0.98828722998E-01 -0.17234351523E+00  0.11728122941E+01  0.11895202150E+01  0.51100000000E-03 0.  1.
    9000002    1    1    2    0    0 -0.30768203547E+00  0.54552999376E+00  0.27528243901E+00  0.11609890741E+01  0.93800000000E+00 0.  1.
         22    1    1    2    0    0  0.20885331247E+00 -0.37318647853E+00  0.25519052343E+01  0.25874907108E+01  0.00000000000E+00 0.  1.
</event>
<event>
 5    1  0.6172503E+001  0.1599340E+01  0.7818608E-02  0.3354080E+00
         11   -1    0    0    0    0  0.00000000000E+00  0.00000000000E+00  0.39999999674E+01  0.40000000000E+01  0.51100000000E-03 0. -1.
    9000002   -1    0    0    0    0 -0.00000000000E+00 -0.00000000000E+00  0.00000000000E+00  0.93800000000E+00  0.93800000000E+00 0. -1.
         11    1    1    2    0    0 -0.20719201339E-01 -0.15088801103E+00  0.12140806536E+01  0.12235965723E+01  0.51100000000E-03 0. -1.
    9000002    1    1    2    0    0  0.11195061266E+00  0.43368925293E+00  0.13650621371E+00  0.10483783926E+01  0.93800000000E+00 0. -1.
         22    1    1    2    0    0 -0.91231411317E-01 -0.28280124190E+00  0.26494131000E+01  0.26660250350E+01  0.00000000000E+00 0. -1.
</event>
<event>
 5    1  0.6172503E+001  0.1522541E+01  0.7818608E-02  0.3441978E+00
         11   -1    0    0    0    0  0.00000000000E+00  0.00000000000E+00  0.39999999674E+01  0.40000000000E+01  0.51100000000E-03 0.  1.
    9000002   -1    0    0    0    0 -0.00000000000E+00 -0.00000000000E+00  0.00000000000E+00  0.93800000000E+00  0.93800000000E+00 0. -1.
         11    1    1    2    0    0 -0.24641093172E+00 -0.24324229162E+00  0.10422887440E+01  0.10982946994E+01  0.51100000000E-03 0.  1.
    9000002    1    1    2    0    0  0.47039909142E+00 -0.12290858569E+00  0.23366130663E+00  0.10820459472E+01  0.93800000000E+00 0. -1.
         22    1    1    2    0    0 -0.22398815970E+00  0.36615087731E+00  0.27240499168E+01  0.27576593534E+01  0.00000000000E+00 0.  1.
</event>
<event>
 5    1  0.6172503E+001  0.1594180E+01  0.7818608E-02  0.3359705E+00
         11   -1    0    0    0    0  0.00000000000E+00  0.00000000000E+00  0.39999999674E+01  0.40000000000E+01  0.51100000000E-03 0. -1.
    9000002   -1    0    0    0    0 -0.00000000000E+00 -0.00000000000E+00  0.00000000000E+00  0.93800000000E+00  0.93800000000E+00 0.  1.
         11    1    1    2    0    0  0.55844548432E-01  0.48933698666E-01  0.43290522034E+00  0.43922694746E+00  0.51100000000E-03 0. -1.
    9000002    1    1    2    0    0  0.45514004496E-02 -0.45962500007E+00  0.14850211169E+00  0.10550700134E+01  0.93800000000E+00 0.  1.
         22    1    1    2    0    0 -0.60395948882E-01  0.41069130140E+00  0.34185926353E+01  0.34437030392E+01  0.00000000000E+00 0. -1.
</event>
<event>
 5    1  0.6172503E+001  0.1599673E+01  0.7818608E-02  0.3353718E+00
         11   -1    0    0    0    0  0.00000000000E+00  0.00000000000E+00  0.39999999674E+01  0.40000000000E+01  0.51100000000E-03 0. -1.
    9000002   -1    0    0    0    0 -0.00000000000E+00 -0.00000000000E+00  0.00000000000E+00  0.93800000000E+00  0.93800000000E+00 0.  1.
         11    1    1    2    0    0 -0.13775395407E-01 -0.20934494071E-01  0.16454037700E+00  0.16643861134E+00  0.51100000000E-03 0. -1.
    9000002    1    1    2    0    0  0.31713904155E+00  0.49750119930E+00  0.24234887895E+00  0.11343110658E+01  0.93800000000E+00 0.  1.
         22    1    1    2    0    0 -0.30336364614E+00 -0.47656670523E+00  0.35931107114E+01  0.36372503228E+01  0.00000000000E+00 0. -1.
</event>
<event>
 5    1  0.6172503E+001  0.1599677E+01  0.7818608E-02  0.3353715E+00
         11   -1    0    0    0    0  0.00000000000E+00  0.00000000000E+00  0.39999999674E+01  0.40000000000E+01  0.51100000000E-03 0. -1.
    9000002   -1    0    0    0    0 -0.00000000000E+00 -0.00000000000E+00  0.00000000000E+00  0.93800000000E+00  0.93800000000E+00 0.  1.
         11    1    1    2    0    0  0.98358482868E-01  0.70088412228E-01  0.12874190446E+01  0.12930718596E+01  0.51100000000E-03 0. -1.
    9000002    1    1    2    0    0 -0.29773257447E+00 -0.21503021548E+00  0.90617785551E-01  0.10114041045E+01  0.93800000000E+00 0.  1.
         22    1    1    2    0    0  0.19937409161E+00  0.14494180325E+00  0.26219631373E+01  0.26335240359E+01  0.00000000000E+00 0. -1.
</event>
<event>
 5    1  0.6172503E+001  0.1599671E+01  0.7818608E-02  0.3353720E+00
         11   -1    0    0    0    0  0.00000000000E+00  0.00000000000E+00  0.39999999674E+01  0.40000000000E+01  0.51100000000E-03 0. -1.
    9000002   -1    0    0    0    0 -0.00000000000E+00 -0.00000000000E+00  0.00000000000E+00  0.93800000000E+00  0.93800000000E+00 0. -1.
         11    1    1    2    0    0  0.14682839745E-01  0.73817085922E-02  0.13933936504E+00  0.14030607676E+00  0.51100000000E-03 0. -1.
    9000002    1    1    2    0    0 -0.42538055847E+00 -0.18480716806E+00  0.14640226562E+00  0.10565888189E+01  0.93800000000E+00 0. -1.
         22    1    1    2    0    0  0.41069771873E+00  0.17742545946E+00  0.37142583367E+01  0.37411051043E+01  0.00000000000E+00 0. -1.
</event>
<event>
 5    1  0.6172503E+001  0.1599517E+01  0.7818608E-02  0.3353888E+00
         11   -1    0    0    0    0  0.00000000000E+00  0.00000000000E+00  0.39999999674E+01  0.40000000000E+01  0.51100000000E-03 0.  1.
    9000002   -1    0    0    0    0 -0.00000000000E+00 -0.00000000000E+00  0.00000000000E+00  0.93800000000E+00  0.93800000000E+00 0. -1.
         11    1    1    2    0    0 -0.18411825036E+00  0.59761524673E-01  0.14669364608E+01  0.14796532740E+01  0.51100000000E-03 0.  1.
    9000002    1    1    2    0    0  0.51502610693E+00 -0.14650905821E+00  0.19764808917E+00  0.10980098188E+01  0.93800000000E+00 0. -1.
         22    1    1    2    0    0 -0.33090785657E+00  0.86747533540E-01  0.23354154173E+01  0.23603369072E+01  0.00000000000E+00 0.  1.
</event>
<event>
 5    1  0.6172503E+001  0.1599674E+01  0.7818608E-02  0.3353717E+00
         11   -1    0    0    0    0  0.00000000000E+00  0.00000000000E+00  0.39999999674E+01  0.40000000000E+01  0.51100000000E-03 0. -1.
    9000002   -1    0    0    0    0 -0.00000000000E+00 -0.00000000000E+00  0.00000000000E+00  0.93800000000E+00  0.93800000000E+00 0. -1.
         11    1    1    2    0    0 -0.21519860919E-01  0.21296899593E-01  0.32126360567E+00  0.32268750796E+00  0.51100000000E-03 0. -1.
    9000002    1    1    2    0    0  0.26084228395E+00 -0.24668932032E+00  0.86514608142E-01  0.10080789132E+01  0.93800000000E+00 0. -1.
         22    1    1    2    0    0 -0.23932242303E+00  0.22539242073E+00  0.35922217535E+01  0.36072335788E+01  0.00000000000E+00 0. -1.
</event>
<event>
 5    1  0.6172503E+001  0.1580616E+01  0.7818608E-02  0.3374675E+00
         11   -1    0    0    0    0  0.00000000000E+00  0.00000000000E+00  0.39999999674E+01  0.40000000000E+01  0.51100000000E-03 0.  1.
    9000002   -1    0    0    0    0 -0.00000000000E+00 -0.00000000000E+00  0.00000000000E+00  0.93800000000E+00  0.93800000000E+00 0.  1.
         11    1    1    2    0    0 -0.11146017634E+00  0.79096884469E-02  0.11426667869E+01  0.11481174074E+01  0.51100000000E-03 0.  1.
    9000002    1    1    2    0    0 -0.13094590938E+00 -0.95368698637E-01  0.31586528496E-01  0.95240943330E+00  0.93800000000E+00 0.  1.
         22    1    1    2    0    0  0.24240608572E+00  0.87459010190E-01  0.28257466519E+01  0.28374731593E+01  0.00000000000E+00 0.  1.
</event>
<event>
 5    1  0.6172503E+001  0.1599662E+01  0.7818608E-02  0.3353731E+00
         11   -1    0    0    0    0  0.00000000000E+00  0.00000000000E+00  0.39999999674E+01  0.40000000000E+01  0.51100000000E-03 0.  1.
    9000002   -1    0    0    0    0 -0.00000000000E+00 -0.00000000000E+00  0.00000000000E+00  0.93800000000E+00  0.93800000000E+00 0.  1.
         11    1    1    2    0    0  0.21429510018E-01 -0.12973171065E-01  0.22491548612E+00  0.22630679195E+00  0.51100000000E-03 0.  1.
    9000002    1    1    2    0    0 -0.34486533619E+00  0.25171670394E+00  0.12341667609E+00  0.10379639084E+01  0.93800000000E+00 0.  1.
         22    1    1    2    0    0  0.32343582617E+00 -0.23874353287E+00  0.36516678051E+01  0.36737292997E+01  0.00000000000E+00 0.  1.
</event>
<event>
 5    1  0.6172503E+001  0.1597704E+01  0.7818608E-02  0.3355859E+00
         11   -1    0    0    0    0  0.00000000000E+00  0.00000000000E+00  0.39999999674E+01  0.40000000000E+01  0.51100000000E-03 0. -1.
    9000002   -1    0    0    0    0 -0.00000000000E+00 -0.00000000000E+00  0.00000000000E+00  0.93800000000E+00  0.93800000000E+00 0.  1.
         11    1    1    2    0    0 -0.10765294624E+00 -0.50122850008E-01  0.93216022876E+00  0.93969378529E+00  0.51100000000E-03 0. -1.
    9000002    1    1    2    0    0  0.40359051046E+00  0.24001151685E-01  0.11196762415E+00  0.10275417774E+01  0.93800000000E+00 0.  1.
         22    1    1    2    0    0 -0.29593756423E+00  0.26121698323E-01  0.29558721145E+01  0.29707644373E+01  0.00000000000E+00 0. -1.
</event>
<event>
 5    1  0.6636564E+001  0.1599675E+01  0.7818608E-02  0.3353716E+00
         11   -1    0    0    0    0  0.00000000000E+00  0.00000000000E+00  0.39999999674E+01  0.40000000000E+01  0.51100000000E-03 0. -1.
    9000002   -1    0    0    0    0 -0.00000000000E+00 -0.00000000000E+00  0.00000000000E+00  0.93800000000E+00  0.93800000000E+00 0. -1.
         11    1    1    2    0    0  0.86703347474E-01  0.97579253256E-01  0.14448432531E+01  0.14507279098E+01  0.51100000000E-03 0. -1.
    9000002    1    1    2    0    0 -0.23176806038E+00 -0.26722933444E+00  0.83935821480E-01  0.10059906427E+01  0.93800000000E+00 0. -1.
         22    1    1    2    0    0  0.14506471290E+00  0.16965008118E+00  0.24712208928E+01  0.24812814476E+01  0.00000000000E+00 0. -1.
</event>
<event>
 5    1  0.9065545E+001  0.1599336E+01  0.7818608E-02  0.3354084E+00
         11   -1    0    0    0    0  0.00000000000E+00  0.00000000000E+00  0.39999999674E+01  0.40000000000E+01  0.51100000000E-03 0.  1.
    9000002   -1    0    0    0    0 -0.00000000000E+00 -0.00000000000E+00  0.00000000000E+00  0.93800000000E+00  0.93800000000E+00 0. -1.
         11    1    1    2    0    0 -0.10080515875E+00  0.18994274580E-01  0.13773486262E+01  0.13811632639E+01  0.51100000000E-03 0.  1.
    9000002    1    1    2    0    0  0.34011088869E+00 -0.25036758272E-01  0.78178678857E-01  0.10011284442E+01  0.93800000000E+00 0. -1.
         22    1    1    2    0    0 -0.23930572994E+00  0.60424836920E-02  0.25444726623E+01  0.25557082919E+01  0.00000000000E+00 0.  1.
</event>
<event>
 5    1  0.6172503E+001  0.1599643E+01  0.7818608E-02  0.3353751E+00
         11   -1    0    0    0    0  0.00000000000E+00  0.00000000000E+00  0.39999999674E+01  0.40000000000E+01  0.51100000000E-03 0.  1.
    9000002   -1    0    0    0    0 -0.00000000000E+00 -0.00000000000E+00  0.00000000000E+00  0.93800000000E+00  0.93800000000E+00 0.  1.
         11    1    1    2    0    0 -0.61027173813E-01 -0.17538196507E-01  0.63975836942E+00  0.64290196503E+00  0.51100000000E-03 0.  1.
    9000002    1    1    2    0    0  0.35249505210E+00  0.83069765167E-01  0.88087561916E-01  0.10093348137E+01  0.93800000000E+00 0.  1.
         22    1    1    2    0    0 -0.29146787829E+00 -0.65531568660E-01  0.32721540360E+01  0.32857632212E+01  0.00000000000E+00 0.  1.
</event>
<event>
 5    1  0.6172503E+001  0.1599552E+01  0.7818608E-02  0.3353850E+00
         11   -1    0    0    0    0  0.00000000000E+00  0.00000000000E+00  0.39999999674E+01  0.40000000000E+01  0.51100000000E-03 0.  1.
    9000002   -1    0    0    0    0 -0.00000000000E+00 -0.00000000000E+00  0.00000000000E+00  0.93800000000E+00  0.93800000000E+00 0. -1.
         11    1    1    2    0    0  0.30184200077E-01 -0.11815716032E-01  0.37601896718E+00  0.37741386021E+00  0.51100000000E-03 0.  1.
    9000002    1    1    2    0    0 -0.39437218116E+00  0.12191710146E+00  0.11523116450E+00  0.10312688389E+01  0.93800000000E+00 0. -1.
         22    1    1    2    0    0  0.36418798109E+00 -0.11010138542E+00  0.35087498357E+01  0.35293173008E+01  0.00000000000E+00 0.  1.
</event>
<event>
 5    1  0.6172503E+001  0.1599553E+01  0.7818608E-02  0.3353849E+00
         11   -1    0    0    0    0  0.00000000000E+00  0.00000000000E+00  0.39999999674E+01  0.40000000000E+01  0.51100000000E-03 0.  1.
    9000002   -1    0    0    0    0 -0.00000000000E+00 -0.00000000000E+00  0.00000000000E+00  0.93800000000E+00  0.93800000000E+00 0. -1.
         11    1    1    2    0    0  0.29566078372E-01 -0.23192583479E-01  0.27598330887E+00  0.27853024398E+00  0.51100000000E-03 0.  1.
    9000002    1    1    2    0    0 -0.31888768073E+00  0.30740756516E+00  0.13321719085E+00  0.10458391769E+01  0.93800000000E+00 0. -1.
         22    1    1    2    0    0  0.28932160236E+00 -0.28421498168E+00  0.35907994676E+01  0.36136305791E+01  0.00000000000E+00 0.  1.
</event>
<event>
 5    1  0.6172503E+001  0.1599677E+01  0.7818608E-02  0.3353714E+00
         11   -1    0    0    0    0  0.00000000000E+00  0.00000000000E+00  0.39999999674E+01  0.40000000000E+01  0.51100000000E-03 0. -1.
    9000002   -1    0    0    0    0 -0.00000000000E+00 -0.00000000000E+00  0.00000000000E+00  0.93800000000E+00  0.93800000000E+00 0.  1.
         11    1    1    2    0    0 -0.74512820238E-01  0.12854479813E+00  0.13305982094E+01  0.13388680971E+01  0.51100000000E-03 0.  1.
    9000002    1    1    2    0    0  0.21788252596E+00 -0.37298717042E+00  0.12640207598E+00  0.10403911328E+01  0.93800000000E+00 0.  1.
         22    1    1    2    0    0 -0.14336970572E+00  0.24444237228E+00  0.25429996820E+01  0.25587407700E+01  0.00000000000E+00 0. -1.
</event>
<event>
 5    1  0.6172503E+001  0.1599265E+01  0.7818608E-02  0.3354162E+00
         11   -1    0    0    0    0  0.00000000000E+00  0.00000000000E+00  0.39999999674E+01  0.40000000000E+01  0.51100000000E-03 0.  1.
    9000002   -1    0    0    0    0 -0.00000000000E+00 -0.00000000000E+00  0.00000000000E+00  0.93800000000E+00  0.93800000000E+00 0. -1.
         11    1    1    2    0    0 -0.22447102188E-01  0.30638749567E-01  0.40764340281E+00  0.40940934326E+00  0.51100000000E-03 0.  1.
    9000002    1    1    2    0    0  0.13547321792E+00 -0.41065228809E+00  0.12702977713E+00  0.10406578971E+01  0.93800000000E+00 0. -1.
         22    1    1    2    0    0 -0.11302611573E+00  0.38001353852E+00  0.34653267874E+01  0.34879327597E+01  0.00000000000E+00 0.  1.
</event>
<event>
 5    1  0.6172503E+001  0.1599677E+01  0.7818608E-02  0.3353714E+00
         11   -1    0    0    0    0  0.00000000000E+00  0.00000000000E+00  0.39999999674E+01  0.40000000000E+01  0.51100000000E-03 0. -1.
    9000002   -1    0    0    0    0 -0.00000000000E+00 -0.00000000000E+00  0.00000000000E+00  0.93800000000E+00  0.93800000000E+00 0.  1.
         11    1    1    2    0    0 -0.10403340432E+00 -0.46321020454E-01  0.11711450371E+01  0.11766688341E+01  0.51100000000E-03 0. -1.
    9000002    1    1    2    0    0  0.34673629860E+00  0.15599812489E+00  0.97269462230E-01  0.10167924193E+01  0.93800000000E+00 0.  1.
         22    1    1    2    0    0 -0.24270289427E+00 -0.10967710443E+00  0.27315854681E+01  0.27445387466E+01  0.00000000000E+00 0. -1.
</event>
<event>
 5    1  0.6172503E+001  0.1599654E+01  0.7818608E-02  0.3353739E+00
         11   -1    0    0    0    0  0.00000000000E+00  0.00000000000E+00  0.39999999674E+01  0.40000000000E+01  0.51100000000E-03 0.  1.
    9000002   -1    0    0    0    0 -0.00000000000E+00 -0.00000000000E+00  0.00000000000E+00  0.93800000000E+00  0.93800000000E+00 0.  1.
         11    1    1    2    0    0  0.97909170596E-01  0.61984240493E-01  0.10480344059E+01  0.10544214665E+01  0.51100000000E-03 0.  1.
    9000002    1    1    2    0    0 -0.34392748257E+00 -0.22930729796E+00  0.11547471225E+00  0.10315262281E+01  0.93800000000E+00 0.  1.
         22    1    1    2    0    0  0.24601831197E+00  0.16732305747E+00  0.28364908492E+01  0.28520523054E+01  0.00000000000E+00 0.  1.
</event>
<event>
 5    1  0.6172503E+001  0.1448475E+01  0.7818608E-02  0.3536251E+00
         11   -1    0    0    0    0  0.00000000000E+00  0.00000000000E+00  0.39999999674E+01  0.40000000000E+01  0.51100000000E-03 0.  1.
    9000002   -1    0    0    0    0 -0.00000000000E+00 -0.00000000000E+00  0.00000000000E+00  0.93800000000E+00  0.93800000000E+00 0. -1.
         11    1    1    2    0    0  0.26675430671E+00  0.21922355363E+00  0.29114251158E+00  0.45164261290E+00  0.51100000000E-03 0.  1.
    9000002    1    1    2    0    0 -0.34297410781E+00 -0.52463310826E+00  0.45361050074E+00  0.12159266521E+01  0.93800000000E+00 0. -1.
         22    1    1    2    0    0  0.76219801101E-01  0.30540955463E+00  0.32552469550E+01  0.32704307350E+01  0.00000000000E+00 0.  1.
</event>
<event>
 5    1  0.6172503E+001  0.1582643E+01  0.7818608E-02  0.3372420E+00
         11   -1    0    0    0    0  0.00000000000E+00  0.00000000000E+00  0.39999999674E+01  0.40000000000E+01  0.51100000000E-03 0. -1.
    9000002   -1    0    0    0    0 -0.00000000000E+00 -0.00000000000E+00  0.00000000000E+00  0.93800000000E+00  0.93800000000E+00 0.  1.
         11    1    1    2    0    0  0.45830932945E-01 -0.20155737720E-01  0.20974712234E+00  0.21564054496E+00  0.51100000000E-03 0. -1.
    9000002    1    1    2    0    0  0.25505144527E+00 -0.34679853101E+00  0.14015123329E+00  0.10415406036E+01  0.93800000000E+00 0.  1.
         22    1    1    2    0    0 -0.30088237822E+00  0.36695426873E+00  0.36501016117E+01  0.36808188514E+01  0.00000000000E+00 0. -1.
</event>
<event>
 5    1  0.6172503E+001  0.1599677E+01  0.7818608E-02  0.3353714E+00
         11   -1    0    0    0    0  0.00000000000E+00  0.00000000000E+00  0.39999999674E+01  0.40000000000E+01  0.51100000000E-03 0.  1.
    9000002   -1    0    0    0    0 -0.00000000000E+00 -0.00000000000E+00  0.00000000000E+00  0.93800000000E+00  0.93800000000E+00 0.  1.
         11    1    1    2    0    0  0.10337586710E-01 -0.12802963175E+00  0.11313033529E+01  0.11385719080E+01  0.51100000000E-03 0.  1.
    9000002    1    1    2    0    0 -0.33956498541E-01  0.43744414290E+00  0.13053687960E+00  0.10437405324E+01  0.93800000000E+00 0.  1.
         22    1    1    2    0    0  0.23618911831E-01 -0.30941451115E+00  0.27381597348E+01  0.27556875596E+01  0.00000000000E+00 0.  1.
</event>
<event>
 5    1  0.6172503E+001  0.1589048E+01  0.7818608E-02  0.3365337E+00
         11   -1    0    0    0    0  0.00000000000E+00  0.00000000000E+00  0.39999999674E+01  0.40000000000E+01  0.51100000000E-03 0. -1.
    9000002   -1    0    0    0    0 -0.00000000000E+00 -0.00000000000E+00  0.00000000000E+00  0.93800000000E+00  0.93800000000E+00 0. -1.
         11    1    1    2    0    0  0.28866814561E-01 -0.43851630732E-01  0.40216745566E+00  0.40558005623E+00  0.51100000000E-03 0. -1.
    9000002    1    1    2    0    0 -0.44659725008E+00 -0.28558117969E+00  0.20328499968E+00  0.10964371870E+01  0.93800000000E+00 0. -1.
         22    1    1    2    0    0  0.41773043552E+00  0.32943281042E+00  0.33945475120E+01  0.34359827568E+01  0.00000000000E+00 0. -1.
</event>
<event>
 5    1  0.6172503E+001  0.1599665E+01  0.7818608E-02  0.3353727E+00
         11   -1    0    0    0    0  0.00000000000E+00  0.00000000000E+00  0.39999999674E+01  0.40000000000E+01  0.51100000000E-03 0.  1.
    9000002   -1    0    0    0    0 -0.00000000000E+00 -0.00000000000E+00  0.00000000000E+00  0.93800000000E+00  0.93800000000E+00 0. -1.
         11    1    1    2    0    0  0.93368796145E-01  0.10036933832E+00  0.98973230825E+00  0.99918068400E+00  0.51100000000E-03 0.  1.
    9000002    1    1    2    0    0 -0.35562502469E+00 -0.39955513003E+00  0.19707457917E+00  0.10976319282E+01  0.93800000000E+00 0. -1.
         22    1    1    2    0    0  0.26225622854E+00  0.29918579171E+00  0.28131930799E+01  0.28411873878E+01  0.00000000000E+00 0.  1.
</event>
<event>
 5    1  0.6172503E+001  0.1599675E+01  0.7818608E-02  0.3353716E+00
         11   -1    0    0    0    0  0.00000000000E+00  0.00000000000E+00  0.39999999674E+01  0.40000000000E+01  0.51100000000E-03 0.  1.
    9000002   -1    0    0    0    0 -0.00000000000E+00 -0.00000000000E+00  0.00000000000E+00  0.93800000000E+00  0.93800000000E+00 0.  1.
         11    1    1    2    0    0  0.17123894234E-01 -0.46493555343E-01  0.36333361917E+00  0.36669668444E+00  0.51100000000E-03 0.  1.
    9000002    1    1    2    0    0 -0.18379797083E+00  0.49514494999E+00  0.19189616109E+00  0.10934433466E+01  0.93800000000E+00 0.  1.
         22    1    1    2    0    0  0.16667407659E+00 -0.44865139465E+00  0.34447701871E+01  0.34778599690E+01  0.00000000000E+00 0.  1.
</event>
<event>
 5    1  0.6172503E+001  0.1599676E+01  0.7818608E-02  0.3353715E+00
         11   -1    0    0    0    0  0.00000000000E+00  0.00000000000E+00  0.39999999674E+01  0.40000000000E+01  0.51100000000E-03 0. -1.
    9000002   -1    0    0    0    0 -0.00000000000E+00 -0.00000000000E+00  0.00000000000E+00  0.93800000000E+00  0.93800000000E+00 0. -1.
         11    1    1    2    0    0  0.38959131987E-01 -0.20587955020E-01  0.38892608027E+00  0.39141465851E+00  0.51100000000E-03 0. -1.
    9000002    1    1    2    0    0 -0.39275897027E+00  0.20210691336E+00  0.13235418730E+00  0.10452121527E+01  0.93800000000E+00 0. -1.
         22    1    1    2    0    0  0.35379983829E+00 -0.18151895834E+00  0.34787196998E+01  0.35013731888E+01  0.00000000000E+00 0. -1.
</event>
<event>
 5    1  0.6172503E+001  0.1599676E+01  0.7818608E-02  0.3353715E+00
         11   -1    0    0    0    0  0.00000000000E+00  0.00000000000E+00  0.39999999674E+01  0.40000000000E+01  0.51100000000E-03 0.  1.
    9000002   -1    0    0    0    0 -0.00000000000E+00 -0.00000000000E+00  0.00000000000E+00  0.93800000000E+00  0.93800000000E+00 0. -1.
         11    1    1    2    0    0  0.40596595068E-01  0.78022749583E-01  0.82207966465E+00  0.82677135239E+00  0.51100000000E-03 0.  1.
    9000002    1    1    2    0    0 -0.19001789548E+00 -0.37124001387E+00  0.11758034167E+00  0.10332449299E+01  0.93800000000E+00 0. -1.
         22    1    1    2    0    0  0.14942130042E+00  0.29321726429E+00  0.30603399610E+01  0.30779837177E+01  0.00000000000E+00 0.  1.
</event>
<event>
 5    1  0.6172503E+001  0.1599662E+01  0.7818608E-02  0.3353730E+00
         11   -1    0    0    0    0  0.00000000000E+00  0.00000000000E+00  0.39999999674E+01  0.40000000000E+01  0.51100000000E-03 0. -1.
    9000002   -1    0    0    0    0 -0.00000000000E+00 -0.00000000000E+00  0.00000000000E+00  0.93800000000E+00  0.93800000000E+00 0. -1.
         11    1    1    2    0    0 -0.92090352380E-01 -0.79273065980E-01  0.10202657564E+01  0.10274761928E+01  0.51100000000E-03 0. -1.
    9000002    1    1    2    0    0  0.33320069014E+00  0.29986331365E+00  0.13645373453E+00  0.10485248344E+01  0.93800000000E+00 0. -1.
         22    1    1    2    0    0 -0.24111033777E+00 -0.22059024767E+00  0.28432804764E+01  0.28619989727E+01  0.00000000000E+00 0. -1.
</event>
<event>
 5    1  0.6172503E+001  0.1531912E+01  0.7818608E-02  0.3430750E+00
         11   -1    0    0    0    0  0.00000000000E+00  0.00000000000E+00  0.39999999674E+01  0.40000000000E+01  0.51100000000E-03 0.  1.
    9000002   -1    0    0    0    0 -0.00000000000E+00 -0.00000000000E+00  0.00000000000E+00  0.93800000000E+00  0.93800000000E+00 0.  1.
         11    1    1    2    0    0  0.19382437506E+00 -0.18136343444E+00  0.12385483514E+01  0.12666739374E+01  0.51100000000E-03 0.  1.
    9000002    1    1    2    0    0 -0.12596647176E+00 -0.20943205042E+00  0.93235521900E-01  0.97378960679E+00  0.93800000000E+00 0.  1.
         22    1    1    2    0    0 -0.67857903299E-01  0.39079548485E+00  0.26682160940E+01  0.26975364558E+01  0.00000000000E+00 0.  1.
</event>
<event>
 5    1  0.6172503E+001  0.1599659E+01  0.7818608E-02  0.3353734E+00
         11   -1    0    0    0    0  0.00000000000E+00  0.00000000000E+00  0.39999999674E+01  0.40000000000E+01  0.51100000000E-03 0. -1.
    9000002   -1    0    0    0    0 -0.00000000000E+00 -0.00000000000E+00  0.00000000000E+00  0.93800000000E+00  0.93800000000E+00 0.  1.
         11    1    1    2    0    0 -0.31868249703E-01  0.36182767592E-01  0.45843355758E+00  0.46096243431E+00  0.51100000000E-03 0. -1.
    9000002    1    1    2    0    0  0.25550402009E+00 -0.33009200693E+00  0.11781539837E+00  0.10334251330E+01  0.93800000000E+00 0.  1.
         22    1    1    2    0    0 -0.22363577039E+00  0.29390923934E+00  0.34237510114E+01  0.34436124327E+01  0.00000000000E+00 0. -1.
</event>
<event>
 5    1  0.6172503E+001  0.1563888E+01  0.7818608E-02  0.3393516E+00
         11   -1    0    0    0    0  0.00000000000E+00  0.00000000000E+00  0.39999999674E+01  0.40000000000E+01  0.51100000000E-03 0.  1.
    9000002   -1    0    0    0    0 -0.00000000000E+00 -0.00000000000E+00  0.00000000000E+00  0.93800000000E+00  0.93800000000E+00 0.  1.
         11    1    1    2    0    0  0.17234936325E+00 -0.50077155501E-01  0.51440058890E+00  0.54481212495E+00  0.51100000000E-03 0.  1.
    9000002    1    1    2    0    0 -0.46863119682E+00 -0.48976867945E+00  0.36659079600E+00  0.12139692623E+01  0.93800000000E+00 0.  1.
         22    1    1    2    0    0  0.29628183358E+00  0.53984583495E+00  0.31190085825E+01  0.31792186128E+01  0.00000000000E+00 0.  1.
</event>
<event>
 5    1  0.6172503E+001  0.1597730E+01  0.7818608E-02  0.3355831E+00
         11   -1    0    0    0    0  0.00000000000E+00  0.00000000000E+00  0.39999999674E+01  0.40000000000E+01  0.51100000000E-03 0.  1.
    9000002   -1    0    0    0    0 -0.00000000000E+00 -0.00000000000E+00  0.00000000000E+00  0.93800000000E+00  0.93800000000E+00 0. -1.
         11    1    1    2    0    0 -0.14340083327E-01 -0.24559517733E-01  0.61984906620E+00  0.62050135688E+00  0.51100000000E-03 0.  1.
    9000002    1    1    2    0    0  0.33500402173E+00  0.13918766555E+00  0.89948674647E-01  0.10097205875E+01  0.93800000000E+00 0. -1.
         22    1    1    2    0    0 -0.32066393841E+00 -0.11462814782E+00  0.32902022265E+01  0.33077780556E+01  0.00000000000E+00 0.  1.
</event>
<event>
 5    1  0.6172503E+001  0.1599677E+01  0.7818608E-02  0.3353714E+00
         11   -1    0    0    0    0  0.00000000000E+00  0.00000000000E+00  0.39999999674E+01  0.40000000000E+01  0.51100000000E-03 0.  1.
    9000002   -1    0    0    0    0 -0.00000000000E+00 -0.00000000000E+00  0.00000000000E+00  0.93800000000E+00  0.93800000000E+00 0. -1.
         11    1    1    2    0    0  0.62715715509E-01  0.22695396695E-01  0.71762477663E+00  0.72071764454E+00  0.51100000000E-03 0. -1.
    9000002    1    1    2    0    0 -0.34235905253E+00 -0.12446504218E+00  0.89121181317E-01  0.10101919880E+01  0.93800000000E+00 0. -1.
         22    1    1    2    0    0  0.27964333702E+00  0.10176964548E+00  0.31932540094E+01  0.32070903675E+01  0.00000000000E+00 0.  1.
</event>
<event>
 5    1  0.6172503E+001  0.1599662E+01  0.7818608E-02  0.3353730E+00
         11   -1    0    0    0    0  0.00000000000E+00  0.00000000000E+00  0.39999999674E+01  0.40000000000E+01  0.51100000000E-03 0.  1.
    9000002   -1    0    0    0    0 -0.00000000000E+00 -0.00000000000E+00  0.00000000000E+00  0.93800000000E+00  0.93800000000E+00 0. -1.
         11    1    1    2    0    0 -0.75542340468E-02  0.10529721781E+00  0.50681251638E+00  0.51769079422E+00  0.51100000000E-03 0.  1.
    9000002    1    1    2    0    0  0.66922541437E-01 -0.73147732118E+00  0.38935637984E+00  0.12533874455E+01  0.93800000000E+00 0. -1.
         22    1    1    2    0    0 -0.59368307390E-01  0.62618010337E+00  0.31038310711E+01  0.31669217603E+01  0.00000000000E+00 0.  1.
</event>
<event>
 5    1  0.6172503E+001  0.1541399E+01  0.7818608E-02  0.3419531E+00
         11   -1    0    0    0    0  0.00000000000E+00  0.00000000000E+00  0.39999999674E+01  0.40000000000E+01  0.51100000000E-03 0. -1.
    9000002   -1    0    0    0    0 -0.00000000000E+00 -0.00000000000E+00  0.00000000000E+00  0.93800000000E+00  0.93800000000E+00 0. -1.
         11    1    1    2    0    0  0.20752639376E+00 -0.13464930109E+00  0.13335800312E+01  0.13563309328E+01  0.51100000000E-03 0. -1.
    9000002    1    1    2    0    0  0.18902253786E-01 -0.11240619598E+00  0.52503490932E-01  0.94635778892E+00  0.93800000000E+00 0. -1.
         22    1    1    2    0    0 -0.22642864754E+00  0.24705549708E+00  0.26139164452E+01  0.26353112783E+01  0.00000000000E+00 0. -1.
</event>
<event>
 5    1  0.6172503E+001  0.1599673E+01  0.7818608E-02  0.3353718E+00
         11   -1    0    0    0    0  0.00000000000E+00  0.00000000000E+00  0.39999999674E+01  0.40000000000E+01  0.51100000000E-03 0. -1.
    9000002   -1    0    0    0    0 -0.00000000000E+00 -0.00000000000E+00  0.00000000000E+00  0.93800000000E+00  0.93800000000E+00 0. -1.
         11    1    1    2    0    0  0.81142866753E-01 -0.29113328202E-01  0.96429547619E+00  0.96814140353E+00  0.51100000000E-03 0. -1.
    9000002    1    1    2    0    0 -0.33033942132E+00  0.12622870897E+00  0.83889367711E-01  0.10059519105E+01  0.93800000000E+00 0. -1.
         22    1    1    2    0    0  0.24919655457E+00 -0.97115380773E-01  0.29518151235E+01  0.29639066860E+01  0.00000000000E+00 0. -1.
</event>
<event>
 5    1  0.6172503E+001  0.1596299E+01  0.7818608E-02  0.3357390E+00
         11   -1    0    0    0    0  0.00000000000E+00  0.00000000000E+00  0.39999999674E+01  0.40000000000E+01  0.51100000000E-03 0.  1.
    9000002   -1    0    0    0    0 -0.00000000000E+00 -0.00000000000E+00  0.00000000000E+00  0.93800000000E+00  0.93800000000E+00 0.  1.
         11    1    1    2    0    0  0.12585921093E+00  0.17740283987E-01  0.10002118169E+01  0.10082555224E+01  0.51100000000E-03 0.  1.
    9000002    1    1    2    0    0 -0.52145224849E+00  0.16238189727E+00  0.20905524122E+00  0.11053634795E+01  0.93800000000E+00 0.  1.
         22    1    1    2    0    0  0.39559303756E+00 -0.18012218125E+00  0.27907329093E+01  0.28243809981E+01  0.00000000000E+00 0.  1.
</event>
<event>
 5    1  0.6172503E+001  0.1595779E+01  0.7818608E-02  0.3357957E+00
         11   -1    0    0    0    0  0.00000000000E+00  0.00000000000E+00  0.39999999674E+01  0.40000000000E+01  0.51100000000E-03 0.  1.
    9000002   -1    0    0    0    0 -0.00000000000E+00 -0.00000000000E+00  0.00000000000E+00  0.93800000000E+00  0.93800000000E+00 0.  1.
         11    1    1    2    0    0 -0.50916163065E-01 -0.12425491429E+00  0.50229713705E+00  0.51993693310E+00  0.51100000000E-03 0.  1.
    9000002    1    1    2    0    0  0.52987817427E+00  0.54954803954E+00  0.42899701803E+00  0.12832210912E+01  0.93800000000E+00 0.  1.
         22    1    1    2    0    0 -0.47896201121E+00 -0.42529312524E+00  0.30687058123E+01  0.31348419757E+01  0.00000000000E+00 0.  1.
</event>
<event>
 5    1  0.6172503E+001  0.1572756E+01  0.7818608E-02  0.3383475E+00
         11   -1    0    0    0    0  0.00000000000E+00  0.00000000000E+00  0.39999999674E+01  0.40000000000E+01  0.51100000000E-03 0.  1.
    9000002   -1    0    0    0    0 -0.00000000000E+00 -0.00000000000E+00  0.00000000000E+00  0.93800000000E+00  0.93800000000E+00 0. -1.
         11    1    1    2    0    0  0.10201500207E+00 -0.68331579638E-01  0.25698883932E+00  0.28481536138E+00  0.51100000000E-03 0.  1.
    9000002    1    1    2    0    0 -0.45813512780E+00 -0.64834623363E-01  0.16956542426E+00  0.10595696092E+01  0.93800000000E+00 0. -1.
         22    1    1    2    0    0  0.35612012572E+00  0.13316620300E+00  0.35734457038E+01  0.35936150294E+01  0.00000000000E+00 0.  1.
</event>
<event>
 5    1  0.6172503E+001  0.1599675E+01  0.7818608E-02  0.3353716E+00
         11   -1    0    0    0    0  0.00000000000E+00  0.00000000000E+00  0.39999999674E+01  0.40000000000E+01  0.51100000000E-03 0. -1.
    9000002   -1    0    0    0    0 -0.00000000000E+00 -0.00000000000E+00  0.00000000000E+00  0.93800000000E+00  0.93800000000E+00 0.  1.
         11    1    1    2    0    0  0.65077624126E-01  0.58777227214E-01  0.54646768991E+00  0.55345917359E+00  0.51100000000E-03 0. -1.
    9000002    1    1    2    0    0 -0.45207042135E+00 -0.40772765101E+00  0.25906654781E+00  0.11478540759E+01  0.93800000000E+00 0.  1.
         22    1    1    2    0    0  0.38699279722E+00  0.34895042379E+00  0.31944657296E+01  0.32366867506E+01  0.00000000000E+00 0. -1.
</event>
<event>
 5    1  0.6172503E+001  0.1598658E+01  0.7818608E-02  0.3354821E+00
         11   -1    0    0    0    0  0.00000000000E+00  0.00000000000E+00  0.39999999674E+01  0.40000000000E+01  0.51100000000E-03 0.  1.
    9000002   -1    0    0    0    0 -0.00000000000E+00 -0.00000000000E+00  0.00000000000E+00  0.93800000000E+00  0.93800000000E+00 0.  1.
         11    1    1    2    0    0 -0.47443887146E-01  0.73967900892E-01  0.10748911345E+01  0.10784773456E+01  0.51100000000E-03 0.  1.
    9000002    1    1    2    0    0  0.28662802296E+00 -0.31330141058E+00  0.12288744165E+00  0.10369468264E+01  0.93800000000E+00 0.  1.
         22    1    1    2    0    0 -0.23918413581E+00  0.23933350969E+00  0.28022213912E+01  0.28225758280E+01  0.00000000000E+00 0.  1.
</event>
<event>
 5    1  0.6172503E+001  0.1599677E+01  0.7818608E-02  0.3353715E+00
         11   -1    0    0    0    0  0.00000000000E+00  0.00000000000E+00  0.39999999674E+01  0.40000000000E+01  0.51100000000E-03 0.  1.
    9000002   -1    0    0    0    0 -0.00000000000E+00 -0.00000000000E+00  0.00000000000E+00  0.93800000000E+00  0.93800000000E+00 0. -1.
         11    1    1    2    0    0 -0.66778811069E-01  0.37436127101E-01  0.60856070278E+00  0.61335736998E+00  0.51100000000E-03 0.  1.
    9000002    1    1    2    0    0  0.42241803410E+00 -0.23919363125E+00  0.16092977735E+00  0.10683599496E+01  0.93800000000E+00 0. -1.
         22    1    1    2    0    0 -0.35563922304E+00  0.20175750415E+00  0.32305094872E+01  0.32562826804E+01  0.00000000000E+00 0.  1.
</event>
<event>
 5    1  0.6172503E+001  0.1578117E+01  0.7818608E-02  0.3377462E+00
         11   -1    0    0    0    0  0.00000000000E+00  0.00000000000E+00  0.39999999674E+01  0.40000000000E+01  0.51100000000E-03 0. -1.
    9000002   -1    0    0    0    0 -0.00000000000E+00 -0.00000000000E+00  0.00000000000E+00  0.93800000000E+00  0.93800000000E+00 0. -1.
         11    1    1    2    0    0  0.61142994088E-01 -0.10407338942E+00  0.75964939486E+00  0.76917956314E+00  0.51100000000E-03 0. -1.
    9000002    1    1    2    0    0  0.38092734311E+00  0.35328415422E+00  0.20543673955E+00  0.10917708497E+01  0.93800000000E+00 0. -1.
         22    1    1    2    0    0 -0.44207033720E+00 -0.24921076480E+00  0.30349138329E+01  0.30770495871E+01  0.00000000000E+00 0. -1.
</event>
<event>
 5    1  0.6172503E+001  0.1599675E+01  0.7818608E-02  0.3353716E+00
         11   -1    0    0    0    0  0.00000000000E+00  0.00000000000E+00  0.39999999674E+01  0.40000000000E+01  0.51100000000E-03 0. -1.
    9000002   -1    0    0    0    0 -0.00000000000E+00 -0.00000000000E+00  0.00000000000E+00  0.93800000000E+00  0.93800000000E+00 0.  1.
         11    1    1    2    0    0 -0.19584341258E-01  0.61280132252E-01  0.57082967853E+00  0.57444371704E+00  0.51100000000E-03 0.  1.
    9000002    1    1    2    0    0  0.12596448226E+00 -0.41791777822E+00  0.12914827962E+00  0.10426147890E+01  0.93800000000E+00 0.  1.
         22    1    1    2    0    0 -0.10638014101E+00  0.35663764597E+00  0.33000220092E+01  0.33209414939E+01  0.00000000000E+00 0. -1.
</event>
<event>
 5    1  0.6172503E+001  0.1593747E+01  0.7818608E-02  0.3360178E+00
         11   -1    0    0    0    0  0.00000000000E+00  0.00000000000E+00  0.39999999674E+01  0.40000000000E+01  0.51100000000E-03 0.  1.
    9000002   -1    0    0    0    0 -0.00000000000E+00 -0.00000000000E+00  0.00000000000E+00  0.93800000000E+00  0.93800000000E+00 0.  1.
         11    1    1    2    0    0 -0.85170039928E-01  0.59506273665E-02  0.49971382049E+00  0.50695513527E+00  0.51100000000E-03 0.  1.
    9000002    1    1    2    0    0  0.44322733900E+00 -0.47393534428E+00  0.30330424166E+00  0.11802129671E+01  0.93800000000E+00 0.  1.
         22    1    1    2    0    0 -0.35805729907E+00  0.46798471692E+00  0.31969819052E+01  0.32508318977E+01  0.00000000000E+00 0.  1.
</event>
<event>
 5    1  0.6172503E+001  0.1599105E+01  0.7818608E-02  0.3354335E+00
         11   -1    0    0    0    0  0.00000000000E+00  0.00000000000E+00  0.39999999674E+01  0.40000000000E+01  0.51100000000E-03 0.  1.
    9000002   -1    0    0    0    0 -0.00000000000E+00 -0.00000000000E+00  0.00000000000E+00  0.93800000000E+00  0.93800000000E+00 0. -1.
         11    1    1    2    0    0 -0.78937312871E-01 -0.54789633401E-01  0.10070368708E+01  0.10116108558E+01  0.51100000000E-03 0.  1.
    9000002    1    1    2    0    0  0.33852422445E+00  0.12048013796E+00  0.87125766007E-01  0.10082405533E+01  0.93800000000E+00 0. -1.
         22    1    1    2    0    0 -0.25958691158E+00 -0.65690504563E-01  0.29058373306E+01  0.29181485909E+01  0.00000000000E+00 0.  1.
</event>
<event>
 5    1  0.6172503E+001  0.1599675E+01  0.7818608E-02  0.3353716E+00
         11   -1    0    0    0    0  0.00000000000E+00  0.00000000000E+00  0.39999999674E+01  0.40000000000E+01  0.51100000000E-03 0.  1.
    9000002   -1    0    0    0    0 -0.00000000000E+00 -0.00000000000E+00  0.00000000000E+00  0.93800000000E+00  0.93800000000E+00 0.  1.
         11    1    1    2    0    0  0.25054376496E-01 -0.99231526096E-01  0.10292911097E+01  0.10343669886E+01  0.51100000000E-03 0.  1.
    9000002    1    1    2    0    0 -0.98342798038E-01  0.37238018193E+00  0.99871945190E-01  0.10188997553E+01  0.93800000000E+00 0.  1.
         22    1    1    2    0    0  0.73288421542E-01 -0.27314865583E+00  0.28708369125E+01  0.28847332561E+01  0.00000000000E+00 0.  1.
</event>
<event>
 5    1  0.6172503E+001  0.1599609E+01  0.7818608E-02  0.3353788E+00
         11   -1    0    0    0    0  0.00000000000E+00  0.00000000000E+00  0.39999999674E+01  0.40000000000E+01  0.51100000000E-03 0. -1.
    9000002   -1    0    0    0    0 -0.00000000000E+00 -0.00000000000E+00  0.00000000000E+00  0.93800000000E+00  0.93800000000E+00 0. -1.
         11    1    1    2    0    0  0.47875588224E-01  0.10552807160E-01  0.53423424315E+00  0.53647919005E+00  0.51100000000E-03 0. -1.
    9000002    1    1    2    0    0 -0.39717069570E+00 -0.88211647889E-01  0.11180687740E+00  0.10285283828E+01  0.93800000000E+00 0. -1.
         22    1    1    2    0    0  0.34929510747E+00  0.77658840728E-01  0.33539588468E+01  0.33729924272E+01  0.00000000000E+00 0. -1.
</event>
<event>
 5    1  0.6172503E+001  0.1596981E+01  0.7818608E-02  0.3356646E+00
         11   -1    0    0    0    0  0.00000000000E+00  0.00000000000E+00  0.39999999674E+01  0.40000000000E+01  0.51100000000E-03 0.  1.
    9000002   -1    0    0    0    0 -0.00000000000E+00 -0.00000000000E+00  0.00000000000E+00  0.93800000000E+00  0.93800000000E+00 0. -1.
         11    1    1    2    0    0  0.14047122398E+00 -0.63453775763E-01  0.13025872278E+01  0.13116753766E+01  0.51100000000E-03 0.  1.
    9000002    1    1    2    0    0 -0.39038705556E+00  0.15896591683E-01  0.10507935700E+00  0.10215382646E+01  0.93800000000E+00 0. -1.
         22    1    1    2    0    0  0.24991583158E+00  0.47557184081E-01  0.25923333826E+01  0.26047863588E+01  0.00000000000E+00 0.  1.
</event>
<event>
 5    1  0.6172505E+001  0.1590727E+01  0.7818608E-02  0.3363489E+00
         11   -1    0    0    0    0  0.00000000000E+00  0.00000000000E+00  0.39999999674E+01  0.40000000000E+01  0.51100000000E-03 0.  1.
    9000002   -1    0    0    0    0 -0.00000000000E+00 -0.00000000000E+00  0.00000000000E+00  0.93800000000E+00  0.93800000000E+00 0. -1.
         11    1    1    2    0    0 -0.66409082533E-01  0.20819548145E-01  0.79511774543E+00  0.79815794805E+00  0.51100000000E-03 0.  1.
    9000002    1    1    2    0    0 -0.97498582711E-01 -0.25491503617E+00  0.56515617762E-01  0.97853240332E+00  0.93800000000E+00 0. -1.
         22    1    1    2    0    0  0.16390766524E+00  0.23409548802E+00  0.31483666042E+01  0.31613096486E+01  0.00000000000E+00 0.  1.
</event>
<event>
 5    1  0.6172503E+001  0.1599655E+01  0.7818608E-02  0.3353738E+00
         11   -1    0    0    0    0  0.00000000000E+00  0.00000000000E+00  0.39999999674E+01  0.40000000000E+01  0.51100000000E-03 0. -1.
    9000002   -1    0    0    0    0 -0.00000000000E+00 -0.00000000000E+00  0.00000000000E+00  0.93800000000E+00  0.93800000000E+00 0.  1.
         11    1    1    2    0    0 -0.14471167500E+00 -0.23112723091E-02  0.14085335975E+01  0.14159498463E+01  0.51100000000E-03 0. -1.
    9000002    1    1    2    0    0  0.38825454091E+00 -0.25107482081E-02  0.10155039187E+00  0.10202472124E+01  0.93800000000E+00 0.  1.
         22    1    1    2    0    0 -0.24354286591E+00  0.48220205171E-02  0.24899159780E+01  0.25018029412E+01  0.00000000000E+00 0. -1.
</event>
<event>
 5    1  0.6172503E+001  0.1599641E+01  0.7818608E-02  0.3353753E+00
         11   -1    0    0    0    0  0.00000000000E+00  0.00000000000E+00  0.39999999674E+01  0.40000000000E+01  0.51100000000E-03 0. -1.
    9000002   -1    0    0    0    0 -0.00000000000E+00 -0.00000000000E+00  0.00000000000E+00  0.93800000000E+00  0.93800000000E+00 0.  1.
         11    1    1    2    0    0 -0.99802412501E-02 -0.10542827807E-01  0.14763397606E+00  0.14834691922E+00  0.51100000000E-03 0. -1.
    9000002    1    1    2    0    0  0.30277693806E+00  0.21868823126E+00  0.93816309803E-01  0.10139743176E+01  0.93800000000E+00 0.  1.
         22    1    1    2    0    0 -0.29279669681E+00 -0.20814540346E+00  0.37585496815E+01  0.37756787632E+01  0.00000000000E+00 0. -1.
</event>
<event>
 5    1  0.6172503E+001  0.1582889E+01  0.7818608E-02  0.3372147E+00
         11   -1    0    0    0    0  0.00000000000E+00  0.00000000000E+00  0.39999999674E+01  0.40000000000E+01  0.51100000000E-03 0. -1.
    9000002   -1    0    0    0    0 -0.00000000000E+00 -0.00000000000E+00  0.00000000000E+00  0.93800000000E+00  0.93800000000E+00 0.  1.
         11    1    1    2    0    0 -0.67986756468E-02 -0.64523527211E-01  0.75862824244E+00  0.76139777968E+00  0.51100000000E-03 0. -1.
    9000002    1    1    2    0    0 -0.13667719040E+00 -0.27958540724E+00  0.78015643717E-01  0.99135215488E+00  0.93800000000E+00 0.  1.
         22    1    1    2    0    0  0.14347586604E+00  0.34410893445E+00  0.31633560812E+01  0.31852500654E+01  0.00000000000E+00 0. -1.
</event>
<event>
 5    1  0.6172503E+001  0.1599414E+01  0.7818608E-02  0.3353999E+00
         11   -1    0    0    0    0  0.00000000000E+00  0.00000000000E+00  0.39999999674E+01  0.40000000000E+01  0.51100000000E-03 0.  1.
    9000002   -1    0    0    0    0 -0.00000000000E+00 -0.00000000000E+00  0.00000000000E+00  0.93800000000E+00  0.93800000000E+00 0. -1.
         11    1    1    2    0    0 -0.60197844748E-01  0.56018225743E-02  0.42643177122E+00  0.43069650284E+00  0.51100000000E-03 0.  1.
    9000002    1    1    2    0    0  0.43466440989E+00 -0.49384043398E-01  0.12996544295E+00  0.10431236501E+01  0.93800000000E+00 0. -1.
         22    1    1    2    0    0 -0.37446656514E+00  0.43782220824E-01  0.34436027532E+01  0.34641798471E+01  0.00000000000E+00 0.  1.
</event>
<event>
 5    1  0.6172503E+001  0.1591812E+01  0.7818608E-02  0.3362298E+00
         11   -1    0    0    0    0  0.00000000000E+00  0.00000000000E+00  0.39999999674E+01  0.40000000000E+01  0.51100000000E-03 0. -1.
    9000002   -1    0    0    0    0 -0.00000000000E+00 -0.00000000000E+00  0.00000000000E+00  0.93800000000E+00  0.93800000000E+00 0. -1.
         11    1    1    2    0    0  0.12247458717E-01  0.82075584014E-01  0.39832245294E+00  0.40687521351E+00  0.51100000000E-03 0. -1.
    9000002    1    1    2    0    0 -0.31265020937E+00 -0.19806477444E+00  0.98497770631E-01  0.10131760060E+01  0.93800000000E+00 0. -1.
         22    1    1    2    0    0  0.30040275065E+00  0.11598919043E+00  0.35031797438E+01  0.35179487805E+01  0.00000000000E+00 0. -1.
</event>
<event>
 5    1  0.6172503E+001  0.1599613E+01  0.7818608E-02  0.3353783E+00
         11   -1    0    0    0    0  0.00000000000E+00  0.00000000000E+00  0.39999999674E+01  0.40000000000E+01  0.51100000000E-03 0.  1.
    9000002   -1    0    0    0    0 -0.00000000000E+00 -0.00000000000E+00  0.00000000000E+00  0.93800000000E+00  0.93800000000E+00 0.  1.
         11    1    1    2    0    0  0.20127139977E-02 -0.30732646311E-01  0.25063531980E+00  0.25252103124E+00  0.51100000000E-03 0.  1.
    9000002    1    1    2    0    0 -0.60945213060E-01  0.40954755729E+00  0.11590859430E+00  0.10318538283E+01  0.93800000000E+00 0.  1.
         22    1    1    2    0    0  0.58932499062E-01 -0.37881491098E+00  0.36334560533E+01  0.36536251405E+01  0.00000000000E+00 0.  1.
</event>
<event>
 5    1  0.6172503E+001  0.1599664E+01  0.7818608E-02  0.3353728E+00
         11   -1    0    0    0    0  0.00000000000E+00  0.00000000000E+00  0.39999999674E+01  0.40000000000E+01  0.51100000000E-03 0. -1.
    9000002   -1    0    0    0    0 -0.00000000000E+00 -0.00000000000E+00  0.00000000000E+00  0.93800000000E+00  0.93800000000E+00 0.  1.
         11    1    1    2    0    0  0.90601874550E-03  0.15116704693E-01  0.14678965568E+00  0.14756964378E+00  0.51100000000E-03 0. -1.
    9000002    1    1    2    0    0 -0.39492524099E-01 -0.36364710225E+00  0.89884251923E-01  0.10108026777E+01  0.93800000000E+00 0.  1.
         22    1    1    2    0    0  0.38586505354E-01  0.34853039756E+00  0.37633260598E+01  0.37796276785E+01  0.00000000000E+00 0. -1.
</event>
<event>
 5    1  0.6172503E+001  0.1599597E+01  0.7818608E-02  0.3353801E+00
         11   -1    0    0    0    0  0.00000000000E+00  0.00000000000E+00  0.39999999674E+01  0.40000000000E+01  0.51100000000E-03 0.  1.
    9000002   -1    0    0    0    0 -0.00000000000E+00 -0.00000000000E+00  0.00000000000E+00  0.93800000000E+00  0.93800000000E+00 0.  1.
         11    1    1    2    0    0 -0.20818997077E-01  0.31739788173E-01  0.44066533483E+00  0.44229746013E+00  0.51100000000E-03 0.  1.
    9000002    1    1    2    0    0  0.23999465612E+00 -0.30422455117E+00  0.10118589494E+00  0.10199179368E+01  0.93800000000E+00 0.  1.
         22    1    1    2    0    0 -0.21917565905E+00  0.27248476300E+00  0.34581487376E+01  0.34757846031E+01  0.00000000000E+00 0.  1.
</event>
<event>
 5    1  0.6172503E+001  0.1599549E+01  0.7818608E-02  0.3353853E+00
         11   -1    0    0    0    0  0.00000000000E+00  0.00000000000E+00  0.39999999674E+01  0.40000000000E+01  0.51100000000E-03 0. -1.
    9000002   -1    0    0    0    0 -0.00000000000E+00 -0.00000000000E+00  0.00000000000E+00  0.93800000000E+00  0.93800000000E+00 0. -1.
         11    1    1    2    0    0 -0.13587159766E+00  0.89212801657E-01  0.13070307493E+01  0.13170989544E+01  0.51100000000E-03 0. -1.
    9000002    1    1    2    0    0  0.38586027332E+00 -0.22878555725E+00  0.13675513723E+00  0.10487025075E+01  0.93800000000E+00 0. -1.
         22    1    1    2    0    0 -0.24998867566E+00  0.13957275560E+00  0.25562140809E+01  0.25721985381E+01  0.00000000000E+00 0.  1.
</event>
<event>
 5    1  0.6172503E+001  0.1581060E+01  0.7818608E-02  0.3374180E+00
         11   -1    0    0    0    0  0.00000000000E+00  0.00000000000E+00  0.39999999674E+01  0.40000000000E+01  0.51100000000E-03 0.  1.
    9000002   -1    0    0    0    0 -0.00000000000E+00 -0.00000000000E+00  0.00000000000E+00  0.93800000000E+00  0.93800000000E+00 0. -1.
         11    1    1    2    0    0 -0.37377828381E-01  0.32372600692E+00  0.10589144872E+01  0.11079240867E+01  0.51100000000E-03 0.  1.
    9000002    1    1    2    0    0  0.10627332881E+00 -0.60563475641E+00  0.28371154935E+00  0.11569026415E+01  0.93800000000E+00 0. -1.
         22    1    1    2    0    0 -0.68895500432E-01  0.28190874949E+00  0.26573739308E+01  0.26731732719E+01  0.00000000000E+00 0.  1.
</event>
<event>
 5    1  0.6172503E+001  0.1599674E+01  0.7818608E-02  0.3353717E+00
         11   -1    0    0    0    0  0.00000000000E+00  0.00000000000E+00  0.39999999674E+01  0.40000000000E+01  0.51100000000E-03 0. -1.
    9000002   -1    0    0    0    0 -0.00000000000E+00 -0.00000000000E+00  0.00000000000E+00  0.93800000000E+00  0.93800000000E+00 0. -1.
         11    1    1    2    0    0  0.86918081590E-01 -0.96929757732E-01  0.11752639833E+01  0.11824533066E+01  0.51100000000E-03 0. -1.
    9000002    1    1    2    0    0 -0.28157572069E+00  0.31608575160E+00  0.12124795784E+00  0.10362143389E+01  0.93800000000E+00 0. -1.
         22    1    1    2    0    0  0.19465763910E+00 -0.21915599387E+00  0.27034880262E+01  0.27193323545E+01  0.00000000000E+00 0. -1.
</event>
<event>
 5    1  0.6172503E+001  0.1599658E+01  0.7818608E-02  0.3353734E+00
         11   -1    0    0    0    0  0.00000000000E+00  0.00000000000E+00  0.39999999674E+01  0.40000000000E+01  0.51100000000E-03 0.  1.
    9000002   -1    0    0    0    0 -0.00000000000E+00 -0.00000000000E+00  0.00000000000E+00  0.93800000000E+00  0.93800000000E+00 0. -1.
         11    1    1    2    0    0 -0.42349461877E-01  0.20004932710E-01  0.47567794879E+00  0.47797849987E+00  0.51100000000E-03 0.  1.
    9000002    1    1    2    0    0  0.36860285010E+00 -0.14687323931E+00  0.10616817027E+00  0.10239899853E+01  0.93800000000E+00 0. -1.
         22    1    1    2    0    0 -0.32625338822E+00  0.12686830660E+00  0.34181538483E+01  0.34360315149E+01  0.00000000000E+00 0.  1.
</event>
<event>
 5    1  0.6172503E+001  0.1599651E+01  0.7818608E-02  0.3353742E+00
         11   -1    0    0    0    0  0.00000000000E+00  0.00000000000E+00  0.39999999674E+01  0.40000000000E+01  0.51100000000E-03 0.  1.
    9000002   -1    0    0    0    0 -0.00000000000E+00 -0.00000000000E+00  0.00000000000E+00  0.93800000000E+00  0.93800000000E+00 0.  1.
         11    1    1    2    0    0  0.15052579459E+00 -0.11787046471E+00  0.13026653366E+01  0.13166201812E+01  0.51100000000E-03 0.  1.
    9000002    1    1    2    0    0 -0.43075884863E+00  0.32844705666E+00  0.20238110447E+00  0.11019223050E+01  0.93800000000E+00 0.  1.
         22    1    1    2    0    0  0.28023305404E+00 -0.21057659194E+00  0.24949535263E+01  0.25194575138E+01  0.00000000000E+00 0.  1.
</event>
<event>
 5    1  0.6172503E+001  0.1599503E+01  0.7818608E-02  0.3353903E+00
         11   -1    0    0    0    0  0.00000000000E+00  0.00000000000E+00  0.39999999674E+01  0.40000000000E+01  0.51100000000E-03 0.  1.
    9000002   -1    0    0    0    0 -0.00000000000E+00 -0.00000000000E+00  0.00000000000E+00  0.93800000000E+00  0.93800000000E+00 0. -1.
         11    1    1    2    0    0  0.17527418374E+00 -0.11075647367E+00  0.12623129493E+01  0.12792272194E+01  0.51100000000E-03 0.  1.
    9000002    1    1    2    0    0 -0.55570059699E+00  0.34033917836E+00  0.29994429583E+00  0.11808659917E+01  0.93800000000E+00 0. -1.
         22    1    1    2    0    0  0.38042641325E+00 -0.22958270469E+00  0.24377427223E+01  0.24779067888E+01  0.00000000000E+00 0.  1.
</event>
<event>
 5    1  0.6172503E+001  0.1599677E+01  0.7818608E-02  0.3353714E+00
         11   -1    0    0    0    0  0.00000000000E+00  0.00000000000E+00  0.39999999674E+01  0.40000000000E+01  0.51100000000E-03 0.  1.
    9000002   -1    0    0    0    0 -0.00000000000E+00 -0.00000000000E+00  0.00000000000E+00  0.93800000000E+00  0.93800000000E+00 0. -1.
         11    1    1    2    0    0 -0.36359540229E-01  0.41881251645E-01  0.50378056440E+00  0.50682459845E+00  0.51100000000E-03 0.  1.
    9000002    1    1    2    0    0  0.28071852162E+00 -0.31968829429E+00  0.12250511059E+00  0.10372343014E+01  0.93800000000E+00 0. -1.
         22    1    1    2    0    0 -0.24435898139E+00  0.27780704264E+00  0.33737142924E+01  0.33939411001E+01  0.00000000000E+00 0.  1.
</event>
<event>
 5    1  0.6172503E+001  0.1599676E+01  0.7818608E-02  0.3353715E+00
         11   -1    0    0    0    0  0.00000000000E+00  0.00000000000E+00  0.39999999674E+01  0.40000000000E+01  0.51100000000E-03 0. -1.
    9000002   -1    0    0    0    0 -0.00000000000E+00 -0.00000000000E+00  0.00000000000E+00  0.93800000000E+00  0.93800000000E+00 0. -1.
         11    1    1    2    0    0  0.90713912114E-01  0.38478052166E-01  0.93073658097E+00  0.93593825577E+00  0.51100000000E-03 0. -1.
    9000002    1    1    2    0    0 -0.37482522537E+00 -0.16256594115E+00  0.11271825766E+00  0.10293060966E+01  0.93800000000E+00 0. -1.
         22    1    1    2    0    0  0.28411131325E+00  0.12408788899E+00  0.29565451287E+01  0.29727556477E+01  0.00000000000E+00 0. -1.
</event>
<event>
 5    1  0.6172503E+001  0.1567388E+01  0.7818608E-02  0.3389538E+00
         11   -1    0    0    0    0  0.00000000000E+00  0.00000000000E+00  0.39999999674E+01  0.40000000000E+01  0.51100000000E-03 0. -1.
    9000002   -1    0    0    0    0 -0.00000000000E+00 -0.00000000000E+00  0.00000000000E+00  0.93800000000E+00  0.93800000000E+00 0. -1.
         11    1    1    2    0    0  0.32695007761E-01 -0.18351148908E-01  0.27459429082E-01  0.46475903060E-01  0.51100000000E-03 0. -1.
    9000002    1    1    2    0    0  0.37190411751E+00 -0.35702349456E+00  0.21254330009E+00  0.10912365017E+01  0.93800000000E+00 0. -1.
         22    1    1    2    0    0 -0.40459912527E+00  0.37537464346E+00  0.37599972382E+01  0.38002875952E+01  0.00000000000E+00 0. -1.
</event>
<event>
 5    1  0.6172503E+001  0.1599677E+01  0.7818608E-02  0.3353714E+00
         11   -1    0    0    0    0  0.00000000000E+00  0.00000000000E+00  0.39999999674E+01  0.40000000000E+01  0.51100000000E-03 0. -1.
    9000002   -1    0    0    0    0 -0.00000000000E+00 -0.00000000000E+00  0.00000000000E+00  0.93800000000E+00  0.93800000000E+00 0. -1.
         11    1    1    2    0    0 -0.33877803278E-01  0.12029934805E+00  0.13230167672E+01  0.13289067936E+01  0.51100000000E-03 0. -1.
    9000002    1    1    2    0    0  0.97896058167E-01 -0.35564067310E+00  0.91428447234E-01  0.10120608122E+01  0.93800000000E+00 0. -1.
         22    1    1    2    0    0 -0.64018254888E-01  0.23534132505E+00  0.25855547530E+01  0.25970323943E+01  0.00000000000E+00 0.  1.
</event>
<event>
 5    1  0.6172503E+001  0.1599677E+01  0.7818608E-02  0.3353714E+00
         11   -1    0    0    0    0  0.00000000000E+00  0.00000000000E+00  0.39999999674E+01  0.40000000000E+01  0.51100000000E-03 0. -1.
    9000002   -1    0    0    0    0 -0.00000000000E+00 -0.00000000000E+00  0.00000000000E+00  0.93800000000E+00  0.93800000000E+00 0.  1.
         11    1    1    2    0    0 -0.10929171571E-01  0.14150981126E+00  0.12087004808E+01  0.12170051712E+01  0.51100000000E-03 0. -1.
    9000002    1    1    2    0    0  0.34541701282E-01 -0.45224070154E+00  0.13979194872E+00  0.10512376374E+01  0.93800000000E+00 0.  1.
         22    1    1    2    0    0 -0.23612529712E-01  0.31073089028E+00  0.26515075379E+01  0.26697571914E+01  0.00000000000E+00 0. -1.
</event>
<event>
 5    1  0.6172503E+001  0.1599677E+01  0.7818608E-02  0.3353714E+00
         11   -1    0    0    0    0  0.00000000000E+00  0.00000000000E+00  0.39999999674E+01  0.40000000000E+01  0.51100000000E-03 0.  1.
    9000002   -1    0    0    0    0 -0.00000000000E+00 -0.00000000000E+00  0.00000000000E+00  0.93800000000E+00  0.93800000000E+00 0.  1.
         11    1    1    2    0    0  0.74076642785E-01 -0.15328861177E+00  0.93457737936E+00  0.94995783414E+00  0.51100000000E-03 0.  1.
    9000002    1    1    2    0    0 -0.29317588176E+00  0.60469423914E+00  0.32040765736E+00  0.11975442737E+01  0.93800000000E+00 0.  1.
         22    1    1    2    0    0  0.21909923898E+00 -0.45140562737E+00  0.27450149306E+01  0.27904978922E+01  0.00000000000E+00 0.  1.
</event>
<event>
 5    1  0.6172503E+001  0.1596800E+01  0.7818608E-02  0.3356844E+00
         11   -1    0    0    0    0  0.00000000000E+00  0.00000000000E+00  0.39999999674E+01  0.40000000000E+01  0.51100000000E-03 0.  1.
    9000002   -1    0    0    0    0 -0.00000000000E+00 -0.00000000000E+00  0.00000000000E+00  0.93800000000E+00  0.93800000000E+00 0.  1.
         11    1    1    2    0    0  0.67616709644E-01  0.10390697885E-01  0.68772837377E+00  0.69112268320E+00  0.51100000000E-03 0.  1.
    9000002    1    1    2    0    0 -0.28255394839E+00 -0.31847562369E+00  0.12512868908E+00  0.10376727063E+01  0.93800000000E+00 0.  1.
         22    1    1    2    0    0  0.21493723874E+00  0.30808492580E+00  0.31871429045E+01  0.32092046105E+01  0.00000000000E+00 0.  1.
</event>
<event>
 5    1  0.6172503E+001  0.1599677E+01  0.7818608E-02  0.3353714E+00
         11   -1    0    0    0    0  0.00000000000E+00  0.00000000000E+00  0.39999999674E+01  0.40000000000E+01  0.51100000000E-03 0. -1.
    9000002   -1    0    0    0    0 -0.00000000000E+00 -0.00000000000E+00  0.00000000000E+00  0.93800000000E+00  0.93800000000E+00 0.  1.
         11    1    1    2    0    0 -0.13321366323E+00 -0.15043965081E-01  0.13699065771E+01  0.13764506864E+01  0.51100000000E-03 0. -1.
    9000002    1    1    2    0    0  0.38097378801E+00  0.41697907330E-01  0.98865956231E-01  0.10180855661E+01  0.93800000000E+00 0.  1.
         22    1    1    2    0    0 -0.24776012477E+00 -0.26653942249E-01  0.25312274340E+01  0.25434637475E+01  0.00000000000E+00 0. -1.
</event>
<event>
 5    1  0.6172503E+001  0.1599643E+01  0.7818608E-02  0.3353751E+00
         11   -1    0    0    0    0  0.00000000000E+00  0.00000000000E+00  0.39999999674E+01  0.40000000000E+01  0.51100000000E-03 0.  1.
    9000002   -1    0    0    0    0 -0.00000000000E+00 -0.00000000000E+00  0.00000000000E+00  0.93800000000E+00  0.93800000000E+00 0.  1.
         11    1    1    2    0    0 -0.12730672813E-01  0.25731584592E-01  0.13021907188E+00  0.13334711200E+00  0.51100000000E-03 0.  1.
    9000002    1    1    2    0    0  0.35559370055E+00 -0.64121063899E+00  0.38783048330E+00  0.12521399471E+01  0.93800000000E+00 0.  1.
         22    1    1    2    0    0 -0.34286302774E+00  0.61547905439E+00  0.34819504122E+01  0.35525129409E+01  0.00000000000E+00 0.  1.
</event>
<event>
 5    1  0.6172503E+001  0.1599222E+01  0.7818608E-02  0.3354208E+00
         11   -1    0    0    0    0  0.00000000000E+00  0.00000000000E+00  0.39999999674E+01  0.40000000000E+01  0.51100000000E-03 0. -1.
    9000002   -1    0    0    0    0 -0.00000000000E+00 -0.00000000000E+00  0.00000000000E+00  0.93800000000E+00  0.93800000000E+00 0.  1.
         11    1    1    2    0    0 -0.17896377807E-01  0.10800534026E-01  0.17032750880E+00  0.17160609911E+00  0.51100000000E-03 0. -1.
    9000002    1    1    2    0    0  0.17896146924E+00 -0.31129481280E+00  0.86906040997E-01  0.10081311065E+01  0.93800000000E+00 0.  1.
         22    1    1    2    0    0 -0.16106509144E+00  0.30049427877E+00  0.37427664176E+01  0.37582627944E+01  0.00000000000E+00 0. -1.
</event>
<event>
 5    1  0.6172503E+001  0.1591461E+01  0.7818608E-02  0.3362684E+00
         11   -1    0    0    0    0  0.00000000000E+00  0.00000000000E+00  0.39999999674E+01  0.40000000000E+01  0.51100000000E-03 0. -1.
    9000002   -1    0    0    0    0 -0.00000000000E+00 -0.00000000000E+00  0.00000000000E+00  0.93800000000E+00  0.93800000000E+00 0.  1.
         11    1    1    2    0    0  0.13216904959E+00  0.10493816834E+00  0.95225182165E+00  0.96709072470E+00  0.51100000000E-03 0. -1.
    9000002    1    1    2    0    0 -0.15385777776E+00 -0.41200334760E+00  0.13824535441E+00  0.10451673322E+01  0.93800000000E+00 0.  1.
         22    1    1    2    0    0  0.21688728178E-01  0.30706517926E+00  0.29095027913E+01  0.29257419431E+01  0.00000000000E+00 0. -1.
</event>
<event>
 5    1  0.6172503E+001  0.1599594E+01  0.7818608E-02  0.3353804E+00
         11   -1    0    0    0    0  0.00000000000E+00  0.00000000000E+00  0.39999999674E+01  0.40000000000E+01  0.51100000000E-03 0. -1.
    9000002   -1    0    0    0    0 -0.00000000000E+00 -0.00000000000E+00  0.00000000000E+00  0.93800000000E+00  0.93800000000E+00 0. -1.
         11    1    1    2    0    0  0.10262458723E+00  0.11700725741E+00  0.10972804819E+01  0.11082631552E+01  0.51100000000E-03 0. -1.
    9000002    1    1    2    0    0 -0.33346467846E+00 -0.38249621516E+00  0.17657257164E+00  0.10809828488E+01  0.93800000000E+00 0. -1.
         22    1    1    2    0    0  0.23084009124E+00  0.26548895775E+00  0.27261469139E+01  0.27487539960E+01  0.00000000000E+00 0. -1.
</event>
<event>
 5    1  0.6172503E+001  0.1599647E+01  0.7818608E-02  0.3353747E+00
         11   -1    0    0    0    0  0.00000000000E+00  0.00000000000E+00  0.39999999674E+01  0.40000000000E+01  0.51100000000E-03 0.  1.
    9000002   -1    0    0    0    0 -0.00000000000E+00 -0.00000000000E+00  0.00000000000E+00  0.93800000000E+00  0.93800000000E+00 0.  1.
         11    1    1    2    0    0  0.40027543137E-01 -0.54374747319E-01  0.65441263285E+00  0.65788674748E+00  0.51100000000E-03 0.  1.
    9000002    1    1    2    0    0 -0.21073849162E+00  0.31543302533E+00  0.96844581432E-01  0.10164308035E+01  0.93800000000E+00 0.  1.
         22    1    1    2    0    0  0.17071094849E+00 -0.26105827802E+00  0.32487427531E+01  0.32636824490E+01  0.00000000000E+00 0.  1.
</event>
<event>
 5    1  0.6172503E+001  0.1599634E+01  0.7818608E-02  0.3353761E+00
         11   -1    0    0    0    0  0.00000000000E+00  0.00000000000E+00  0.39999999674E+01  0.40000000000E+01  0.51100000000E-03 0. -1.
    9000002   -1    0    0    0    0 -0.00000000000E+00 -0.00000000000E+00  0.00000000000E+00  0.93800000000E+00  0.93800000000E+00 0.  1.
         11    1    1    2    0    0  0.42607733536E-01 -0.62269833292E-01  0.72056800347E+00  0.72450773622E+00  0.51100000000E-03 0. -1.
    9000002    1    1    2    0    0 -0.26071995035E+00  0.32441768756E+00  0.11712670659E+00  0.10328525519E+01  0.93800000000E+00 0.  1.
         22    1    1    2    0    0  0.21811221682E+00 -0.26214785427E+00  0.31623052573E+01  0.31806397119E+01  0.00000000000E+00 0. -1.
</event>
<event>
 5    1  0.6172503E+001  0.1599677E+01  0.7818608E-02  0.3353714E+00
         11   -1    0    0    0    0  0.00000000000E+00  0.00000000000E+00  0.39999999674E+01  0.40000000000E+01  0.51100000000E-03 0. -1.
    9000002   -1    0    0    0    0 -0.00000000000E+00 -0.00000000000E+00  0.00000000000E+00  0.93800000000E+00  0.93800000000E+00 0.  1.
         11    1    1    2    0    0  0.31694267808E-01  0.10751283713E+00  0.12273532487E+01  0.12324608696E+01  0.51100000000E-03 0. -1.
    9000002    1    1    2    0    0 -0.10121644136E+00 -0.34404610167E+00  0.86319329946E-01  0.10079223754E+01  0.93800000000E+00 0.  1.
         22    1    1    2    0    0  0.69522173556E-01  0.23653326454E+00  0.26863273887E+01  0.26976167550E+01  0.00000000000E+00 0. -1.
</event>
<event>
 5    1  0.6172503E+001  0.1599668E+01  0.7818608E-02  0.3353724E+00
         11   -1    0    0    0    0  0.00000000000E+00  0.00000000000E+00  0.39999999674E+01  0.40000000000E+01  0.51100000000E-03 0. -1.
    9000002   -1    0    0    0    0 -0.00000000000E+00 -0.00000000000E+00  0.00000000000E+00  0.93800000000E+00  0.93800000000E+00 0.  1.
         11    1    1    2    0    0 -0.36570995857E-01  0.80518109965E-01  0.87845095633E+00  0.88289124335E+00  0.51100000000E-03 0. -1.
    9000002    1    1    2    0    0  0.15218475726E+00 -0.34936523543E+00  0.97727252621E-01  0.10171582394E+01  0.93800000000E+00 0.  1.
         22    1    1    2    0    0 -0.11561376140E+00  0.26884712547E+00  0.30238217584E+01  0.30379505173E+01  0.00000000000E+00 0. -1.
</event>
<event>
 5    1  0.6172503E+001  0.1598973E+01  0.7818608E-02  0.3354479E+00
         11   -1    0    0    0    0  0.00000000000E+00  0.00000000000E+00  0.39999999674E+01  0.40000000000E+01  0.51100000000E-03 0.  1.
    9000002   -1    0    0    0    0 -0.00000000000E+00 -0.00000000000E+00  0.00000000000E+00  0.93800000000E+00  0.93800000000E+00 0.  1.
         11    1    1    2    0    0 -0.41438416301E-01 -0.53731415517E-01  0.71925793815E+00  0.72245169394E+00  0.51100000000E-03 0.  1.
    9000002    1    1    2    0    0  0.16023987227E+00  0.40733002735E+00  0.13049869773E+00  0.10432969270E+01  0.93800000000E+00 0.  1.
         22    1    1    2    0    0 -0.11880145597E+00 -0.35359861184E+00  0.31502433315E+01  0.31722513790E+01  0.00000000000E+00 0.  1.
</event>
<event>
 5    1  0.9643728E+001  0.1544411E+01  0.7818608E-02  0.3415999E+00
         11   -1    0    0    0    0  0.00000000000E+00  0.00000000000E+00  0.39999999674E+01  0.40000000000E+01  0.51100000000E-03 0. -1.
    9000002   -1    0    0    0    0 -0.00000000000E+00 -0.00000000000E+00  0.00000000000E+00  0.93800000000E+00  0.93800000000E+00 0. -1.
         11    1    1    2    0    0  0.99534043014E-01 -0.23545365162E+00  0.14678637137E+01  0.14899562379E+01  0.51100000000E-03 0. -1.
    9000002    1    1    2    0    0 -0.43353514245E-01 -0.67087797714E-01  0.45556390241E-01  0.94249651697E+00  0.93800000000E+00 0. -1.
         22    1    1    2    0    0 -0.56180528769E-01  0.30254144933E+00  0.24865798634E+01  0.25055472451E+01  0.00000000000E+00 0. -1.
</event>
<event>
 5    1  0.6172503E+001  0.1555686E+01  0.7818608E-02  0.3402911E+00
         11   -1    0    0    0    0  0.00000000000E+00  0.00000000000E+00  0.39999999674E+01  0.40000000000E+01  0.51100000000E-03 0. -1.
    9000002   -1    0    0    0    0 -0.00000000000E+00 -0.00000000000E+00  0.00000000000E+00  0.93800000000E+00  0.93800000000E+00 0. -1.
         11    1    1    2    0    0 -0.20301474237E+00  0.64584855083E-01  0.10710771114E+01  0.10920588944E+01  0.51100000000E-03 0. -1.
    9000002    1    1    2    0    0  0.21831739023E-01  0.15958218141E+00  0.50440855734E-01  0.95306420423E+00  0.93800000000E+00 0. -1.
         22    1    1    2    0    0  0.18118300334E+00 -0.22416703649E+00  0.28784820002E+01  0.28928769013E+01  0.00000000000E+00 0. -1.
</event>
<event>
 5    1  0.6172503E+001  0.1599608E+01  0.7818608E-02  0.3353789E+00
         11   -1    0    0    0    0  0.00000000000E+00  0.00000000000E+00  0.39999999674E+01  0.40000000000E+01  0.51100000000E-03 0. -1.
    9000002   -1    0    0    0    0 -0.00000000000E+00 -0.00000000000E+00  0.00000000000E+00  0.93800000000E+00  0.93800000000E+00 0.  1.
         11    1    1    2    0    0  0.14624370490E-01 -0.14815808152E+00  0.13654020756E+01  0.13734947319E+01  0.51100000000E-03 0. -1.
    9000002    1    1    2    0    0 -0.47983547643E-01  0.39586016211E+00  0.10729392121E+00  0.10248725161E+01  0.93800000000E+00 0.  1.
         22    1    1    2    0    0  0.33359177152E-01 -0.24770208059E+00  0.25273039705E+01  0.25396327520E+01  0.00000000000E+00 0.  1.
</event>
<event>
 5    1  0.6172503E+001  0.1599667E+01  0.7818608E-02  0.3353725E+00
         11   -1    0    0    0    0  0.00000000000E+00  0.00000000000E+00  0.39999999674E+01  0.40000000000E+01  0.51100000000E-03 0.  1.
    9000002   -1    0    0    0    0 -0.00000000000E+00 -0.00000000000E+00  0.00000000000E+00  0.93800000000E+00  0.93800000000E+00 0.  1.
         11    1    1    2    0    0  0.32142122784E-01 -0.14916151104E-01  0.19979376906E+00  0.20291234289E+00  0.51100000000E-03 0.  1.
    9000002    1    1    2    0    0 -0.56728038365E+00  0.28602911209E+00  0.28383924694E+00  0.11679162662E+01  0.93800000000E+00 0.  1.
         22    1    1    2    0    0  0.53513826087E+00 -0.27111296098E+00  0.35163669514E+01  0.35671713910E+01  0.00000000000E+00 0.  1.
</event>
<event>
 5    1  0.6172503E+001  0.1598293E+01  0.7818608E-02  0.3355219E+00
         11   -1    0    0    0    0  0.00000000000E+00  0.00000000000E+00  0.39999999674E+01  0.40000000000E+01  0.51100000000E-03 0. -1.
    9000002   -1    0    0    0    0 -0.00000000000E+00 -0.00000000000E+00  0.00000000000E+00  0.93800000000E+00  0.93800000000E+00 0.  1.
         11    1    1    2    0    0  0.15663946325E+00  0.23751177279E-01  0.12802962896E+01  0.12900615838E+01  0.51100000000E-03 0. -1.
    9000002    1    1    2    0    0 -0.57393427462E+00 -0.12298802413E+00  0.24107512412E+00  0.11324697882E+01  0.93800000000E+00 0.  1.
         22    1    1    2    0    0  0.41729481137E+00  0.99236846849E-01  0.24786285537E+01  0.25154686280E+01  0.00000000000E+00 0. -1.
</event>
<event>
 5    1  0.6172503E+001  0.1574098E+01  0.7818608E-02  0.3381965E+00
         11   -1    0    0    0    0  0.00000000000E+00  0.00000000000E+00  0.39999999674E+01  0.40000000000E+01  0.51100000000E-03 0. -1.
    9000002   -1    0    0    0    0 -0.00000000000E+00 -0.00000000000E+00  0.00000000000E+00  0.93800000000E+00  0.93800000000E+00 0.  1.
         11    1    1    2    0    0 -0.58059635926E-01 -0.68026676134E-01  0.38227652614E+00  0.39259922764E+00  0.51100000000E-03 0. -1.
    9000002    1    1    2    0    0 -0.27107837909E+00 -0.93102987747E-01  0.74894315318E-01  0.98366905634E+00  0.93800000000E+00 0.  1.
         22    1    1    2    0    0  0.32913801501E+00  0.16112966388E+00  0.35428291259E+01  0.35617317160E+01  0.00000000000E+00 0. -1.
</event>
<event>
 5    1  0.6172503E+001  0.1555168E+01  0.7818608E-02  0.3403508E+00
         11   -1    0    0    0    0  0.00000000000E+00  0.00000000000E+00  0.39999999674E+01  0.40000000000E+01  0.51100000000E-03 0.  1.
    9000002   -1    0    0    0    0 -0.00000000000E+00 -0.00000000000E+00  0.00000000000E+00  0.93800000000E+00  0.93800000000E+00 0.  1.
         11    1    1    2    0    0  0.10976713815E+00  0.43320216165E+00  0.78714158129E+00  0.90515472025E+00  0.51100000000E-03 0.  1.
    9000002    1    1    2    0    0  0.22745042494E+00  0.22929522553E+00  0.31454732375E+00  0.10407180286E+01  0.93800000000E+00 0.  1.
         22    1    1    2    0    0 -0.33721756309E+00 -0.66249738718E+00  0.28983110623E+01  0.29921272511E+01  0.00000000000E+00 0.  1.
</event>
<event>
 5    1  0.6172503E+001  0.1599665E+01  0.7818608E-02  0.3353727E+00
         11   -1    0    0    0    0  0.00000000000E+00  0.00000000000E+00  0.39999999674E+01  0.40000000000E+01  0.51100000000E-03 0.  1.
    9000002   -1    0    0    0    0 -0.00000000000E+00 -0.00000000000E+00  0.00000000000E+00  0.93800000000E+00  0.93800000000E+00 0.  1.
         11    1    1    2    0    0  0.56498093848E-02 -0.62217031247E-01  0.51036778158E+00  0.51417741386E+00  0.51100000000E-03 0.  1.
    9000002    1    1    2    0    0 -0.60201552234E-01  0.45748479118E+00  0.14486804965E+00  0.10553422728E+01  0.93800000000E+00 0.  1.
         22    1    1    2    0    0  0.54551742850E-01 -0.39526775993E+00  0.33447641361E+01  0.33684803133E+01  0.00000000000E+00 0.  1.
</event>
<event>
 5    1  0.6172503E+001  0.1599616E+01  0.7818608E-02  0.3353781E+00
         11   -1    0    0    0    0  0.00000000000E+00  0.00000000000E+00  0.39999999674E+01  0.40000000000E+01  0.51100000000E-03 0.  1.
    9000002   -1    0    0    0    0 -0.00000000000E+00 -0.00000000000E+00  0.00000000000E+00  0.93800000000E+00  0.93800000000E+00 0.  1.
         11    1    1    2    0    0  0.98296428548E-02  0.11783980888E+00  0.10157057045E+01  0.10225659791E+01  0.51100000000E-03 0.  1.
    9000002    1    1    2    0    0 -0.37512344121E-01 -0.47759285721E+00  0.15662453950E+00  0.10648367760E+01  0.93800000000E+00 0.  1.
         22    1    1    2    0    0  0.27682701266E-01  0.35975304834E+00  0.28276697234E+01  0.28505972448E+01  0.00000000000E+00 0.  1.
</event>
<event>
 5    1  0.6172503E+001  0.1599677E+01  0.7818608E-02  0.3353714E+00
         11   -1    0    0    0    0  0.00000000000E+00  0.00000000000E+00  0.39999999674E+01  0.40000000000E+01  0.51100000000E-03 0.  1.
    9000002   -1    0    0    0    0 -0.00000000000E+00 -0.00000000000E+00  0.00000000000E+00  0.93800000000E+00  0.93800000000E+00 0.  1.
         11    1    1    2    0    0  0.21390290482E-01  0.14378946041E+00  0.13391270568E+01  0.13469946135E+01  0.51100000000E-03 0.  1.
    9000002    1    1    2    0    0 -0.60721387521E-01 -0.41661051891E+00  0.11989255375E+00  0.10351181748E+01  0.93800000000E+00 0.  1.
         22    1    1    2    0    0  0.39331097039E-01  0.27282105850E+00  0.25409803568E+01  0.25558872117E+01  0.00000000000E+00 0.  1.
</event>
<event>
 5    1  0.6172503E+001  0.1592667E+01  0.7818608E-02  0.3361361E+00
         11   -1    0    0    0    0  0.00000000000E+00  0.00000000000E+00  0.39999999674E+01  0.40000000000E+01  0.51100000000E-03 0. -1.
    9000002   -1    0    0    0    0 -0.00000000000E+00 -0.00000000000E+00  0.00000000000E+00  0.93800000000E+00  0.93800000000E+00 0. -1.
         11    1    1    2    0    0  0.21782122471E+00  0.14626083171E+00  0.13499198024E+01  0.13751807339E+01  0.51100000000E-03 0. -1.
    9000002    1    1    2    0    0 -0.45802011789E+00 -0.19027731258E+00  0.17459795452E+00  0.10753215007E+01  0.93800000000E+00 0. -1.
         22    1    1    2    0    0  0.24019889318E+00  0.44016480872E-01  0.24754822104E+01  0.24874977654E+01  0.00000000000E+00 0. -1.
</event>
<event>
 5    1  0.6172503E+001  0.1551141E+01  0.7818608E-02  0.3408162E+00
         11   -1    0    0    0    0  0.00000000000E+00  0.00000000000E+00  0.39999999674E+01  0.40000000000E+01  0.51100000000E-03 0.  1.
    9000002   -1    0    0    0    0 -0.00000000000E+00 -0.00000000000E+00  0.00000000000E+00  0.93800000000E+00  0.93800000000E+00 0.  1.
         11    1    1    2    0    0  0.16463136367E-01  0.74287450239E-01  0.11098340294E+00  0.13456313377E+00  0.51100000000E-03 0.  1.
    9000002    1    1    2    0    0  0.39574273281E-01  0.55481978385E+00  0.26161878550E+00  0.11214631089E+01  0.93800000000E+00 0.  1.
         22    1    1    2    0    0 -0.56037409648E-01 -0.62910723409E+00  0.36273977789E+01  0.36819737573E+01  0.00000000000E+00 0.  1.
</event>
<event>
 5    1  0.6172503E+001  0.1465924E+01  0.7818608E-02  0.3513112E+00
         11   -1    0    0    0    0  0.00000000000E+00  0.00000000000E+00  0.39999999674E+01  0.40000000000E+01  0.51100000000E-03 0.  1.
    9000002   -1    0    0    0    0 -0.00000000000E+00 -0.00000000000E+00  0.00000000000E+00  0.93800000000E+00  0.93800000000E+00 0.  1.
         11    1    1    2    0    0 -0.32951597883E+00  0.21129526379E+00  0.13421621628E+01  0.13980793973E+01  0.51100000000E-03 0.  1.
    9000002    1    1    2    0    0 -0.19342571047E+00  0.13313392532E+00  0.17919931337E+00  0.98340965088E+00  0.93800000000E+00 0.  1.
         22    1    1    2    0    0  0.52294168929E+00 -0.34442918911E+00  0.24786384912E+01  0.25565109518E+01  0.00000000000E+00 0.  1.
</event>
<event>
 5    1  0.6172503E+001  0.1591057E+01  0.7818608E-02  0.3363127E+00
         11   -1    0    0    0    0  0.00000000000E+00  0.00000000000E+00  0.39999999674E+01  0.40000000000E+01  0.51100000000E-03 0. -1.
    9000002   -1    0    0    0    0 -0.00000000000E+00 -0.00000000000E+00  0.00000000000E+00  0.93800000000E+00  0.93800000000E+00 0.  1.
         11    1    1    2    0    0  0.18862372615E-01 -0.27536946144E-01  0.12781312046E+00  0.13210044431E+00  0.51100000000E-03 0. -1.
    9000002    1    1    2    0    0  0.44310054053E+00  0.16505516282E+00  0.16000497914E+00  0.10625567698E+01  0.93800000000E+00 0.  1.
         22    1    1    2    0    0 -0.46196291314E+00 -0.13751821668E+00  0.37121818678E+01  0.37433427858E+01  0.00000000000E+00 0. -1.
</event>
<event>
 5    1  0.6172503E+001  0.1599676E+01  0.7818608E-02  0.3353715E+00
         11   -1    0    0    0    0  0.00000000000E+00  0.00000000000E+00  0.39999999674E+01  0.40000000000E+01  0.51100000000E-03 0. -1.
    9000002   -1    0    0    0    0 -0.00000000000E+00 -0.00000000000E+00  0.00000000000E+00  0.93800000000E+00  0.93800000000E+00 0.  1.
         11    1    1    2    0    0  0.16620127177E-01 -0.10282035642E+00  0.10224787435E+01  0.10277700601E+01  0.51100000000E-03 0. -1.
    9000002    1    1    2    0    0 -0.64297969072E-01  0.38863104151E+00  0.10458369453E+00  0.10227170011E+01  0.93800000000E+00 0.  1.
         22    1    1    2    0    0  0.47677841895E-01 -0.28581068509E+00  0.28729375293E+01  0.28875129388E+01  0.00000000000E+00 0. -1.
</event>
<event>
 5    1  0.6172503E+001  0.1494080E+01  0.7818608E-02  0.3477010E+00
         11   -1    0    0    0    0  0.00000000000E+00  0.00000000000E+00  0.39999999674E+01  0.40000000000E+01  0.51100000000E-03 0.  1.
    9000002   -1    0    0    0    0 -0.00000000000E+00 -0.00000000000E+00  0.00000000000E+00  0.93800000000E+00  0.93800000000E+00 0.  1.
         11    1    1    2    0    0  0.23312736735E+00  0.34342745813E+00  0.11702039263E+01  0.12416393513E+01  0.51100000000E-03 0.  1.
    9000002    1    1    2    0    0 -0.17836202236E-01 -0.20747043696E+00  0.11277194548E+00  0.96743145701E+00  0.93800000000E+00 0.  1.
         22    1    1    2    0    0 -0.21529116512E+00 -0.13595702116E+00  0.27170240956E+01  0.27289291917E+01  0.00000000000E+00 0.  1.
</event>
<event>
 5    1  0.6172503E+001  0.1599674E+01  0.7818608E-02  0.3353717E+00
         11   -1    0    0    0    0  0.00000000000E+00  0.00000000000E+00  0.39999999674E+01  0.40000000000E+01  0.51100000000E-03 0.  1.
    9000002   -1    0    0    0    0 -0.00000000000E+00 -0.00000000000E+00  0.00000000000E+00  0.93800000000E+00  0.93800000000E+00 0.  1.
         11    1    1    2    0    0  0.15936638475E+00 -0.17476967937E-01  0.13727758568E+01  0.13821059667E+01  0.51100000000E-03 0.  1.
    9000002    1    1    2    0    0 -0.45105411306E+00  0.44355104395E-01  0.13958545457E+00  0.10510686406E+01  0.93800000000E+00 0.  1.
         22    1    1    2    0    0  0.29168772831E+00 -0.26878136457E-01  0.24876386560E+01  0.25048253927E+01  0.00000000000E+00 0.  1.
</event>
<event>
 5    1  0.6172503E+001  0.1599677E+01  0.7818608E-02  0.3353714E+00
         11   -1    0    0    0    0  0.00000000000E+00  0.00000000000E+00  0.39999999674E+01  0.40000000000E+01  0.51100000000E-03 0. -1.
    9000002   -1    0    0    0    0 -0.00000000000E+00 -0.00000000000E+00  0.00000000000E+00  0.93800000000E+00  0.93800000000E+00 0. -1.
         11    1    1    2    0    0 -0.10746524616E-02  0.18109555430E+00  0.10298593984E+01  0.10456612244E+01  0.51100000000E-03 0. -1.
    9000002    1    1    2    0    0  0.34841686634E-02 -0.65290119085E+00  0.30102380746E+00  0.11818423910E+01  0.93800000000E+00 0. -1.
         22    1    1    2    0    0 -0.24095162018E-02  0.47180563655E+00  0.26691167615E+01  0.27104963846E+01  0.00000000000E+00 0. -1.
</event>
<event>
 5    1  0.6172503E+001  0.1594385E+01  0.7818608E-02  0.3359480E+00
         11   -1    0    0    0    0  0.00000000000E+00  0.00000000000E+00  0.39999999674E+01  0.40000000000E+01  0.51100000000E-03 0.  1.
    9000002   -1    0    0    0    0 -0.00000000000E+00 -0.00000000000E+00  0.00000000000E+00  0.93800000000E+00  0.93800000000E+00 0. -1.
         11    1    1    2    0    0 -0.65477792117E-01 -0.17716714918E-01  0.42796793164E+00  0.43331055247E+00  0.51100000000E-03 0.  1.
    9000002    1    1    2    0    0  0.30084923779E+00 -0.24099358109E+00  0.10441456772E+00  0.10194775976E+01  0.93800000000E+00 0. -1.
         22    1    1    2    0    0 -0.23537144568E+00  0.25871029600E+00  0.34676174680E+01  0.34852118500E+01  0.00000000000E+00 0.  1.
</event>
<event>
 5    1  0.6172503E+001  0.1599634E+01  0.7818608E-02  0.3353761E+00
         11   -1    0    0    0    0  0.00000000000E+00  0.00000000000E+00  0.39999999674E+01  0.40000000000E+01  0.51100000000E-03 0.  1.
    9000002   -1    0    0    0    0 -0.00000000000E+00 -0.00000000000E+00  0.00000000000E+00  0.93800000000E+00  0.93800000000E+00 0.  1.
         11    1    1    2    0    0  0.73111967096E-01  0.71824576298E-02  0.84630396330E+00  0.84948667255E+00  0.51100000000E-03 0.  1.
    9000002    1    1    2    0    0 -0.35754785805E+00 -0.10313909196E-01  0.85898142126E-01  0.10075561217E+01  0.93800000000E+00 0.  1.
         22    1    1    2    0    0  0.28443589096E+00  0.31314515662E-02  0.30677978619E+01  0.30809572058E+01  0.00000000000E+00 0.  1.
</event>
<event>
 5    1  0.6172503E+001  0.1599627E+01  0.7818608E-02  0.3353768E+00
         11   -1    0    0    0    0  0.00000000000E+00  0.00000000000E+00  0.39999999674E+01  0.40000000000E+01  0.51100000000E-03 0. -1.
    9000002   -1    0    0    0    0 -0.00000000000E+00 -0.00000000000E+00  0.00000000000E+00  0.93800000000E+00  0.93800000000E+00 0. -1.
         11    1    1    2    0    0  0.10372240122E+00 -0.59930564510E-01  0.13271608787E+01  0.13325562908E+01  0.51100000000E-03 0. -1.
    9000002    1    1    2    0    0 -0.32689321939E+00  0.16632462098E+00  0.90410950147E-01  0.10112077909E+01  0.93800000000E+00 0. -1.
         22    1    1    2    0    0  0.22317081817E+00 -0.10639405647E+00  0.25824281385E+01  0.25942359183E+01  0.00000000000E+00 0. -1.
</event>
<event>
 5    1  0.6172503E+001  0.1599632E+01  0.7818608E-02  0.3353763E+00
         11   -1    0    0    0    0  0.00000000000E+00  0.00000000000E+00  0.39999999674E+01  0.40000000000E+01  0.51100000000E-03 0. -1.
    9000002   -1    0    0    0    0 -0.00000000000E+00 -0.00000000000E+00  0.00000000000E+00  0.93800000000E+00  0.93800000000E+00 0. -1.
         11    1    1    2    0    0  0.90823170634E-01  0.18827315163E-01  0.10583205163E+01  0.10623774718E+01  0.51100000000E-03 0. -1.
    9000002    1    1    2    0    0 -0.35057379582E+00 -0.47464345123E-01  0.83989043091E-01  0.10060084541E+01  0.93800000000E+00 0. -1.
         22    1    1    2    0    0  0.25975062519E+00  0.28637029960E-01  0.28576904079E+01  0.28696140741E+01  0.00000000000E+00 0. -1.
</event>
<event>
 5    1  0.6172503E+001  0.1599635E+01  0.7818608E-02  0.3353759E+00
         11   -1    0    0    0    0  0.00000000000E+00  0.00000000000E+00  0.39999999674E+01  0.40000000000E+01  0.51100000000E-03 0. -1.
    9000002   -1    0    0    0    0 -0.00000000000E+00 -0.00000000000E+00  0.00000000000E+00  0.93800000000E+00  0.93800000000E+00 0. -1.
         11    1    1    2    0    0  0.20279283445E+00  0.13978266129E+00  0.14194193835E+01  0.14406303390E+01  0.51100000000E-03 0. -1.
    9000002    1    1    2    0    0 -0.51227089116E+00 -0.36277601941E+00  0.27664291340E+00  0.11620685039E+01  0.93800000000E+00 0. -1.
         22    1    1    2    0    0  0.30947805671E+00  0.22299335812E+00  0.23039376704E+01  0.23353011572E+01  0.00000000000E+00 0. -1.
</event>
<event>
 5    1  0.6172503E+001  0.1571620E+01  0.7818608E-02  0.3384754E+00
         11   -1    0    0    0    0  0.00000000000E+00  0.00000000000E+00  0.39999999674E+01  0.40000000000E+01  0.51100000000E-03 0. -1.
    9000002   -1    0    0    0    0 -0.00000000000E+00 -0.00000000000E+00  0.00000000000E+00  0.93800000000E+00  0.93800000000E+00 0. -1.
         11    1    1    2    0    0  0.26781241847E+00 -0.34540458071E-01  0.72276146020E+00  0.77155746656E+00  0.51100000000E-03 0. -1.
    9000002    1    1    2    0    0 -0.58512509532E+00 -0.96898872911E-01  0.27330111649E+00  0.11429340615E+01  0.93800000000E+00 0. -1.
         22    1    1    2    0    0  0.31731267685E+00  0.13143933098E+00  0.30039373907E+01  0.30235084719E+01  0.00000000000E+00 0. -1.
</event>
<event>
 5    1  0.6172503E+001  0.1599247E+01  0.7818608E-02  0.3354182E+00
         11   -1    0    0    0    0  0.00000000000E+00  0.00000000000E+00  0.39999999674E+01  0.40000000000E+01  0.51100000000E-03 0.  1.
    9000002   -1    0    0    0    0 -0.00000000000E+00 -0.00000000000E+00  0.00000000000E+00  0.93800000000E+00  0.93800000000E+00 0. -1.
         11    1    1    2    0    0 -0.81556550414E-01  0.13478467388E+00  0.86924517567E+00  0.88340580470E+00  0.51100000000E-03 0.  1.
    9000002    1    1    2    0    0  0.40803550112E+00 -0.50725551855E+00  0.29958026976E+00  0.11804208865E+01  0.93800000000E+00 0.  1.
         22    1    1    2    0    0 -0.32647895070E+00  0.37247084467E+00  0.28311745219E+01  0.28741733088E+01  0.00000000000E+00 0. -1.
</event>
<event>
 5    1  0.6172503E+001  0.1593281E+01  0.7818608E-02  0.3360688E+00
         11   -1    0    0    0    0  0.00000000000E+00  0.00000000000E+00  0.39999999674E+01  0.40000000000E+01  0.51100000000E-03 0.  1.
    9000002   -1    0    0    0    0 -0.00000000000E+00 -0.00000000000E+00  0.00000000000E+00  0.93800000000E+00  0.93800000000E+00 0. -1.
         11    1    1    2    0    0  0.19577524830E+00 -0.54660232003E-01  0.13741648080E+01  0.13891165788E+01  0.51100000000E-03 0.  1.
    9000002    1    1    2    0    0 -0.39524511773E+00  0.36096118350E+00  0.20332570120E+00  0.10989526923E+01  0.93800000000E+00 0. -1.
         22    1    1    2    0    0  0.19946986943E+00 -0.30630095150E+00  0.24225094582E+01  0.24499307290E+01  0.00000000000E+00 0.  1.
</event>
<event>
 5    1  0.6172503E+001  0.1536914E+01  0.7818608E-02  0.3424816E+00
         11   -1    0    0    0    0  0.00000000000E+00  0.00000000000E+00  0.39999999674E+01  0.40000000000E+01  0.51100000000E-03 0. -1.
    9000002   -1    0    0    0    0 -0.00000000000E+00 -0.00000000000E+00  0.00000000000E+00  0.93800000000E+00  0.93800000000E+00 0. -1.
         11    1    1    2    0    0  0.65147559187E-01  0.54148121299E-01  0.40481331886E+00  0.41358228656E+00  0.51100000000E-03 0. -1.
    9000002    1    1    2    0    0  0.78605811078E+00  0.48647838117E+00  0.77201632662E+00  0.15265653531E+01  0.93800000000E+00 0. -1.
         22    1    1    2    0    0 -0.85120566997E+00 -0.54062650247E+00  0.28231703219E+01  0.29978523603E+01  0.00000000000E+00 0. -1.
</event>
<event>
 5    1  0.8513661E+001  0.1594007E+01  0.7818608E-02  0.3359894E+00
         11   -1    0    0    0    0  0.00000000000E+00  0.00000000000E+00  0.39999999674E+01  0.40000000000E+01  0.51100000000E-03 0. -1.
    9000002   -1    0    0    0    0 -0.00000000000E+00 -0.00000000000E+00  0.00000000000E+00  0.93800000000E+00  0.93800000000E+00 0.  1.
         11    1    1    2    0    0  0.20472676412E-01  0.78612824185E-02  0.13691679797E+01  0.13693436925E+01  0.51100000000E-03 0. -1.
    9000002    1    1    2    0    0 -0.57412150869E-01 -0.27152133807E+00  0.55679224651E-01  0.97977761158E+00  0.93800000000E+00 0.  1.
         22    1    1    2    0    0  0.36939474457E-01  0.26366005565E+00  0.25751527630E+01  0.25888786960E+01  0.00000000000E+00 0. -1.
</event>
<event>
 5    1  0.6172503E+001  0.1599633E+01  0.7818608E-02  0.3353761E+00
         11   -1    0    0    0    0  0.00000000000E+00  0.00000000000E+00  0.39999999674E+01  0.40000000000E+01  0.51100000000E-03 0. -1.
    9000002   -1    0    0    0    0 -0.00000000000E+00 -0.00000000000E+00  0.00000000000E+00  0.93800000000E+00  0.93800000000E+00 0.  1.
         11    1    1    2    0    0  0.48210483350E-01  0.80602237964E-01  0.10065516226E+01  0.10109240335E+01  0.51100000000E-03 0. -1.
    9000002    1    1    2    0    0 -0.16657934293E+00 -0.33038537819E+00  0.92039889742E-01  0.10125307486E+01  0.93800000000E+00 0.  1.
         22    1    1    2    0    0  0.11836885958E+00  0.24978314022E+00  0.29014084550E+01  0.29145452179E+01  0.00000000000E+00 0. -1.
</event>
<event>
 5    1  0.6172503E+001  0.1599577E+01  0.7818608E-02  0.3353823E+00
         11   -1    0    0    0    0  0.00000000000E+00  0.00000000000E+00  0.39999999674E+01  0.40000000000E+01  0.51100000000E-03 0.  1.
    9000002   -1    0    0    0    0 -0.00000000000E+00 -0.00000000000E+00  0.00000000000E+00  0.93800000000E+00  0.93800000000E+00 0. -1.
         11    1    1    2    0    0 -0.11881845255E+00  0.16288673533E+00  0.12909872162E+01  0.13066362029E+01  0.51100000000E-03 0.  1.
    9000002    1    1    2    0    0  0.35884919251E+00 -0.50102109661E+00  0.26602467618E+00  0.11534331409E+01  0.93800000000E+00 0. -1.
         22    1    1    2    0    0 -0.24003073996E+00  0.33813436128E+00  0.24429880749E+01  0.24779306562E+01  0.00000000000E+00 0.  1.
</event>
<event>
 5    1  0.6172503E+001  0.1597459E+01  0.7818608E-02  0.3356126E+00
         11   -1    0    0    0    0  0.00000000000E+00  0.00000000000E+00  0.39999999674E+01  0.40000000000E+01  0.51100000000E-03 0.  1.
    9000002   -1    0    0    0    0 -0.00000000000E+00 -0.00000000000E+00  0.00000000000E+00  0.93800000000E+00  0.93800000000E+00 0. -1.
         11    1    1    2    0    0  0.11677296499E-01 -0.82744096276E-01  0.63091444232E+00  0.63642457477E+00  0.51100000000E-03 0.  1.
    9000002    1    1    2    0    0  0.14034766342E+00  0.36433733230E+00  0.10453396763E+00  0.10213767712E+01  0.93800000000E+00 0. -1.
         22    1    1    2    0    0 -0.15202495992E+00 -0.28159323602E+00  0.32645515574E+01  0.32801986540E+01  0.00000000000E+00 0.  1.
</event>
<event>
 5    1  0.6172503E+001  0.1532338E+01  0.7818608E-02  0.3430242E+00
         11   -1    0    0    0    0  0.00000000000E+00  0.00000000000E+00  0.39999999674E+01  0.40000000000E+01  0.51100000000E-03 0.  1.
    9000002   -1    0    0    0    0 -0.00000000000E+00 -0.00000000000E+00  0.00000000000E+00  0.93800000000E+00  0.93800000000E+00 0.  1.
         11    1    1    2    0    0  0.36289300434E-01 -0.40471341953E-01  0.10001700287E-01  0.55273302553E-01  0.51100000000E-03 0.  1.
    9000002    1    1    2    0    0  0.33402047231E+00 -0.10949274637E+00  0.13927799103E+00  0.10113360946E+01  0.93800000000E+00 0.  1.
         22    1    1    2    0    0 -0.37030977275E+00  0.14996408832E+00  0.38507202760E+01  0.38713906029E+01  0.00000000000E+00 0.  1.
</event>
<event>
 5    1  0.6172503E+001  0.1599472E+01  0.7818608E-02  0.3353936E+00
         11   -1    0    0    0    0  0.00000000000E+00  0.00000000000E+00  0.39999999674E+01  0.40000000000E+01  0.51100000000E-03 0.  1.
    9000002   -1    0    0    0    0 -0.00000000000E+00 -0.00000000000E+00  0.00000000000E+00  0.93800000000E+00  0.93800000000E+00 0. -1.
         11    1    1    2    0    0 -0.12918999238E-01  0.47473098251E-01  0.31441198276E+00  0.31823851373E+00  0.51100000000E-03 0.  1.
    9000002    1    1    2    0    0  0.22228871228E+00 -0.64278446305E+00  0.32909793590E+00  0.12044640256E+01  0.93800000000E+00 0. -1.
         22    1    1    2    0    0 -0.20936971304E+00  0.59531136480E+00  0.33564900487E+01  0.34152974607E+01  0.00000000000E+00 0.  1.
</event>
<event>
 5    1  0.6172503E+001  0.1599676E+01  0.7818608E-02  0.3353715E+00
         11   -1    0    0    0    0  0.00000000000E+00  0.00000000000E+00  0.39999999674E+01  0.40000000000E+01  0.51100000000E-03 0. -1.
    9000002   -1    0    0    0    0 -0.00000000000E+00 -0.00000000000E+00  0.00000000000E+00  0.93800000000E+00  0.93800000000E+00 0.  1.
         11    1    1    2    0    0  0.16613983190E+00  0.97736484238E-01  0.14026732921E+01  0.14158557446E+01  0.51100000000E-03 0. -1.
    9000002    1    1    2    0    0 -0.44895990767E+00 -0.26534547789E+00  0.18687363626E+00  0.10893754987E+01  0.93800000000E+00 0.  1.
         22    1    1    2    0    0  0.28282007577E+00  0.16760899365E+00  0.24104530390E+01  0.24327687566E+01  0.00000000000E+00 0. -1.
</event>
<event>
 5    1  0.6172503E+001  0.1599536E+01  0.7818608E-02  0.3353867E+00
         11   -1    0    0    0    0  0.00000000000E+00  0.00000000000E+00  0.39999999674E+01  0.40000000000E+01  0.51100000000E-03 0. -1.
    9000002   -1    0    0    0    0 -0.00000000000E+00 -0.00000000000E+00  0.00000000000E+00  0.93800000000E+00  0.93800000000E+00 0.  1.
         11    1    1    2    0    0  0.80766532725E-01  0.30236904124E-01  0.63736744018E+00  0.64317572878E+00  0.51100000000E-03 0. -1.
    9000002    1    1    2    0    0 -0.47908791883E+00 -0.24396845373E+00  0.19931431111E+00  0.10993707450E+01  0.93800000000E+00 0.  1.
         22    1    1    2    0    0  0.39832138610E+00  0.21373154961E+00  0.31633182161E+01  0.31954535262E+01  0.00000000000E+00 0. -1.
</event>
<event>
 5    1  0.6172503E+001  0.1522088E+01  0.7818608E-02  0.3442525E+00
         11   -1    0    0    0    0  0.00000000000E+00  0.00000000000E+00  0.39999999674E+01  0.40000000000E+01  0.51100000000E-03 0.  1.
    9000002   -1    0    0    0    0 -0.00000000000E+00 -0.00000000000E+00  0.00000000000E+00  0.93800000000E+00  0.93800000000E+00 0. -1.
         11    1    1    2    0    0  0.11512448761E+00 -0.19067559699E+00  0.52538779245E+00  0.57065175414E+00  0.51100000000E-03 0.  1.
    9000002    1    1    2    0    0 -0.26772300103E+00 -0.20725886860E+00  0.14164558890E+00  0.10072434248E+01  0.93800000000E+00 0. -1.
         22    1    1    2    0    0  0.15259851343E+00  0.39793446559E+00  0.33329665860E+01  0.33601048211E+01  0.00000000000E+00 0.  1.
</event>
<event>
 5    1  0.6172503E+001  0.1595388E+01  0.7818608E-02  0.3358384E+00
         11   -1    0    0    0    0  0.00000000000E+00  0.00000000000E+00  0.39999999674E+01  0.40000000000E+01  0.51100000000E-03 0.  1.
    9000002   -1    0    0    0    0 -0.00000000000E+00 -0.00000000000E+00  0.00000000000E+00  0.93800000000E+00  0.93800000000E+00 0. -1.
         11    1    1    2    0    0  0.13448288883E-03 -0.18165302943E-01  0.14040825223E+00  0.14157942906E+00  0.51100000000E-03 0.  1.
    9000002    1    1    2    0    0 -0.18249323766E+00 -0.29078059297E+00  0.82413791362E-01  0.10022440661E+01  0.93800000000E+00 0. -1.
         22    1    1    2    0    0  0.18235875477E+00  0.30894589592E+00  0.37771779238E+01  0.37941765048E+01  0.00000000000E+00 0.  1.
</event>
<event>
 5    1  0.6172503E+001  0.1599674E+01  0.7818608E-02  0.3353718E+00
         11   -1    0    0    0    0  0.00000000000E+00  0.00000000000E+00  0.39999999674E+01  0.40000000000E+01  0.51100000000E-03 0. -1.
    9000002   -1    0    0    0    0 -0.00000000000E+00 -0.00000000000E+00  0.00000000000E+00  0.93800000000E+00  0.93800000000E+00 0.  1.
         11    1    1    2    0    0 -0.10048201529E+00  0.88293661900E-01  0.14232352008E+01  0.14295072941E+01  0.51100000000E-03 0. -1.
    9000002    1    1    2    0    0  0.28030273095E+00 -0.24614553667E+00  0.93555344217E-01  0.10137819532E+01  0.93800000000E+00 0.  1.
         22    1    1    2    0    0 -0.17982071566E+00  0.15785187477E+00  0.24832094224E+01  0.24947107527E+01  0.00000000000E+00 0. -1.
</event>
<event>
 5    1  0.6172503E+001  0.1599675E+01  0.7818608E-02  0.3353716E+00
         11   -1    0    0    0    0  0.00000000000E+00  0.00000000000E+00  0.39999999674E+01  0.40000000000E+01  0.51100000000E-03 0.  1.
    9000002   -1    0    0    0    0 -0.00000000000E+00 -0.00000000000E+00  0.00000000000E+00  0.93800000000E+00  0.93800000000E+00 0.  1.
         11    1    1    2    0    0  0.81629774930E-01  0.14201725773E-02  0.66910612126E+00  0.67406876479E+00  0.51100000000E-03 0.  1.
    9000002    1    1    2    0    0 -0.46779984874E+00 -0.14066705403E-02  0.14903360051E+00  0.10587226697E+01  0.93800000000E+00 0.  1.
         22    1    1    2    0    0  0.38617007381E+00 -0.13502036931E-04  0.31818602456E+01  0.32052085655E+01  0.00000000000E+00 0.  1.
</event>
<event>
 5    1  0.6172503E+001  0.1599675E+01  0.7818608E-02  0.3353716E+00
         11   -1    0    0    0    0  0.00000000000E+00  0.00000000000E+00  0.39999999674E+01  0.40000000000E+01  0.51100000000E-03 0. -1.
    9000002   -1    0    0    0    0 -0.00000000000E+00 -0.00000000000E+00  0.00000000000E+00  0.93800000000E+00  0.93800000000E+00 0. -1.
         11    1    1    2    0    0 -0.53553425088E-01  0.87561666131E-01  0.68866260931E+00  0.69626967857E+00  0.51100000000E-03 0. -1.
    9000002    1    1    2    0    0  0.28741441191E+00 -0.48257339610E+00  0.21839759668E+00  0.11149105960E+01  0.93800000000E+00 0. -1.
         22    1    1    2    0    0 -0.23386098683E+00  0.39501172997E+00  0.30929397614E+01  0.31268197254E+01  0.00000000000E+00 0. -1.
</event>
<event>
 5    1  0.6172503E+001  0.1599550E+01  0.7818608E-02  0.3353852E+00
         11   -1    0    0    0    0  0.00000000000E+00  0.00000000000E+00  0.39999999674E+01  0.40000000000E+01  0.51100000000E-03 0. -1.
    9000002   -1    0    0    0    0 -0.00000000000E+00 -0.00000000000E+00  0.00000000000E+00  0.93800000000E+00  0.93800000000E+00 0. -1.
         11    1    1    2    0    0  0.26158029432E-01  0.11290949416E+00  0.84791835384E+00  0.85580289335E+00  0.51100000000E-03 0. -1.
    9000002    1    1    2    0    0 -0.11478301617E+00 -0.55393874984E+00  0.22183467749E+00  0.11176215386E+01  0.93800000000E+00 0. -1.
         22    1    1    2    0    0  0.88624986734E-01  0.44102925568E+00  0.29302469360E+01  0.29645755681E+01  0.00000000000E+00 0. -1.
</event>
<event>
 5    1  0.6172503E+001  0.1599675E+01  0.7818608E-02  0.3353716E+00
         11   -1    0    0    0    0  0.00000000000E+00  0.00000000000E+00  0.39999999674E+01  0.40000000000E+01  0.51100000000E-03 0.  1.
    9000002   -1    0    0    0    0 -0.00000000000E+00 -0.00000000000E+00  0.00000000000E+00  0.93800000000E+00  0.93800000000E+00 0. -1.
         11    1    1    2    0    0  0.13083742191E-01  0.35981438512E-01  0.37318483922E+00  0.37514401711E+00  0.51100000000E-03 0. -1.
    9000002    1    1    2    0    0 -0.14025466815E+00 -0.36733353419E+00  0.10419578692E+00  0.10224021025E+01  0.93800000000E+00 0. -1.
         22    1    1    2    0    0  0.12717092595E+00  0.33135209568E+00  0.35226193412E+01  0.35404538803E+01  0.00000000000E+00 0.  1.
</event>
<event>
 5    1  0.6172503E+001  0.1599647E+01  0.7818608E-02  0.3353747E+00
         11   -1    0    0    0    0  0.00000000000E+00  0.00000000000E+00  0.39999999674E+01  0.40000000000E+01  0.51100000000E-03 0.  1.
    9000002   -1    0    0    0    0 -0.00000000000E+00 -0.00000000000E+00  0.00000000000E+00  0.93800000000E+00  0.93800000000E+00 0.  1.
         11    1    1    2    0    0 -0.91288011127E-01  0.15827099945E+00  0.13826976845E+01  0.13947173040E+01  0.51100000000E-03 0.  1.
    9000002    1    1    2    0    0  0.26623117245E+00 -0.42673331065E+00  0.17329351174E+00  0.10783575459E+01  0.93800000000E+00 0.  1.
         22    1    1    2    0    0 -0.17494316132E+00  0.26846231121E+00  0.24440087711E+01  0.24649251501E+01  0.00000000000E+00 0. -1.
</event>
<event>
 5    1  0.6172503E+001  0.1599675E+01  0.7818608E-02  0.3353716E+00
         11   -1    0    0    0    0  0.00000000000E+00  0.00000000000E+00  0.39999999674E+01  0.40000000000E+01  0.51100000000E-03 0.  1.
    9000002   -1    0    0    0    0 -0.00000000000E+00 -0.00000000000E+00  0.00000000000E+00  0.93800000000E+00  0.93800000000E+00 0. -1.
         11    1    1    2    0    0  0.14629810942E+00 -0.12603823118E-01  0.12879178721E+01  0.12962618176E+01  0.51100000000E-03 0.  1.
    9000002    1    1    2    0    0 -0.43835063221E+00  0.42122026095E-01  0.13152807322E+00  0.10445425678E+01  0.93800000000E+00 0. -1.
         22    1    1    2    0    0  0.29205252279E+00 -0.29518202977E-01  0.25805540220E+01  0.25971956147E+01  0.00000000000E+00 0.  1.
</event>
<event>
 5    1  0.6172503E+001  0.1594599E+01  0.7818608E-02  0.3359247E+00
         11   -1    0    0    0    0  0.00000000000E+00  0.00000000000E+00  0.39999999674E+01  0.40000000000E+01  0.51100000000E-03 0.  1.
    9000002   -1    0    0    0    0 -0.00000000000E+00 -0.00000000000E+00  0.00000000000E+00  0.93800000000E+00  0.93800000000E+00 0.  1.
         11    1    1    2    0    0 -0.11353910616E+00  0.23346661739E+00  0.12956696957E+01  0.13214227225E+01  0.51100000000E-03 0.  1.
    9000002    1    1    2    0    0  0.13454094670E+00 -0.54424304008E+00  0.22239247598E+00  0.11151700168E+01  0.93800000000E+00 0.  1.
         22    1    1    2    0    0 -0.21001840544E-01  0.31077642269E+00  0.24819377957E+01  0.25014072607E+01  0.00000000000E+00 0.  1.
</event>
<event>
 5    1  0.6172503E+001  0.1595360E+01  0.7818608E-02  0.3358414E+00
         11   -1    0    0    0    0  0.00000000000E+00  0.00000000000E+00  0.39999999674E+01  0.40000000000E+01  0.51100000000E-03 0. -1.
    9000002   -1    0    0    0    0 -0.00000000000E+00 -0.00000000000E+00  0.00000000000E+00  0.93800000000E+00  0.93800000000E+00 0.  1.
         11    1    1    2    0    0 -0.10209918514E+00 -0.63594101129E-01  0.70778181128E+00  0.71793022419E+00  0.51100000000E-03 0. -1.
    9000002    1    1    2    0    0  0.22345866032E+00  0.36247095112E+00  0.12639276075E+00  0.10378526356E+01  0.93800000000E+00 0.  1.
         22    1    1    2    0    0 -0.12135947518E+00 -0.29887684999E+00  0.31658253953E+01  0.31822171402E+01  0.00000000000E+00 0. -1.
</event>
<event>
 5    1  0.6172503E+001  0.1599659E+01  0.7818608E-02  0.3353734E+00
         11   -1    0    0    0    0  0.00000000000E+00  0.00000000000E+00  0.39999999674E+01  0.40000000000E+01  0.51100000000E-03 0. -1.
    9000002   -1    0    0    0    0 -0.00000000000E+00 -0.00000000000E+00  0.00000000000E+00  0.93800000000E+00  0.93800000000E+00 0.  1.
         11    1    1    2    0    0  0.81639670631E-01  0.53391684915E-01  0.74611604479E+00  0.75246602665E+00  0.51100000000E-03 0. -1.
    9000002    1    1    2    0    0 -0.43503696490E+00 -0.28437930158E+00  0.18556436177E+00  0.10883045899E+01  0.93800000000E+00 0.  1.
         22    1    1    2    0    0  0.35339729427E+00  0.23098761666E+00  0.30683195608E+01  0.30972293835E+01  0.00000000000E+00 0. -1.
</event>
<event>
 5    1  0.6172503E+001  0.1599651E+01  0.7818608E-02  0.3353742E+00
         11   -1    0    0    0    0  0.00000000000E+00  0.00000000000E+00  0.39999999674E+01  0.40000000000E+01  0.51100000000E-03 0.  1.
    9000002   -1    0    0    0    0 -0.00000000000E+00 -0.00000000000E+00  0.00000000000E+00  0.93800000000E+00  0.93800000000E+00 0.  1.
         11    1    1    2    0    0  0.42202338620E-01 -0.13235662002E+00  0.12335878728E+01  0.12413857633E+01  0.51100000000E-03 0.  1.
    9000002    1    1    2    0    0 -0.11690127103E+00  0.42391888743E+00  0.13116207591E+00  0.10442320721E+01  0.93800000000E+00 0.  1.
         22    1    1    2    0    0  0.74698932415E-01 -0.29156226741E+00  0.26352500186E+01  0.26523821646E+01  0.00000000000E+00 0.  1.
</event>
<event>
 5    1  0.6172503E+001  0.1561570E+01  0.7818608E-02  0.3396160E+00
         11   -1    0    0    0    0  0.00000000000E+00  0.00000000000E+00  0.39999999674E+01  0.40000000000E+01  0.51100000000E-03 0.  1.
    9000002   -1    0    0    0    0 -0.00000000000E+00 -0.00000000000E+00  0.00000000000E+00  0.93800000000E+00  0.93800000000E+00 0.  1.
         11    1    1    2    0    0 -0.66292004447E-01 -0.16337712331E+00  0.12139716139E+01  0.12267086267E+01  0.51100000000E-03 0.  1.
    9000002    1    1    2    0    0 -0.15035078386E-01 -0.13476620314E+00  0.40700598329E-01  0.94862454206E+00  0.93800000000E+00 0.  1.
         22    1    1    2    0    0  0.81327082833E-01  0.29814332645E+00  0.27453277551E+01  0.27626668312E+01  0.00000000000E+00 0.  1.
</event>
<event>
 5    1  0.6172503E+001  0.1599659E+01  0.7818608E-02  0.3353733E+00
         11   -1    0    0    0    0  0.00000000000E+00  0.00000000000E+00  0.39999999674E+01  0.40000000000E+01  0.51100000000E-03 0.  1.
    9000002   -1    0    0    0    0 -0.00000000000E+00 -0.00000000000E+00  0.00000000000E+00  0.93800000000E+00  0.93800000000E+00 0. -1.
         11    1    1    2    0    0  0.70342397330E-02  0.38603051465E-01  0.39024204057E+00  0.39221013177E+00  0.51100000000E-03 0.  1.
    9000002    1    1    2    0    0 -0.82668486704E-01 -0.35906169520E+00  0.91233431125E-01  0.10118927407E+01  0.93800000000E+00 0. -1.
         22    1    1    2    0    0  0.75634246971E-01  0.32045864373E+00  0.35185244957E+01  0.35338971276E+01  0.00000000000E+00 0.  1.
</event>
<event>
 5    1  0.6172503E+001  0.1571377E+01  0.7818608E-02  0.3385028E+00
         11   -1    0    0    0    0  0.00000000000E+00  0.00000000000E+00  0.39999999674E+01  0.40000000000E+01  0.51100000000E-03 0. -1.
    9000002   -1    0    0    0    0 -0.00000000000E+00 -0.00000000000E+00  0.00000000000E+00  0.93800000000E+00  0.93800000000E+00 0. -1.
         11    1    1    2    0    0  0.82812647043E-01  0.14990959152E+00  0.13339731276E+01  0.13449220745E+01  0.51100000000E-03 0. -1.
    9000002    1    1    2    0    0 -0.14226669949E+00  0.11355810659E+00  0.43299580584E-01  0.95648006306E+00  0.93800000000E+00 0. -1.
         22    1    1    2    0    0  0.59454052443E-01 -0.26346769811E+00  0.26227272591E+01  0.26365978624E+01  0.00000000000E+00 0. -1.
</event>
<event>
 5    1  0.6172503E+001  0.1599674E+01  0.7818608E-02  0.3353717E+00
         11   -1    0    0    0    0  0.00000000000E+00  0.00000000000E+00  0.39999999674E+01  0.40000000000E+01  0.51100000000E-03 0. -1.
    9000002   -1    0    0    0    0 -0.00000000000E+00 -0.00000000000E+00  0.00000000000E+00  0.93800000000E+00  0.93800000000E+00 0.  1.
         11    1    1    2    0    0  0.84482807490E-01  0.11064693523E+00  0.14014790038E+01  0.14083762808E+01  0.51100000000E-03 0. -1.
    9000002    1    1    2    0    0 -0.23589883359E+00 -0.30242157950E+00  0.99024754629E-01  0.10182126367E+01  0.93800000000E+00 0.  1.
         22    1    1    2    0    0  0.15141602610E+00  0.19177464427E+00  0.24994962089E+01  0.25114110825E+01  0.00000000000E+00 0.  1.
</event>
<event>
 5    1  0.6172503E+001  0.1597239E+01  0.7818608E-02  0.3356365E+00
         11   -1    0    0    0    0  0.00000000000E+00  0.00000000000E+00  0.39999999674E+01  0.40000000000E+01  0.51100000000E-03 0. -1.
    9000002   -1    0    0    0    0 -0.00000000000E+00 -0.00000000000E+00  0.00000000000E+00  0.93800000000E+00  0.93800000000E+00 0. -1.
         11    1    1    2    0    0  0.11472091022E+00 -0.11036614777E+00  0.89402853162E+00  0.90809077205E+00  0.51100000000E-03 0. -1.
    9000002    1    1    2    0    0 -0.28318636224E+00  0.41115020304E+00  0.17279365712E+00  0.10765410597E+01  0.93800000000E+00 0. -1.
         22    1    1    2    0    0  0.16846545202E+00 -0.30078405526E+00  0.29331777786E+01  0.29533681683E+01  0.00000000000E+00 0. -1.
</event>
<event>
 5    1  0.6172503E+001  0.1599620E+01  0.7818608E-02  0.3353776E+00
         11   -1    0    0    0    0  0.00000000000E+00  0.00000000000E+00  0.39999999674E+01  0.40000000000E+01  0.51100000000E-03 0.  1.
    9000002   -1    0    0    0    0 -0.00000000000E+00 -0.00000000000E+00  0.00000000000E+00  0.93800000000E+00  0.93800000000E+00 0.  1.
         11    1    1    2    0    0  0.33964359749E-01  0.18887364561E+00  0.14465519070E+01  0.14592256551E+01  0.51100000000E-03 0.  1.
    9000002    1    1    2    0    0 -0.84013546695E-01 -0.47839979671E+00  0.16117489788E+00  0.10685251467E+01  0.93800000000E+00 0.  1.
         22    1    1    2    0    0  0.50049186946E-01  0.28952615110E+00  0.23922731625E+01  0.24102491982E+01  0.00000000000E+00 0.  1.
</event>
<event>
 5    1  0.6172503E+001  0.1588128E+01  0.7818608E-02  0.3366351E+00
         11   -1    0    0    0    0  0.00000000000E+00  0.00000000000E+00  0.39999999674E+01  0.40000000000E+01  0.51100000000E-03 0. -1.
    9000002   -1    0    0    0    0 -0.00000000000E+00 -0.00000000000E+00  0.00000000000E+00  0.93800000000E+00  0.93800000000E+00 0.  1.
         11    1    1    2    0    0 -0.28887412840E-01 -0.26503710799E-01  0.83903485164E+00  0.83995039895E+00  0.51100000000E-03 0. -1.
    9000002    1    1    2    0    0 -0.34191070930E+00 -0.11292123969E-01  0.87716143450E-01  0.10022816805E+01  0.93800000000E+00 0.  1.
         22    1    1    2    0    0  0.37079812214E+00  0.37795834768E-01  0.30732489723E+01  0.30957679206E+01  0.00000000000E+00 0. -1.
</event>
<event>
 5    1  0.6172503E+001  0.1597756E+01  0.7818608E-02  0.3355802E+00
         11   -1    0    0    0    0  0.00000000000E+00  0.00000000000E+00  0.39999999674E+01  0.40000000000E+01  0.51100000000E-03 0. -1.
    9000002   -1    0    0    0    0 -0.00000000000E+00 -0.00000000000E+00  0.00000000000E+00  0.93800000000E+00  0.93800000000E+00 0. -1.
         11    1    1    2    0    0  0.25671873143E+00 -0.26166358643E-01  0.87823606805E+00  0.91536224400E+00  0.51100000000E-03 0. -1.
    9000002    1    1    2    0    0 -0.84645754655E+00  0.19937130668E+00  0.57436181220E+00  0.14021322289E+01  0.93800000000E+00 0. -1.
         22    1    1    2    0    0  0.58973881512E+00 -0.17320494803E+00  0.25474020871E+01  0.26205055271E+01  0.00000000000E+00 0. -1.
</event>
<event>
 5    1  0.6172503E+001  0.1599677E+01  0.7818608E-02  0.3353714E+00
         11   -1    0    0    0    0  0.00000000000E+00  0.00000000000E+00  0.39999999674E+01  0.40000000000E+01  0.51100000000E-03 0.  1.
    9000002   -1    0    0    0    0 -0.00000000000E+00 -0.00000000000E+00  0.00000000000E+00  0.93800000000E+00  0.93800000000E+00 0. -1.
         11    1    1    2    0    0  0.11846162622E+00  0.60766856230E-01  0.12178521368E+01  0.12251080997E+01  0.51100000000E-03 0.  1.
    9000002    1    1    2    0    0 -0.37556724297E+00 -0.19443203335E+00  0.12100847023E+00  0.10360220169E+01  0.93800000000E+00 0. -1.
         22    1    1    2    0    0  0.25710561675E+00  0.13366517712E+00  0.26611393604E+01  0.26768698835E+01  0.00000000000E+00 0.  1.
</event>
<event>
 5    1  0.6172503E+001  0.1599677E+01  0.7818608E-02  0.3353714E+00
         11   -1    0    0    0    0  0.00000000000E+00  0.00000000000E+00  0.39999999674E+01  0.40000000000E+01  0.51100000000E-03 0.  1.
    9000002   -1    0    0    0    0 -0.00000000000E+00 -0.00000000000E+00  0.00000000000E+00  0.93800000000E+00  0.93800000000E+00 0. -1.
         11    1    1    2    0    0 -0.22659038301E+00 -0.20422985253E-01  0.14819087751E+01  0.14992712159E+01  0.51100000000E-03 0.  1.
    9000002    1    1    2    0    0  0.57497613702E+00  0.51729338445E-01  0.23142857588E+00  0.11254673111E+01  0.93800000000E+00 0. -1.
         22    1    1    2    0    0 -0.34838575401E+00 -0.31306353192E-01  0.22866626164E+01  0.23132614730E+01  0.00000000000E+00 0. -1.
</event>
<event>
 5    1  0.6172503E+001  0.1590244E+01  0.7818608E-02  0.3364021E+00
         11   -1    0    0    0    0  0.00000000000E+00  0.00000000000E+00  0.39999999674E+01  0.40000000000E+01  0.51100000000E-03 0. -1.
    9000002   -1    0    0    0    0 -0.00000000000E+00 -0.00000000000E+00  0.00000000000E+00  0.93800000000E+00  0.93800000000E+00 0. -1.
         11    1    1    2    0    0 -0.34113119954E-01  0.14101809279E+00  0.86004677108E+00  0.87219866832E+00  0.51100000000E-03 0. -1.
    9000002    1    1    2    0    0  0.37234370827E+00 -0.25449968493E+00  0.14637241930E+00  0.10510370174E+01  0.93800000000E+00 0. -1.
         22    1    1    2    0    0 -0.33823058832E+00  0.11348159214E+00  0.29935807770E+01  0.30147643143E+01  0.00000000000E+00 0. -1.
</event>
<event>
 5    1  0.6172503E+001  0.1599673E+01  0.7818608E-02  0.3353718E+00
         11   -1    0    0    0    0  0.00000000000E+00  0.00000000000E+00  0.39999999674E+01  0.40000000000E+01  0.51100000000E-03 0. -1.
    9000002   -1    0    0    0    0 -0.00000000000E+00 -0.00000000000E+00  0.00000000000E+00  0.93800000000E+00  0.93800000000E+00 0. -1.
         11    1    1    2    0    0  0.56031842586E-01  0.68906632131E-01  0.89416166920E+00  0.89856165237E+00  0.51100000000E-03 0. -1.
    9000002    1    1    2    0    0 -0.25236900913E+00 -0.29896160665E+00  0.10313593624E+00  0.10215425495E+01  0.93800000000E+00 0. -1.
         22    1    1    2    0    0  0.19633716655E+00  0.23005497452E+00  0.30027023619E+01  0.30178957982E+01  0.00000000000E+00 0. -1.
</event>
<event>
 5    1  0.7124858E+001  0.1599674E+01  0.7818608E-02  0.3353718E+00
         11   -1    0    0    0    0  0.00000000000E+00  0.00000000000E+00  0.39999999674E+01  0.40000000000E+01  0.51100000000E-03 0. -1.
    9000002   -1    0    0    0    0 -0.00000000000E+00 -0.00000000000E+00  0.00000000000E+00  0.93800000000E+00  0.93800000000E+00 0. -1.
         11    1    1    2    0    0 -0.12871359799E+00  0.32376104434E-01  0.14582059744E+01  0.14642336997E+01  0.51100000000E-03 0. -1.
    9000002    1    1    2    0    0  0.34274855945E+00 -0.91802189947E-01  0.84468047659E-01  0.10064209200E+01  0.93800000000E+00 0. -1.
         22    1    1    2    0    0 -0.21403496145E+00  0.59426085513E-01  0.24573259453E+01  0.24673453803E+01  0.00000000000E+00 0. -1.
</event>
<event>
 5    1  0.6172503E+001  0.1599654E+01  0.7818608E-02  0.3353739E+00
         11   -1    0    0    0    0  0.00000000000E+00  0.00000000000E+00  0.39999999674E+01  0.40000000000E+01  0.51100000000E-03 0. -1.
    9000002   -1    0    0    0    0 -0.00000000000E+00 -0.00000000000E+00  0.00000000000E+00  0.93800000000E+00  0.93800000000E+00 0. -1.
         11    1    1    2    0    0  0.46470190863E-01  0.12021198832E-02  0.34612931112E+00  0.34923729020E+00  0.51100000000E-03 0. -1.
    9000002    1    1    2    0    0 -0.53753024949E+00  0.10408367251E-01  0.19920482933E+00  0.10993514758E+01  0.93800000000E+00 0. -1.
         22    1    1    2    0    0  0.49106005863E+00 -0.11610487135E-01  0.34546658269E+01  0.34894112340E+01  0.00000000000E+00 0. -1.
</event>
<event>
 5    1  0.6172503E+001  0.1592623E+01  0.7818608E-02  0.3361410E+00
         11   -1    0    0    0    0  0.00000000000E+00  0.00000000000E+00  0.39999999674E+01  0.40000000000E+01  0.51100000000E-03 0. -1.
    9000002   -1    0    0    0    0 -0.00000000000E+00 -0.00000000000E+00  0.00000000000E+00  0.93800000000E+00  0.93800000000E+00 0. -1.
         11    1    1    2    0    0 -0.52325761826E-01 -0.23722678769E-01  0.13880006923E+01  0.13891893081E+01  0.51100000000E-03 0. -1.
    9000002    1    1    2    0    0  0.40717380602E+00  0.13944320680E+00  0.13148007144E+00  0.10403681682E+01  0.93800000000E+00 0. -1.
         22    1    1    2    0    0 -0.35484804420E+00 -0.11572052803E+00  0.24805192037E+01  0.25084425237E+01  0.00000000000E+00 0. -1.
</event>
<event>
 5    1  0.6172503E+001  0.1599438E+01  0.7818608E-02  0.3353973E+00
         11   -1    0    0    0    0  0.00000000000E+00  0.00000000000E+00  0.39999999674E+01  0.40000000000E+01  0.51100000000E-03 0.  1.
    9000002   -1    0    0    0    0 -0.00000000000E+00 -0.00000000000E+00  0.00000000000E+00  0.93800000000E+00  0.93800000000E+00 0. -1.
         11    1    1    2    0    0  0.60362816593E-03 -0.12782799114E-01  0.85755099974E-01  0.86706185550E-01  0.51100000000E-03 0.  1.
    9000002    1    1    2    0    0  0.15818996067E+00  0.41403471981E+00  0.13349785080E+00  0.10459992777E+01  0.93800000000E+00 0. -1.
         22    1    1    2    0    0 -0.15879358883E+00 -0.40125192070E+00  0.37807470166E+01  0.38052945367E+01  0.00000000000E+00 0.  1.
</event>
<event>
 5    1  0.6172503E+001  0.1599631E+01  0.7818608E-02  0.3353764E+00
         11   -1    0    0    0    0  0.00000000000E+00  0.00000000000E+00  0.39999999674E+01  0.40000000000E+01  0.51100000000E-03 0. -1.
    9000002   -1    0    0    0    0 -0.00000000000E+00 -0.00000000000E+00  0.00000000000E+00  0.93800000000E+00  0.93800000000E+00 0.  1.
         11    1    1    2    0    0  0.46201831411E-01 -0.58624235070E-02  0.41591597107E+00  0.41851563095E+00  0.51100000000E-03 0. -1.
    9000002    1    1    2    0    0 -0.42679038616E+00  0.78414754833E-02  0.12338557928E+00  0.10379207694E+01  0.93800000000E+00 0.  1.
         22    1    1    2    0    0  0.38058855475E+00 -0.19790519763E-02  0.34606984170E+01  0.34815635996E+01  0.00000000000E+00 0. -1.
</event>
<event>
 5    1  0.6172503E+001  0.1599649E+01  0.7818608E-02  0.3353744E+00
         11   -1    0    0    0    0  0.00000000000E+00  0.00000000000E+00  0.39999999674E+01  0.40000000000E+01  0.51100000000E-03 0.  1.
    9000002   -1    0    0    0    0 -0.00000000000E+00 -0.00000000000E+00  0.00000000000E+00  0.93800000000E+00  0.93800000000E+00 0.  1.
         11    1    1    2    0    0  0.16727095403E+00 -0.71792982593E-01  0.12028152612E+01  0.12165108376E+01  0.51100000000E-03 0.  1.
    9000002    1    1    2    0    0 -0.51077532231E+00  0.21614129095E+00  0.21267936278E+00  0.11102634817E+01  0.93800000000E+00 0.  1.
         22    1    1    2    0    0  0.34350436828E+00 -0.14434830836E+00  0.25845053434E+01  0.26112256807E+01  0.00000000000E+00 0.  1.
</event>
<event>
 5    1  0.6172503E+001  0.1599676E+01  0.7818608E-02  0.3353715E+00
         11   -1    0    0    0    0  0.00000000000E+00  0.00000000000E+00  0.39999999674E+01  0.40000000000E+01  0.51100000000E-03 0. -1.
    9000002   -1    0    0    0    0 -0.00000000000E+00 -0.00000000000E+00  0.00000000000E+00  0.93800000000E+00  0.93800000000E+00 0. -1.
         11    1    1    2    0    0  0.40691056744E-01  0.25307938463E+00  0.14279153306E+01  0.14507402902E+01  0.51100000000E-03 0. -1.
    9000002    1    1    2    0    0 -0.10321855772E+00 -0.65579920539E+00  0.31205270316E+00  0.11907760318E+01  0.93800000000E+00 0. -1.
         22    1    1    2    0    0  0.62527500971E-01  0.40271982076E+00  0.22600319336E+01  0.22964836780E+01  0.00000000000E+00 0. -1.
</event>
<event>
 5    1  0.6172503E+001  0.1507559E+01  0.7818608E-02  0.3460242E+00
         11   -1    0    0    0    0  0.00000000000E+00  0.00000000000E+00  0.39999999674E+01  0.40000000000E+01  0.51100000000E-03 0. -1.
    9000002   -1    0    0    0    0 -0.00000000000E+00 -0.00000000000E+00  0.00000000000E+00  0.93800000000E+00  0.93800000000E+00 0. -1.
         11    1    1    2    0    0 -0.23107725759E+00 -0.15593525473E+00  0.95992624709E+00  0.99958549590E+00  0.51100000000E-03 0. -1.
    9000002    1    1    2    0    0  0.12588885113E+00 -0.36138515574E+00  0.17863836430E+00  0.10286898944E+01  0.93800000000E+00 0. -1.
         22    1    1    2    0    0  0.10518840646E+00  0.51732041047E+00  0.28614353560E+01  0.29097246097E+01  0.00000000000E+00 0. -1.
</event>
<event>
 5    1  0.6172503E+001  0.1599671E+01  0.7818608E-02  0.3353720E+00
         11   -1    0    0    0    0  0.00000000000E+00  0.00000000000E+00  0.39999999674E+01  0.40000000000E+01  0.51100000000E-03 0.  1.
    9000002   -1    0    0    0    0 -0.00000000000E+00 -0.00000000000E+00  0.00000000000E+00  0.93800000000E+00  0.93800000000E+00 0.  1.
         11    1    1    2    0    0 -0.30342567058E-01 -0.10645093465E-03  0.31143156344E+00  0.31290663549E+00  0.51100000000E-03 0.  1.
    9000002    1    1    2    0    0  0.39747730632E+00 -0.34061201112E-02  0.10654456329E+00  0.10243024723E+01  0.93800000000E+00 0.  1.
         22    1    1    2    0    0 -0.36713473926E+00  0.35125710458E-02  0.35820238406E+01  0.36007908923E+01  0.00000000000E+00 0.  1.
</event>
<event>
 5    1  0.6172503E+001  0.1596945E+01  0.7818608E-02  0.3356686E+00
         11   -1    0    0    0    0  0.00000000000E+00  0.00000000000E+00  0.39999999674E+01  0.40000000000E+01  0.51100000000E-03 0. -1.
    9000002   -1    0    0    0    0 -0.00000000000E+00 -0.00000000000E+00  0.00000000000E+00  0.93800000000E+00  0.93800000000E+00 0.  1.
         11    1    1    2    0    0 -0.14842503396E-01  0.76720384135E-02  0.40907486012E+00  0.40941624587E+00  0.51100000000E-03 0. -1.
    9000002    1    1    2    0    0  0.18926891602E+00  0.29206260099E+00  0.83396910003E-01  0.10039533505E+01  0.93800000000E+00 0.  1.
         22    1    1    2    0    0 -0.17442641262E+00 -0.29973463940E+00  0.35075281972E+01  0.35246304036E+01  0.00000000000E+00 0. -1.
</event>
<event>
 5    1  0.6172503E+001  0.1586701E+01  0.7818608E-02  0.3367925E+00
         11   -1    0    0    0    0  0.00000000000E+00  0.00000000000E+00  0.39999999674E+01  0.40000000000E+01  0.51100000000E-03 0. -1.
    9000002   -1    0    0    0    0 -0.00000000000E+00 -0.00000000000E+00  0.00000000000E+00  0.93800000000E+00  0.93800000000E+00 0.  1.
         11    1    1    2    0    0  0.63771578950E-01  0.48509256942E-02  0.29624341976E+00  0.30306892061E+00  0.51100000000E-03 0. -1.
    9000002    1    1    2    0    0  0.77991145904E-01 -0.33818868862E+00  0.91243139748E-01  0.10043025035E+01  0.93800000000E+00 0.  1.
         22    1    1    2    0    0 -0.14176272485E+00  0.33333776293E+00  0.36125134078E+01  0.36306285759E+01  0.00000000000E+00 0. -1.
</event>
<event>
 5    1  0.6172503E+001  0.1598441E+01  0.7818608E-02  0.3355057E+00
         11   -1    0    0    0    0  0.00000000000E+00  0.00000000000E+00  0.39999999674E+01  0.40000000000E+01  0.51100000000E-03 0.  1.
    9000002   -1    0    0    0    0 -0.00000000000E+00 -0.00000000000E+00  0.00000000000E+00  0.93800000000E+00  0.93800000000E+00 0.  1.
         11    1    1    2    0    0  0.14069177298E+00 -0.20822942983E-01  0.88285031236E+00  0.89423302617E+00  0.51100000000E-03 0.  1.
    9000002    1    1    2    0    0 -0.45725852414E+00  0.88161566863E-01  0.14871650707E+00  0.10577421327E+01  0.93800000000E+00 0.  1.
         22    1    1    2    0    0  0.31656675117E+00 -0.67338623880E-01  0.29684331479E+01  0.29860248412E+01  0.00000000000E+00 0.  1.
</event>
<event>
 5    1  0.6172503E+001  0.1599641E+01  0.7818608E-02  0.3353753E+00
         11   -1    0    0    0    0  0.00000000000E+00  0.00000000000E+00  0.39999999674E+01  0.40000000000E+01  0.51100000000E-03 0. -1.
    9000002   -1    0    0    0    0 -0.00000000000E+00 -0.00000000000E+00  0.00000000000E+00  0.93800000000E+00  0.93800000000E+00 0. -1.
         11    1    1    2    0    0  0.43086450026E-01  0.12123372537E+00  0.55390444708E+00  0.56865143626E+00  0.51100000000E-03 0. -1.
    9000002    1    1    2    0    0 -0.27131133223E+00 -0.79427481780E+00  0.52629082210E+00  0.13642977514E+01  0.93800000000E+00 0. -1.
         22    1    1    2    0    0  0.22822488220E+00  0.67304109242E+00  0.29198046982E+01  0.30050508123E+01  0.00000000000E+00 0. -1.
</event>
<event>
 5    1  0.6172503E+001  0.1599675E+01  0.7818608E-02  0.3353716E+00
         11   -1    0    0    0    0  0.00000000000E+00  0.00000000000E+00  0.39999999674E+01  0.40000000000E+01  0.51100000000E-03 0.  1.
    9000002   -1    0    0    0    0 -0.00000000000E+00 -0.00000000000E+00  0.00000000000E+00  0.93800000000E+00  0.93800000000E+00 0.  1.
         11    1    1    2    0    0 -0.10357357042E+00  0.27108872934E-01  0.11246538235E+01  0.11297384030E+01  0.51100000000E-03 0.  1.
    9000002    1    1    2    0    0  0.35512756579E+00 -0.94598122706E-01  0.90743454259E-01  0.10115051988E+01  0.93800000000E+00 0.  1.
         22    1    1    2    0    0 -0.25155399537E+00  0.67489249772E-01  0.27846026896E+01  0.27967563981E+01  0.00000000000E+00 0.  1.
</event>
<event>
 5    1  0.6172503E+001  0.1599626E+01  0.7818608E-02  0.3353770E+00
         11   -1    0    0    0    0  0.00000000000E+00  0.00000000000E+00  0.39999999674E+01  0.40000000000E+01  0.51100000000E-03 0. -1.
    9000002   -1    0    0    0    0 -0.00000000000E+00 -0.00000000000E+00  0.00000000000E+00  0.93800000000E+00  0.93800000000E+00 0. -1.
         11    1    1    2    0    0  0.70359649826E-03 -0.28743364059E-03  0.17557774144E-01  0.17581644407E-01  0.51100000000E-03 0. -1.
    9000002    1    1    2    0    0 -0.23688226420E+00  0.28025273959E+00  0.90502725844E-01  0.10112811422E+01  0.93800000000E+00 0. -1.
         22    1    1    2    0    0  0.23617866770E+00 -0.27996530595E+00  0.38919394674E+01  0.39091372134E+01  0.00000000000E+00 0. -1.
</event>
<event>
 5    1  0.6172503E+001  0.1599072E+01  0.7818608E-02  0.3354371E+00
         11   -1    0    0    0    0  0.00000000000E+00  0.00000000000E+00  0.39999999674E+01  0.40000000000E+01  0.51100000000E-03 0. -1.
    9000002   -1    0    0    0    0 -0.00000000000E+00 -0.00000000000E+00  0.00000000000E+00  0.93800000000E+00  0.93800000000E+00 0. -1.
         11    1    1    2    0    0  0.39433755341E-02 -0.33791843751E-01  0.51202020960E+00  0.51314948609E+00  0.51100000000E-03 0. -1.
    9000002    1    1    2    0    0 -0.17066674684E+00  0.31799228620E+00  0.87928876687E-01  0.10088715081E+01  0.93800000000E+00 0. -1.
         22    1    1    2    0    0  0.16672337131E+00 -0.28420044245E+00  0.34000508811E+01  0.34159790058E+01  0.00000000000E+00 0. -1.
</event>
<event>
 5    1  0.6172503E+001  0.1464245E+01  0.7818608E-02  0.3515312E+00
         11   -1    0    0    0    0  0.00000000000E+00  0.00000000000E+00  0.39999999674E+01  0.40000000000E+01  0.51100000000E-03 0. -1.
    9000002   -1    0    0    0    0 -0.00000000000E+00 -0.00000000000E+00  0.00000000000E+00  0.93800000000E+00  0.93800000000E+00 0. -1.
         11    1    1    2    0    0 -0.22197516027E+00  0.24272133068E+00  0.58511421976E+00  0.67122688223E+00  0.51100000000E-03 0. -1.
    9000002    1    1    2    0    0  0.19410538937E+00  0.12931479544E+00  0.14702005938E+00  0.97767996623E+00  0.93800000000E+00 0. -1.
         22    1    1    2    0    0  0.27869770900E-01 -0.37203612612E+00  0.32678656882E+01  0.32890931515E+01  0.00000000000E+00 0. -1.
</event>
<event>
 5    1  0.6172503E+001  0.1585981E+01  0.7818608E-02  0.3368721E+00
         11   -1    0    0    0    0  0.00000000000E+00  0.00000000000E+00  0.39999999674E+01  0.40000000000E+01  0.51100000000E-03 0. -1.
    9000002   -1    0    0    0    0 -0.00000000000E+00 -0.00000000000E+00  0.00000000000E+00  0.93800000000E+00  0.93800000000E+00 0. -1.
         11    1    1    2    0    0 -0.12016575830E+00 -0.92203850166E-01  0.57111257970E+00  0.59085632710E+00  0.51100000000E-03 0. -1.
    9000002    1    1    2    0    0  0.16052903803E+00  0.41597898800E+00  0.14683205142E+00  0.10489097873E+01  0.93800000000E+00 0. -1.
         22    1    1    2    0    0 -0.40363279727E-01 -0.32377513783E+00  0.32820553362E+01  0.32982338856E+01  0.00000000000E+00 0. -1.
</event>
<event>
 5    1  0.6172503E+001  0.1598604E+01  0.7818608E-02  0.3354880E+00
         11   -1    0    0    0    0  0.00000000000E+00  0.00000000000E+00  0.39999999674E+01  0.40000000000E+01  0.51100000000E-03 0.  1.
    9000002   -1    0    0    0    0 -0.00000000000E+00 -0.00000000000E+00  0.00000000000E+00  0.93800000000E+00  0.93800000000E+00 0. -1.
         11    1    1    2    0    0  0.11022118744E+00  0.11161774383E-01  0.12042392822E+01  0.12093245244E+01  0.51100000000E-03 0.  1.
    9000002    1    1    2    0    0 -0.38377116853E+00  0.78620737875E-01  0.10429263680E+00  0.10218524768E+01  0.93800000000E+00 0. -1.
         22    1    1    2    0    0  0.27354998109E+00 -0.89782512257E-01  0.26914680484E+01  0.27068229988E+01  0.00000000000E+00 0.  1.
</event>
<event>
 5    1  0.6172503E+001  0.1599668E+01  0.7818608E-02  0.3353724E+00
         11   -1    0    0    0    0  0.00000000000E+00  0.00000000000E+00  0.39999999674E+01  0.40000000000E+01  0.51100000000E-03 0. -1.
    9000002   -1    0    0    0    0 -0.00000000000E+00 -0.00000000000E+00  0.00000000000E+00  0.93800000000E+00  0.93800000000E+00 0. -1.
         11    1    1    2    0    0 -0.92891697127E-01  0.10578255688E+00  0.12501183410E+01  0.12580202480E+01  0.51100000000E-03 0. -1.
    9000002    1    1    2    0    0  0.29567646634E+00 -0.33370730924E+00  0.13493781027E+00  0.10473000304E+01  0.93800000000E+00 0. -1.
         22    1    1    2    0    0 -0.20278476922E+00  0.22792475236E+00  0.26149438161E+01  0.26326797216E+01  0.00000000000E+00 0. -1.
</event>
<event>
 5    1  0.6172503E+001  0.1599628E+01  0.7818608E-02  0.3353767E+00
         11   -1    0    0    0    0  0.00000000000E+00  0.00000000000E+00  0.39999999674E+01  0.40000000000E+01  0.51100000000E-03 0. -1.
    9000002   -1    0    0    0    0 -0.00000000000E+00 -0.00000000000E+00  0.00000000000E+00  0.93800000000E+00  0.93800000000E+00 0. -1.
         11    1    1    2    0    0  0.11064015058E+00  0.47453888218E-01  0.11611220580E+01  0.11673464820E+01  0.51100000000E-03 0. -1.
    9000002    1    1    2    0    0 -0.36763718664E+00 -0.13371920678E+00  0.10315238141E+00  0.10215294127E+01  0.93800000000E+00 0. -1.
         22    1    1    2    0    0  0.25699703606E+00  0.86265318558E-01  0.27357255280E+01  0.27491241053E+01  0.00000000000E+00 0.  1.
</event>
<event>
 5    1  0.6172503E+001  0.1599673E+01  0.7818608E-02  0.3353719E+00
         11   -1    0    0    0    0  0.00000000000E+00  0.00000000000E+00  0.39999999674E+01  0.40000000000E+01  0.51100000000E-03 0.  1.
    9000002   -1    0    0    0    0 -0.00000000000E+00 -0.00000000000E+00  0.00000000000E+00  0.93800000000E+00  0.93800000000E+00 0.  1.
         11    1    1    2    0    0  0.43932678998E-01 -0.14524123181E+00  0.12279483055E+01  0.12372883244E+01  0.51100000000E-03 0.  1.
    9000002    1    1    2    0    0 -0.13053520199E+00  0.45312828423E+00  0.15152541870E+00  0.10607396634E+01  0.93800000000E+00 0.  1.
         22    1    1    2    0    0  0.86602522994E-01 -0.30788705243E+00  0.26205262432E+01  0.26399720122E+01  0.00000000000E+00 0.  1.
</event>
<event>
 5    1  0.6172503E+001  0.1598310E+01  0.7818608E-02  0.3355199E+00
         11   -1    0    0    0    0  0.00000000000E+00  0.00000000000E+00  0.39999999674E+01  0.40000000000E+01  0.51100000000E-03 0. -1.
    9000002   -1    0    0    0    0 -0.00000000000E+00 -0.00000000000E+00  0.00000000000E+00  0.93800000000E+00  0.93800000000E+00 0. -1.
         11    1    1    2    0    0 -0.35338900091E-01 -0.81243544238E-01  0.56603782966E+00  0.57292969645E+00  0.51100000000E-03 0. -1.
    9000002    1    1    2    0    0  0.36932701935E+00  0.37888084039E+00  0.19388251400E+00  0.10942520586E+01  0.93800000000E+00 0. -1.
         22    1    1    2    0    0 -0.33398811925E+00 -0.29763729615E+00  0.32400796237E+01  0.32708182450E+01  0.00000000000E+00 0. -1.
</event>
<event>
 5    1  0.6172503E+001  0.1599485E+01  0.7818608E-02  0.3353923E+00
         11   -1    0    0    0    0  0.00000000000E+00  0.00000000000E+00  0.39999999674E+01  0.40000000000E+01  0.51100000000E-03 0. -1.
    9000002   -1    0    0    0    0 -0.00000000000E+00 -0.00000000000E+00  0.00000000000E+00  0.93800000000E+00  0.93800000000E+00 0.  1.
         11    1    1    2    0    0  0.47118591645E-01 -0.11436898835E-01  0.36042520140E+00  0.36367231302E+00  0.51100000000E-03 0. -1.
    9000002    1    1    2    0    0 -0.58602351601E+00  0.79180452414E-01  0.24372340824E+00  0.11353141438E+01  0.93800000000E+00 0.  1.
         22    1    1    2    0    0  0.53890492436E+00 -0.67743553579E-01  0.33958513577E+01  0.34390135432E+01  0.00000000000E+00 0. -1.
</event>
<event>
 5    1  0.6172503E+001  0.1599676E+01  0.7818608E-02  0.3353715E+00
         11   -1    0    0    0    0  0.00000000000E+00  0.00000000000E+00  0.39999999674E+01  0.40000000000E+01  0.51100000000E-03 0.  1.
    9000002   -1    0    0    0    0 -0.00000000000E+00 -0.00000000000E+00  0.00000000000E+00  0.93800000000E+00  0.93800000000E+00 0.  1.
         11    1    1    2    0    0  0.18874302308E+00  0.24887299798E+00  0.12900902826E+01  0.13273638899E+01  0.51100000000E-03 0.  1.
    9000002    1    1    2    0    0 -0.50827073722E+00 -0.66745377927E+00  0.52568172445E+00  0.13638251227E+01  0.93800000000E+00 0.  1.
         22    1    1    2    0    0  0.31952771414E+00  0.41858078129E+00  0.21842279603E+01  0.22468109874E+01  0.00000000000E+00 0.  1.
</event>
<event>
 5    1  0.6172503E+001  0.1599676E+01  0.7818608E-02  0.3353715E+00
         11   -1    0    0    0    0  0.00000000000E+00  0.00000000000E+00  0.39999999674E+01  0.40000000000E+01  0.51100000000E-03 0. -1.
    9000002   -1    0    0    0    0 -0.00000000000E+00 -0.00000000000E+00  0.00000000000E+00  0.93800000000E+00  0.93800000000E+00 0.  1.
         11    1    1    2    0    0  0.46897012377E-01 -0.37424930611E-01  0.49956591133E+00  0.50315635352E+00  0.51100000000E-03 0.  1.
    9000002    1    1    2    0    0 -0.36541355005E+00  0.28586866613E+00  0.14650038642E+00  0.10566713397E+01  0.93800000000E+00 0.  1.
         22    1    1    2    0    0  0.31851653767E+00 -0.24844373552E+00  0.33539336696E+01  0.33781723068E+01  0.00000000000E+00 0. -1.
</event>
<event>
 5    1  0.6172503E+001  0.1599674E+01  0.7818608E-02  0.3353717E+00
         11   -1    0    0    0    0  0.00000000000E+00  0.00000000000E+00  0.39999999674E+01  0.40000000000E+01  0.51100000000E-03 0. -1.
    9000002   -1    0    0    0    0 -0.00000000000E+00 -0.00000000000E+00  0.00000000000E+00  0.93800000000E+00  0.93800000000E+00 0. -1.
         11    1    1    2    0    0 -0.25763645395E-01  0.15392250512E+00  0.93988161633E+00  0.95275055332E+00  0.51100000000E-03 0. -1.
    9000002    1    1    2    0    0  0.98069977698E-01 -0.60622271907E+00  0.26392922032E+00  0.11517926632E+01  0.93800000000E+00 0. -1.
         22    1    1    2    0    0 -0.72306332303E-01  0.45230021395E+00  0.27961891307E+01  0.28334567835E+01  0.00000000000E+00 0. -1.
</event>
