<event>
 5    1  0.6564536E+001  0.1597524E+01  0.7818608E-02  0.3356055E+00
         11   -1    0    0    0    0  0.00000000000E+00  0.00000000000E+00  0.39999999674E+01  0.40000000000E+01  0.51100000000E-03 0. -1.
    9000002   -1    0    0    0    0 -0.00000000000E+00 -0.00000000000E+00  0.00000000000E+00  0.93800000000E+00  0.93800000000E+00 0. -1.
         11    1    1    2    0    0 -0.36311749685E-02  0.22748398622E-01  0.16316505528E+00  0.16478401457E+00  0.51100000000E-03 0. -1.
    9000002    1    1    2    0    0 -0.31480059529E+00 -0.19121165280E+00  0.92907477552E-01  0.10119965960E+01  0.93800000000E+00 0. -1.
         22    1    1    2    0    0  0.31843177026E+00  0.16846325418E+00  0.37439274345E+01  0.37612193894E+01  0.00000000000E+00 0. -1.
</event>
<event>
 5    1  0.6564536E+001  0.1538698E+01  0.7818608E-02  0.3422709E+00
         11   -1    0    0    0    0  0.00000000000E+00  0.00000000000E+00  0.39999999674E+01  0.40000000000E+01  0.51100000000E-03 0. -1.
    9000002   -1    0    0    0    0 -0.00000000000E+00 -0.00000000000E+00  0.00000000000E+00  0.93800000000E+00  0.93800000000E+00 0. -1.
         11    1    1    2    0    0 -0.97347596728E-01 -0.19701333363E+00  0.38412115966E+00  0.44253828607E+00  0.51100000000E-03 0. -1.
    9000002    1    1    2    0    0  0.48255614834E+00  0.16237476974E+00  0.23539252978E+00  0.10929225248E+01  0.93800000000E+00 0. -1.
         22    1    1    2    0    0 -0.38520855161E+00  0.34638563892E-01  0.33804862779E+01  0.34025391891E+01  0.00000000000E+00 0. -1.
</event>
<event>
 5    1  0.6564536E+001  0.1590813E+01  0.7818608E-02  0.3363396E+00
         11   -1    0    0    0    0  0.00000000000E+00  0.00000000000E+00  0.39999999674E+01  0.40000000000E+01  0.51100000000E-03 0.  1.
    9000002   -1    0    0    0    0 -0.00000000000E+00 -0.00000000000E+00  0.00000000000E+00  0.93800000000E+00  0.93800000000E+00 0. -1.
         11    1    1    2    0    0  0.23467667879E+00  0.17261188763E+00  0.12520449829E+01  0.12854901430E+01  0.51100000000E-03 0.  1.
    9000002    1    1    2    0    0 -0.77396197312E+00 -0.20255008068E+00  0.48304971812E+00  0.13240939171E+01  0.93800000000E+00 0. -1.
         22    1    1    2    0    0  0.53928529432E+00  0.29938193051E-01  0.22649052663E+01  0.23284159400E+01  0.00000000000E+00 0. -1.
</event>
<event>
 5    1  0.6564536E+001  0.1599400E+01  0.7818608E-02  0.3354015E+00
         11   -1    0    0    0    0  0.00000000000E+00  0.00000000000E+00  0.39999999674E+01  0.40000000000E+01  0.51100000000E-03 0.  1.
    9000002   -1    0    0    0    0 -0.00000000000E+00 -0.00000000000E+00  0.00000000000E+00  0.93800000000E+00  0.93800000000E+00 0. -1.
         11    1    1    2    0    0  0.69827769282E-01  0.39486711782E-01  0.65713136265E+00  0.66200982370E+00  0.51100000000E-03 0.  1.
    9000002    1    1    2    0    0 -0.41252685543E+00 -0.14389244649E+00  0.12963630441E+00  0.10428485096E+01  0.93800000000E+00 0. -1.
         22    1    1    2    0    0  0.34269908615E+00  0.10440573471E+00  0.32132323003E+01  0.32331416667E+01  0.00000000000E+00 0.  1.
</event>
<event>
 5    1  0.6564536E+001  0.1599337E+01  0.7818608E-02  0.3354083E+00
         11   -1    0    0    0    0  0.00000000000E+00  0.00000000000E+00  0.39999999674E+01  0.40000000000E+01  0.51100000000E-03 0.  1.
    9000002   -1    0    0    0    0 -0.00000000000E+00 -0.00000000000E+00  0.00000000000E+00  0.93800000000E+00  0.93800000000E+00 0.  1.
         11    1    1    2    0    0 -0.13646119918E+00 -0.93803047483E-01  0.14615969706E+01  0.14709475301E+01  0.51100000000E-03 0.  1.
    9000002    1    1    2    0    0  0.30786617740E+00  0.23728857790E+00  0.10204677449E+00  0.10204631285E+01  0.93800000000E+00 0.  1.
         22    1    1    2    0    0 -0.17140497822E+00 -0.14348553042E+00  0.24363562223E+01  0.24465893415E+01  0.00000000000E+00 0.  1.
</event>
<event>
 5    1  0.6564536E+001  0.1599677E+01  0.7818608E-02  0.3353714E+00
         11   -1    0    0    0    0  0.00000000000E+00  0.00000000000E+00  0.39999999674E+01  0.40000000000E+01  0.51100000000E-03 0. -1.
    9000002   -1    0    0    0    0 -0.00000000000E+00 -0.00000000000E+00  0.00000000000E+00  0.93800000000E+00  0.93800000000E+00 0. -1.
         11    1    1    2    0    0 -0.14937937117E+00  0.96039900130E-02  0.59896334401E+00  0.61738463030E+00  0.51100000000E-03 0. -1.
    9000002    1    1    2    0    0  0.85704650894E+00 -0.54218714506E-01  0.55497753742E+00  0.13875562888E+01  0.93800000000E+00 0. -1.
         22    1    1    2    0    0 -0.70766713777E+00  0.44614724493E-01  0.28460590859E+01  0.29330590809E+01  0.00000000000E+00 0. -1.
</event>
<event>
 5    1  0.6564536E+001  0.1597895E+01  0.7818608E-02  0.3355651E+00
         11   -1    0    0    0    0  0.00000000000E+00  0.00000000000E+00  0.39999999674E+01  0.40000000000E+01  0.51100000000E-03 0.  1.
    9000002   -1    0    0    0    0 -0.00000000000E+00 -0.00000000000E+00  0.00000000000E+00  0.93800000000E+00  0.93800000000E+00 0.  1.
         11    1    1    2    0    0 -0.27300137458E-01 -0.47547579135E-01  0.68593415665E+00  0.68812208086E+00  0.51100000000E-03 0.  1.
    9000002    1    1    2    0    0  0.36427214950E+00  0.20448339002E+00  0.11948736127E+00  0.10337450775E+01  0.93800000000E+00 0.  1.
         22    1    1    2    0    0 -0.33697201204E+00 -0.15693581089E+00  0.31945784494E+01  0.32161328417E+01  0.00000000000E+00 0.  1.
</event>
<event>
 5    1  0.6564536E+001  0.1415678E+01  0.7818608E-02  0.3582072E+00
         11   -1    0    0    0    0  0.00000000000E+00  0.00000000000E+00  0.39999999674E+01  0.40000000000E+01  0.51100000000E-03 0.  1.
    9000002   -1    0    0    0    0 -0.00000000000E+00 -0.00000000000E+00  0.00000000000E+00  0.93800000000E+00  0.93800000000E+00 0. -1.
         11    1    1    2    0    0  0.17718718366E+00  0.57879361416E+00  0.11880349427E+01  0.13333509035E+01  0.51100000000E-03 0.  1.
    9000002    1    1    2    0    0 -0.18992406830E+00 -0.32350233058E+00  0.26435380859E+00  0.10442470233E+01  0.93800000000E+00 0. -1.
         22    1    1    2    0    0  0.12736884640E-01 -0.25529128358E+00  0.25476112161E+01  0.25604020731E+01  0.00000000000E+00 0. -1.
</event>
<event>
 5    1  0.6564536E+001  0.1599676E+01  0.7818608E-02  0.3353715E+00
         11   -1    0    0    0    0  0.00000000000E+00  0.00000000000E+00  0.39999999674E+01  0.40000000000E+01  0.51100000000E-03 0. -1.
    9000002   -1    0    0    0    0 -0.00000000000E+00 -0.00000000000E+00  0.00000000000E+00  0.93800000000E+00  0.93800000000E+00 0. -1.
         11    1    1    2    0    0 -0.20421052434E-01 -0.29094193059E+00  0.12975168324E+01  0.13298926340E+01  0.51100000000E-03 0. -1.
    9000002    1    1    2    0    0  0.58368147260E-01  0.79103207517E+00  0.46237709583E+00  0.13125452995E+01  0.93800000000E+00 0. -1.
         22    1    1    2    0    0 -0.37947094826E-01 -0.50009014458E+00  0.22401060391E+01  0.22955620665E+01  0.00000000000E+00 0. -1.
</event>
<event>
 5    1  0.6564536E+001  0.1599448E+01  0.7818608E-02  0.3353963E+00
         11   -1    0    0    0    0  0.00000000000E+00  0.00000000000E+00  0.39999999674E+01  0.40000000000E+01  0.51100000000E-03 0. -1.
    9000002   -1    0    0    0    0 -0.00000000000E+00 -0.00000000000E+00  0.00000000000E+00  0.93800000000E+00  0.93800000000E+00 0.  1.
         11    1    1    2    0    0 -0.16289858324E+00  0.26448093396E+00  0.11769702532E+01  0.12172696295E+01  0.51100000000E-03 0. -1.
    9000002    1    1    2    0    0  0.49803918826E+00 -0.72364019297E+00  0.58567357213E+00  0.14122873982E+01  0.93800000000E+00 0.  1.
         22    1    1    2    0    0 -0.33514060501E+00  0.45915925901E+00  0.22373561420E+01  0.23084429723E+01  0.00000000000E+00 0. -1.
</event>
<event>
 5    1  0.6564536E+001  0.1599677E+01  0.7818608E-02  0.3353714E+00
         11   -1    0    0    0    0  0.00000000000E+00  0.00000000000E+00  0.39999999674E+01  0.40000000000E+01  0.51100000000E-03 0. -1.
    9000002   -1    0    0    0    0 -0.00000000000E+00 -0.00000000000E+00  0.00000000000E+00  0.93800000000E+00  0.93800000000E+00 0.  1.
         11    1    1    2    0    0 -0.42844370612E-02  0.13948472482E+00  0.61230140096E+00  0.62800287547E+00  0.51100000000E-03 0.  1.
    9000002    1    1    2    0    0  0.23906691225E-01 -0.80106849300E+00  0.47334813336E+00  0.13214328268E+01  0.93800000000E+00 0.  1.
         22    1    1    2    0    0 -0.19622254163E-01  0.66158376818E+00  0.29143504330E+01  0.29885642977E+01  0.00000000000E+00 0. -1.
</event>
<event>
 5    1  0.6564536E+001  0.1599527E+01  0.7818608E-02  0.3353877E+00
         11   -1    0    0    0    0  0.00000000000E+00  0.00000000000E+00  0.39999999674E+01  0.40000000000E+01  0.51100000000E-03 0. -1.
    9000002   -1    0    0    0    0 -0.00000000000E+00 -0.00000000000E+00  0.00000000000E+00  0.93800000000E+00  0.93800000000E+00 0.  1.
         11    1    1    2    0    0  0.24224484813E-01 -0.82220673430E-01  0.78223577054E+00  0.78691811940E+00  0.51100000000E-03 0. -1.
    9000002    1    1    2    0    0 -0.99741485078E-01  0.45984290250E+00  0.15097440795E+00  0.10602080601E+01  0.93800000000E+00 0.  1.
         22    1    1    2    0    0  0.75517000265E-01 -0.37762222907E+00  0.30667897889E+01  0.30908738205E+01  0.00000000000E+00 0. -1.
</event>
<event>
 5    1  0.6564536E+001  0.1599282E+01  0.7818608E-02  0.3354143E+00
         11   -1    0    0    0    0  0.00000000000E+00  0.00000000000E+00  0.39999999674E+01  0.40000000000E+01  0.51100000000E-03 0. -1.
    9000002   -1    0    0    0    0 -0.00000000000E+00 -0.00000000000E+00  0.00000000000E+00  0.93800000000E+00  0.93800000000E+00 0.  1.
         11    1    1    2    0    0 -0.13937777491E-01  0.19293545558E+00  0.13835113726E+01  0.13969689799E+01  0.51100000000E-03 0. -1.
    9000002    1    1    2    0    0  0.58148037472E-01 -0.47481904215E+00  0.15644630180E+00  0.10644969527E+01  0.93800000000E+00 0.  1.
         22    1    1    2    0    0 -0.44210259982E-01  0.28188358656E+00  0.24600422930E+01  0.24765340673E+01  0.00000000000E+00 0. -1.
</event>
<event>
 5    1  0.6564536E+001  0.1599615E+01  0.7818608E-02  0.3353781E+00
         11   -1    0    0    0    0  0.00000000000E+00  0.00000000000E+00  0.39999999674E+01  0.40000000000E+01  0.51100000000E-03 0.  1.
    9000002   -1    0    0    0    0 -0.00000000000E+00 -0.00000000000E+00  0.00000000000E+00  0.93800000000E+00  0.93800000000E+00 0.  1.
         11    1    1    2    0    0 -0.76558859238E-01  0.30142216241E-01  0.59076554101E+00  0.59646793517E+00  0.51100000000E-03 0.  1.
    9000002    1    1    2    0    0  0.52914081395E+00 -0.17138111001E+00  0.21398888515E+00  0.11113040668E+01  0.93800000000E+00 0.  1.
         22    1    1    2    0    0 -0.45258195471E+00  0.14123889377E+00  0.31952455412E+01  0.32302279981E+01  0.00000000000E+00 0.  1.
</event>
<event>
 5    1  0.6564536E+001  0.1599660E+01  0.7818608E-02  0.3353733E+00
         11   -1    0    0    0    0  0.00000000000E+00  0.00000000000E+00  0.39999999674E+01  0.40000000000E+01  0.51100000000E-03 0. -1.
    9000002   -1    0    0    0    0 -0.00000000000E+00 -0.00000000000E+00  0.00000000000E+00  0.93800000000E+00  0.93800000000E+00 0. -1.
         11    1    1    2    0    0  0.10268232936E+00  0.92255885724E-01  0.52329689181E+00  0.54119747533E+00  0.51100000000E-03 0. -1.
    9000002    1    1    2    0    0 -0.64530342345E+00 -0.60745640441E+00  0.59768989142E+00  0.14221452098E+01  0.93800000000E+00 0. -1.
         22    1    1    2    0    0  0.54262109409E+00  0.51520051869E+00  0.28790131841E+01  0.29746573148E+01  0.00000000000E+00 0. -1.
</event>
<event>
 5    1  0.6564536E+001  0.1543204E+01  0.7818608E-02  0.3417412E+00
         11   -1    0    0    0    0  0.00000000000E+00  0.00000000000E+00  0.39999999674E+01  0.40000000000E+01  0.51100000000E-03 0.  1.
    9000002   -1    0    0    0    0 -0.00000000000E+00 -0.00000000000E+00  0.00000000000E+00  0.93800000000E+00  0.93800000000E+00 0. -1.
         11    1    1    2    0    0  0.12686111287E+00  0.43121027111E-01  0.27827789180E+00  0.30885597148E+00  0.51100000000E-03 0.  1.
    9000002    1    1    2    0    0  0.26713902277E+00 -0.13634958229E+00  0.10560314309E+00  0.99042944721E+00  0.93800000000E+00 0. -1.
         22    1    1    2    0    0 -0.39400013564E+00  0.93228555183E-01  0.36161189325E+01  0.36387145813E+01  0.00000000000E+00 0.  1.
</event>
<event>
 5    1  0.6564536E+001  0.1595356E+01  0.7818608E-02  0.3358419E+00
         11   -1    0    0    0    0  0.00000000000E+00  0.00000000000E+00  0.39999999674E+01  0.40000000000E+01  0.51100000000E-03 0. -1.
    9000002   -1    0    0    0    0 -0.00000000000E+00 -0.00000000000E+00  0.00000000000E+00  0.93800000000E+00  0.93800000000E+00 0. -1.
         11    1    1    2    0    0 -0.86312554369E-02 -0.57916678634E-01  0.56320322143E+00  0.56623932218E+00  0.51100000000E-03 0. -1.
    9000002    1    1    2    0    0 -0.29671686622E+00  0.25567155361E+00  0.10695102749E+00  0.10221014452E+01  0.93800000000E+00 0. -1.
         22    1    1    2    0    0  0.30534812165E+00 -0.19775487497E+00  0.33298457184E+01  0.33496592326E+01  0.00000000000E+00 0. -1.
</event>
<event>
 5    1  0.6564536E+001  0.1585451E+01  0.7818608E-02  0.3369307E+00
         11   -1    0    0    0    0  0.00000000000E+00  0.00000000000E+00  0.39999999674E+01  0.40000000000E+01  0.51100000000E-03 0. -1.
    9000002   -1    0    0    0    0 -0.00000000000E+00 -0.00000000000E+00  0.00000000000E+00  0.93800000000E+00  0.93800000000E+00 0. -1.
         11    1    1    2    0    0 -0.30553549330E-01 -0.20403812196E-01  0.13004857987E+00  0.13513966544E+00  0.51100000000E-03 0. -1.
    9000002    1    1    2    0    0 -0.53568238453E+00  0.51477369113E-01  0.21298418032E+00  0.11021850106E+01  0.93800000000E+00 0. -1.
         22    1    1    2    0    0  0.56623593385E+00 -0.31073556918E-01  0.36569672072E+01  0.37006753239E+01  0.00000000000E+00 0. -1.
</event>
<event>
 5    1  0.6564536E+001  0.1560508E+01  0.7818608E-02  0.3397375E+00
         11   -1    0    0    0    0  0.00000000000E+00  0.00000000000E+00  0.39999999674E+01  0.40000000000E+01  0.51100000000E-03 0. -1.
    9000002   -1    0    0    0    0 -0.00000000000E+00 -0.00000000000E+00  0.00000000000E+00  0.93800000000E+00  0.93800000000E+00 0. -1.
         11    1    1    2    0    0  0.10630302241E-01 -0.20954085873E+00  0.14589091563E+01  0.14739187774E+01  0.51100000000E-03 0. -1.
    9000002    1    1    2    0    0  0.32850091499E+00  0.58040331481E-01  0.10640198853E+00  0.10012227097E+01  0.93800000000E+00 0. -1.
         22    1    1    2    0    0 -0.33913121723E+00  0.15150052725E+00  0.24346888225E+01  0.24628585130E+01  0.00000000000E+00 0. -1.
</event>
<event>
 5    1  0.6564536E+001  0.1599675E+01  0.7818608E-02  0.3353716E+00
         11   -1    0    0    0    0  0.00000000000E+00  0.00000000000E+00  0.39999999674E+01  0.40000000000E+01  0.51100000000E-03 0. -1.
    9000002   -1    0    0    0    0 -0.00000000000E+00 -0.00000000000E+00  0.00000000000E+00  0.93800000000E+00  0.93800000000E+00 0. -1.
         11    1    1    2    0    0 -0.24867665451E-01 -0.18347378589E+00  0.13659506536E+01  0.13784420481E+01  0.51100000000E-03 0. -1.
    9000002    1    1    2    0    0  0.73908979819E-01  0.51401967861E+00  0.18522628960E+00  0.10880402316E+01  0.93800000000E+00 0. -1.
         22    1    1    2    0    0 -0.49041314368E-01 -0.33054589272E+00  0.24488230242E+01  0.24715177202E+01  0.00000000000E+00 0. -1.
</event>
<event>
 5    1  0.6564536E+001  0.1582913E+01  0.7818608E-02  0.3372121E+00
         11   -1    0    0    0    0  0.00000000000E+00  0.00000000000E+00  0.39999999674E+01  0.40000000000E+01  0.51100000000E-03 0. -1.
    9000002   -1    0    0    0    0 -0.00000000000E+00 -0.00000000000E+00  0.00000000000E+00  0.93800000000E+00  0.93800000000E+00 0. -1.
         11    1    1    2    0    0 -0.93191667430E-01  0.23348354982E-01  0.78821752700E+00  0.79405098296E+00  0.51100000000E-03 0. -1.
    9000002    1    1    2    0    0  0.14485149515E+00  0.41600277822E+00  0.14612193961E+00  0.10465351826E+01  0.93800000000E+00 0. -1.
         22    1    1    2    0    0 -0.51659827717E-01 -0.43935113320E+00  0.30656605008E+01  0.30974138345E+01  0.00000000000E+00 0. -1.
</event>
<event>
 5    1  0.6564536E+001  0.1599677E+01  0.7818608E-02  0.3353714E+00
         11   -1    0    0    0    0  0.00000000000E+00  0.00000000000E+00  0.39999999674E+01  0.40000000000E+01  0.51100000000E-03 0. -1.
    9000002   -1    0    0    0    0 -0.00000000000E+00 -0.00000000000E+00  0.00000000000E+00  0.93800000000E+00  0.93800000000E+00 0. -1.
         11    1    1    2    0    0  0.19334335940E+00 -0.11950871888E+00  0.14173449909E+01  0.14354550055E+01  0.51100000000E-03 0.  1.
    9000002    1    1    2    0    0 -0.51102052433E+00  0.31628945203E+00  0.25204855783E+00  0.11421705080E+01  0.93800000000E+00 0. -1.
         22    1    1    2    0    0  0.31767716493E+00 -0.19678073315E+00  0.23306064186E+01  0.23603744865E+01  0.00000000000E+00 0. -1.
</event>
<event>
 5    1  0.6564536E+001  0.1599675E+01  0.7818608E-02  0.3353717E+00
         11   -1    0    0    0    0  0.00000000000E+00  0.00000000000E+00  0.39999999674E+01  0.40000000000E+01  0.51100000000E-03 0.  1.
    9000002   -1    0    0    0    0 -0.00000000000E+00 -0.00000000000E+00  0.00000000000E+00  0.93800000000E+00  0.93800000000E+00 0. -1.
         11    1    1    2    0    0 -0.72709912073E-01  0.16836691950E-02  0.75013129695E+00  0.75364898318E+00  0.51100000000E-03 0.  1.
    9000002    1    1    2    0    0  0.38541328596E+00 -0.68687797491E-02  0.10004656816E+00  0.10190406748E+01  0.93800000000E+00 0. -1.
         22    1    1    2    0    0 -0.31270337389E+00  0.51851105541E-02  0.31498221022E+01  0.31653103420E+01  0.00000000000E+00 0.  1.
</event>
<event>
 5    1  0.6564536E+001  0.1570284E+01  0.7818608E-02  0.3386262E+00
         11   -1    0    0    0    0  0.00000000000E+00  0.00000000000E+00  0.39999999674E+01  0.40000000000E+01  0.51100000000E-03 0. -1.
    9000002   -1    0    0    0    0 -0.00000000000E+00 -0.00000000000E+00  0.00000000000E+00  0.93800000000E+00  0.93800000000E+00 0.  1.
         11    1    1    2    0    0 -0.75490061444E-01  0.19955872039E-01  0.16239497901E+00  0.18019260954E+00  0.51100000000E-03 0. -1.
    9000002    1    1    2    0    0 -0.29260311925E-01  0.34514776429E+00  0.10442219550E+00  0.10053512520E+01  0.93800000000E+00 0.  1.
         22    1    1    2    0    0  0.10475037337E+00 -0.36510363632E+00  0.37331827929E+01  0.37524561384E+01  0.00000000000E+00 0. -1.
</event>
<event>
 5    1  0.6564536E+001  0.1593452E+01  0.7818608E-02  0.3360501E+00
         11   -1    0    0    0    0  0.00000000000E+00  0.00000000000E+00  0.39999999674E+01  0.40000000000E+01  0.51100000000E-03 0. -1.
    9000002   -1    0    0    0    0 -0.00000000000E+00 -0.00000000000E+00  0.00000000000E+00  0.93800000000E+00  0.93800000000E+00 0. -1.
         11    1    1    2    0    0  0.48430172594E-01  0.23946235193E-01  0.98038868829E+00  0.98187633898E+00  0.51100000000E-03 0. -1.
    9000002    1    1    2    0    0 -0.25583655836E+00  0.22722964791E+00  0.83445831222E-01  0.10019445415E+01  0.93800000000E+00 0. -1.
         22    1    1    2    0    0  0.20740638576E+00 -0.25117588311E+00  0.29361654478E+01  0.29541791195E+01  0.00000000000E+00 0. -1.
</event>
<event>
 5    1  0.6564536E+001  0.1599676E+01  0.7818608E-02  0.3353715E+00
         11   -1    0    0    0    0  0.00000000000E+00  0.00000000000E+00  0.39999999674E+01  0.40000000000E+01  0.51100000000E-03 0.  1.
    9000002   -1    0    0    0    0 -0.00000000000E+00 -0.00000000000E+00  0.00000000000E+00  0.93800000000E+00  0.93800000000E+00 0. -1.
         11    1    1    2    0    0 -0.11063737439E+00 -0.85205998535E-01  0.12994830503E+01  0.13069648618E+01  0.51100000000E-03 0.  1.
    9000002    1    1    2    0    0  0.33187469288E+00  0.25701975745E+00  0.11916160119E+00  0.10345257149E+01  0.93800000000E+00 0. -1.
         22    1    1    2    0    0 -0.22123731849E+00 -0.17181375892E+00  0.25813553158E+01  0.25965094233E+01  0.00000000000E+00 0.  1.
</event>
<event>
 5    1  0.6564536E+001  0.1593981E+01  0.7818608E-02  0.3359922E+00
         11   -1    0    0    0    0  0.00000000000E+00  0.00000000000E+00  0.39999999674E+01  0.40000000000E+01  0.51100000000E-03 0.  1.
    9000002   -1    0    0    0    0 -0.00000000000E+00 -0.00000000000E+00  0.00000000000E+00  0.93800000000E+00  0.93800000000E+00 0. -1.
         11    1    1    2    0    0  0.27234678038E-01  0.41624757924E-01  0.68736793679E+00  0.68916564758E+00  0.51100000000E-03 0.  1.
    9000002    1    1    2    0    0 -0.28214154906E+00  0.13572503961E+00  0.69978419610E-01  0.99134561042E+00  0.93800000000E+00 0. -1.
         22    1    1    2    0    0  0.25490687102E+00 -0.17734979754E+00  0.32426536110E+01  0.32574887420E+01  0.00000000000E+00 0.  1.
</event>
<event>
 5    1  0.6564536E+001  0.1599677E+01  0.7818608E-02  0.3353714E+00
         11   -1    0    0    0    0  0.00000000000E+00  0.00000000000E+00  0.39999999674E+01  0.40000000000E+01  0.51100000000E-03 0. -1.
    9000002   -1    0    0    0    0 -0.00000000000E+00 -0.00000000000E+00  0.00000000000E+00  0.93800000000E+00  0.93800000000E+00 0. -1.
         11    1    1    2    0    0 -0.20850060348E+00 -0.35885391798E-01  0.46496952075E+00  0.51083968067E+00  0.51100000000E-03 0. -1.
    9000002    1    1    2    0    0  0.11799623053E+01  0.20170662381E+00  0.13638181027E+01  0.20427531474E+01  0.93800000000E+00 0. -1.
         22    1    1    2    0    0 -0.97146170183E+00 -0.16582123202E+00  0.21712123439E+01  0.23844071719E+01  0.00000000000E+00 0. -1.
</event>
<event>
 5    1  0.6564536E+001  0.1593624E+01  0.7818608E-02  0.3360312E+00
         11   -1    0    0    0    0  0.00000000000E+00  0.00000000000E+00  0.39999999674E+01  0.40000000000E+01  0.51100000000E-03 0. -1.
    9000002   -1    0    0    0    0 -0.00000000000E+00 -0.00000000000E+00  0.00000000000E+00  0.93800000000E+00  0.93800000000E+00 0.  1.
         11    1    1    2    0    0 -0.62339932419E-01 -0.58292696186E-01  0.39669933959E+00  0.40577694951E+00  0.51100000000E-03 0. -1.
    9000002    1    1    2    0    0  0.70290232288E-01  0.42314338625E+00  0.12974802298E+00  0.10395525920E+01  0.93800000000E+00 0.  1.
         22    1    1    2    0    0 -0.79502998690E-02 -0.36485069006E+00  0.34735526048E+01  0.34926704585E+01  0.00000000000E+00 0. -1.
</event>
<event>
 5    1  0.6564536E+001  0.1563005E+01  0.7818608E-02  0.3394521E+00
         11   -1    0    0    0    0  0.00000000000E+00  0.00000000000E+00  0.39999999674E+01  0.40000000000E+01  0.51100000000E-03 0. -1.
    9000002   -1    0    0    0    0 -0.00000000000E+00 -0.00000000000E+00  0.00000000000E+00  0.93800000000E+00  0.93800000000E+00 0. -1.
         11    1    1    2    0    0  0.38969300593E+00 -0.28191497822E-01  0.27175319950E+00  0.47592589967E+00  0.51100000000E-03 0. -1.
    9000002    1    1    2    0    0 -0.17471082920E+00 -0.55973614526E+00  0.57389494705E+00  0.12462053749E+01  0.93800000000E+00 0. -1.
         22    1    1    2    0    0 -0.21498217673E+00  0.58792764309E+00  0.31543518208E+01  0.32158687254E+01  0.00000000000E+00 0. -1.
</event>
<event>
 5    1  0.8896911E+001  0.1592027E+01  0.7818608E-02  0.3362063E+00
         11   -1    0    0    0    0  0.00000000000E+00  0.00000000000E+00  0.39999999674E+01  0.40000000000E+01  0.51100000000E-03 0.  1.
    9000002   -1    0    0    0    0 -0.00000000000E+00 -0.00000000000E+00  0.00000000000E+00  0.93800000000E+00  0.93800000000E+00 0. -1.
         11    1    1    2    0    0  0.25498232257E-01 -0.41282550977E-01  0.14000507038E+01  0.14008913746E+01  0.51100000000E-03 0.  1.
    9000002    1    1    2    0    0  0.20890834492E+00  0.70356985258E-01  0.38009837750E-01  0.96430366053E+00  0.93800000000E+00 0. -1.
         22    1    1    2    0    0 -0.23440657718E+00 -0.29074434281E-01  0.25619394258E+01  0.25728049649E+01  0.00000000000E+00 0.  1.
</event>
<event>
 5    1  0.6564536E+001  0.1599668E+01  0.7818608E-02  0.3353724E+00
         11   -1    0    0    0    0  0.00000000000E+00  0.00000000000E+00  0.39999999674E+01  0.40000000000E+01  0.51100000000E-03 0.  1.
    9000002   -1    0    0    0    0 -0.00000000000E+00 -0.00000000000E+00  0.00000000000E+00  0.93800000000E+00  0.93800000000E+00 0.  1.
         11    1    1    2    0    0  0.35742481495E+00  0.18746192457E+00  0.13085897222E+01  0.13694165888E+01  0.51100000000E-03 0.  1.
    9000002    1    1    2    0    0 -0.87127226335E+00 -0.46240124885E+00  0.77675966922E+00  0.15672044715E+01  0.93800000000E+00 0.  1.
         22    1    1    2    0    0  0.51384744839E+00  0.27493932428E+00  0.19146505759E+01  0.20013789397E+01  0.00000000000E+00 0.  1.
</event>
<event>
 5    1  0.6564536E+001  0.1599676E+01  0.7818608E-02  0.3353715E+00
         11   -1    0    0    0    0  0.00000000000E+00  0.00000000000E+00  0.39999999674E+01  0.40000000000E+01  0.51100000000E-03 0.  1.
    9000002   -1    0    0    0    0 -0.00000000000E+00 -0.00000000000E+00  0.00000000000E+00  0.93800000000E+00  0.93800000000E+00 0.  1.
         11    1    1    2    0    0  0.93907303855E-01  0.18615225283E-01  0.63934677682E+00  0.64647480266E+00  0.51100000000E-03 0. -1.
    9000002    1    1    2    0    0 -0.55785231550E+00 -0.10780062750E+00  0.22376048455E+00  0.11192555274E+01  0.93800000000E+00 0.  1.
         22    1    1    2    0    0  0.46394501165E+00  0.89185402212E-01  0.31368927060E+01  0.31722696699E+01  0.00000000000E+00 0.  1.
</event>
<event>
 5    1  0.6564536E+001  0.1570538E+01  0.7818608E-02  0.3385974E+00
         11   -1    0    0    0    0  0.00000000000E+00  0.00000000000E+00  0.39999999674E+01  0.40000000000E+01  0.51100000000E-03 0.  1.
    9000002   -1    0    0    0    0 -0.00000000000E+00 -0.00000000000E+00  0.00000000000E+00  0.93800000000E+00  0.93800000000E+00 0.  1.
         11    1    1    2    0    0 -0.52509762865E-01 -0.20166109980E+00  0.14635617563E+01  0.14783226136E+01  0.51100000000E-03 0.  1.
    9000002    1    1    2    0    0 -0.14524676917E+00  0.92273218084E-01  0.41532908699E-01  0.95455746461E+00  0.93800000000E+00 0.  1.
         22    1    1    2    0    0  0.19775653204E+00  0.10938788172E+00  0.24949053024E+01  0.25051199218E+01  0.00000000000E+00 0.  1.
</event>
<event>
 5    1  0.6564536E+001  0.1581729E+01  0.7818608E-02  0.3373436E+00
         11   -1    0    0    0    0  0.00000000000E+00  0.00000000000E+00  0.39999999674E+01  0.40000000000E+01  0.51100000000E-03 0.  1.
    9000002   -1    0    0    0    0 -0.00000000000E+00 -0.00000000000E+00  0.00000000000E+00  0.93800000000E+00  0.93800000000E+00 0. -1.
         11    1    1    2    0    0  0.10603236936E+00 -0.71543448671E-01  0.79126975934E+00  0.80154190256E+00  0.51100000000E-03 0.  1.
    9000002    1    1    2    0    0  0.11672225637E+00  0.37698286575E+00  0.12000917246E+00  0.10246884247E+01  0.93800000000E+00 0. -1.
         22    1    1    2    0    0 -0.22275462573E+00 -0.30543941708E+00  0.30887210356E+01  0.31117696728E+01  0.00000000000E+00 0.  1.
</event>
<event>
 5    1  0.6564536E+001  0.1599657E+01  0.7818608E-02  0.3353736E+00
         11   -1    0    0    0    0  0.00000000000E+00  0.00000000000E+00  0.39999999674E+01  0.40000000000E+01  0.51100000000E-03 0.  1.
    9000002   -1    0    0    0    0 -0.00000000000E+00 -0.00000000000E+00  0.00000000000E+00  0.93800000000E+00  0.93800000000E+00 0. -1.
         11    1    1    2    0    0 -0.78099915338E-01  0.22204190277E+00  0.13821263562E+01  0.14020255807E+01  0.51100000000E-03 0.  1.
    9000002    1    1    2    0    0  0.20328439655E+00 -0.60874011224E+00  0.29010348434E+00  0.11729846980E+01  0.93800000000E+00 0. -1.
         22    1    1    2    0    0 -0.12518448121E+00  0.38669820947E+00  0.23277701268E+01  0.23629897213E+01  0.00000000000E+00 0.  1.
</event>
<event>
 5    1  0.6564536E+001  0.1575144E+01  0.7818608E-02  0.3380791E+00
         11   -1    0    0    0    0  0.00000000000E+00  0.00000000000E+00  0.39999999674E+01  0.40000000000E+01  0.51100000000E-03 0. -1.
    9000002   -1    0    0    0    0 -0.00000000000E+00 -0.00000000000E+00  0.00000000000E+00  0.93800000000E+00  0.93800000000E+00 0. -1.
         11    1    1    2    0    0 -0.13376575688E+00  0.74035519952E-01  0.61479848271E+00  0.63352345765E+00  0.51100000000E-03 0. -1.
    9000002    1    1    2    0    0  0.30741139114E+00  0.22013453002E+00  0.11655911574E+00  0.10180329082E+01  0.93800000000E+00 0. -1.
         22    1    1    2    0    0 -0.17364563426E+00 -0.29417004997E+00  0.32686423689E+01  0.32864436341E+01  0.00000000000E+00 0. -1.
</event>
<event>
 5    1  0.6564536E+001  0.1599668E+01  0.7818608E-02  0.3353724E+00
         11   -1    0    0    0    0  0.00000000000E+00  0.00000000000E+00  0.39999999674E+01  0.40000000000E+01  0.51100000000E-03 0. -1.
    9000002   -1    0    0    0    0 -0.00000000000E+00 -0.00000000000E+00  0.00000000000E+00  0.93800000000E+00  0.93800000000E+00 0. -1.
         11    1    1    2    0    0 -0.45351688428E-01 -0.95484741244E-01  0.85973265977E+00  0.86620703002E+00  0.51100000000E-03 0. -1.
    9000002    1    1    2    0    0  0.20617852995E+00  0.43951655714E+00  0.16096151585E+00  0.10683805501E+01  0.93800000000E+00 0. -1.
         22    1    1    2    0    0 -0.16082684153E+00 -0.34403181589E+00  0.29793057917E+01  0.30034124199E+01  0.00000000000E+00 0. -1.
</event>
<event>
 5    1  0.6564536E+001  0.1595019E+01  0.7818608E-02  0.3358787E+00
         11   -1    0    0    0    0  0.00000000000E+00  0.00000000000E+00  0.39999999674E+01  0.40000000000E+01  0.51100000000E-03 0. -1.
    9000002   -1    0    0    0    0 -0.00000000000E+00 -0.00000000000E+00  0.00000000000E+00  0.93800000000E+00  0.93800000000E+00 0.  1.
         11    1    1    2    0    0  0.63209521027E-01  0.60757080439E-01  0.10170527730E+01  0.10208248971E+01  0.51100000000E-03 0. -1.
    9000002    1    1    2    0    0 -0.50657145473E+00 -0.24230416699E+00  0.22274034739E+00  0.11156985303E+01  0.93800000000E+00 0.  1.
         22    1    1    2    0    0  0.44336193370E+00  0.18154708655E+00  0.27602068470E+01  0.28014765726E+01  0.00000000000E+00 0. -1.
</event>
<event>
 5    1  0.6564536E+001  0.1599676E+01  0.7818608E-02  0.3353715E+00
         11   -1    0    0    0    0  0.00000000000E+00  0.00000000000E+00  0.39999999674E+01  0.40000000000E+01  0.51100000000E-03 0.  1.
    9000002   -1    0    0    0    0 -0.00000000000E+00 -0.00000000000E+00  0.00000000000E+00  0.93800000000E+00  0.93800000000E+00 0.  1.
         11    1    1    2    0    0 -0.68569673757E-01  0.76470064595E-01  0.97896067013E+00  0.98433415349E+00  0.51100000000E-03 0.  1.
    9000002    1    1    2    0    0  0.27571736292E+00 -0.30270109190E+00  0.11322172353E+00  0.10297141224E+01  0.93800000000E+00 0.  1.
         22    1    1    2    0    0 -0.20714768917E+00  0.22623102730E+00  0.29078175737E+01  0.29239517241E+01  0.00000000000E+00 0.  1.
</event>
<event>
 5    1  0.6564536E+001  0.1597179E+01  0.7818608E-02  0.3356431E+00
         11   -1    0    0    0    0  0.00000000000E+00  0.00000000000E+00  0.39999999674E+01  0.40000000000E+01  0.51100000000E-03 0. -1.
    9000002   -1    0    0    0    0 -0.00000000000E+00 -0.00000000000E+00  0.00000000000E+00  0.93800000000E+00  0.93800000000E+00 0. -1.
         11    1    1    2    0    0  0.33596339121E-01  0.99465398971E-02  0.13085312432E+00  0.13546382884E+00  0.51100000000E-03 0. -1.
    9000002    1    1    2    0    0 -0.41956239657E+00  0.12713326937E-01  0.12126795780E+00  0.10347676797E+01  0.93800000000E+00 0. -1.
         22    1    1    2    0    0  0.38596605745E+00 -0.22659866834E-01  0.37478788852E+01  0.37677684915E+01  0.00000000000E+00 0. -1.
</event>
<event>
 5    1  0.6564536E+001  0.1599677E+01  0.7818608E-02  0.3353715E+00
         11   -1    0    0    0    0  0.00000000000E+00  0.00000000000E+00  0.39999999674E+01  0.40000000000E+01  0.51100000000E-03 0. -1.
    9000002   -1    0    0    0    0 -0.00000000000E+00 -0.00000000000E+00  0.00000000000E+00  0.93800000000E+00  0.93800000000E+00 0.  1.
         11    1    1    2    0    0  0.90555720579E-02  0.66094675446E-01  0.52067244389E+00  0.52492910421E+00  0.51100000000E-03 0. -1.
    9000002    1    1    2    0    0 -0.69947531112E-01 -0.48692133295E+00  0.16543049421E+00  0.10720057323E+01  0.93800000000E+00 0.  1.
         22    1    1    2    0    0  0.60891959055E-01  0.42082665750E+00  0.33138970293E+01  0.33410651635E+01  0.00000000000E+00 0. -1.
</event>
<event>
 5    1  0.6564536E+001  0.1599662E+01  0.7818608E-02  0.3353730E+00
         11   -1    0    0    0    0  0.00000000000E+00  0.00000000000E+00  0.39999999674E+01  0.40000000000E+01  0.51100000000E-03 0.  1.
    9000002   -1    0    0    0    0 -0.00000000000E+00 -0.00000000000E+00  0.00000000000E+00  0.93800000000E+00  0.93800000000E+00 0.  1.
         11    1    1    2    0    0 -0.91819437148E-01 -0.86955639851E-01  0.12027918106E+01  0.12094215531E+01  0.51100000000E-03 0.  1.
    9000002    1    1    2    0    0  0.30907528114E+00  0.28580809223E+00  0.11987883880E+00  0.10350984161E+01  0.93800000000E+00 0.  1.
         22    1    1    2    0    0 -0.21725584399E+00 -0.19885245238E+00  0.26773293180E+01  0.26934800308E+01  0.00000000000E+00 0.  1.
</event>
<event>
 5    1  0.6564536E+001  0.1597538E+01  0.7818608E-02  0.3356040E+00
         11   -1    0    0    0    0  0.00000000000E+00  0.00000000000E+00  0.39999999674E+01  0.40000000000E+01  0.51100000000E-03 0.  1.
    9000002   -1    0    0    0    0 -0.00000000000E+00 -0.00000000000E+00  0.00000000000E+00  0.93800000000E+00  0.93800000000E+00 0. -1.
         11    1    1    2    0    0 -0.16415038408E-01 -0.23174671093E-02  0.56131740080E-01  0.58530825256E-01  0.51100000000E-03 0.  1.
    9000002    1    1    2    0    0  0.29766784158E+00 -0.23619689863E+00  0.98912151517E-01  0.10168690833E+01  0.93800000000E+00 0. -1.
         22    1    1    2    0    0 -0.28125280317E+00  0.23851436574E+00  0.38449560758E+01  0.38626000915E+01  0.00000000000E+00 0.  1.
</event>
<event>
 5    1  0.6564536E+001  0.1599263E+01  0.7818608E-02  0.3354164E+00
         11   -1    0    0    0    0  0.00000000000E+00  0.00000000000E+00  0.39999999674E+01  0.40000000000E+01  0.51100000000E-03 0. -1.
    9000002   -1    0    0    0    0 -0.00000000000E+00 -0.00000000000E+00  0.00000000000E+00  0.93800000000E+00  0.93800000000E+00 0.  1.
         11    1    1    2    0    0 -0.68310299999E-02 -0.22478071166E-01  0.22087742530E+00  0.22212389512E+00  0.51100000000E-03 0. -1.
    9000002    1    1    2    0    0  0.25562588948E+00  0.25012335318E+00  0.86170817739E-01  0.10075592772E+01  0.93800000000E+00 0.  1.
         22    1    1    2    0    0 -0.24879485948E+00 -0.22764528202E+00  0.36929517243E+01  0.37083168277E+01  0.00000000000E+00 0. -1.
</event>
<event>
 5    1  0.6564536E+001  0.1599668E+01  0.7818608E-02  0.3353724E+00
         11   -1    0    0    0    0  0.00000000000E+00  0.00000000000E+00  0.39999999674E+01  0.40000000000E+01  0.51100000000E-03 0. -1.
    9000002   -1    0    0    0    0 -0.00000000000E+00 -0.00000000000E+00  0.00000000000E+00  0.93800000000E+00  0.93800000000E+00 0.  1.
         11    1    1    2    0    0  0.13487084407E+00 -0.34877973201E-01  0.88907286892E+00  0.89992079927E+00  0.51100000000E-03 0. -1.
    9000002    1    1    2    0    0 -0.56219490648E+00  0.15752417466E+00  0.23703411834E+00  0.11300027220E+01  0.93800000000E+00 0.  1.
         22    1    1    2    0    0  0.42732406241E+00 -0.12264620146E+00  0.28738929801E+01  0.29080764787E+01  0.00000000000E+00 0. -1.
</event>
<event>
 5    1  0.6564536E+001  0.1599209E+01  0.7818608E-02  0.3354222E+00
         11   -1    0    0    0    0  0.00000000000E+00  0.00000000000E+00  0.39999999674E+01  0.40000000000E+01  0.51100000000E-03 0.  1.
    9000002   -1    0    0    0    0 -0.00000000000E+00 -0.00000000000E+00  0.00000000000E+00  0.93800000000E+00  0.93800000000E+00 0.  1.
         11    1    1    2    0    0 -0.35180184363E-02 -0.44225445975E-01  0.42247375665E+00  0.42479713123E+00  0.51100000000E-03 0.  1.
    9000002    1    1    2    0    0 -0.10582835205E+00  0.35256909881E+00  0.91425150501E-01  0.10117841507E+01  0.93800000000E+00 0.  1.
         22    1    1    2    0    0  0.10934637048E+00 -0.30834365284E+00  0.34861010602E+01  0.35014187180E+01  0.00000000000E+00 0.  1.
</event>
<event>
 5    1  0.6564536E+001  0.1599080E+01  0.7818608E-02  0.3354363E+00
         11   -1    0    0    0    0  0.00000000000E+00  0.00000000000E+00  0.39999999674E+01  0.40000000000E+01  0.51100000000E-03 0.  1.
    9000002   -1    0    0    0    0 -0.00000000000E+00 -0.00000000000E+00  0.00000000000E+00  0.93800000000E+00  0.93800000000E+00 0.  1.
         11    1    1    2    0    0  0.76767780734E-01 -0.10830786414E+00  0.14253910961E+01  0.14315599615E+01  0.51100000000E-03 0.  1.
    9000002    1    1    2    0    0 -0.28583330548E+00  0.30487031784E+00  0.11858420302E+00  0.10337082772E+01  0.93800000000E+00 0.  1.
         22    1    1    2    0    0  0.20906552475E+00 -0.19656245370E+00  0.24560246683E+01  0.24727317612E+01  0.00000000000E+00 0.  1.
</event>
<event>
 5    1  0.6564536E+001  0.1593778E+01  0.7818608E-02  0.3360144E+00
         11   -1    0    0    0    0  0.00000000000E+00  0.00000000000E+00  0.39999999674E+01  0.40000000000E+01  0.51100000000E-03 0. -1.
    9000002   -1    0    0    0    0 -0.00000000000E+00 -0.00000000000E+00  0.00000000000E+00  0.93800000000E+00  0.93800000000E+00 0. -1.
         11    1    1    2    0    0  0.15502638178E+00  0.12122735451E+00  0.84601167251E+00  0.86859959801E+00  0.51100000000E-03 0. -1.
    9000002    1    1    2    0    0 -0.38057541903E+00 -0.38921069267E+00  0.21001046146E+00  0.11046587739E+01  0.93800000000E+00 0. -1.
         22    1    1    2    0    0  0.22554903726E+00  0.26798333815E+00  0.29439778334E+01  0.29647416281E+01  0.00000000000E+00 0. -1.
</event>
<event>
 5    1  0.6564536E+001  0.1599659E+01  0.7818608E-02  0.3353733E+00
         11   -1    0    0    0    0  0.00000000000E+00  0.00000000000E+00  0.39999999674E+01  0.40000000000E+01  0.51100000000E-03 0.  1.
    9000002   -1    0    0    0    0 -0.00000000000E+00 -0.00000000000E+00  0.00000000000E+00  0.93800000000E+00  0.93800000000E+00 0. -1.
         11    1    1    2    0    0 -0.93129209070E-01  0.14222403265E+00  0.13872909016E+01  0.13976684270E+01  0.51100000000E-03 0.  1.
    9000002    1    1    2    0    0  0.24934686908E+00 -0.40446437318E+00  0.15394095136E+00  0.10626886218E+01  0.93800000000E+00 0. -1.
         22    1    1    2    0    0 -0.15621766001E+00  0.26224034053E+00  0.24587681144E+01  0.24776429512E+01  0.00000000000E+00 0. -1.
</event>
<event>
 5    1  0.6564536E+001  0.1599677E+01  0.7818608E-02  0.3353714E+00
         11   -1    0    0    0    0  0.00000000000E+00  0.00000000000E+00  0.39999999674E+01  0.40000000000E+01  0.51100000000E-03 0. -1.
    9000002   -1    0    0    0    0 -0.00000000000E+00 -0.00000000000E+00  0.00000000000E+00  0.93800000000E+00  0.93800000000E+00 0. -1.
         11    1    1    2    0    0  0.35055878230E-01 -0.81218863988E-01  0.95753298087E+00  0.96161067436E+00  0.51100000000E-03 0. -1.
    9000002    1    1    2    0    0 -0.14393645801E+00  0.32994728648E+00  0.86984111633E-01  0.10084607833E+01  0.93800000000E+00 0. -1.
         22    1    1    2    0    0  0.10888057978E+00 -0.24872842249E+00  0.29554828749E+01  0.29679285423E+01  0.00000000000E+00 0. -1.
</event>
<event>
 5    1  0.6564536E+001  0.1599670E+01  0.7818608E-02  0.3353722E+00
         11   -1    0    0    0    0  0.00000000000E+00  0.00000000000E+00  0.39999999674E+01  0.40000000000E+01  0.51100000000E-03 0.  1.
    9000002   -1    0    0    0    0 -0.00000000000E+00 -0.00000000000E+00  0.00000000000E+00  0.93800000000E+00  0.93800000000E+00 0.  1.
         11    1    1    2    0    0 -0.68654314326E-01  0.19359815867E-01  0.70199410365E+00  0.70560909859E+00  0.51100000000E-03 0.  1.
    9000002    1    1    2    0    0  0.37241008759E+00 -0.97008447165E-01  0.99712442697E-01  0.10187671389E+01  0.93800000000E+00 0.  1.
         22    1    1    2    0    0 -0.30375577327E+00  0.77648631297E-01  0.31982934210E+01  0.32136237625E+01  0.00000000000E+00 0.  1.
</event>
<event>
 5    1  0.6564536E+001  0.1520673E+01  0.7818608E-02  0.3444234E+00
         11   -1    0    0    0    0  0.00000000000E+00  0.00000000000E+00  0.39999999674E+01  0.40000000000E+01  0.51100000000E-03 0. -1.
    9000002   -1    0    0    0    0 -0.00000000000E+00 -0.00000000000E+00  0.00000000000E+00  0.93800000000E+00  0.93800000000E+00 0. -1.
         11    1    1    2    0    0 -0.12841956828E+00 -0.54698451876E-01  0.18377138382E+00  0.23077194107E+00  0.51100000000E-03 0. -1.
    9000002    1    1    2    0    0 -0.19277863179E+00 -0.10242736059E+00  0.93754982964E-01  0.96762025707E+00  0.93800000000E+00 0. -1.
         22    1    1    2    0    0  0.32119820007E+00  0.15712581247E+00  0.37224736006E+01  0.37396078019E+01  0.00000000000E+00 0. -1.
</event>
<event>
 5    1  0.6564536E+001  0.1599497E+01  0.7818608E-02  0.3353910E+00
         11   -1    0    0    0    0  0.00000000000E+00  0.00000000000E+00  0.39999999674E+01  0.40000000000E+01  0.51100000000E-03 0. -1.
    9000002   -1    0    0    0    0 -0.00000000000E+00 -0.00000000000E+00  0.00000000000E+00  0.93800000000E+00  0.93800000000E+00 0. -1.
         11    1    1    2    0    0  0.14787916907E+00 -0.24117880653E+00  0.14506819218E+01  0.14780100693E+01  0.51100000000E-03 0. -1.
    9000002    1    1    2    0    0 -0.33619492311E+00  0.62408713786E+00  0.36020433618E+00  0.12296759515E+01  0.93800000000E+00 0. -1.
         22    1    1    2    0    0  0.18831575404E+00 -0.38290833133E+00  0.21891137094E+01  0.22303139792E+01  0.00000000000E+00 0. -1.
</event>
<event>
 5    1  0.6564536E+001  0.1599246E+01  0.7818608E-02  0.3354182E+00
         11   -1    0    0    0    0  0.00000000000E+00  0.00000000000E+00  0.39999999674E+01  0.40000000000E+01  0.51100000000E-03 0. -1.
    9000002   -1    0    0    0    0 -0.00000000000E+00 -0.00000000000E+00  0.00000000000E+00  0.93800000000E+00  0.93800000000E+00 0. -1.
         11    1    1    2    0    0  0.59949762355E-01  0.12716236833E+00  0.83520827360E+00  0.84695771047E+00  0.51100000000E-03 0. -1.
    9000002    1    1    2    0    0 -0.17805651645E+00 -0.55494181176E+00  0.23655200260E+00  0.11293650373E+01  0.93800000000E+00 0. -1.
         22    1    1    2    0    0  0.11810675410E+00  0.42777944344E+00  0.29282396912E+01  0.29616772522E+01  0.00000000000E+00 0. -1.
</event>
<event>
 5    1  0.6564536E+001  0.1599676E+01  0.7818608E-02  0.3353715E+00
         11   -1    0    0    0    0  0.00000000000E+00  0.00000000000E+00  0.39999999674E+01  0.40000000000E+01  0.51100000000E-03 0. -1.
    9000002   -1    0    0    0    0 -0.00000000000E+00 -0.00000000000E+00  0.00000000000E+00  0.93800000000E+00  0.93800000000E+00 0. -1.
         11    1    1    2    0    0  0.97528635046E-01  0.14622081763E+00  0.10020993526E+01  0.10173965479E+01  0.51100000000E-03 0. -1.
    9000002    1    1    2    0    0 -0.35817929168E+00 -0.54214392723E+00  0.29791850386E+00  0.11793268749E+01  0.93800000000E+00 0. -1.
         22    1    1    2    0    0  0.26065065664E+00  0.39592310960E+00  0.26999821109E+01  0.27412765772E+01  0.00000000000E+00 0. -1.
</event>
<event>
 5    1  0.6564536E+001  0.1520641E+01  0.7818608E-02  0.3444273E+00
         11   -1    0    0    0    0  0.00000000000E+00  0.00000000000E+00  0.39999999674E+01  0.40000000000E+01  0.51100000000E-03 0.  1.
    9000002   -1    0    0    0    0 -0.00000000000E+00 -0.00000000000E+00  0.00000000000E+00  0.93800000000E+00  0.93800000000E+00 0. -1.
         11    1    1    2    0    0 -0.12286718762E-01  0.10485290829E+00  0.67434847763E-01  0.12527096889E+00  0.51100000000E-03 0.  1.
    9000002    1    1    2    0    0 -0.36101564748E+00 -0.70099537315E-01  0.15828638508E+00  0.10198749053E+01  0.93800000000E+00 0. -1.
         22    1    1    2    0    0  0.37330236624E+00 -0.34753370971E-01  0.37742787345E+01  0.37928541258E+01  0.00000000000E+00 0.  1.
</event>
<event>
 5    1  0.6564536E+001  0.1303452E+01  0.7818608E-02  0.3775351E+00
         11   -1    0    0    0    0  0.00000000000E+00  0.00000000000E+00  0.39999999674E+01  0.40000000000E+01  0.51100000000E-03 0. -1.
    9000002   -1    0    0    0    0 -0.00000000000E+00 -0.00000000000E+00  0.00000000000E+00  0.93800000000E+00  0.93800000000E+00 0. -1.
         11    1    1    2    0    0 -0.59852079844E+00  0.32364646755E+00  0.13178736250E+01  0.14831605896E+01  0.51100000000E-03 0. -1.
    9000002    1    1    2    0    0 -0.17027773846E-02 -0.32024252991E+00  0.35701198696E+00  0.10534988069E+01  0.93800000000E+00 0. -1.
         22    1    1    2    0    0  0.60022357583E+00 -0.34039376398E-02  0.23251143555E+01  0.24013406034E+01  0.00000000000E+00 0. -1.
</event>
<event>
 5    1  0.6564536E+001  0.1599471E+01  0.7818608E-02  0.3353938E+00
         11   -1    0    0    0    0  0.00000000000E+00  0.00000000000E+00  0.39999999674E+01  0.40000000000E+01  0.51100000000E-03 0. -1.
    9000002   -1    0    0    0    0 -0.00000000000E+00 -0.00000000000E+00  0.00000000000E+00  0.93800000000E+00  0.93800000000E+00 0.  1.
         11    1    1    2    0    0  0.10773977868E+00  0.44848248091E-01  0.55918604813E+00  0.57123421011E+00  0.51100000000E-03 0. -1.
    9000002    1    1    2    0    0 -0.74596120495E+00 -0.32345374899E+00  0.48943412016E+00  0.13343426116E+01  0.93800000000E+00 0.  1.
         22    1    1    2    0    0  0.63822142628E+00  0.27860550090E+00  0.29513797991E+01  0.30324231783E+01  0.00000000000E+00 0. -1.
</event>
<event>
 5    1  0.6564536E+001  0.1599676E+01  0.7818608E-02  0.3353715E+00
         11   -1    0    0    0    0  0.00000000000E+00  0.00000000000E+00  0.39999999674E+01  0.40000000000E+01  0.51100000000E-03 0.  1.
    9000002   -1    0    0    0    0 -0.00000000000E+00 -0.00000000000E+00  0.00000000000E+00  0.93800000000E+00  0.93800000000E+00 0. -1.
         11    1    1    2    0    0 -0.47847284624E-01  0.58122071235E-02  0.48000260817E+00  0.48241673827E+00  0.51100000000E-03 0. -1.
    9000002    1    1    2    0    0  0.38936547221E+00 -0.50361670919E-01  0.10387459178E+00  0.10221427002E+01  0.93800000000E+00 0. -1.
         22    1    1    2    0    0 -0.34151818758E+00  0.44549463795E-01  0.34161227674E+01  0.34334405615E+01  0.00000000000E+00 0.  1.
</event>
<event>
 5    1  0.6564536E+001  0.1599076E+01  0.7818608E-02  0.3354367E+00
         11   -1    0    0    0    0  0.00000000000E+00  0.00000000000E+00  0.39999999674E+01  0.40000000000E+01  0.51100000000E-03 0. -1.
    9000002   -1    0    0    0    0 -0.00000000000E+00 -0.00000000000E+00  0.00000000000E+00  0.93800000000E+00  0.93800000000E+00 0.  1.
         11    1    1    2    0    0  0.13081637804E+00  0.70343573658E-01  0.12873118086E+01  0.12958522666E+01  0.51100000000E-03 0. -1.
    9000002    1    1    2    0    0 -0.46763553152E+00 -0.23092133216E+00  0.18745005755E+00  0.10894903286E+01  0.93800000000E+00 0.  1.
         22    1    1    2    0    0  0.33681915348E+00  0.16057775851E+00  0.25252381012E+01  0.25526574048E+01  0.00000000000E+00 0. -1.
</event>
<event>
 5    1  0.6564536E+001  0.1599661E+01  0.7818608E-02  0.3353732E+00
         11   -1    0    0    0    0  0.00000000000E+00  0.00000000000E+00  0.39999999674E+01  0.40000000000E+01  0.51100000000E-03 0. -1.
    9000002   -1    0    0    0    0 -0.00000000000E+00 -0.00000000000E+00  0.00000000000E+00  0.93800000000E+00  0.93800000000E+00 0.  1.
         11    1    1    2    0    0  0.92755598674E-01  0.12804015917E+00  0.11584135366E+01  0.11691535683E+01  0.51100000000E-03 0. -1.
    9000002    1    1    2    0    0 -0.29102342270E+00 -0.42313694571E+00  0.18097789532E+00  0.10845904785E+01  0.93800000000E+00 0.  1.
         22    1    1    2    0    0  0.19826782402E+00  0.29509678654E+00  0.26606085354E+01  0.26842559532E+01  0.00000000000E+00 0. -1.
</event>
<event>
 5    1  0.6564536E+001  0.1581904E+01  0.7818608E-02  0.3373242E+00
         11   -1    0    0    0    0  0.00000000000E+00  0.00000000000E+00  0.39999999674E+01  0.40000000000E+01  0.51100000000E-03 0.  1.
    9000002   -1    0    0    0    0 -0.00000000000E+00 -0.00000000000E+00  0.00000000000E+00  0.93800000000E+00  0.93800000000E+00 0. -1.
         11    1    1    2    0    0  0.10919201560E+00  0.54863824182E-01  0.12407556251E+01  0.12467588852E+01  0.51100000000E-03 0.  1.
    9000002    1    1    2    0    0  0.12426045099E+00 -0.21992283843E+00  0.56117997399E-01  0.97303645573E+00  0.93800000000E+00 0. -1.
         22    1    1    2    0    0 -0.23345246660E+00  0.16505901425E+00  0.27031263448E+01  0.27182046591E+01  0.00000000000E+00 0.  1.
</event>
<event>
 5    1  0.6564536E+001  0.1596903E+01  0.7818608E-02  0.3356732E+00
         11   -1    0    0    0    0  0.00000000000E+00  0.00000000000E+00  0.39999999674E+01  0.40000000000E+01  0.51100000000E-03 0. -1.
    9000002   -1    0    0    0    0 -0.00000000000E+00 -0.00000000000E+00  0.00000000000E+00  0.93800000000E+00  0.93800000000E+00 0. -1.
         11    1    1    2    0    0 -0.64544850441E-02 -0.82286576348E-02  0.60156452300E-01  0.61060879931E-01  0.51100000000E-03 0. -1.
    9000002    1    1    2    0    0 -0.39434208458E+00 -0.71391314051E-01  0.11065292594E+00  0.10260070513E+01  0.93800000000E+00 0. -1.
         22    1    1    2    0    0  0.40079656963E+00  0.79619971685E-01  0.38291905891E+01  0.38509320687E+01  0.00000000000E+00 0. -1.
</event>
<event>
 5    1  0.6564536E+001  0.1599677E+01  0.7818608E-02  0.3353714E+00
         11   -1    0    0    0    0  0.00000000000E+00  0.00000000000E+00  0.39999999674E+01  0.40000000000E+01  0.51100000000E-03 0.  1.
    9000002   -1    0    0    0    0 -0.00000000000E+00 -0.00000000000E+00  0.00000000000E+00  0.93800000000E+00  0.93800000000E+00 0. -1.
         11    1    1    2    0    0 -0.64281806789E-01  0.43515949017E-01  0.81915808873E+00  0.82282806463E+00  0.51100000000E-03 0. -1.
    9000002    1    1    2    0    0  0.30550058920E+00 -0.20802192576E+00  0.91798804715E-01  0.10123609792E+01  0.93800000000E+00 0. -1.
         22    1    1    2    0    0 -0.24121878241E+00  0.16450597675E+00  0.30890430739E+01  0.31028109562E+01  0.00000000000E+00 0.  1.
</event>
<event>
 5    1  0.6564536E+001  0.1599651E+01  0.7818608E-02  0.3353742E+00
         11   -1    0    0    0    0  0.00000000000E+00  0.00000000000E+00  0.39999999674E+01  0.40000000000E+01  0.51100000000E-03 0.  1.
    9000002   -1    0    0    0    0 -0.00000000000E+00 -0.00000000000E+00  0.00000000000E+00  0.93800000000E+00  0.93800000000E+00 0. -1.
         11    1    1    2    0    0 -0.25256892238E-01  0.20415696284E-01  0.27139084650E+00  0.27332757626E+00  0.51100000000E-03 0.  1.
    9000002    1    1    2    0    0  0.35296358982E+00 -0.24801449375E+00  0.12607629225E+00  0.10401123575E+01  0.93800000000E+00 0. -1.
         22    1    1    2    0    0 -0.32770669758E+00  0.22759879747E+00  0.36025328286E+01  0.36245600662E+01  0.00000000000E+00 0.  1.
</event>
<event>
 5    1  0.6564536E+001  0.1565528E+01  0.7818608E-02  0.3391650E+00
         11   -1    0    0    0    0  0.00000000000E+00  0.00000000000E+00  0.39999999674E+01  0.40000000000E+01  0.51100000000E-03 0.  1.
    9000002   -1    0    0    0    0 -0.00000000000E+00 -0.00000000000E+00  0.00000000000E+00  0.93800000000E+00  0.93800000000E+00 0.  1.
         11    1    1    2    0    0  0.75268494458E-02 -0.11726283047E+00  0.42540862576E+00  0.44133885493E+00  0.51100000000E-03 0.  1.
    9000002    1    1    2    0    0  0.12265083663E+00 -0.18279737724E+00  0.58360321736E-01  0.96525024527E+00  0.93800000000E+00 0.  1.
         22    1    1    2    0    0 -0.13017768607E+00  0.30006020770E+00  0.35162310199E+01  0.35314108998E+01  0.00000000000E+00 0.  1.
</event>
<event>
 5    1  0.6564536E+001  0.1599672E+01  0.7818608E-02  0.3353720E+00
         11   -1    0    0    0    0  0.00000000000E+00  0.00000000000E+00  0.39999999674E+01  0.40000000000E+01  0.51100000000E-03 0. -1.
    9000002   -1    0    0    0    0 -0.00000000000E+00 -0.00000000000E+00  0.00000000000E+00  0.93800000000E+00  0.93800000000E+00 0.  1.
         11    1    1    2    0    0  0.48320238260E-01  0.81508930778E-01  0.10156162714E+01  0.10200270698E+01  0.51100000000E-03 0. -1.
    9000002    1    1    2    0    0 -0.19523063360E+00 -0.31240101061E+00  0.91189086454E-01  0.10118640429E+01  0.93800000000E+00 0.  1.
         22    1    1    2    0    0  0.14691039534E+00  0.23089207984E+00  0.28931946095E+01  0.29061088873E+01  0.00000000000E+00 0. -1.
</event>
<event>
 5    1  0.6564536E+001  0.1599677E+01  0.7818608E-02  0.3353714E+00
         11   -1    0    0    0    0  0.00000000000E+00  0.00000000000E+00  0.39999999674E+01  0.40000000000E+01  0.51100000000E-03 0.  1.
    9000002   -1    0    0    0    0 -0.00000000000E+00 -0.00000000000E+00  0.00000000000E+00  0.93800000000E+00  0.93800000000E+00 0. -1.
         11    1    1    2    0    0  0.28304554451E-01  0.15723463584E+00  0.12921936739E+01  0.13020324998E+01  0.51100000000E-03 0. -1.
    9000002    1    1    2    0    0 -0.84876579739E-01 -0.46787693298E+00  0.15417127260E+00  0.10628855251E+01  0.93800000000E+00 0. -1.
         22    1    1    2    0    0  0.56572025288E-01  0.31064229714E+00  0.25536350209E+01  0.25730819751E+01  0.00000000000E+00 0.  1.
</event>
<event>
 5    1  0.6564536E+001  0.1599674E+01  0.7818608E-02  0.3353718E+00
         11   -1    0    0    0    0  0.00000000000E+00  0.00000000000E+00  0.39999999674E+01  0.40000000000E+01  0.51100000000E-03 0. -1.
    9000002   -1    0    0    0    0 -0.00000000000E+00 -0.00000000000E+00  0.00000000000E+00  0.93800000000E+00  0.93800000000E+00 0. -1.
         11    1    1    2    0    0 -0.28015815688E-01 -0.11109843920E+00  0.12132851488E+01  0.12186832494E+01  0.51100000000E-03 0. -1.
    9000002    1    1    2    0    0  0.86048472713E-01  0.36261073766E+00  0.93372170204E-01  0.10136336858E+01  0.93800000000E+00 0. -1.
         22    1    1    2    0    0 -0.58032657025E-01 -0.25151229846E+00  0.26933426484E+01  0.27056830648E+01  0.00000000000E+00 0. -1.
</event>
<event>
 5    1  0.6564536E+001  0.1599677E+01  0.7818608E-02  0.3353714E+00
         11   -1    0    0    0    0  0.00000000000E+00  0.00000000000E+00  0.39999999674E+01  0.40000000000E+01  0.51100000000E-03 0. -1.
    9000002   -1    0    0    0    0 -0.00000000000E+00 -0.00000000000E+00  0.00000000000E+00  0.93800000000E+00  0.93800000000E+00 0.  1.
         11    1    1    2    0    0  0.50821846279E-01 -0.27065659356E-01  0.51813887305E+00  0.52132865149E+00  0.51100000000E-03 0.  1.
    9000002    1    1    2    0    0 -0.38028271461E+00  0.20253586691E+00  0.12573456028E+00  0.10398504220E+01  0.93800000000E+00 0.  1.
         22    1    1    2    0    0  0.32946086833E+00 -0.17547020756E+00  0.33561265340E+01  0.33768209265E+01  0.00000000000E+00 0. -1.
</event>
<event>
 5    1  0.6564536E+001  0.1564282E+01  0.7818608E-02  0.3393067E+00
         11   -1    0    0    0    0  0.00000000000E+00  0.00000000000E+00  0.39999999674E+01  0.40000000000E+01  0.51100000000E-03 0.  1.
    9000002   -1    0    0    0    0 -0.00000000000E+00 -0.00000000000E+00  0.00000000000E+00  0.93800000000E+00  0.93800000000E+00 0. -1.
         11    1    1    2    0    0 -0.14178145533E-02  0.19100344288E+00  0.12196066020E+01  0.12344735113E+01  0.51100000000E-03 0.  1.
    9000002    1    1    2    0    0  0.14959967627E+00  0.43161580524E-01  0.42646436742E-01  0.95179078780E+00  0.93800000000E+00 0. -1.
         22    1    1    2    0    0 -0.14818186172E+00 -0.23416502341E+00  0.27377469286E+01  0.27517357009E+01  0.00000000000E+00 0.  1.
</event>
<event>
 5    1  0.6564536E+001  0.1599673E+01  0.7818608E-02  0.3353718E+00
         11   -1    0    0    0    0  0.00000000000E+00  0.00000000000E+00  0.39999999674E+01  0.40000000000E+01  0.51100000000E-03 0.  1.
    9000002   -1    0    0    0    0 -0.00000000000E+00 -0.00000000000E+00  0.00000000000E+00  0.93800000000E+00  0.93800000000E+00 0. -1.
         11    1    1    2    0    0 -0.13216606964E+00 -0.55784105734E-01  0.13923349917E+01  0.13997059429E+01  0.51100000000E-03 0.  1.
    9000002    1    1    2    0    0  0.37447680270E+00  0.15284356394E+00  0.11041408914E+00  0.10274382229E+01  0.93800000000E+00 0. -1.
         22    1    1    2    0    0 -0.24231073306E+00 -0.97059458203E-01  0.24972508865E+01  0.25108558342E+01  0.00000000000E+00 0.  1.
</event>
<event>
 5    1  0.6564536E+001  0.1599643E+01  0.7818608E-02  0.3353751E+00
         11   -1    0    0    0    0  0.00000000000E+00  0.00000000000E+00  0.39999999674E+01  0.40000000000E+01  0.51100000000E-03 0. -1.
    9000002   -1    0    0    0    0 -0.00000000000E+00 -0.00000000000E+00  0.00000000000E+00  0.93800000000E+00  0.93800000000E+00 0.  1.
         11    1    1    2    0    0 -0.74496330204E-03  0.54898936964E-03  0.63995113909E-02  0.64862336291E-02  0.51100000000E-03 0.  1.
    9000002    1    1    2    0    0  0.29860560149E+00 -0.31751701128E+00  0.12879814433E+00  0.10423124866E+01  0.93800000000E+00 0.  1.
         22    1    1    2    0    0 -0.29786063819E+00  0.31696802191E+00  0.38648023116E+01  0.38892012798E+01  0.00000000000E+00 0. -1.
</event>
<event>
 5    1  0.6564536E+001  0.1555771E+01  0.7818608E-02  0.3402812E+00
         11   -1    0    0    0    0  0.00000000000E+00  0.00000000000E+00  0.39999999674E+01  0.40000000000E+01  0.51100000000E-03 0.  1.
    9000002   -1    0    0    0    0 -0.00000000000E+00 -0.00000000000E+00  0.00000000000E+00  0.93800000000E+00  0.93800000000E+00 0.  1.
         11    1    1    2    0    0 -0.14861127461E+00  0.10267985882E+00  0.13509436799E+01  0.13629664529E+01  0.51100000000E-03 0.  1.
    9000002    1    1    2    0    0  0.76198629467E-01  0.29971159210E+00  0.99228542671E-01  0.99263466253E+00  0.93800000000E+00 0.  1.
         22    1    1    2    0    0  0.72412645146E-01 -0.40239145091E+00  0.25498277448E+01  0.25823988846E+01  0.00000000000E+00 0.  1.
</event>
<event>
 5    1  0.6564536E+001  0.1599582E+01  0.7818608E-02  0.3353817E+00
         11   -1    0    0    0    0  0.00000000000E+00  0.00000000000E+00  0.39999999674E+01  0.40000000000E+01  0.51100000000E-03 0. -1.
    9000002   -1    0    0    0    0 -0.00000000000E+00 -0.00000000000E+00  0.00000000000E+00  0.93800000000E+00  0.93800000000E+00 0.  1.
         11    1    1    2    0    0  0.85198054487E-02  0.23968030706E+00  0.13841734135E+01  0.14047973293E+01  0.51100000000E-03 0. -1.
    9000002    1    1    2    0    0  0.30757215221E-02 -0.62851225742E+00  0.27745647193E+00  0.11626965260E+01  0.93800000000E+00 0.  1.
         22    1    1    2    0    0 -0.11595526971E-01  0.38883195036E+00  0.23383700819E+01  0.23705061446E+01  0.00000000000E+00 0. -1.
</event>
<event>
 5    1  0.6564536E+001  0.1592646E+01  0.7818608E-02  0.3361384E+00
         11   -1    0    0    0    0  0.00000000000E+00  0.00000000000E+00  0.39999999674E+01  0.40000000000E+01  0.51100000000E-03 0. -1.
    9000002   -1    0    0    0    0 -0.00000000000E+00 -0.00000000000E+00  0.00000000000E+00  0.93800000000E+00  0.93800000000E+00 0.  1.
         11    1    1    2    0    0  0.44421354472E-01  0.17275579613E+00  0.98787654722E+00  0.10038516601E+01  0.51100000000E-03 0. -1.
    9000002    1    1    2    0    0 -0.39552958622E+00 -0.40678948848E+00  0.22988552076E+00  0.11200949487E+01  0.93800000000E+00 0.  1.
         22    1    1    2    0    0  0.35110823175E+00  0.23403369235E+00  0.27822378994E+01  0.28140533912E+01  0.00000000000E+00 0. -1.
</event>
<event>
 5    1  0.6564536E+001  0.1599497E+01  0.7818608E-02  0.3353910E+00
         11   -1    0    0    0    0  0.00000000000E+00  0.00000000000E+00  0.39999999674E+01  0.40000000000E+01  0.51100000000E-03 0. -1.
    9000002   -1    0    0    0    0 -0.00000000000E+00 -0.00000000000E+00  0.00000000000E+00  0.93800000000E+00  0.93800000000E+00 0.  1.
         11    1    1    2    0    0  0.36386117034E-01 -0.34562986202E-01  0.57726298931E+00  0.57944056596E+00  0.51100000000E-03 0. -1.
    9000002    1    1    2    0    0 -0.31898613059E+00  0.25617467345E+00  0.11318442099E+00  0.10295787138E+01  0.93800000000E+00 0.  1.
         22    1    1    2    0    0  0.28260001356E+00 -0.22161168725E+00  0.33095525571E+01  0.33289807202E+01  0.00000000000E+00 0. -1.
</event>
<event>
 5    1  0.6564536E+001  0.1599663E+01  0.7818608E-02  0.3353729E+00
         11   -1    0    0    0    0  0.00000000000E+00  0.00000000000E+00  0.39999999674E+01  0.40000000000E+01  0.51100000000E-03 0.  1.
    9000002   -1    0    0    0    0 -0.00000000000E+00 -0.00000000000E+00  0.00000000000E+00  0.93800000000E+00  0.93800000000E+00 0.  1.
         11    1    1    2    0    0 -0.85882994812E-01 -0.52634231089E-01  0.10778134611E+01  0.10825102166E+01  0.51100000000E-03 0.  1.
    9000002    1    1    2    0    0  0.32102229019E+00  0.20136273835E+00  0.96620671534E-01  0.10162587354E+01  0.93800000000E+00 0.  1.
         22    1    1    2    0    0 -0.23513929537E+00 -0.14872850726E+00  0.28255658347E+01  0.28392310479E+01  0.00000000000E+00 0.  1.
</event>
<event>
 5    1  0.6564536E+001  0.1599676E+01  0.7818608E-02  0.3353715E+00
         11   -1    0    0    0    0  0.00000000000E+00  0.00000000000E+00  0.39999999674E+01  0.40000000000E+01  0.51100000000E-03 0. -1.
    9000002   -1    0    0    0    0 -0.00000000000E+00 -0.00000000000E+00  0.00000000000E+00  0.93800000000E+00  0.93800000000E+00 0.  1.
         11    1    1    2    0    0  0.33849398430E-01  0.11205572167E+00  0.11159348369E+01  0.11220575243E+01  0.51100000000E-03 0. -1.
    9000002    1    1    2    0    0 -0.11925151038E+00 -0.39261400340E+00  0.11372002510E+00  0.10301179168E+01  0.93800000000E+00 0.  1.
         22    1    1    2    0    0  0.85402111948E-01  0.28055828173E+00  0.27703451054E+01  0.27858245589E+01  0.00000000000E+00 0. -1.
</event>
<event>
 5    1  0.6564536E+001  0.1586693E+01  0.7818608E-02  0.3367934E+00
         11   -1    0    0    0    0  0.00000000000E+00  0.00000000000E+00  0.39999999674E+01  0.40000000000E+01  0.51100000000E-03 0.  1.
    9000002   -1    0    0    0    0 -0.00000000000E+00 -0.00000000000E+00  0.00000000000E+00  0.93800000000E+00  0.93800000000E+00 0. -1.
         11    1    1    2    0    0 -0.10920596886E+00  0.58139893079E-01  0.38160386752E+00  0.40115827752E+00  0.51100000000E-03 0.  1.
    9000002    1    1    2    0    0  0.25453434454E+00 -0.49165580852E+00  0.22426018592E+00  0.11120475698E+01  0.93800000000E+00 0. -1.
         22    1    1    2    0    0 -0.14532837568E+00  0.43351591544E+00  0.33941359139E+01  0.34247941526E+01  0.00000000000E+00 0.  1.
</event>
<event>
 5    1  0.6564536E+001  0.1599642E+01  0.7818608E-02  0.3353752E+00
         11   -1    0    0    0    0  0.00000000000E+00  0.00000000000E+00  0.39999999674E+01  0.40000000000E+01  0.51100000000E-03 0. -1.
    9000002   -1    0    0    0    0 -0.00000000000E+00 -0.00000000000E+00  0.00000000000E+00  0.93800000000E+00  0.93800000000E+00 0.  1.
         11    1    1    2    0    0 -0.31716930869E-01  0.47744511881E-01  0.59841287528E+00  0.60115200452E+00  0.51100000000E-03 0. -1.
    9000002    1    1    2    0    0  0.19444168196E+00 -0.34205344043E+00  0.10436346485E+00  0.10225183894E+01  0.93800000000E+00 0.  1.
         22    1    1    2    0    0 -0.16272475109E+00  0.29430892855E+00  0.32972236272E+01  0.33143296061E+01  0.00000000000E+00 0. -1.
</event>
<event>
 5    1  0.6564536E+001  0.1580298E+01  0.7818608E-02  0.3375029E+00
         11   -1    0    0    0    0  0.00000000000E+00  0.00000000000E+00  0.39999999674E+01  0.40000000000E+01  0.51100000000E-03 0. -1.
    9000002   -1    0    0    0    0 -0.00000000000E+00 -0.00000000000E+00  0.00000000000E+00  0.93800000000E+00  0.93800000000E+00 0. -1.
         11    1    1    2    0    0  0.76285883408E-01 -0.83772231726E-01  0.19162406480E+00  0.22261483811E+00  0.51100000000E-03 0. -1.
    9000002    1    1    2    0    0 -0.12857919464E-01  0.92119119333E+00  0.68785066136E+00  0.14838264970E+01  0.93800000000E+00 0. -1.
         22    1    1    2    0    0 -0.63427963944E-01 -0.83741896161E+00  0.31205252412E+01  0.32315586649E+01  0.00000000000E+00 0. -1.
</event>
<event>
 5    1  0.6564536E+001  0.1599676E+01  0.7818608E-02  0.3353715E+00
         11   -1    0    0    0    0  0.00000000000E+00  0.00000000000E+00  0.39999999674E+01  0.40000000000E+01  0.51100000000E-03 0.  1.
    9000002   -1    0    0    0    0 -0.00000000000E+00 -0.00000000000E+00  0.00000000000E+00  0.93800000000E+00  0.93800000000E+00 0. -1.
         11    1    1    2    0    0  0.11193991773E+00 -0.12144372365E+00  0.12589826368E+01  0.12697703195E+01  0.51100000000E-03 0.  1.
    9000002    1    1    2    0    0 -0.34132752855E+00  0.36691855708E+00  0.17194834984E+00  0.10772854516E+01  0.93800000000E+00 0. -1.
         22    1    1    2    0    0  0.22938761082E+00 -0.24547483343E+00  0.25690689807E+01  0.25909442289E+01  0.00000000000E+00 0.  1.
</event>
<event>
 5    1  0.6564536E+001  0.1599677E+01  0.7818608E-02  0.3353715E+00
         11   -1    0    0    0    0  0.00000000000E+00  0.00000000000E+00  0.39999999674E+01  0.40000000000E+01  0.51100000000E-03 0. -1.
    9000002   -1    0    0    0    0 -0.00000000000E+00 -0.00000000000E+00  0.00000000000E+00  0.93800000000E+00  0.93800000000E+00 0. -1.
         11    1    1    2    0    0  0.39736594924E-01  0.12981847385E+00  0.13823694649E+01  0.13890203136E+01  0.51100000000E-03 0. -1.
    9000002    1    1    2    0    0 -0.11129058969E+00 -0.36436914258E+00  0.97675149522E-01  0.10171208887E+01  0.93800000000E+00 0. -1.
         22    1    1    2    0    0  0.71553994765E-01  0.23455066873E+00  0.25199553530E+01  0.25318587977E+01  0.00000000000E+00 0. -1.
</event>
<event>
 5    1  0.6564536E+001  0.1531265E+01  0.7818608E-02  0.3431521E+00
         11   -1    0    0    0    0  0.00000000000E+00  0.00000000000E+00  0.39999999674E+01  0.40000000000E+01  0.51100000000E-03 0.  1.
    9000002   -1    0    0    0    0 -0.00000000000E+00 -0.00000000000E+00  0.00000000000E+00  0.93800000000E+00  0.93800000000E+00 0. -1.
         11    1    1    2    0    0 -0.98562811035E-01  0.28166424878E+00  0.11270155314E+01  0.11658531836E+01  0.51100000000E-03 0.  1.
    9000002    1    1    2    0    0 -0.63670877704E-01 -0.74193505206E-01  0.57994165283E-01  0.94486294249E+00  0.93800000000E+00 0. -1.
         22    1    1    2    0    0  0.16223368874E+00 -0.20747074358E+00  0.28149902707E+01  0.28272838739E+01  0.00000000000E+00 0.  1.
</event>
<event>
 5    1  0.6564536E+001  0.1599659E+01  0.7818608E-02  0.3353733E+00
         11   -1    0    0    0    0  0.00000000000E+00  0.00000000000E+00  0.39999999674E+01  0.40000000000E+01  0.51100000000E-03 0.  1.
    9000002   -1    0    0    0    0 -0.00000000000E+00 -0.00000000000E+00  0.00000000000E+00  0.93800000000E+00  0.93800000000E+00 0.  1.
         11    1    1    2    0    0 -0.74989481875E-01 -0.37684835200E-01  0.90365201867E+00  0.90754107409E+00  0.51100000000E-03 0.  1.
    9000002    1    1    2    0    0  0.32519964992E+00  0.14488614557E+00  0.85056175820E-01  0.10068889514E+01  0.93800000000E+00 0.  1.
         22    1    1    2    0    0 -0.25021016805E+00 -0.10720131037E+00  0.30112917729E+01  0.30235699745E+01  0.00000000000E+00 0.  1.
</event>
<event>
 5    1  0.6564536E+001  0.1585729E+01  0.7818608E-02  0.3369000E+00
         11   -1    0    0    0    0  0.00000000000E+00  0.00000000000E+00  0.39999999674E+01  0.40000000000E+01  0.51100000000E-03 0.  1.
    9000002   -1    0    0    0    0 -0.00000000000E+00 -0.00000000000E+00  0.00000000000E+00  0.93800000000E+00  0.93800000000E+00 0. -1.
         11    1    1    2    0    0 -0.10598342820E+00 -0.29584076664E-04  0.34295208465E+00  0.35895526381E+00  0.51100000000E-03 0.  1.
    9000002    1    1    2    0    0  0.30884915457E+00 -0.24993833052E+00  0.11811671046E+00  0.10255011100E+01  0.93800000000E+00 0. -1.
         22    1    1    2    0    0 -0.20286572637E+00  0.24996791460E+00  0.35389311722E+01  0.35535436262E+01  0.00000000000E+00 0.  1.
</event>
<event>
 5    1  0.6564536E+001  0.1597393E+01  0.7818608E-02  0.3356198E+00
         11   -1    0    0    0    0  0.00000000000E+00  0.00000000000E+00  0.39999999674E+01  0.40000000000E+01  0.51100000000E-03 0.  1.
    9000002   -1    0    0    0    0 -0.00000000000E+00 -0.00000000000E+00  0.00000000000E+00  0.93800000000E+00  0.93800000000E+00 0.  1.
         11    1    1    2    0    0 -0.70959965914E-02 -0.80354132128E-02  0.76169268783E-01  0.76921646246E-01  0.51100000000E-03 0.  1.
    9000002    1    1    2    0    0 -0.44286875003E+00  0.29554171004E+00  0.19728222209E+00  0.10964679235E+01  0.93800000000E+00 0.  1.
         22    1    1    2    0    0  0.44996474662E+00 -0.28750629683E+00  0.37265484765E+01  0.37646104302E+01  0.00000000000E+00 0.  1.
</event>
<event>
 5    1  0.6564536E+001  0.1543538E+01  0.7818608E-02  0.3417021E+00
         11   -1    0    0    0    0  0.00000000000E+00  0.00000000000E+00  0.39999999674E+01  0.40000000000E+01  0.51100000000E-03 0. -1.
    9000002   -1    0    0    0    0 -0.00000000000E+00 -0.00000000000E+00  0.00000000000E+00  0.93800000000E+00  0.93800000000E+00 0. -1.
         11    1    1    2    0    0 -0.14903583061E+00  0.31990742522E-01  0.11578465229E+01  0.11678372824E+01  0.51100000000E-03 0. -1.
    9000002    1    1    2    0    0 -0.14358519921E+00  0.47923133106E+00  0.22380757470E+00  0.10863761819E+01  0.93800000000E+00 0. -1.
         22    1    1    2    0    0  0.29262102981E+00 -0.51122207358E+00  0.26183458697E+01  0.26837865357E+01  0.00000000000E+00 0. -1.
</event>
<event>
 5    1  0.6564536E+001  0.1599669E+01  0.7818608E-02  0.3353723E+00
         11   -1    0    0    0    0  0.00000000000E+00  0.00000000000E+00  0.39999999674E+01  0.40000000000E+01  0.51100000000E-03 0. -1.
    9000002   -1    0    0    0    0 -0.00000000000E+00 -0.00000000000E+00  0.00000000000E+00  0.93800000000E+00  0.93800000000E+00 0. -1.
         11    1    1    2    0    0  0.22218757859E-01 -0.71958180628E-02  0.23435174368E+00  0.23551317136E+00  0.51100000000E-03 0. -1.
    9000002    1    1    2    0    0 -0.34448996640E+00  0.12244716413E+00  0.89789792050E-01  0.10107288715E+01  0.93800000000E+00 0. -1.
         22    1    1    2    0    0  0.32227120854E+00 -0.11525134606E+00  0.36758584316E+01  0.36917579571E+01  0.00000000000E+00 0. -1.
</event>
<event>
 5    1  0.6564536E+001  0.1599676E+01  0.7818608E-02  0.3353715E+00
         11   -1    0    0    0    0  0.00000000000E+00  0.00000000000E+00  0.39999999674E+01  0.40000000000E+01  0.51100000000E-03 0.  1.
    9000002   -1    0    0    0    0 -0.00000000000E+00 -0.00000000000E+00  0.00000000000E+00  0.93800000000E+00  0.93800000000E+00 0. -1.
         11    1    1    2    0    0 -0.40268352397E-01  0.14822206958E-03  0.35812580328E+00  0.36038301052E+00  0.51100000000E-03 0.  1.
    9000002    1    1    2    0    0  0.43962191154E+00  0.34890293185E-02  0.13107573790E+00  0.10441764446E+01  0.93800000000E+00 0. -1.
         22    1    1    2    0    0 -0.39935355914E+00 -0.36372513881E-02  0.35107984262E+01  0.35334405449E+01  0.00000000000E+00 0.  1.
</event>
<event>
 5    1  0.6564536E+001  0.1599673E+01  0.7818608E-02  0.3353718E+00
         11   -1    0    0    0    0  0.00000000000E+00  0.00000000000E+00  0.39999999674E+01  0.40000000000E+01  0.51100000000E-03 0. -1.
    9000002   -1    0    0    0    0 -0.00000000000E+00 -0.00000000000E+00  0.00000000000E+00  0.93800000000E+00  0.93800000000E+00 0. -1.
         11    1    1    2    0    0  0.38220673325E-01 -0.64374213301E-02  0.40021803690E+00  0.40209078383E+00  0.51100000000E-03 0. -1.
    9000002    1    1    2    0    0 -0.38495134931E+00  0.66803867235E-01  0.10284772677E+00  0.10213089410E+01  0.93800000000E+00 0. -1.
         22    1    1    2    0    0  0.34673067599E+00 -0.60366445905E-01  0.34969342037E+01  0.35146002752E+01  0.00000000000E+00 0. -1.
</event>
<event>
 5    1  0.6564536E+001  0.1599327E+01  0.7818608E-02  0.3354094E+00
         11   -1    0    0    0    0  0.00000000000E+00  0.00000000000E+00  0.39999999674E+01  0.40000000000E+01  0.51100000000E-03 0.  1.
    9000002   -1    0    0    0    0 -0.00000000000E+00 -0.00000000000E+00  0.00000000000E+00  0.93800000000E+00  0.93800000000E+00 0.  1.
         11    1    1    2    0    0 -0.12362695064E+00 -0.42038014006E-01  0.87964938654E+00  0.88928854817E+00  0.51100000000E-03 0.  1.
    9000002    1    1    2    0    0  0.45677823626E+00  0.17201171350E+00  0.16307593705E+00  0.10698935218E+01  0.93800000000E+00 0.  1.
         22    1    1    2    0    0 -0.33315128562E+00 -0.12997369949E+00  0.29572746438E+01  0.29788179301E+01  0.00000000000E+00 0.  1.
</event>
<event>
 5    1  0.6564536E+001  0.1599676E+01  0.7818608E-02  0.3353716E+00
         11   -1    0    0    0    0  0.00000000000E+00  0.00000000000E+00  0.39999999674E+01  0.40000000000E+01  0.51100000000E-03 0.  1.
    9000002   -1    0    0    0    0 -0.00000000000E+00 -0.00000000000E+00  0.00000000000E+00  0.93800000000E+00  0.93800000000E+00 0. -1.
         11    1    1    2    0    0 -0.93508143610E-01  0.24673604203E-02  0.92332622450E+00  0.92805249784E+00  0.51100000000E-03 0.  1.
    9000002    1    1    2    0    0  0.39935955144E+00 -0.10745698798E-01  0.10765016404E+00  0.10252005068E+01  0.93800000000E+00 0. -1.
         22    1    1    2    0    0 -0.30585140783E+00  0.82783383782E-02  0.29690235788E+01  0.29847469953E+01  0.00000000000E+00 0.  1.
</event>
<event>
 5    1  0.6564536E+001  0.1452799E+01  0.7818608E-02  0.3530461E+00
         11   -1    0    0    0    0  0.00000000000E+00  0.00000000000E+00  0.39999999674E+01  0.40000000000E+01  0.51100000000E-03 0.  1.
    9000002   -1    0    0    0    0 -0.00000000000E+00 -0.00000000000E+00  0.00000000000E+00  0.93800000000E+00  0.93800000000E+00 0. -1.
         11    1    1    2    0    0 -0.92295209250E-01 -0.16640249854E+00  0.13765980930E+00  0.23485885418E+00  0.51100000000E-03 0.  1.
    9000002    1    1    2    0    0 -0.30321091630E+00  0.11318186791E-01  0.18712758017E+00  0.10034568712E+01  0.93800000000E+00 0. -1.
         22    1    1    2    0    0  0.39550612555E+00  0.15508431174E+00  0.36752125779E+01  0.36996842746E+01  0.00000000000E+00 0.  1.
</event>
<event>
 5    1  0.6564536E+001  0.1599649E+01  0.7818608E-02  0.3353744E+00
         11   -1    0    0    0    0  0.00000000000E+00  0.00000000000E+00  0.39999999674E+01  0.40000000000E+01  0.51100000000E-03 0. -1.
    9000002   -1    0    0    0    0 -0.00000000000E+00 -0.00000000000E+00  0.00000000000E+00  0.93800000000E+00  0.93800000000E+00 0.  1.
         11    1    1    2    0    0 -0.14298461211E-01 -0.53705429403E-01  0.55213575844E+00  0.55492600949E+00  0.51100000000E-03 0. -1.
    9000002    1    1    2    0    0  0.97147493676E-01  0.34955744948E+00  0.88407641514E-01  0.10095979185E+01  0.93800000000E+00 0.  1.
         22    1    1    2    0    0 -0.82849032465E-01 -0.29585202007E+00  0.33594565674E+01  0.33734760720E+01  0.00000000000E+00 0. -1.
</event>
<event>
 5    1  0.6564536E+001  0.1599668E+01  0.7818608E-02  0.3353724E+00
         11   -1    0    0    0    0  0.00000000000E+00  0.00000000000E+00  0.39999999674E+01  0.40000000000E+01  0.51100000000E-03 0. -1.
    9000002   -1    0    0    0    0 -0.00000000000E+00 -0.00000000000E+00  0.00000000000E+00  0.93800000000E+00  0.93800000000E+00 0.  1.
         11    1    1    2    0    0  0.15369808931E+00 -0.10986689063E+00  0.13857245687E+01  0.13985444854E+01  0.51100000000E-03 0. -1.
    9000002    1    1    2    0    0 -0.42135139804E+00  0.29338337866E+00  0.18087899163E+00  0.10845146459E+01  0.93800000000E+00 0.  1.
         22    1    1    2    0    0  0.26765330873E+00 -0.18351648803E+00  0.24333964070E+01  0.24549408687E+01  0.00000000000E+00 0. -1.
</event>
<event>
 5    1  0.6564536E+001  0.1520271E+01  0.7818608E-02  0.3444720E+00
         11   -1    0    0    0    0  0.00000000000E+00  0.00000000000E+00  0.39999999674E+01  0.40000000000E+01  0.51100000000E-03 0. -1.
    9000002   -1    0    0    0    0 -0.00000000000E+00 -0.00000000000E+00  0.00000000000E+00  0.93800000000E+00  0.93800000000E+00 0.  1.
         11    1    1    2    0    0 -0.92771940495E-01 -0.61883172026E-01  0.92498513073E-01  0.14488752867E+00  0.51100000000E-03 0. -1.
    9000002    1    1    2    0    0  0.11179170470E+00 -0.48641934936E+00  0.24585335880E+00  0.10905911437E+01  0.93800000000E+00 0.  1.
         22    1    1    2    0    0 -0.19019764208E-01  0.54830252139E+00  0.36616480955E+01  0.37025213276E+01  0.00000000000E+00 0. -1.
</event>
<event>
 5    1  0.6564536E+001  0.1539017E+01  0.7818608E-02  0.3422333E+00
         11   -1    0    0    0    0  0.00000000000E+00  0.00000000000E+00  0.39999999674E+01  0.40000000000E+01  0.51100000000E-03 0. -1.
    9000002   -1    0    0    0    0 -0.00000000000E+00 -0.00000000000E+00  0.00000000000E+00  0.93800000000E+00  0.93800000000E+00 0.  1.
         11    1    1    2    0    0  0.23125300472E+00 -0.49552685770E-01  0.11086636728E+01  0.11336087603E+01  0.51100000000E-03 0. -1.
    9000002    1    1    2    0    0  0.10392607462E+00 -0.27237020993E-01  0.53339216338E-01  0.94563817409E+00  0.93800000000E+00 0.  1.
         22    1    1    2    0    0 -0.33517907934E+00  0.76789706763E-01  0.28379970782E+01  0.28587530656E+01  0.00000000000E+00 0. -1.
</event>
<event>
 5    1  0.6564536E+001  0.1599677E+01  0.7818608E-02  0.3353714E+00
         11   -1    0    0    0    0  0.00000000000E+00  0.00000000000E+00  0.39999999674E+01  0.40000000000E+01  0.51100000000E-03 0. -1.
    9000002   -1    0    0    0    0 -0.00000000000E+00 -0.00000000000E+00  0.00000000000E+00  0.93800000000E+00  0.93800000000E+00 0.  1.
         11    1    1    2    0    0 -0.84638903649E-01  0.32636685910E-01  0.73755578449E+00  0.74311351329E+00  0.51100000000E-03 0. -1.
    9000002    1    1    2    0    0  0.44025261838E+00 -0.17181887945E+00  0.15221378626E+00  0.10612997371E+01  0.93800000000E+00 0.  1.
         22    1    1    2    0    0 -0.35561371473E+00  0.13918219354E+00  0.31102303966E+01  0.31335867496E+01  0.00000000000E+00 0. -1.
</event>
<event>
 5    1  0.6564536E+001  0.1582480E+01  0.7818608E-02  0.3372601E+00
         11   -1    0    0    0    0  0.00000000000E+00  0.00000000000E+00  0.39999999674E+01  0.40000000000E+01  0.51100000000E-03 0. -1.
    9000002   -1    0    0    0    0 -0.00000000000E+00 -0.00000000000E+00  0.00000000000E+00  0.93800000000E+00  0.93800000000E+00 0.  1.
         11    1    1    2    0    0 -0.11876991089E-01 -0.23549369920E+00  0.12038795433E+01  0.12267536676E+01  0.51100000000E-03 0. -1.
    9000002    1    1    2    0    0 -0.36447082718E+00  0.51006801225E+00  0.29367007690E+00  0.11658020737E+01  0.93800000000E+00 0.  1.
         22    1    1    2    0    0  0.37634781827E+00 -0.27457431304E+00  0.25024503472E+01  0.25454442587E+01  0.00000000000E+00 0. -1.
</event>
<event>
 5    1  0.6564536E+001  0.1599664E+01  0.7818608E-02  0.3353728E+00
         11   -1    0    0    0    0  0.00000000000E+00  0.00000000000E+00  0.39999999674E+01  0.40000000000E+01  0.51100000000E-03 0.  1.
    9000002   -1    0    0    0    0 -0.00000000000E+00 -0.00000000000E+00  0.00000000000E+00  0.93800000000E+00  0.93800000000E+00 0.  1.
         11    1    1    2    0    0 -0.73886625420E-01  0.11031453015E+00  0.13732681450E+01  0.13796717683E+01  0.51100000000E-03 0.  1.
    9000002    1    1    2    0    0  0.21892425499E+00 -0.32062511228E+00  0.10152920258E+00  0.10202354978E+01  0.93800000000E+00 0.  1.
         22    1    1    2    0    0 -0.14503762957E+00  0.21031058213E+00  0.25252026198E+01  0.25380927339E+01  0.00000000000E+00 0. -1.
</event>
<event>
 5    1  0.6564536E+001  0.1599677E+01  0.7818608E-02  0.3353714E+00
         11   -1    0    0    0    0  0.00000000000E+00  0.00000000000E+00  0.39999999674E+01  0.40000000000E+01  0.51100000000E-03 0.  1.
    9000002   -1    0    0    0    0 -0.00000000000E+00 -0.00000000000E+00  0.00000000000E+00  0.93800000000E+00  0.93800000000E+00 0. -1.
         11    1    1    2    0    0 -0.21874973428E+00 -0.14906719282E+00  0.12610588550E+01  0.12885426540E+01  0.51100000000E-03 0. -1.
    9000002    1    1    2    0    0  0.62242472684E+00  0.42438696663E+00  0.41182734526E+00  0.12715984430E+01  0.93800000000E+00 0. -1.
         22    1    1    2    0    0 -0.40367499256E+00 -0.27531977381E+00  0.23271137671E+01  0.23778589030E+01  0.00000000000E+00 0.  1.
</event>
<event>
 5    1  0.6564536E+001  0.1599677E+01  0.7818608E-02  0.3353714E+00
         11   -1    0    0    0    0  0.00000000000E+00  0.00000000000E+00  0.39999999674E+01  0.40000000000E+01  0.51100000000E-03 0.  1.
    9000002   -1    0    0    0    0 -0.00000000000E+00 -0.00000000000E+00  0.00000000000E+00  0.93800000000E+00  0.93800000000E+00 0. -1.
         11    1    1    2    0    0  0.79263587305E-01  0.44228836111E-01  0.74897649840E+00  0.75445673334E+00  0.51100000000E-03 0.  1.
    9000002    1    1    2    0    0 -0.40758556310E+00 -0.22951090156E+00  0.14900574013E+00  0.10587010701E+01  0.93800000000E+00 0. -1.
         22    1    1    2    0    0  0.32832197579E+00  0.18528206545E+00  0.31020177288E+01  0.31248421966E+01  0.00000000000E+00 0.  1.
</event>
<event>
 5    1  0.6564536E+001  0.1599645E+01  0.7818608E-02  0.3353748E+00
         11   -1    0    0    0    0  0.00000000000E+00  0.00000000000E+00  0.39999999674E+01  0.40000000000E+01  0.51100000000E-03 0.  1.
    9000002   -1    0    0    0    0 -0.00000000000E+00 -0.00000000000E+00  0.00000000000E+00  0.93800000000E+00  0.93800000000E+00 0.  1.
         11    1    1    2    0    0 -0.52739264937E-01 -0.38535273854E-01  0.60803028707E+00  0.61152881250E+00  0.51100000000E-03 0.  1.
    9000002    1    1    2    0    0  0.34807597505E+00  0.27385104575E+00  0.13311179057E+00  0.10458078353E+01  0.93800000000E+00 0.  1.
         22    1    1    2    0    0 -0.29533671011E+00 -0.23531577190E+00  0.32588578897E+01  0.32806633522E+01  0.00000000000E+00 0.  1.
</event>
<event>
 5    1  0.6564536E+001  0.1599548E+01  0.7818608E-02  0.3353854E+00
         11   -1    0    0    0    0  0.00000000000E+00  0.00000000000E+00  0.39999999674E+01  0.40000000000E+01  0.51100000000E-03 0. -1.
    9000002   -1    0    0    0    0 -0.00000000000E+00 -0.00000000000E+00  0.00000000000E+00  0.93800000000E+00  0.93800000000E+00 0.  1.
         11    1    1    2    0    0  0.31316096343E-02 -0.47244779867E-01  0.41804047780E+00  0.42071365369E+00  0.51100000000E-03 0. -1.
    9000002    1    1    2    0    0  0.45759329792E-01  0.45902915140E+00  0.14488841173E+00  0.10552906377E+01  0.93800000000E+00 0.  1.
         22    1    1    2    0    0 -0.48890939426E-01 -0.41178437153E+00  0.34370710778E+01  0.34619957086E+01  0.00000000000E+00 0. -1.
</event>
<event>
 5    1  0.6564536E+001  0.1597366E+01  0.7818608E-02  0.3356228E+00
         11   -1    0    0    0    0  0.00000000000E+00  0.00000000000E+00  0.39999999674E+01  0.40000000000E+01  0.51100000000E-03 0. -1.
    9000002   -1    0    0    0    0 -0.00000000000E+00 -0.00000000000E+00  0.00000000000E+00  0.93800000000E+00  0.93800000000E+00 0.  1.
         11    1    1    2    0    0  0.79967847048E-01 -0.19107108396E+00  0.13593468074E+01  0.13750370975E+01  0.51100000000E-03 0. -1.
    9000002    1    1    2    0    0 -0.22110661357E+00  0.38525614756E+00  0.13588604399E+00  0.10467184200E+01  0.93800000000E+00 0.  1.
         22    1    1    2    0    0  0.14113876652E+00 -0.19418506360E+00  0.25047671160E+01  0.25162444825E+01  0.00000000000E+00 0.  1.
</event>
<event>
 5    1  0.6564536E+001  0.1598638E+01  0.7818608E-02  0.3354843E+00
         11   -1    0    0    0    0  0.00000000000E+00  0.00000000000E+00  0.39999999674E+01  0.40000000000E+01  0.51100000000E-03 0. -1.
    9000002   -1    0    0    0    0 -0.00000000000E+00 -0.00000000000E+00  0.00000000000E+00  0.93800000000E+00  0.93800000000E+00 0. -1.
         11    1    1    2    0    0 -0.75626574126E-01 -0.49612844275E-01  0.13893883353E+01  0.13923293505E+01  0.51100000000E-03 0. -1.
    9000002    1    1    2    0    0  0.27068658509E+00  0.22754994596E+00  0.84720353026E-01  0.10060177650E+01  0.93800000000E+00 0. -1.
         22    1    1    2    0    0 -0.19506001096E+00 -0.17793710169E+00  0.25258912790E+01  0.25396528845E+01  0.00000000000E+00 0. -1.
</event>
<event>
 5    1  0.7674659E+001  0.1599665E+01  0.7818608E-02  0.3353727E+00
         11   -1    0    0    0    0  0.00000000000E+00  0.00000000000E+00  0.39999999674E+01  0.40000000000E+01  0.51100000000E-03 0. -1.
    9000002   -1    0    0    0    0 -0.00000000000E+00 -0.00000000000E+00  0.00000000000E+00  0.93800000000E+00  0.93800000000E+00 0.  1.
         11    1    1    2    0    0  0.77062228568E-01 -0.15499066396E+00  0.14789237391E+01  0.14890185964E+01  0.51100000000E-03 0. -1.
    9000002    1    1    2    0    0 -0.20567063488E+00  0.41342096238E+00  0.14507939796E+00  0.10555137772E+01  0.93800000000E+00 0.  1.
         22    1    1    2    0    0  0.12860840631E+00 -0.25843029842E+00  0.23759968303E+01  0.23934676264E+01  0.00000000000E+00 0. -1.
</event>
<event>
 5    1  0.6564536E+001  0.1599287E+01  0.7818608E-02  0.3354138E+00
         11   -1    0    0    0    0  0.00000000000E+00  0.00000000000E+00  0.39999999674E+01  0.40000000000E+01  0.51100000000E-03 0.  1.
    9000002   -1    0    0    0    0 -0.00000000000E+00 -0.00000000000E+00  0.00000000000E+00  0.93800000000E+00  0.93800000000E+00 0.  1.
         11    1    1    2    0    0 -0.29499547246E-01 -0.24392867212E-01  0.40032255547E+00  0.40214878440E+00  0.51100000000E-03 0.  1.
    9000002    1    1    2    0    0  0.28553015193E+00  0.37440517640E+00  0.15139941648E+00  0.10604114707E+01  0.93800000000E+00 0.  1.
         22    1    1    2    0    0 -0.25603060468E+00 -0.35001230919E+00  0.34482779954E+01  0.34754397449E+01  0.00000000000E+00 0.  1.
</event>
<event>
 5    1  0.6564536E+001  0.1599360E+01  0.7818608E-02  0.3354058E+00
         11   -1    0    0    0    0  0.00000000000E+00  0.00000000000E+00  0.39999999674E+01  0.40000000000E+01  0.51100000000E-03 0. -1.
    9000002   -1    0    0    0    0 -0.00000000000E+00 -0.00000000000E+00  0.00000000000E+00  0.93800000000E+00  0.93800000000E+00 0.  1.
         11    1    1    2    0    0  0.30126800214E-01 -0.64316664622E-01  0.89188052243E+00  0.89470407669E+00  0.51100000000E-03 0. -1.
    9000002    1    1    2    0    0 -0.14650193250E+00  0.35871128903E+00  0.10137183682E+00  0.10199298282E+01  0.93800000000E+00 0.  1.
         22    1    1    2    0    0  0.11637513229E+00 -0.29439462440E+00  0.30067476081E+01  0.30233660951E+01  0.00000000000E+00 0. -1.
</event>
<event>
 5    1  0.6564536E+001  0.1599677E+01  0.7818608E-02  0.3353714E+00
         11   -1    0    0    0    0  0.00000000000E+00  0.00000000000E+00  0.39999999674E+01  0.40000000000E+01  0.51100000000E-03 0.  1.
    9000002   -1    0    0    0    0 -0.00000000000E+00 -0.00000000000E+00  0.00000000000E+00  0.93800000000E+00  0.93800000000E+00 0.  1.
         11    1    1    2    0    0 -0.61580404177E-01  0.22614874896E+00  0.11749179898E+01  0.11980684232E+01  0.51100000000E-03 0.  1.
    9000002    1    1    2    0    0  0.19139714348E+00 -0.69667872757E+00  0.37537971506E+00  0.12420740906E+01  0.93800000000E+00 0.  1.
         22    1    1    2    0    0 -0.12981673930E+00  0.47052997861E+00  0.24497022625E+01  0.24978574862E+01  0.00000000000E+00 0.  1.
</event>
<event>
 5    1  0.6564536E+001  0.1599677E+01  0.7818608E-02  0.3353714E+00
         11   -1    0    0    0    0  0.00000000000E+00  0.00000000000E+00  0.39999999674E+01  0.40000000000E+01  0.51100000000E-03 0.  1.
    9000002   -1    0    0    0    0 -0.00000000000E+00 -0.00000000000E+00  0.00000000000E+00  0.93800000000E+00  0.93800000000E+00 0.  1.
         11    1    1    2    0    0 -0.74247446259E-01 -0.66996831182E-01  0.86900303920E+00  0.87473870495E+00  0.51100000000E-03 0. -1.
    9000002    1    1    2    0    0  0.33062669915E+00  0.29752581427E+00  0.13426437635E+00  0.10467600236E+01  0.93800000000E+00 0.  1.
         22    1    1    2    0    0 -0.25637925289E+00 -0.23052898309E+00  0.29967325518E+01  0.30165012714E+01  0.00000000000E+00 0.  1.
</event>
<event>
 5    1  0.6564536E+001  0.1596324E+01  0.7818608E-02  0.3357362E+00
         11   -1    0    0    0    0  0.00000000000E+00  0.00000000000E+00  0.39999999674E+01  0.40000000000E+01  0.51100000000E-03 0.  1.
    9000002   -1    0    0    0    0 -0.00000000000E+00 -0.00000000000E+00  0.00000000000E+00  0.93800000000E+00  0.93800000000E+00 0.  1.
         11    1    1    2    0    0 -0.11009702679E+00 -0.48036000672E-01  0.58293631231E+00  0.59518385227E+00  0.51100000000E-03 0.  1.
    9000002    1    1    2    0    0  0.43233624340E+00  0.16148126934E+00  0.14783771149E+00  0.10557891914E+01  0.93800000000E+00 0.  1.
         22    1    1    2    0    0 -0.32223921661E+00 -0.11344526867E+00  0.32692259436E+01  0.32870269563E+01  0.00000000000E+00 0.  1.
</event>
<event>
 5    1  0.6564536E+001  0.1599677E+01  0.7818608E-02  0.3353714E+00
         11   -1    0    0    0    0  0.00000000000E+00  0.00000000000E+00  0.39999999674E+01  0.40000000000E+01  0.51100000000E-03 0.  1.
    9000002   -1    0    0    0    0 -0.00000000000E+00 -0.00000000000E+00  0.00000000000E+00  0.93800000000E+00  0.93800000000E+00 0.  1.
         11    1    1    2    0    0  0.53496810824E-01 -0.36720092771E-01  0.64140728805E+00  0.64468119584E+00  0.51100000000E-03 0.  1.
    9000002    1    1    2    0    0 -0.32307954212E+00  0.22336084894E+00  0.10396325667E+00  0.10222146634E+01  0.93800000000E+00 0.  1.
         22    1    1    2    0    0  0.26958273130E+00 -0.18664075617E+00  0.32546294226E+01  0.32711041407E+01  0.00000000000E+00 0.  1.
</event>
<event>
 5    1  0.6564536E+001  0.1359493E+01  0.7818608E-02  0.3674086E+00
         11   -1    0    0    0    0  0.00000000000E+00  0.00000000000E+00  0.39999999674E+01  0.40000000000E+01  0.51100000000E-03 0. -1.
    9000002   -1    0    0    0    0 -0.00000000000E+00 -0.00000000000E+00  0.00000000000E+00  0.93800000000E+00  0.93800000000E+00 0.  1.
         11    1    1    2    0    0  0.51980930586E+00  0.26092898681E+00  0.13512694619E+01  0.14711271428E+01  0.51100000000E-03 0. -1.
    9000002    1    1    2    0    0 -0.23190304711E+00  0.29577611638E+00  0.32708327925E+00  0.10621158156E+01  0.93800000000E+00 0.  1.
         22    1    1    2    0    0 -0.28790625876E+00 -0.55670510318E+00  0.23216472262E+01  0.24047570415E+01  0.00000000000E+00 0. -1.
</event>
<event>
 5    1  0.6564536E+001  0.1599597E+01  0.7818608E-02  0.3353801E+00
         11   -1    0    0    0    0  0.00000000000E+00  0.00000000000E+00  0.39999999674E+01  0.40000000000E+01  0.51100000000E-03 0.  1.
    9000002   -1    0    0    0    0 -0.00000000000E+00 -0.00000000000E+00  0.00000000000E+00  0.93800000000E+00  0.93800000000E+00 0.  1.
         11    1    1    2    0    0 -0.11573268214E+00  0.38359709128E-01  0.10641456284E+01  0.10711076979E+01  0.51100000000E-03 0.  1.
    9000002    1    1    2    0    0  0.45059269163E+00 -0.15226579392E+00  0.15431688255E+00  0.10629564177E+01  0.93800000000E+00 0.  1.
         22    1    1    2    0    0 -0.33486000949E+00  0.11390608480E+00  0.27815374564E+01  0.28039358843E+01  0.00000000000E+00 0. -1.
</event>
<event>
 5    1  0.6564536E+001  0.1599676E+01  0.7818608E-02  0.3353715E+00
         11   -1    0    0    0    0  0.00000000000E+00  0.00000000000E+00  0.39999999674E+01  0.40000000000E+01  0.51100000000E-03 0. -1.
    9000002   -1    0    0    0    0 -0.00000000000E+00 -0.00000000000E+00  0.00000000000E+00  0.93800000000E+00  0.93800000000E+00 0.  1.
         11    1    1    2    0    0  0.40979292209E-02 -0.88265207954E-01  0.79692246340E+00  0.80180621958E+00  0.51100000000E-03 0. -1.
    9000002    1    1    2    0    0 -0.19186449149E-01  0.43232412245E+00  0.12687711019E+00  0.10407757048E+01  0.93800000000E+00 0.  1.
         22    1    1    2    0    0  0.15088519928E-01 -0.34405891450E+00  0.30762003938E+01  0.30954180756E+01  0.00000000000E+00 0. -1.
</event>
<event>
 5    1  0.6564536E+001  0.1599677E+01  0.7818608E-02  0.3353714E+00
         11   -1    0    0    0    0  0.00000000000E+00  0.00000000000E+00  0.39999999674E+01  0.40000000000E+01  0.51100000000E-03 0. -1.
    9000002   -1    0    0    0    0 -0.00000000000E+00 -0.00000000000E+00  0.00000000000E+00  0.93800000000E+00  0.93800000000E+00 0.  1.
         11    1    1    2    0    0  0.42250731629E-01  0.70235802770E-01  0.75848832845E+00  0.76290431761E+00  0.51100000000E-03 0. -1.
    9000002    1    1    2    0    0 -0.21542014209E+00 -0.36009699738E+00  0.11907464802E+00  0.10344556331E+01  0.93800000000E+00 0.  1.
         22    1    1    2    0    0  0.17316941046E+00  0.28986119461E+00  0.31224369909E+01  0.31406400493E+01  0.00000000000E+00 0.  1.
</event>
<event>
 5    1  0.6564536E+001  0.1599673E+01  0.7818608E-02  0.3353718E+00
         11   -1    0    0    0    0  0.00000000000E+00  0.00000000000E+00  0.39999999674E+01  0.40000000000E+01  0.51100000000E-03 0. -1.
    9000002   -1    0    0    0    0 -0.00000000000E+00 -0.00000000000E+00  0.00000000000E+00  0.93800000000E+00  0.93800000000E+00 0. -1.
         11    1    1    2    0    0 -0.54786056877E-01  0.93589133088E-01  0.10779699118E+01  0.10834112006E+01  0.51100000000E-03 0. -1.
    9000002    1    1    2    0    0  0.19068015951E+00 -0.33882239639E+00  0.10181897674E+00  0.10204756947E+01  0.93800000000E+00 0. -1.
         22    1    1    2    0    0 -0.13589410263E+00  0.24523326330E+00  0.28202110789E+01  0.28341131046E+01  0.00000000000E+00 0. -1.
</event>
<event>
 5    1  0.6564536E+001  0.1595132E+01  0.7818608E-02  0.3358664E+00
         11   -1    0    0    0    0  0.00000000000E+00  0.00000000000E+00  0.39999999674E+01  0.40000000000E+01  0.51100000000E-03 0.  1.
    9000002   -1    0    0    0    0 -0.00000000000E+00 -0.00000000000E+00  0.00000000000E+00  0.93800000000E+00  0.93800000000E+00 0.  1.
         11    1    1    2    0    0 -0.20100905071E-01 -0.42341860907E-01  0.41904291190E+00  0.42165637990E+00  0.51100000000E-03 0.  1.
    9000002    1    1    2    0    0  0.38801062029E+00 -0.28168251374E-01  0.10570706256E+00  0.10209621320E+01  0.93800000000E+00 0.  1.
         22    1    1    2    0    0 -0.36790971522E+00  0.70510112281E-01  0.34752499929E+01  0.34953814881E+01  0.00000000000E+00 0.  1.
</event>
<event>
 5    1  0.6564536E+001  0.1599667E+01  0.7818608E-02  0.3353725E+00
         11   -1    0    0    0    0  0.00000000000E+00  0.00000000000E+00  0.39999999674E+01  0.40000000000E+01  0.51100000000E-03 0.  1.
    9000002   -1    0    0    0    0 -0.00000000000E+00 -0.00000000000E+00  0.00000000000E+00  0.93800000000E+00  0.93800000000E+00 0. -1.
         11    1    1    2    0    0 -0.21330435232E-01  0.63370065674E-01  0.65415511724E+00  0.65756363283E+00  0.51100000000E-03 0.  1.
    9000002    1    1    2    0    0  0.11358122231E+00 -0.36725984941E+00  0.99494818290E-01  0.10185890780E+01  0.93800000000E+00 0. -1.
         22    1    1    2    0    0 -0.92250787078E-01  0.30388978374E+00  0.32463500318E+01  0.32618472891E+01  0.00000000000E+00 0.  1.
</event>
<event>
 5    1  0.6564536E+001  0.1599677E+01  0.7818608E-02  0.3353714E+00
         11   -1    0    0    0    0  0.00000000000E+00  0.00000000000E+00  0.39999999674E+01  0.40000000000E+01  0.51100000000E-03 0. -1.
    9000002   -1    0    0    0    0 -0.00000000000E+00 -0.00000000000E+00  0.00000000000E+00  0.93800000000E+00  0.93800000000E+00 0. -1.
         11    1    1    2    0    0  0.38625906304E-01  0.71183849568E-01  0.85117929695E+00  0.85502371765E+00  0.51100000000E-03 0. -1.
    9000002    1    1    2    0    0 -0.17824577813E+00 -0.32619870769E+00  0.92879325482E-01  0.10132362624E+01  0.93800000000E+00 0. -1.
         22    1    1    2    0    0  0.13961987183E+00  0.25501485812E+00  0.30559413449E+01  0.30697400200E+01  0.00000000000E+00 0. -1.
</event>
<event>
 5    1  0.6564536E+001  0.1598512E+01  0.7818608E-02  0.3354980E+00
         11   -1    0    0    0    0  0.00000000000E+00  0.00000000000E+00  0.39999999674E+01  0.40000000000E+01  0.51100000000E-03 0.  1.
    9000002   -1    0    0    0    0 -0.00000000000E+00 -0.00000000000E+00  0.00000000000E+00  0.93800000000E+00  0.93800000000E+00 0. -1.
         11    1    1    2    0    0  0.37942661450E-01 -0.95336573638E-01  0.61223942909E+00  0.62077861390E+00  0.51100000000E-03 0.  1.
    9000002    1    1    2    0    0 -0.63499042349E-01  0.51812638678E+00  0.18831330402E+00  0.10898591567E+01  0.93800000000E+00 0. -1.
         22    1    1    2    0    0  0.25556380900E-01 -0.42278981314E+00  0.31994472343E+01  0.32273622294E+01  0.00000000000E+00 0.  1.
</event>
<event>
 5    1  0.6564536E+001  0.1546929E+01  0.7818608E-02  0.3413059E+00
         11   -1    0    0    0    0  0.00000000000E+00  0.00000000000E+00  0.39999999674E+01  0.40000000000E+01  0.51100000000E-03 0.  1.
    9000002   -1    0    0    0    0 -0.00000000000E+00 -0.00000000000E+00  0.00000000000E+00  0.93800000000E+00  0.93800000000E+00 0.  1.
         11    1    1    2    0    0 -0.12105147524E+00 -0.22509963875E+00  0.12038195488E+01  0.12306522962E+01  0.51100000000E-03 0.  1.
    9000002    1    1    2    0    0  0.10266281375E+00 -0.43812871745E-01  0.47847629141E-01  0.94582906314E+00  0.93800000000E+00 0.  1.
         22    1    1    2    0    0  0.18388661483E-01  0.26891251050E+00  0.27483327894E+01  0.27615186406E+01  0.00000000000E+00 0.  1.
</event>
<event>
 5    1  0.6564536E+001  0.1599567E+01  0.7818608E-02  0.3353833E+00
         11   -1    0    0    0    0  0.00000000000E+00  0.00000000000E+00  0.39999999674E+01  0.40000000000E+01  0.51100000000E-03 0.  1.
    9000002   -1    0    0    0    0 -0.00000000000E+00 -0.00000000000E+00  0.00000000000E+00  0.93800000000E+00  0.93800000000E+00 0.  1.
         11    1    1    2    0    0 -0.28398825260E-01  0.16512252741E+00  0.14757919246E+01  0.14852723683E+01  0.51100000000E-03 0.  1.
    9000002    1    1    2    0    0  0.10461958646E+00 -0.44239005863E+00  0.14054732062E+00  0.10517850404E+01  0.93800000000E+00 0.  1.
         22    1    1    2    0    0 -0.76220761196E-01  0.27726753123E+00  0.23836607222E+01  0.24009425913E+01  0.00000000000E+00 0.  1.
</event>
<event>
 5    1  0.6564536E+001  0.1599656E+01  0.7818608E-02  0.3353737E+00
         11   -1    0    0    0    0  0.00000000000E+00  0.00000000000E+00  0.39999999674E+01  0.40000000000E+01  0.51100000000E-03 0. -1.
    9000002   -1    0    0    0    0 -0.00000000000E+00 -0.00000000000E+00  0.00000000000E+00  0.93800000000E+00  0.93800000000E+00 0. -1.
         11    1    1    2    0    0 -0.52330886062E-01  0.18766242019E+00  0.14633734981E+01  0.14762851898E+01  0.51100000000E-03 0. -1.
    9000002    1    1    2    0    0  0.15033095187E+00 -0.49175365380E+00  0.18147040198E+00  0.10849868930E+01  0.93800000000E+00 0. -1.
         22    1    1    2    0    0 -0.98000065805E-01  0.30409123361E+00  0.23551560672E+01  0.23767279172E+01  0.00000000000E+00 0.  1.
</event>
<event>
 5    1  0.6564536E+001  0.1582629E+01  0.7818608E-02  0.3372436E+00
         11   -1    0    0    0    0  0.00000000000E+00  0.00000000000E+00  0.39999999674E+01  0.40000000000E+01  0.51100000000E-03 0.  1.
    9000002   -1    0    0    0    0 -0.00000000000E+00 -0.00000000000E+00  0.00000000000E+00  0.93800000000E+00  0.93800000000E+00 0. -1.
         11    1    1    2    0    0  0.73820214981E-01  0.58765361056E-01  0.16557073536E+00  0.19056946589E+00  0.51100000000E-03 0.  1.
    9000002    1    1    2    0    0 -0.74676385743E+00 -0.37059528669E-01  0.42567881190E+00  0.12728221079E+01  0.93800000000E+00 0. -1.
         22    1    1    2    0    0  0.67294364245E+00 -0.21705832387E-01  0.34087504201E+01  0.34746084262E+01  0.00000000000E+00 0.  1.
</event>
<event>
 5    1  0.6564536E+001  0.1599608E+01  0.7818608E-02  0.3353789E+00
         11   -1    0    0    0    0  0.00000000000E+00  0.00000000000E+00  0.39999999674E+01  0.40000000000E+01  0.51100000000E-03 0. -1.
    9000002   -1    0    0    0    0 -0.00000000000E+00 -0.00000000000E+00  0.00000000000E+00  0.93800000000E+00  0.93800000000E+00 0.  1.
         11    1    1    2    0    0  0.31089959657E-01 -0.13450142242E+00  0.13455589803E+01  0.13526220643E+01  0.51100000000E-03 0. -1.
    9000002    1    1    2    0    0 -0.98177348970E-01  0.41388686711E+00  0.12252013492E+00  0.10372060133E+01  0.93800000000E+00 0.  1.
         22    1    1    2    0    0  0.67087389312E-01 -0.27938544469E+00  0.25319208522E+01  0.25481719224E+01  0.00000000000E+00 0. -1.
</event>
<event>
 5    1  0.6564536E+001  0.1599669E+01  0.7818608E-02  0.3353723E+00
         11   -1    0    0    0    0  0.00000000000E+00  0.00000000000E+00  0.39999999674E+01  0.40000000000E+01  0.51100000000E-03 0. -1.
    9000002   -1    0    0    0    0 -0.00000000000E+00 -0.00000000000E+00  0.00000000000E+00  0.93800000000E+00  0.93800000000E+00 0. -1.
         11    1    1    2    0    0 -0.33821043229E-01  0.90194739138E-01  0.94938929943E+00  0.95426372504E+00  0.51100000000E-03 0. -1.
    9000002    1    1    2    0    0  0.14579646379E+00 -0.36047787805E+00  0.10185116017E+00  0.10204991760E+01  0.93800000000E+00 0. -1.
         22    1    1    2    0    0 -0.11197542056E+00  0.27028313891E+00  0.29487595078E+01  0.29632370989E+01  0.00000000000E+00 0. -1.
</event>
<event>
 5    1  0.6564536E+001  0.1599676E+01  0.7818608E-02  0.3353715E+00
         11   -1    0    0    0    0  0.00000000000E+00  0.00000000000E+00  0.39999999674E+01  0.40000000000E+01  0.51100000000E-03 0.  1.
    9000002   -1    0    0    0    0 -0.00000000000E+00 -0.00000000000E+00  0.00000000000E+00  0.93800000000E+00  0.93800000000E+00 0. -1.
         11    1    1    2    0    0 -0.17009883251E-03  0.75910712729E-01  0.58826619233E+00  0.59314402922E+00  0.51100000000E-03 0.  1.
    9000002    1    1    2    0    0  0.39921210436E-02 -0.49927220350E+00  0.17063282503E+00  0.10762194159E+01  0.93800000000E+00 0. -1.
         22    1    1    2    0    0 -0.38220222111E-02  0.42336149077E+00  0.32411009500E+01  0.32686365549E+01  0.00000000000E+00 0.  1.
</event>
<event>
 5    1  0.6564536E+001  0.1599676E+01  0.7818608E-02  0.3353715E+00
         11   -1    0    0    0    0  0.00000000000E+00  0.00000000000E+00  0.39999999674E+01  0.40000000000E+01  0.51100000000E-03 0.  1.
    9000002   -1    0    0    0    0 -0.00000000000E+00 -0.00000000000E+00  0.00000000000E+00  0.93800000000E+00  0.93800000000E+00 0.  1.
         11    1    1    2    0    0 -0.24058598547E+00 -0.16084646459E+00  0.13474135968E+01  0.13781425411E+01  0.51100000000E-03 0.  1.
    9000002    1    1    2    0    0  0.63929984189E+00  0.42800654445E+00  0.43165309418E+00  0.12876576733E+01  0.93800000000E+00 0.  1.
         22    1    1    2    0    0 -0.39871385642E+00 -0.26716007986E+00  0.22209332764E+01  0.22721997856E+01  0.00000000000E+00 0.  1.
</event>
<event>
 5    1  0.6564536E+001  0.1554312E+01  0.7818608E-02  0.3404495E+00
         11   -1    0    0    0    0  0.00000000000E+00  0.00000000000E+00  0.39999999674E+01  0.40000000000E+01  0.51100000000E-03 0.  1.
    9000002   -1    0    0    0    0 -0.00000000000E+00 -0.00000000000E+00  0.00000000000E+00  0.93800000000E+00  0.93800000000E+00 0.  1.
         11    1    1    2    0    0  0.22415634133E+00 -0.16005917503E+00  0.10033921445E+01  0.10405100007E+01  0.51100000000E-03 0.  1.
    9000002    1    1    2    0    0 -0.42313524453E+00 -0.13769620725E+00  0.17450835962E+00  0.10527586847E+01  0.93800000000E+00 0.  1.
         22    1    1    2    0    0  0.19897890320E+00  0.29775538228E+00  0.28220994633E+01  0.28447313146E+01  0.00000000000E+00 0.  1.
</event>
<event>
 5    1  0.6564536E+001  0.1599677E+01  0.7818608E-02  0.3353714E+00
         11   -1    0    0    0    0  0.00000000000E+00  0.00000000000E+00  0.39999999674E+01  0.40000000000E+01  0.51100000000E-03 0.  1.
    9000002   -1    0    0    0    0 -0.00000000000E+00 -0.00000000000E+00  0.00000000000E+00  0.93800000000E+00  0.93800000000E+00 0. -1.
         11    1    1    2    0    0  0.40217195727E-01  0.57702465313E-01  0.63371272510E+00  0.63760416907E+00  0.51100000000E-03 0. -1.
    9000002    1    1    2    0    0 -0.24606265973E+00 -0.35031976197E+00  0.12408520927E+00  0.10385142788E+01  0.93800000000E+00 0. -1.
         22    1    1    2    0    0  0.20584546400E+00  0.29261729666E+00  0.32422020330E+01  0.32618815521E+01  0.00000000000E+00 0.  1.
</event>
<event>
 5    1  0.6564536E+001  0.1599677E+01  0.7818608E-02  0.3353714E+00
         11   -1    0    0    0    0  0.00000000000E+00  0.00000000000E+00  0.39999999674E+01  0.40000000000E+01  0.51100000000E-03 0. -1.
    9000002   -1    0    0    0    0 -0.00000000000E+00 -0.00000000000E+00  0.00000000000E+00  0.93800000000E+00  0.93800000000E+00 0.  1.
         11    1    1    2    0    0 -0.88329514849E-01 -0.10848588004E+00  0.12540852505E+01  0.12618642423E+01  0.51100000000E-03 0.  1.
    9000002    1    1    2    0    0  0.27256685235E+00  0.33532394420E+00  0.12650144605E+00  0.10404717451E+01  0.93800000000E+00 0.  1.
         22    1    1    2    0    0 -0.18423733750E+00 -0.22683806416E+00  0.26194132708E+01  0.26356640125E+01  0.00000000000E+00 0. -1.
</event>
<event>
 5    1  0.6564536E+001  0.1589813E+01  0.7818608E-02  0.3364494E+00
         11   -1    0    0    0    0  0.00000000000E+00  0.00000000000E+00  0.39999999674E+01  0.40000000000E+01  0.51100000000E-03 0. -1.
    9000002   -1    0    0    0    0 -0.00000000000E+00 -0.00000000000E+00  0.00000000000E+00  0.93800000000E+00  0.93800000000E+00 0.  1.
         11    1    1    2    0    0 -0.12512183535E+00 -0.29584162887E-01  0.88969956226E+00  0.89894174927E+00  0.51100000000E-03 0. -1.
    9000002    1    1    2    0    0  0.29055592269E+00 -0.22665467898E+00  0.99322388595E-01  0.10126717260E+01  0.93800000000E+00 0.  1.
         22    1    1    2    0    0 -0.16543408734E+00  0.25623884187E+00  0.30109780165E+01  0.30263865248E+01  0.00000000000E+00 0. -1.
</event>
<event>
 5    1  0.6564536E+001  0.1599321E+01  0.7818608E-02  0.3354101E+00
         11   -1    0    0    0    0  0.00000000000E+00  0.00000000000E+00  0.39999999674E+01  0.40000000000E+01  0.51100000000E-03 0.  1.
    9000002   -1    0    0    0    0 -0.00000000000E+00 -0.00000000000E+00  0.00000000000E+00  0.93800000000E+00  0.93800000000E+00 0.  1.
         11    1    1    2    0    0 -0.55632732990E-01  0.67660036511E-02  0.61525114721E+00  0.61779852302E+00  0.51100000000E-03 0.  1.
    9000002    1    1    2    0    0  0.40386184639E+00  0.48113349877E-01  0.11197350968E+00  0.10284947021E+01  0.93800000000E+00 0.  1.
         22    1    1    2    0    0 -0.34822911340E+00 -0.54879353529E-01  0.32727753105E+01  0.32917067749E+01  0.00000000000E+00 0.  1.
</event>
<event>
 5    1  0.6564536E+001  0.1576533E+01  0.7818608E-02  0.3379234E+00
         11   -1    0    0    0    0  0.00000000000E+00  0.00000000000E+00  0.39999999674E+01  0.40000000000E+01  0.51100000000E-03 0. -1.
    9000002   -1    0    0    0    0 -0.00000000000E+00 -0.00000000000E+00  0.00000000000E+00  0.93800000000E+00  0.93800000000E+00 0. -1.
         11    1    1    2    0    0  0.30988540933E-01 -0.56387669447E-01  0.21284069547E+00  0.22235395590E+00  0.51100000000E-03 0. -1.
    9000002    1    1    2    0    0  0.43116575643E+00 -0.13129110496E+00  0.15826629954E+00  0.10526316950E+01  0.93800000000E+00 0. -1.
         22    1    1    2    0    0 -0.46215429736E+00  0.18767877441E+00  0.36288929724E+01  0.36630143491E+01  0.00000000000E+00 0. -1.
</event>
<event>
 5    1  0.6564536E+001  0.1526031E+01  0.7818608E-02  0.3437779E+00
         11   -1    0    0    0    0  0.00000000000E+00  0.00000000000E+00  0.39999999674E+01  0.40000000000E+01  0.51100000000E-03 0.  1.
    9000002   -1    0    0    0    0 -0.00000000000E+00 -0.00000000000E+00  0.00000000000E+00  0.93800000000E+00  0.93800000000E+00 0.  1.
         11    1    1    2    0    0 -0.58667487920E+00  0.18141028342E+00  0.99642213216E+00  0.11704505250E+01  0.51100000000E-03 0.  1.
    9000002    1    1    2    0    0  0.11008736197E+01  0.24854132677E+00  0.13942528117E+01  0.20242234117E+01  0.93800000000E+00 0.  1.
         22    1    1    2    0    0 -0.51419874046E+00 -0.42995161019E+00  0.16093250235E+01  0.17433260633E+01  0.00000000000E+00 0.  1.
</event>
<event>
 5    1  0.6564536E+001  0.1599670E+01  0.7818608E-02  0.3353721E+00
         11   -1    0    0    0    0  0.00000000000E+00  0.00000000000E+00  0.39999999674E+01  0.40000000000E+01  0.51100000000E-03 0. -1.
    9000002   -1    0    0    0    0 -0.00000000000E+00 -0.00000000000E+00  0.00000000000E+00  0.93800000000E+00  0.93800000000E+00 0.  1.
         11    1    1    2    0    0 -0.60073809048E-01 -0.82931774329E-01  0.57946371064E+00  0.58844285602E+00  0.51100000000E-03 0. -1.
    9000002    1    1    2    0    0  0.37645742416E+00  0.51911170966E+00  0.28956505689E+00  0.11725566432E+01  0.93800000000E+00 0.  1.
         22    1    1    2    0    0 -0.31638361511E+00 -0.43617993533E+00  0.31309711998E+01  0.31770005008E+01  0.00000000000E+00 0. -1.
</event>
<event>
 5    1  0.6564536E+001  0.1599676E+01  0.7818608E-02  0.3353715E+00
         11   -1    0    0    0    0  0.00000000000E+00  0.00000000000E+00  0.39999999674E+01  0.40000000000E+01  0.51100000000E-03 0. -1.
    9000002   -1    0    0    0    0 -0.00000000000E+00 -0.00000000000E+00  0.00000000000E+00  0.93800000000E+00  0.93800000000E+00 0. -1.
         11    1    1    2    0    0  0.10689199417E+00 -0.98624226077E-04  0.10242202411E+01  0.10297831187E+01  0.51100000000E-03 0. -1.
    9000002    1    1    2    0    0 -0.40321418051E+00  0.17736073088E-02  0.10971277353E+00  0.10268718098E+01  0.93800000000E+00 0. -1.
         22    1    1    2    0    0  0.29632218634E+00 -0.16749830827E-02  0.28660669527E+01  0.28813450715E+01  0.00000000000E+00 0. -1.
</event>
<event>
 5    1  0.6564536E+001  0.1598206E+01  0.7818608E-02  0.3355312E+00
         11   -1    0    0    0    0  0.00000000000E+00  0.00000000000E+00  0.39999999674E+01  0.40000000000E+01  0.51100000000E-03 0. -1.
    9000002   -1    0    0    0    0 -0.00000000000E+00 -0.00000000000E+00  0.00000000000E+00  0.93800000000E+00  0.93800000000E+00 0.  1.
         11    1    1    2    0    0 -0.85481179012E-01 -0.11234524774E+00  0.11784999535E+01  0.11869249716E+01  0.51100000000E-03 0. -1.
    9000002    1    1    2    0    0  0.14214650438E+00  0.37656765220E+00  0.11054012720E+00  0.10266800598E+01  0.93800000000E+00 0.  1.
         22    1    1    2    0    0 -0.56665325372E-01 -0.26422240446E+00  0.27109598867E+01  0.27243949687E+01  0.00000000000E+00 0. -1.
</event>
<event>
 5    1  0.6564536E+001  0.1599676E+01  0.7818608E-02  0.3353715E+00
         11   -1    0    0    0    0  0.00000000000E+00  0.00000000000E+00  0.39999999674E+01  0.40000000000E+01  0.51100000000E-03 0.  1.
    9000002   -1    0    0    0    0 -0.00000000000E+00 -0.00000000000E+00  0.00000000000E+00  0.93800000000E+00  0.93800000000E+00 0. -1.
         11    1    1    2    0    0 -0.35961509941E-02 -0.17928967090E+00  0.13215509850E+01  0.13336622456E+01  0.51100000000E-03 0.  1.
    9000002    1    1    2    0    0  0.12866790466E-01  0.52015502777E+00  0.18597833872E+00  0.10886499666E+01  0.93800000000E+00 0. -1.
         22    1    1    2    0    0 -0.92706394722E-02 -0.34086535686E+00  0.24924706437E+01  0.25156877878E+01  0.00000000000E+00 0.  1.
</event>
<event>
 5    1  0.6564536E+001  0.1569781E+01  0.7818608E-02  0.3386830E+00
         11   -1    0    0    0    0  0.00000000000E+00  0.00000000000E+00  0.39999999674E+01  0.40000000000E+01  0.51100000000E-03 0.  1.
    9000002   -1    0    0    0    0 -0.00000000000E+00 -0.00000000000E+00  0.00000000000E+00  0.93800000000E+00  0.93800000000E+00 0.  1.
         11    1    1    2    0    0 -0.17229122551E+00 -0.19690656242E+00  0.11280545295E+01  0.11579998892E+01  0.51100000000E-03 0.  1.
    9000002    1    1    2    0    0  0.44628463089E+00  0.38082420622E-01  0.16246486023E+00  0.10520737015E+01  0.93800000000E+00 0.  1.
         22    1    1    2    0    0 -0.27399340538E+00  0.15882414180E+00  0.27094805776E+01  0.27279264093E+01  0.00000000000E+00 0.  1.
</event>
<event>
 5    1  0.6564536E+001  0.1599084E+01  0.7818608E-02  0.3354358E+00
         11   -1    0    0    0    0  0.00000000000E+00  0.00000000000E+00  0.39999999674E+01  0.40000000000E+01  0.51100000000E-03 0. -1.
    9000002   -1    0    0    0    0 -0.00000000000E+00 -0.00000000000E+00  0.00000000000E+00  0.93800000000E+00  0.93800000000E+00 0. -1.
         11    1    1    2    0    0 -0.13013191636E+00  0.11106462740E+00  0.12686680679E+01  0.12801517858E+01  0.51100000000E-03 0. -1.
    9000002    1    1    2    0    0  0.31153366352E+00 -0.33684424707E+00  0.14368453475E+00  0.10540429383E+01  0.93800000000E+00 0. -1.
         22    1    1    2    0    0 -0.18140174716E+00  0.22577961966E+00  0.25876473647E+01  0.26038052759E+01  0.00000000000E+00 0. -1.
</event>
<event>
 5    1  0.6564536E+001  0.1599526E+01  0.7818608E-02  0.3353878E+00
         11   -1    0    0    0    0  0.00000000000E+00  0.00000000000E+00  0.39999999674E+01  0.40000000000E+01  0.51100000000E-03 0. -1.
    9000002   -1    0    0    0    0 -0.00000000000E+00 -0.00000000000E+00  0.00000000000E+00  0.93800000000E+00  0.93800000000E+00 0. -1.
         11    1    1    2    0    0 -0.21671170994E-01 -0.58125138710E-01  0.70658909841E+00  0.70930711720E+00  0.51100000000E-03 0. -1.
    9000002    1    1    2    0    0  0.80774964034E-01  0.37061071842E+00  0.96922140137E-01  0.10164225503E+01  0.93800000000E+00 0. -1.
         22    1    1    2    0    0 -0.59103793040E-01 -0.31248557971E+00  0.31964887288E+01  0.32122703325E+01  0.00000000000E+00 0. -1.
</event>
<event>
 5    1  0.6564536E+001  0.1573047E+01  0.7818608E-02  0.3383146E+00
         11   -1    0    0    0    0  0.00000000000E+00  0.00000000000E+00  0.39999999674E+01  0.40000000000E+01  0.51100000000E-03 0. -1.
    9000002   -1    0    0    0    0 -0.00000000000E+00 -0.00000000000E+00  0.00000000000E+00  0.93800000000E+00  0.93800000000E+00 0.  1.
         11    1    1    2    0    0 -0.97666836879E-01  0.47244627120E-01  0.60376252884E+00  0.61343322226E+00  0.51100000000E-03 0. -1.
    9000002    1    1    2    0    0 -0.21807849960E+00  0.39893416495E-01  0.52975729016E-01  0.96529795635E+00  0.93800000000E+00 0.  1.
         22    1    1    2    0    0  0.31574533648E+00 -0.87138043615E-01  0.33432617095E+01  0.33592688214E+01  0.00000000000E+00 0. -1.
</event>
<event>
 5    1  0.6564536E+001  0.1504049E+01  0.7818608E-02  0.3464577E+00
         11   -1    0    0    0    0  0.00000000000E+00  0.00000000000E+00  0.39999999674E+01  0.40000000000E+01  0.51100000000E-03 0. -1.
    9000002   -1    0    0    0    0 -0.00000000000E+00 -0.00000000000E+00  0.00000000000E+00  0.93800000000E+00  0.93800000000E+00 0.  1.
         11    1    1    2    0    0  0.33216000906E+00 -0.16103627698E-01  0.42997939697E+00  0.54357349216E+00  0.51100000000E-03 0. -1.
    9000002    1    1    2    0    0 -0.60151625870E+00  0.24588771581E+00  0.40679593007E+00  0.12114493415E+01  0.93800000000E+00 0.  1.
         22    1    1    2    0    0  0.26935624964E+00 -0.22978408811E+00  0.31632246403E+01  0.31829771663E+01  0.00000000000E+00 0. -1.
</event>
<event>
 5    1  0.6564536E+001  0.1599652E+01  0.7818608E-02  0.3353741E+00
         11   -1    0    0    0    0  0.00000000000E+00  0.00000000000E+00  0.39999999674E+01  0.40000000000E+01  0.51100000000E-03 0.  1.
    9000002   -1    0    0    0    0 -0.00000000000E+00 -0.00000000000E+00  0.00000000000E+00  0.93800000000E+00  0.93800000000E+00 0. -1.
         11    1    1    2    0    0 -0.12667091914E+00  0.21150545525E-01  0.11414367989E+01  0.11486388006E+01  0.51100000000E-03 0.  1.
    9000002    1    1    2    0    0  0.41218647995E+00 -0.74220660189E-01  0.11863005458E+00  0.10340809884E+01  0.93800000000E+00 0. -1.
         22    1    1    2    0    0 -0.28551556081E+00  0.53070114664E-01  0.27399331139E+01  0.27552802110E+01  0.00000000000E+00 0.  1.
</event>
<event>
 5    1  0.6564536E+001  0.1598626E+01  0.7818608E-02  0.3354856E+00
         11   -1    0    0    0    0  0.00000000000E+00  0.00000000000E+00  0.39999999674E+01  0.40000000000E+01  0.51100000000E-03 0. -1.
    9000002   -1    0    0    0    0 -0.00000000000E+00 -0.00000000000E+00  0.00000000000E+00  0.93800000000E+00  0.93800000000E+00 0.  1.
         11    1    1    2    0    0  0.79129101574E-01  0.26447880588E-01  0.50829599775E+00  0.51509803684E+00  0.51100000000E-03 0. -1.
    9000002    1    1    2    0    0 -0.57594672376E+00 -0.38499173882E+00  0.34350247942E+00  0.12156361384E+01  0.93800000000E+00 0.  1.
         22    1    1    2    0    0  0.49681762218E+00  0.35854385823E+00  0.31482014902E+01  0.32072658248E+01  0.00000000000E+00 0. -1.
</event>
<event>
 5    1  0.6564536E+001  0.1469648E+01  0.7818608E-02  0.3508251E+00
         11   -1    0    0    0    0  0.00000000000E+00  0.00000000000E+00  0.39999999674E+01  0.40000000000E+01  0.51100000000E-03 0.  1.
    9000002   -1    0    0    0    0 -0.00000000000E+00 -0.00000000000E+00  0.00000000000E+00  0.93800000000E+00  0.93800000000E+00 0.  1.
         11    1    1    2    0    0 -0.33124458338E+00 -0.34200527522E+00  0.14155376933E+01  0.14934650329E+01  0.51100000000E-03 0.  1.
    9000002    1    1    2    0    0  0.47370209658E-01  0.17294190263E+00  0.12517721227E+00  0.96315428303E+00  0.93800000000E+00 0.  1.
         22    1    1    2    0    0  0.28387437372E+00  0.16906337258E+00  0.24592850618E+01  0.24813806840E+01  0.00000000000E+00 0.  1.
</event>
<event>
 5    1  0.6564536E+001  0.1599667E+01  0.7818608E-02  0.3353725E+00
         11   -1    0    0    0    0  0.00000000000E+00  0.00000000000E+00  0.39999999674E+01  0.40000000000E+01  0.51100000000E-03 0. -1.
    9000002   -1    0    0    0    0 -0.00000000000E+00 -0.00000000000E+00  0.00000000000E+00  0.93800000000E+00  0.93800000000E+00 0. -1.
         11    1    1    2    0    0 -0.17732774617E+00 -0.68014962854E-01  0.12853811312E+01  0.12993367840E+01  0.51100000000E-03 0. -1.
    9000002    1    1    2    0    0  0.51307218399E+00  0.20520931931E+00  0.21102180919E+00  0.11089310775E+01  0.93800000000E+00 0. -1.
         22    1    1    2    0    0 -0.33574443782E+00 -0.13719435646E+00  0.25035970270E+01  0.25297321385E+01  0.00000000000E+00 0. -1.
</event>
<event>
 5    1  0.6564536E+001  0.1599537E+01  0.7818608E-02  0.3353866E+00
         11   -1    0    0    0    0  0.00000000000E+00  0.00000000000E+00  0.39999999674E+01  0.40000000000E+01  0.51100000000E-03 0. -1.
    9000002   -1    0    0    0    0 -0.00000000000E+00 -0.00000000000E+00  0.00000000000E+00  0.93800000000E+00  0.93800000000E+00 0.  1.
         11    1    1    2    0    0  0.19816774020E-01 -0.70649530058E-01  0.86812083416E+00  0.87121645098E+00  0.51100000000E-03 0. -1.
    9000002    1    1    2    0    0 -0.11430640324E+00  0.36451728042E+00  0.98332239491E-01  0.10175716343E+01  0.93800000000E+00 0.  1.
         22    1    1    2    0    0  0.94489629219E-01 -0.29386775037E+00  0.30335468937E+01  0.30492119147E+01  0.00000000000E+00 0. -1.
</event>
<event>
 5    1  0.6564536E+001  0.1565244E+01  0.7818608E-02  0.3391973E+00
         11   -1    0    0    0    0  0.00000000000E+00  0.00000000000E+00  0.39999999674E+01  0.40000000000E+01  0.51100000000E-03 0.  1.
    9000002   -1    0    0    0    0 -0.00000000000E+00 -0.00000000000E+00  0.00000000000E+00  0.93800000000E+00  0.93800000000E+00 0.  1.
         11    1    1    2    0    0  0.52069393255E-01  0.17131789267E+00  0.57810023276E+00  0.60519516051E+00  0.51100000000E-03 0.  1.
    9000002    1    1    2    0    0  0.24754887414E+00 -0.25527413365E+00  0.11320042208E+00  0.10095066438E+01  0.93800000000E+00 0.  1.
         22    1    1    2    0    0 -0.29961826740E+00  0.83956240985E-01  0.33086993125E+01  0.33232981956E+01  0.00000000000E+00 0.  1.
</event>
<event>
 5    1  0.6564536E+001  0.1599674E+01  0.7818608E-02  0.3353717E+00
         11   -1    0    0    0    0  0.00000000000E+00  0.00000000000E+00  0.39999999674E+01  0.40000000000E+01  0.51100000000E-03 0. -1.
    9000002   -1    0    0    0    0 -0.00000000000E+00 -0.00000000000E+00  0.00000000000E+00  0.93800000000E+00  0.93800000000E+00 0. -1.
         11    1    1    2    0    0 -0.52976077903E-02 -0.12349086939E-01  0.98578212600E-01  0.99491153963E-01  0.51100000000E-03 0. -1.
    9000002    1    1    2    0    0  0.20318527260E+00  0.46091964315E+00  0.17380503368E+00  0.10787879134E+01  0.93800000000E+00 0.  1.
         22    1    1    2    0    0 -0.19788766481E+00 -0.44857055621E+00  0.37276167211E+01  0.37597209326E+01  0.00000000000E+00 0. -1.
</event>
<event>
 5    1  0.6564536E+001  0.1586211E+01  0.7818608E-02  0.3368467E+00
         11   -1    0    0    0    0  0.00000000000E+00  0.00000000000E+00  0.39999999674E+01  0.40000000000E+01  0.51100000000E-03 0. -1.
    9000002   -1    0    0    0    0 -0.00000000000E+00 -0.00000000000E+00  0.00000000000E+00  0.93800000000E+00  0.93800000000E+00 0. -1.
         11    1    1    2    0    0  0.16349264140E+00 -0.15365545723E+00  0.14687806331E+01  0.14858185127E+01  0.51100000000E-03 0. -1.
    9000002    1    1    2    0    0 -0.38940415289E+00  0.50524218297E-01  0.11513863060E+00  0.10233714844E+01  0.93800000000E+00 0. -1.
         22    1    1    2    0    0  0.22591151148E+00  0.10313123893E+00  0.24160807036E+01  0.24288100028E+01  0.00000000000E+00 0. -1.
</event>
<event>
 5    1  0.6564536E+001  0.1563744E+01  0.7818608E-02  0.3393680E+00
         11   -1    0    0    0    0  0.00000000000E+00  0.00000000000E+00  0.39999999674E+01  0.40000000000E+01  0.51100000000E-03 0.  1.
    9000002   -1    0    0    0    0 -0.00000000000E+00 -0.00000000000E+00  0.00000000000E+00  0.93800000000E+00  0.93800000000E+00 0.  1.
         11    1    1    2    0    0  0.24776992351E-01  0.12005814419E+00  0.45761017197E+00  0.47374591074E+00  0.51100000000E-03 0.  1.
    9000002    1    1    2    0    0 -0.35528793156E+00  0.22628920536E+00  0.15103456095E+00  0.10392746304E+01  0.93800000000E+00 0.  1.
         22    1    1    2    0    0  0.33051093921E+00 -0.34634734954E+00  0.33913552344E+01  0.34249794589E+01  0.00000000000E+00 0.  1.
</event>
<event>
 5    1  0.6564536E+001  0.1599677E+01  0.7818608E-02  0.3353714E+00
         11   -1    0    0    0    0  0.00000000000E+00  0.00000000000E+00  0.39999999674E+01  0.40000000000E+01  0.51100000000E-03 0.  1.
    9000002   -1    0    0    0    0 -0.00000000000E+00 -0.00000000000E+00  0.00000000000E+00  0.93800000000E+00  0.93800000000E+00 0.  1.
         11    1    1    2    0    0  0.12719768445E-02 -0.14937168015E+00  0.13237413384E+01  0.13321429761E+01  0.51100000000E-03 0.  1.
    9000002    1    1    2    0    0 -0.47338680968E-02  0.43756524782E+00  0.12982037471E+00  0.10431601436E+01  0.93800000000E+00 0.  1.
         22    1    1    2    0    0  0.34618912523E-02 -0.28819356767E+00  0.25464382543E+01  0.25626968802E+01  0.00000000000E+00 0.  1.
</event>
<event>
 5    1  0.6564536E+001  0.1599676E+01  0.7818608E-02  0.3353715E+00
         11   -1    0    0    0    0  0.00000000000E+00  0.00000000000E+00  0.39999999674E+01  0.40000000000E+01  0.51100000000E-03 0. -1.
    9000002   -1    0    0    0    0 -0.00000000000E+00 -0.00000000000E+00  0.00000000000E+00  0.93800000000E+00  0.93800000000E+00 0. -1.
         11    1    1    2    0    0  0.35896735645E-01 -0.40453498850E-01  0.39776935219E+00  0.40142966988E+00  0.51100000000E-03 0.  1.
    9000002    1    1    2    0    0 -0.34471144602E+00  0.39159119398E+00  0.18701472577E+00  0.10894898585E+01  0.93800000000E+00 0. -1.
         22    1    1    2    0    0  0.30881471038E+00 -0.35113769513E+00  0.34152158894E+01  0.34470804716E+01  0.00000000000E+00 0. -1.
</event>
<event>
 5    1  0.6564536E+001  0.1586334E+01  0.7818608E-02  0.3368331E+00
         11   -1    0    0    0    0  0.00000000000E+00  0.00000000000E+00  0.39999999674E+01  0.40000000000E+01  0.51100000000E-03 0. -1.
    9000002   -1    0    0    0    0 -0.00000000000E+00 -0.00000000000E+00  0.00000000000E+00  0.93800000000E+00  0.93800000000E+00 0. -1.
         11    1    1    2    0    0  0.27176461592E+00  0.19267133414E-02  0.11920577466E+01  0.12226453496E+01  0.51100000000E-03 0. -1.
    9000002    1    1    2    0    0 -0.79640503307E+00  0.37324394511E+00  0.60713035080E+00  0.14219786504E+01  0.93800000000E+00 0. -1.
         22    1    1    2    0    0  0.52464041715E+00 -0.37517065845E+00  0.22008118700E+01  0.22933760000E+01  0.00000000000E+00 0. -1.
</event>
<event>
 5    1  0.6564536E+001  0.1599677E+01  0.7818608E-02  0.3353714E+00
         11   -1    0    0    0    0  0.00000000000E+00  0.00000000000E+00  0.39999999674E+01  0.40000000000E+01  0.51100000000E-03 0.  1.
    9000002   -1    0    0    0    0 -0.00000000000E+00 -0.00000000000E+00  0.00000000000E+00  0.93800000000E+00  0.93800000000E+00 0. -1.
         11    1    1    2    0    0 -0.12431663141E+00 -0.16003958201E+00  0.87202264668E+00  0.89526032533E+00  0.51100000000E-03 0. -1.
    9000002    1    1    2    0    0  0.49886668982E+00  0.64369403692E+00  0.49096255719E+00  0.13357013963E+01  0.93800000000E+00 0. -1.
         22    1    1    2    0    0 -0.37455005841E+00 -0.48365445491E+00  0.26370147635E+01  0.27070382784E+01  0.00000000000E+00 0.  1.
</event>
<event>
 5    1  0.6564536E+001  0.1599676E+01  0.7818608E-02  0.3353715E+00
         11   -1    0    0    0    0  0.00000000000E+00  0.00000000000E+00  0.39999999674E+01  0.40000000000E+01  0.51100000000E-03 0. -1.
    9000002   -1    0    0    0    0 -0.00000000000E+00 -0.00000000000E+00  0.00000000000E+00  0.93800000000E+00  0.93800000000E+00 0.  1.
         11    1    1    2    0    0  0.10311014732E+00 -0.77699727961E-03  0.10794607627E+01  0.10843745228E+01  0.51100000000E-03 0. -1.
    9000002    1    1    2    0    0 -0.37151707503E+00  0.22207433825E-03  0.92775233533E-01  0.10131516324E+01  0.93800000000E+00 0.  1.
         22    1    1    2    0    0  0.26840692772E+00  0.55492294136E-03  0.28277639711E+01  0.28404738448E+01  0.00000000000E+00 0.  1.
</event>
<event>
 5    1  0.6564536E+001  0.1599510E+01  0.7818608E-02  0.3353896E+00
         11   -1    0    0    0    0  0.00000000000E+00  0.00000000000E+00  0.39999999674E+01  0.40000000000E+01  0.51100000000E-03 0. -1.
    9000002   -1    0    0    0    0 -0.00000000000E+00 -0.00000000000E+00  0.00000000000E+00  0.93800000000E+00  0.93800000000E+00 0. -1.
         11    1    1    2    0    0 -0.16628553168E+00  0.18633356388E-01  0.14558383083E+01  0.14654226425E+01  0.51100000000E-03 0. -1.
    9000002    1    1    2    0    0  0.41407089196E+00 -0.77496401777E-01  0.12017925387E+00  0.10352523600E+01  0.93800000000E+00 0. -1.
         22    1    1    2    0    0 -0.24778536027E+00  0.58863045390E-01  0.24239824052E+01  0.24373249975E+01  0.00000000000E+00 0. -1.
</event>
<event>
 5    1  0.6564536E+001  0.1586138E+01  0.7818608E-02  0.3368548E+00
         11   -1    0    0    0    0  0.00000000000E+00  0.00000000000E+00  0.39999999674E+01  0.40000000000E+01  0.51100000000E-03 0.  1.
    9000002   -1    0    0    0    0 -0.00000000000E+00 -0.00000000000E+00  0.00000000000E+00  0.93800000000E+00  0.93800000000E+00 0.  1.
         11    1    1    2    0    0 -0.21997319015E-01 -0.34930663416E-01  0.13785455039E+00  0.14390334074E+00  0.51100000000E-03 0.  1.
    9000002    1    1    2    0    0  0.24927212936E+00 -0.43970043172E+00  0.18740528466E+00  0.10818677391E+01  0.93800000000E+00 0.  1.
         22    1    1    2    0    0 -0.22727481034E+00  0.47463109514E+00  0.36747401323E+01  0.37122289202E+01  0.00000000000E+00 0.  1.
</event>
<event>
 5    1  0.6564536E+001  0.1599634E+01  0.7818608E-02  0.3353761E+00
         11   -1    0    0    0    0  0.00000000000E+00  0.00000000000E+00  0.39999999674E+01  0.40000000000E+01  0.51100000000E-03 0. -1.
    9000002   -1    0    0    0    0 -0.00000000000E+00 -0.00000000000E+00  0.00000000000E+00  0.93800000000E+00  0.93800000000E+00 0.  1.
         11    1    1    2    0    0  0.12635162392E+00  0.66979145685E-01  0.86951305749E+00  0.88119473279E+00  0.51100000000E-03 0. -1.
    9000002    1    1    2    0    0 -0.56388284855E+00 -0.26930864719E+00  0.27398516317E+00  0.11599150331E+01  0.93800000000E+00 0.  1.
         22    1    1    2    0    0  0.43753122463E+00  0.20232950150E+00  0.28565017467E+01  0.28968902341E+01  0.00000000000E+00 0.  1.
</event>
<event>
 5    1  0.6564536E+001  0.1599453E+01  0.7818608E-02  0.3353957E+00
         11   -1    0    0    0    0  0.00000000000E+00  0.00000000000E+00  0.39999999674E+01  0.40000000000E+01  0.51100000000E-03 0. -1.
    9000002   -1    0    0    0    0 -0.00000000000E+00 -0.00000000000E+00  0.00000000000E+00  0.93800000000E+00  0.93800000000E+00 0. -1.
         11    1    1    2    0    0 -0.20489503647E-01 -0.22050848867E-01  0.19923853841E+00  0.20150016378E+00  0.51100000000E-03 0. -1.
    9000002    1    1    2    0    0  0.28954652050E+00  0.31765456928E+00  0.12530087524E+00  0.10393680398E+01  0.93800000000E+00 0. -1.
         22    1    1    2    0    0 -0.26905701685E+00 -0.29560372042E+00  0.36754605537E+01  0.36971317964E+01  0.00000000000E+00 0. -1.
</event>
<event>
 5    1  0.6564536E+001  0.1599602E+01  0.7818608E-02  0.3353796E+00
         11   -1    0    0    0    0  0.00000000000E+00  0.00000000000E+00  0.39999999674E+01  0.40000000000E+01  0.51100000000E-03 0.  1.
    9000002   -1    0    0    0    0 -0.00000000000E+00 -0.00000000000E+00  0.00000000000E+00  0.93800000000E+00  0.93800000000E+00 0.  1.
         11    1    1    2    0    0 -0.63243224617E-01 -0.84045753843E-01  0.71466069850E+00  0.72235972292E+00  0.51100000000E-03 0.  1.
    9000002    1    1    2    0    0  0.34375545182E+00  0.40456850579E+00  0.19405027966E+00  0.10951451947E+01  0.93800000000E+00 0.  1.
         22    1    1    2    0    0 -0.28051222720E+00 -0.32052275195E+00  0.30912889892E+01  0.31204950823E+01  0.00000000000E+00 0.  1.
</event>
<event>
 5    1  0.6564536E+001  0.1559247E+01  0.7818608E-02  0.3398819E+00
         11   -1    0    0    0    0  0.00000000000E+00  0.00000000000E+00  0.39999999674E+01  0.40000000000E+01  0.51100000000E-03 0. -1.
    9000002   -1    0    0    0    0 -0.00000000000E+00 -0.00000000000E+00  0.00000000000E+00  0.93800000000E+00  0.93800000000E+00 0.  1.
         11    1    1    2    0    0 -0.16795833546E+00  0.12777368257E-01  0.11697866359E+01  0.11818520628E+01  0.51100000000E-03 0. -1.
    9000002    1    1    2    0    0  0.93133977822E-01 -0.60268439839E+00  0.30187399379E+00  0.11588245467E+01  0.93800000000E+00 0.  1.
         22    1    1    2    0    0  0.74824357635E-01  0.58990703013E+00  0.25283393377E+01  0.25973233905E+01  0.00000000000E+00 0. -1.
</event>
<event>
 5    1  0.6564536E+001  0.1493474E+01  0.7818608E-02  0.3477771E+00
         11   -1    0    0    0    0  0.00000000000E+00  0.00000000000E+00  0.39999999674E+01  0.40000000000E+01  0.51100000000E-03 0.  1.
    9000002   -1    0    0    0    0 -0.00000000000E+00 -0.00000000000E+00  0.00000000000E+00  0.93800000000E+00  0.93800000000E+00 0. -1.
         11    1    1    2    0    0  0.36525171145E-01  0.19767945793E+00  0.20992630116E+00  0.29065541325E+00  0.51100000000E-03 0.  1.
    9000002    1    1    2    0    0 -0.49717353837E+00 -0.42373299864E-01  0.27318733114E+00  0.10970197545E+01  0.93800000000E+00 0. -1.
         22    1    1    2    0    0  0.46064836723E+00 -0.15530615806E+00  0.35168863351E+01  0.35503248323E+01  0.00000000000E+00 0.  1.
</event>
<event>
 5    1  0.6564536E+001  0.1599599E+01  0.7818608E-02  0.3353799E+00
         11   -1    0    0    0    0  0.00000000000E+00  0.00000000000E+00  0.39999999674E+01  0.40000000000E+01  0.51100000000E-03 0.  1.
    9000002   -1    0    0    0    0 -0.00000000000E+00 -0.00000000000E+00  0.00000000000E+00  0.93800000000E+00  0.93800000000E+00 0.  1.
         11    1    1    2    0    0  0.85249773189E-01  0.63529722342E-01  0.12723312377E+01  0.12767656751E+01  0.51100000000E-03 0.  1.
    9000002    1    1    2    0    0 -0.29143798954E+00 -0.20532180722E+00  0.85342212210E-01  0.10070851203E+01  0.93800000000E+00 0.  1.
         22    1    1    2    0    0  0.20618821635E+00  0.14179208488E+00  0.26423265174E+01  0.26541492047E+01  0.00000000000E+00 0.  1.
</event>
<event>
 5    1  0.6564536E+001  0.1599571E+01  0.7818608E-02  0.3353829E+00
         11   -1    0    0    0    0  0.00000000000E+00  0.00000000000E+00  0.39999999674E+01  0.40000000000E+01  0.51100000000E-03 0. -1.
    9000002   -1    0    0    0    0 -0.00000000000E+00 -0.00000000000E+00  0.00000000000E+00  0.93800000000E+00  0.93800000000E+00 0. -1.
         11    1    1    2    0    0  0.15701207462E+00  0.12558120601E+00  0.13418059877E+01  0.13567855397E+01  0.51100000000E-03 0. -1.
    9000002    1    1    2    0    0 -0.41047975478E+00 -0.35773306012E+00  0.20465675404E+00  0.11037186953E+01  0.93800000000E+00 0. -1.
         22    1    1    2    0    0  0.25346768016E+00  0.23215185411E+00  0.24535372256E+01  0.24774957650E+01  0.00000000000E+00 0. -1.
</event>
<event>
 5    1  0.6564536E+001  0.1597993E+01  0.7818608E-02  0.3355545E+00
         11   -1    0    0    0    0  0.00000000000E+00  0.00000000000E+00  0.39999999674E+01  0.40000000000E+01  0.51100000000E-03 0.  1.
    9000002   -1    0    0    0    0 -0.00000000000E+00 -0.00000000000E+00  0.00000000000E+00  0.93800000000E+00  0.93800000000E+00 0. -1.
         11    1    1    2    0    0  0.46179670090E-01 -0.56862929122E-01  0.43966548408E+00  0.44572632147E+00  0.51100000000E-03 0.  1.
    9000002    1    1    2    0    0 -0.59908697170E+00  0.31258652244E+00  0.32609715431E+00  0.12011656371E+01  0.93800000000E+00 0. -1.
         22    1    1    2    0    0  0.55290730161E+00 -0.25572359332E+00  0.32342373290E+01  0.32911080414E+01  0.00000000000E+00 0.  1.
</event>
<event>
 5    1  0.6564536E+001  0.1599641E+01  0.7818608E-02  0.3353753E+00
         11   -1    0    0    0    0  0.00000000000E+00  0.00000000000E+00  0.39999999674E+01  0.40000000000E+01  0.51100000000E-03 0. -1.
    9000002   -1    0    0    0    0 -0.00000000000E+00 -0.00000000000E+00  0.00000000000E+00  0.93800000000E+00  0.93800000000E+00 0. -1.
         11    1    1    2    0    0  0.38827881050E-01 -0.14843691070E+00  0.14039547024E+01  0.14123137712E+01  0.51100000000E-03 0. -1.
    9000002    1    1    2    0    0 -0.12115654726E+00  0.39711373788E+00  0.11653484096E+00  0.10323771592E+01  0.93800000000E+00 0. -1.
         22    1    1    2    0    0  0.82328666212E-01 -0.24867682717E+00  0.24795104240E+01  0.24933090696E+01  0.00000000000E+00 0. -1.
</event>
<event>
 5    1  0.6564536E+001  0.1599677E+01  0.7818608E-02  0.3353714E+00
         11   -1    0    0    0    0  0.00000000000E+00  0.00000000000E+00  0.39999999674E+01  0.40000000000E+01  0.51100000000E-03 0. -1.
    9000002   -1    0    0    0    0 -0.00000000000E+00 -0.00000000000E+00  0.00000000000E+00  0.93800000000E+00  0.93800000000E+00 0.  1.
         11    1    1    2    0    0  0.10317840617E+00 -0.79533624864E-01  0.14443179361E+01  0.14501813482E+01  0.51100000000E-03 0. -1.
    9000002    1    1    2    0    0 -0.28000654462E+00  0.21733158269E+00  0.84282611545E-01  0.10062724484E+01  0.93800000000E+00 0.  1.
         22    1    1    2    0    0  0.17682813845E+00 -0.13779795783E+00  0.24713994197E+01  0.24815462033E+01  0.00000000000E+00 0. -1.
</event>
<event>
 5    1  0.6564536E+001  0.1599652E+01  0.7818608E-02  0.3353741E+00
         11   -1    0    0    0    0  0.00000000000E+00  0.00000000000E+00  0.39999999674E+01  0.40000000000E+01  0.51100000000E-03 0. -1.
    9000002   -1    0    0    0    0 -0.00000000000E+00 -0.00000000000E+00  0.00000000000E+00  0.93800000000E+00  0.93800000000E+00 0. -1.
         11    1    1    2    0    0  0.12745134658E+00  0.10319424095E-01  0.11746958685E+01  0.11816348763E+01  0.51100000000E-03 0. -1.
    9000002    1    1    2    0    0 -0.41848406330E+00 -0.16123458831E-01  0.11861774779E+00  0.10340711036E+01  0.93800000000E+00 0. -1.
         22    1    1    2    0    0  0.29103271673E+00  0.58040347364E-02  0.27066863511E+01  0.27222940201E+01  0.00000000000E+00 0. -1.
</event>
<event>
 5    1  0.6564536E+001  0.1599674E+01  0.7818608E-02  0.3353717E+00
         11   -1    0    0    0    0  0.00000000000E+00  0.00000000000E+00  0.39999999674E+01  0.40000000000E+01  0.51100000000E-03 0.  1.
    9000002   -1    0    0    0    0 -0.00000000000E+00 -0.00000000000E+00  0.00000000000E+00  0.93800000000E+00  0.93800000000E+00 0. -1.
         11    1    1    2    0    0 -0.64417429080E-01  0.53388388736E-01  0.91196605259E+00  0.91579597478E+00  0.51100000000E-03 0.  1.
    9000002    1    1    2    0    0  0.28341778592E+00 -0.22867027374E+00  0.89064643840E-01  0.10101446660E+01  0.93800000000E+00 0. -1.
         22    1    1    2    0    0 -0.21900035684E+00  0.17528188500E+00  0.29989692709E+01  0.30120593592E+01  0.00000000000E+00 0.  1.
</event>
<event>
 5    1  0.6564536E+001  0.1599660E+01  0.7818608E-02  0.3353733E+00
         11   -1    0    0    0    0  0.00000000000E+00  0.00000000000E+00  0.39999999674E+01  0.40000000000E+01  0.51100000000E-03 0. -1.
    9000002   -1    0    0    0    0 -0.00000000000E+00 -0.00000000000E+00  0.00000000000E+00  0.93800000000E+00  0.93800000000E+00 0.  1.
         11    1    1    2    0    0 -0.10835057029E+00  0.50716061319E-02  0.44823768408E+00  0.46117550869E+00  0.51100000000E-03 0. -1.
    9000002    1    1    2    0    0  0.85312714955E+00 -0.57164108065E-01  0.54940965280E+00  0.13830360209E+01  0.93800000000E+00 0.  1.
         22    1    1    2    0    0 -0.74477657926E+00  0.52092501933E-01  0.30023526305E+01  0.30937884704E+01  0.00000000000E+00 0. -1.
</event>
<event>
 5    1  0.6564536E+001  0.1583610E+01  0.7818608E-02  0.3371347E+00
         11   -1    0    0    0    0  0.00000000000E+00  0.00000000000E+00  0.39999999674E+01  0.40000000000E+01  0.51100000000E-03 0.  1.
    9000002   -1    0    0    0    0 -0.00000000000E+00 -0.00000000000E+00  0.00000000000E+00  0.93800000000E+00  0.93800000000E+00 0. -1.
         11    1    1    2    0    0 -0.28524095006E-01  0.22383348250E+00  0.11574433817E+01  0.11792330113E+01  0.51100000000E-03 0.  1.
    9000002    1    1    2    0    0  0.26516705661E+00 -0.31192464331E+00  0.12677764420E+00  0.10312745134E+01  0.93800000000E+00 0. -1.
         22    1    1    2    0    0 -0.23664296160E+00  0.88091160814E-01  0.27157789414E+01  0.27274924753E+01  0.00000000000E+00 0.  1.
</event>
<event>
 5    1  0.6564536E+001  0.1509997E+01  0.7818608E-02  0.3457243E+00
         11   -1    0    0    0    0  0.00000000000E+00  0.00000000000E+00  0.39999999674E+01  0.40000000000E+01  0.51100000000E-03 0.  1.
    9000002   -1    0    0    0    0 -0.00000000000E+00 -0.00000000000E+00  0.00000000000E+00  0.93800000000E+00  0.93800000000E+00 0.  1.
         11    1    1    2    0    0 -0.79016268928E+00 -0.41401998601E-01  0.11149485435E+01  0.13671802064E+01  0.51100000000E-03 0.  1.
    9000002    1    1    2    0    0  0.10443255550E+01  0.11122582679E+00  0.11561825410E+01  0.18219739618E+01  0.93800000000E+00 0.  1.
         22    1    1    2    0    0 -0.25416286571E+00 -0.69823828185E-01  0.17288688829E+01  0.17488458318E+01  0.00000000000E+00 0.  1.
</event>
<event>
 5    1  0.6564536E+001  0.1599676E+01  0.7818608E-02  0.3353715E+00
         11   -1    0    0    0    0  0.00000000000E+00  0.00000000000E+00  0.39999999674E+01  0.40000000000E+01  0.51100000000E-03 0.  1.
    9000002   -1    0    0    0    0 -0.00000000000E+00 -0.00000000000E+00  0.00000000000E+00  0.93800000000E+00  0.93800000000E+00 0.  1.
         11    1    1    2    0    0  0.28212024623E-01 -0.62694062521E-01  0.71798126323E+00  0.72126542915E+00  0.51100000000E-03 0.  1.
    9000002    1    1    2    0    0 -0.15814982177E+00  0.34212913046E+00  0.95551500984E-01  0.10154003139E+01  0.93800000000E+00 0.  1.
         22    1    1    2    0    0  0.12993779715E+00 -0.27943506794E+00  0.31864672031E+01  0.32013342570E+01  0.00000000000E+00 0.  1.
</event>
<event>
 5    1  0.6564536E+001  0.1596057E+01  0.7818608E-02  0.3357655E+00
         11   -1    0    0    0    0  0.00000000000E+00  0.00000000000E+00  0.39999999674E+01  0.40000000000E+01  0.51100000000E-03 0. -1.
    9000002   -1    0    0    0    0 -0.00000000000E+00 -0.00000000000E+00  0.00000000000E+00  0.93800000000E+00  0.93800000000E+00 0.  1.
         11    1    1    2    0    0 -0.20290268483E-01  0.40763963350E-01  0.31774824004E+00  0.32099470537E+00  0.51100000000E-03 0. -1.
    9000002    1    1    2    0    0  0.37922597806E+00 -0.31555776133E-01  0.10041738589E+00  0.10172196227E+01  0.93800000000E+00 0.  1.
         22    1    1    2    0    0 -0.35893570957E+00 -0.92081872168E-02  0.35818343414E+01  0.35997856719E+01  0.00000000000E+00 0. -1.
</event>
<event>
 5    1  0.6564536E+001  0.1598804E+01  0.7818608E-02  0.3354663E+00
         11   -1    0    0    0    0  0.00000000000E+00  0.00000000000E+00  0.39999999674E+01  0.40000000000E+01  0.51100000000E-03 0.  1.
    9000002   -1    0    0    0    0 -0.00000000000E+00 -0.00000000000E+00  0.00000000000E+00  0.93800000000E+00  0.93800000000E+00 0.  1.
         11    1    1    2    0    0  0.23594992490E-01  0.11930457710E+00  0.71691752079E+00  0.72715974760E+00  0.51100000000E-03 0.  1.
    9000002    1    1    2    0    0 -0.21096358497E+00 -0.51044718795E+00  0.21162626473E+00  0.11089146233E+01  0.93800000000E+00 0.  1.
         22    1    1    2    0    0  0.18736859248E+00  0.39114261084E+00  0.30714561818E+01  0.31019256291E+01  0.00000000000E+00 0.  1.
</event>
<event>
 5    1  0.6564536E+001  0.1599667E+01  0.7818608E-02  0.3353724E+00
         11   -1    0    0    0    0  0.00000000000E+00  0.00000000000E+00  0.39999999674E+01  0.40000000000E+01  0.51100000000E-03 0. -1.
    9000002   -1    0    0    0    0 -0.00000000000E+00 -0.00000000000E+00  0.00000000000E+00  0.93800000000E+00  0.93800000000E+00 0.  1.
         11    1    1    2    0    0  0.16818838898E-01  0.11626046098E+00  0.10283845643E+01  0.10350721913E+01  0.51100000000E-03 0. -1.
    9000002    1    1    2    0    0 -0.70704571315E-01 -0.44638992665E+00  0.13878071712E+00  0.10504128667E+01  0.93800000000E+00 0.  1.
         22    1    1    2    0    0  0.53885732417E-01  0.33012946567E+00  0.28328346860E+01  0.28525149420E+01  0.00000000000E+00 0. -1.
</event>
<event>
 5    1  0.6564536E+001  0.1598370E+01  0.7818608E-02  0.3355135E+00
         11   -1    0    0    0    0  0.00000000000E+00  0.00000000000E+00  0.39999999674E+01  0.40000000000E+01  0.51100000000E-03 0.  1.
    9000002   -1    0    0    0    0 -0.00000000000E+00 -0.00000000000E+00  0.00000000000E+00  0.93800000000E+00  0.93800000000E+00 0. -1.
         11    1    1    2    0    0 -0.13208550093E+00  0.74171026430E-01  0.10979358328E+01  0.11083371666E+01  0.51100000000E-03 0.  1.
    9000002    1    1    2    0    0  0.36039845456E+00 -0.35251181211E+00  0.17528519920E+00  0.10792221851E+01  0.93800000000E+00 0. -1.
         22    1    1    2    0    0 -0.22831295363E+00  0.27834078568E+00  0.27267789353E+01  0.27504406483E+01  0.00000000000E+00 0.  1.
</event>
<event>
 5    1  0.6564536E+001  0.1598596E+01  0.7818608E-02  0.3354888E+00
         11   -1    0    0    0    0  0.00000000000E+00  0.00000000000E+00  0.39999999674E+01  0.40000000000E+01  0.51100000000E-03 0. -1.
    9000002   -1    0    0    0    0 -0.00000000000E+00 -0.00000000000E+00  0.00000000000E+00  0.93800000000E+00  0.93800000000E+00 0.  1.
         11    1    1    2    0    0  0.52405938529E-02 -0.14894056999E-01  0.34730896357E+00  0.34766805153E+00  0.51100000000E-03 0. -1.
    9000002    1    1    2    0    0 -0.19829940958E+00  0.37698618895E+00  0.12372636838E+00  0.10375902162E+01  0.93800000000E+00 0.  1.
         22    1    1    2    0    0  0.19305881572E+00 -0.36209213195E+00  0.35289646354E+01  0.35527417323E+01  0.00000000000E+00 0. -1.
</event>
<event>
 5    1  0.6564536E+001  0.1599676E+01  0.7818608E-02  0.3353716E+00
         11   -1    0    0    0    0  0.00000000000E+00  0.00000000000E+00  0.39999999674E+01  0.40000000000E+01  0.51100000000E-03 0. -1.
    9000002   -1    0    0    0    0 -0.00000000000E+00 -0.00000000000E+00  0.00000000000E+00  0.93800000000E+00  0.93800000000E+00 0.  1.
         11    1    1    2    0    0 -0.27200766832E-01  0.28498375127E-01  0.31746786356E+00  0.31990333636E+00  0.51100000000E-03 0.  1.
    9000002    1    1    2    0    0  0.32230659524E+00 -0.34188912639E+00  0.15039627502E+00  0.10598267574E+01  0.93800000000E+00 0.  1.
         22    1    1    2    0    0 -0.29510582841E+00  0.31339075127E+00  0.35321358288E+01  0.35582699063E+01  0.00000000000E+00 0. -1.
</event>
<event>
 5    1  0.6564536E+001  0.1599581E+01  0.7818608E-02  0.3353818E+00
         11   -1    0    0    0    0  0.00000000000E+00  0.00000000000E+00  0.39999999674E+01  0.40000000000E+01  0.51100000000E-03 0. -1.
    9000002   -1    0    0    0    0 -0.00000000000E+00 -0.00000000000E+00  0.00000000000E+00  0.93800000000E+00  0.93800000000E+00 0.  1.
         11    1    1    2    0    0  0.45535386627E-01  0.14081435100E+00  0.13327319931E+01  0.13409239275E+01  0.51100000000E-03 0. -1.
    9000002    1    1    2    0    0 -0.10345039711E+00 -0.42398656445E+00  0.12918952118E+00  0.10425931728E+01  0.93800000000E+00 0.  1.
         22    1    1    2    0    0  0.57915010478E-01  0.28317221345E+00  0.25380784531E+01  0.25544828997E+01  0.00000000000E+00 0. -1.
</event>
<event>
 5    1  0.6564536E+001  0.1585029E+01  0.7818608E-02  0.3369775E+00
         11   -1    0    0    0    0  0.00000000000E+00  0.00000000000E+00  0.39999999674E+01  0.40000000000E+01  0.51100000000E-03 0.  1.
    9000002   -1    0    0    0    0 -0.00000000000E+00 -0.00000000000E+00  0.00000000000E+00  0.93800000000E+00  0.93800000000E+00 0.  1.
         11    1    1    2    0    0 -0.66082275139E-01  0.78647720058E-01  0.25287669174E+00  0.27294544016E+00  0.51100000000E-03 0.  1.
    9000002    1    1    2    0    0  0.13307877884E+00 -0.47081003055E+00  0.17676141151E+00  0.10725952838E+01  0.93800000000E+00 0.  1.
         22    1    1    2    0    0 -0.66996503705E-01  0.39216231049E+00  0.35703618641E+01  0.35924592760E+01  0.00000000000E+00 0.  1.
</event>
<event>
 5    1  0.6564536E+001  0.1599392E+01  0.7818608E-02  0.3354024E+00
         11   -1    0    0    0    0  0.00000000000E+00  0.00000000000E+00  0.39999999674E+01  0.40000000000E+01  0.51100000000E-03 0. -1.
    9000002   -1    0    0    0    0 -0.00000000000E+00 -0.00000000000E+00  0.00000000000E+00  0.93800000000E+00  0.93800000000E+00 0.  1.
         11    1    1    2    0    0 -0.14315879023E+00  0.86434309185E-01  0.47494296798E+00  0.50352399444E+00  0.51100000000E-03 0. -1.
    9000002    1    1    2    0    0  0.86468330778E+00 -0.52830238199E+00  0.83303756478E+00  0.16126302161E+01  0.93800000000E+00 0.  1.
         22    1    1    2    0    0 -0.72152451755E+00  0.44186807280E+00  0.26920194346E+01  0.28218457894E+01  0.00000000000E+00 0. -1.
</event>
<event>
 5    1  0.6564536E+001  0.1599173E+01  0.7818608E-02  0.3354262E+00
         11   -1    0    0    0    0  0.00000000000E+00  0.00000000000E+00  0.39999999674E+01  0.40000000000E+01  0.51100000000E-03 0.  1.
    9000002   -1    0    0    0    0 -0.00000000000E+00 -0.00000000000E+00  0.00000000000E+00  0.93800000000E+00  0.93800000000E+00 0. -1.
         11    1    1    2    0    0 -0.64804928433E-01  0.16862851612E+00  0.87607736391E+00  0.89450939843E+00  0.51100000000E-03 0.  1.
    9000002    1    1    2    0    0  0.20942488573E+00 -0.63373619026E+00  0.31623990978E+00  0.11938726993E+01  0.93800000000E+00 0. -1.
         22    1    1    2    0    0 -0.14461995730E+00  0.46510767415E+00  0.28076826937E+01  0.28496179023E+01  0.00000000000E+00 0.  1.
</event>
<event>
 5    1  0.6564536E+001  0.1599602E+01  0.7818608E-02  0.3353795E+00
         11   -1    0    0    0    0  0.00000000000E+00  0.00000000000E+00  0.39999999674E+01  0.40000000000E+01  0.51100000000E-03 0. -1.
    9000002   -1    0    0    0    0 -0.00000000000E+00 -0.00000000000E+00  0.00000000000E+00  0.93800000000E+00  0.93800000000E+00 0.  1.
         11    1    1    2    0    0 -0.13178999586E+00 -0.37858461805E-01  0.13661270407E+01  0.13729913395E+01  0.51100000000E-03 0. -1.
    9000002    1    1    2    0    0  0.38077393122E+00  0.13557067041E+00  0.11031715810E+00  0.10273179005E+01  0.93800000000E+00 0.  1.
         22    1    1    2    0    0 -0.24898393536E+00 -0.97712208605E-01  0.25235557686E+01  0.25376907599E+01  0.00000000000E+00 0. -1.
</event>
<event>
 5    1  0.6564536E+001  0.1591507E+01  0.7818608E-02  0.3362633E+00
         11   -1    0    0    0    0  0.00000000000E+00  0.00000000000E+00  0.39999999674E+01  0.40000000000E+01  0.51100000000E-03 0. -1.
    9000002   -1    0    0    0    0 -0.00000000000E+00 -0.00000000000E+00  0.00000000000E+00  0.93800000000E+00  0.93800000000E+00 0. -1.
         11    1    1    2    0    0 -0.13390300779E+00  0.47829133084E-01  0.79500535081E+00  0.80762083331E+00  0.51100000000E-03 0. -1.
    9000002    1    1    2    0    0  0.42677243179E+00  0.13319426193E+00  0.14276766573E+00  0.10488574862E+01  0.93800000000E+00 0. -1.
         22    1    1    2    0    0 -0.29286942401E+00 -0.18102339502E+00  0.30622269508E+01  0.30815216805E+01  0.00000000000E+00 0. -1.
</event>
<event>
 5    1  0.6564536E+001  0.1582841E+01  0.7818608E-02  0.3372200E+00
         11   -1    0    0    0    0  0.00000000000E+00  0.00000000000E+00  0.39999999674E+01  0.40000000000E+01  0.51100000000E-03 0. -1.
    9000002   -1    0    0    0    0 -0.00000000000E+00 -0.00000000000E+00  0.00000000000E+00  0.93800000000E+00  0.93800000000E+00 0.  1.
         11    1    1    2    0    0  0.34957193851E+00  0.47967328920E-01  0.10151238956E+01  0.10746991157E+01  0.51100000000E-03 0. -1.
    9000002    1    1    2    0    0 -0.72468415898E+00 -0.26484760293E+00  0.45563309647E+00  0.12972112016E+01  0.93800000000E+00 0.  1.
         22    1    1    2    0    0  0.37511222047E+00  0.21688027401E+00  0.25292429753E+01  0.25660896826E+01  0.00000000000E+00 0. -1.
</event>
<event>
 5    1  0.6564536E+001  0.1598995E+01  0.7818608E-02  0.3354455E+00
         11   -1    0    0    0    0  0.00000000000E+00  0.00000000000E+00  0.39999999674E+01  0.40000000000E+01  0.51100000000E-03 0. -1.
    9000002   -1    0    0    0    0 -0.00000000000E+00 -0.00000000000E+00  0.00000000000E+00  0.93800000000E+00  0.93800000000E+00 0. -1.
         11    1    1    2    0    0 -0.33031270704E-01  0.49712843738E-01  0.84632454871E+00  0.84842674082E+00  0.51100000000E-03 0. -1.
    9000002    1    1    2    0    0  0.26944901578E+00 -0.20110868907E+00  0.76231928064E-01  0.99935118141E+00  0.93800000000E+00 0. -1.
         22    1    1    2    0    0 -0.23641774508E+00  0.15139584533E+00  0.30774434906E+01  0.30902220778E+01  0.00000000000E+00 0. -1.
</event>
<event>
 5    1  0.6564536E+001  0.1599392E+01  0.7818608E-02  0.3354024E+00
         11   -1    0    0    0    0  0.00000000000E+00  0.00000000000E+00  0.39999999674E+01  0.40000000000E+01  0.51100000000E-03 0. -1.
    9000002   -1    0    0    0    0 -0.00000000000E+00 -0.00000000000E+00  0.00000000000E+00  0.93800000000E+00  0.93800000000E+00 0. -1.
         11    1    1    2    0    0  0.20539451674E-01 -0.35683565414E-01  0.35351016070E+00  0.35590009940E+00  0.51100000000E-03 0. -1.
    9000002    1    1    2    0    0 -0.97838412057E-01  0.40531666196E+00  0.11777026402E+00  0.10332317196E+01  0.93800000000E+00 0. -1.
         22    1    1    2    0    0  0.77298960383E-01 -0.36963309655E+00  0.35287195426E+01  0.35488681810E+01  0.00000000000E+00 0. -1.
</event>
<event>
 5    1  0.6564536E+001  0.1599375E+01  0.7818608E-02  0.3354042E+00
         11   -1    0    0    0    0  0.00000000000E+00  0.00000000000E+00  0.39999999674E+01  0.40000000000E+01  0.51100000000E-03 0.  1.
    9000002   -1    0    0    0    0 -0.00000000000E+00 -0.00000000000E+00  0.00000000000E+00  0.93800000000E+00  0.93800000000E+00 0. -1.
         11    1    1    2    0    0  0.18263744995E-01  0.30833774507E-01  0.31758989895E+00  0.31960583704E+00  0.51100000000E-03 0.  1.
    9000002    1    1    2    0    0 -0.11485571979E+00 -0.46336503640E+00  0.15570168629E+00  0.10639483110E+01  0.93800000000E+00 0. -1.
         22    1    1    2    0    0  0.96591974797E-01  0.43253126190E+00  0.35267083821E+01  0.35544458520E+01  0.00000000000E+00 0.  1.
</event>
<event>
 5    1  0.6564536E+001  0.1599664E+01  0.7818608E-02  0.3353728E+00
         11   -1    0    0    0    0  0.00000000000E+00  0.00000000000E+00  0.39999999674E+01  0.40000000000E+01  0.51100000000E-03 0. -1.
    9000002   -1    0    0    0    0 -0.00000000000E+00 -0.00000000000E+00  0.00000000000E+00  0.93800000000E+00  0.93800000000E+00 0. -1.
         11    1    1    2    0    0  0.54512188570E-01 -0.30892046815E-01  0.47637249948E+00  0.48047571910E+00  0.51100000000E-03 0. -1.
    9000002    1    1    2    0    0 -0.42115432330E+00  0.26327455974E+00  0.16878705660E+00  0.10747174179E+01  0.93800000000E+00 0. -1.
         22    1    1    2    0    0  0.36664213473E+00 -0.23238251292E+00  0.33548404113E+01  0.33828068630E+01  0.00000000000E+00 0. -1.
</event>
<event>
 5    1  0.6564536E+001  0.1599633E+01  0.7818608E-02  0.3353761E+00
         11   -1    0    0    0    0  0.00000000000E+00  0.00000000000E+00  0.39999999674E+01  0.40000000000E+01  0.51100000000E-03 0.  1.
    9000002   -1    0    0    0    0 -0.00000000000E+00 -0.00000000000E+00  0.00000000000E+00  0.93800000000E+00  0.93800000000E+00 0. -1.
         11    1    1    2    0    0  0.21025631288E-01  0.15546817184E-01  0.31196404400E+00  0.31305847148E+00  0.51100000000E-03 0.  1.
    9000002    1    1    2    0    0 -0.31706761744E+00 -0.19185612872E+00  0.92340195994E-01  0.10127740913E+01  0.93800000000E+00 0. -1.
         22    1    1    2    0    0  0.29604198616E+00  0.17630931154E+00  0.35956957274E+01  0.36121674372E+01  0.00000000000E+00 0.  1.
</event>
<event>
 5    1  0.6564536E+001  0.1584933E+01  0.7818608E-02  0.3369880E+00
         11   -1    0    0    0    0  0.00000000000E+00  0.00000000000E+00  0.39999999674E+01  0.40000000000E+01  0.51100000000E-03 0.  1.
    9000002   -1    0    0    0    0 -0.00000000000E+00 -0.00000000000E+00  0.00000000000E+00  0.93800000000E+00  0.93800000000E+00 0. -1.
         11    1    1    2    0    0  0.34070564338E-01 -0.50743904016E-01  0.52461305708E+00  0.52816178196E+00  0.51100000000E-03 0.  1.
    9000002    1    1    2    0    0  0.33485530537E+00 -0.73785472900E-01  0.90688446485E-01  0.10028164168E+01  0.93800000000E+00 0. -1.
         22    1    1    2    0    0 -0.36892586970E+00  0.12452937692E+00  0.33846984638E+01  0.34070218012E+01  0.00000000000E+00 0.  1.
</event>
<event>
 5    1  0.6564536E+001  0.1599676E+01  0.7818608E-02  0.3353715E+00
         11   -1    0    0    0    0  0.00000000000E+00  0.00000000000E+00  0.39999999674E+01  0.40000000000E+01  0.51100000000E-03 0.  1.
    9000002   -1    0    0    0    0 -0.00000000000E+00 -0.00000000000E+00  0.00000000000E+00  0.93800000000E+00  0.93800000000E+00 0. -1.
         11    1    1    2    0    0  0.59648179507E-01 -0.27284587502E-01  0.33436899658E+00  0.34074219144E+00  0.51100000000E-03 0.  1.
    9000002    1    1    2    0    0 -0.64377355966E+00  0.29870907363E+00  0.36091317397E+00  0.12303551625E+01  0.93800000000E+00 0. -1.
         22    1    1    2    0    0  0.58412538015E+00 -0.27142448612E+00  0.33047177968E+01  0.33669026460E+01  0.00000000000E+00 0.  1.
</event>
<event>
 5    1  0.6564536E+001  0.1599677E+01  0.7818608E-02  0.3353714E+00
         11   -1    0    0    0    0  0.00000000000E+00  0.00000000000E+00  0.39999999674E+01  0.40000000000E+01  0.51100000000E-03 0.  1.
    9000002   -1    0    0    0    0 -0.00000000000E+00 -0.00000000000E+00  0.00000000000E+00  0.93800000000E+00  0.93800000000E+00 0.  1.
         11    1    1    2    0    0  0.21916436200E+00  0.34189887131E-01  0.13243044368E+01  0.13427525715E+01  0.51100000000E-03 0.  1.
    9000002    1    1    2    0    0 -0.61817219207E+00 -0.96674801550E-01  0.27468689132E+00  0.11605084078E+01  0.93800000000E+00 0.  1.
         22    1    1    2    0    0  0.39900783007E+00  0.62484914419E-01  0.24010086393E+01  0.24347390207E+01  0.00000000000E+00 0.  1.
</event>
<event>
 5    1  0.6987792E+001  0.1598950E+01  0.7818608E-02  0.3354504E+00
         11   -1    0    0    0    0  0.00000000000E+00  0.00000000000E+00  0.39999999674E+01  0.40000000000E+01  0.51100000000E-03 0. -1.
    9000002   -1    0    0    0    0 -0.00000000000E+00 -0.00000000000E+00  0.00000000000E+00  0.93800000000E+00  0.93800000000E+00 0. -1.
         11    1    1    2    0    0 -0.68130670586E-01 -0.65767788705E-01  0.14114809319E+01  0.14146539763E+01  0.51100000000E-03 0. -1.
    9000002    1    1    2    0    0  0.20243522121E+00  0.26860094361E+00  0.76321401968E-01  0.99939753957E+00  0.93800000000E+00 0. -1.
         22    1    1    2    0    0 -0.13430455062E+00 -0.20283315490E+00  0.25121976335E+01  0.25239484842E+01  0.00000000000E+00 0.  1.
</event>
<event>
 5    1  0.6564536E+001  0.1502524E+01  0.7818608E-02  0.3466468E+00
         11   -1    0    0    0    0  0.00000000000E+00  0.00000000000E+00  0.39999999674E+01  0.40000000000E+01  0.51100000000E-03 0.  1.
    9000002   -1    0    0    0    0 -0.00000000000E+00 -0.00000000000E+00  0.00000000000E+00  0.93800000000E+00  0.93800000000E+00 0. -1.
         11    1    1    2    0    0 -0.86364228870E-01 -0.32299556287E-01  0.28368765937E-01  0.96473257260E-01  0.51100000000E-03 0.  1.
    9000002    1    1    2    0    0 -0.51547688999E-02 -0.32844468953E+00  0.15390214106E+00  0.10056999328E+01  0.93800000000E+00 0. -1.
         22    1    1    2    0    0  0.91518997770E-01  0.36074424582E+00  0.38177290604E+01  0.38358268100E+01  0.00000000000E+00 0.  1.
</event>
<event>
 5    1  0.6564536E+001  0.1599670E+01  0.7818608E-02  0.3353721E+00
         11   -1    0    0    0    0  0.00000000000E+00  0.00000000000E+00  0.39999999674E+01  0.40000000000E+01  0.51100000000E-03 0.  1.
    9000002   -1    0    0    0    0 -0.00000000000E+00 -0.00000000000E+00  0.00000000000E+00  0.93800000000E+00  0.93800000000E+00 0.  1.
         11    1    1    2    0    0 -0.30389788599E-01  0.43520099600E-01  0.51678970878E+00  0.51950880891E+00  0.51100000000E-03 0. -1.
    9000002    1    1    2    0    0  0.21546240672E+00 -0.33594412771E+00  0.10743247961E+00  0.10250210941E+01  0.93800000000E+00 0.  1.
         22    1    1    2    0    0 -0.18507261812E+00  0.29242402811E+00  0.33757777790E+01  0.33934700970E+01  0.00000000000E+00 0.  1.
</event>
<event>
 5    1  0.6564536E+001  0.1599676E+01  0.7818608E-02  0.3353715E+00
         11   -1    0    0    0    0  0.00000000000E+00  0.00000000000E+00  0.39999999674E+01  0.40000000000E+01  0.51100000000E-03 0. -1.
    9000002   -1    0    0    0    0 -0.00000000000E+00 -0.00000000000E+00  0.00000000000E+00  0.93800000000E+00  0.93800000000E+00 0.  1.
         11    1    1    2    0    0 -0.27462009821E-01  0.31338001263E-02  0.27347464581E+00  0.27486837888E+00  0.51100000000E-03 0.  1.
    9000002    1    1    2    0    0  0.39504298849E+00 -0.38555954177E-01  0.10622679731E+00  0.10240476829E+01  0.93800000000E+00 0.  1.
         22    1    1    2    0    0 -0.36758097867E+00  0.35422154051E-01  0.36202985242E+01  0.36390839382E+01  0.00000000000E+00 0. -1.
</event>
<event>
 5    1  0.6564536E+001  0.1599675E+01  0.7818608E-02  0.3353716E+00
         11   -1    0    0    0    0  0.00000000000E+00  0.00000000000E+00  0.39999999674E+01  0.40000000000E+01  0.51100000000E-03 0.  1.
    9000002   -1    0    0    0    0 -0.00000000000E+00 -0.00000000000E+00  0.00000000000E+00  0.93800000000E+00  0.93800000000E+00 0.  1.
         11    1    1    2    0    0 -0.10247239868E+00  0.26411576496E-01  0.88015097244E+00  0.88648979648E+00  0.51100000000E-03 0.  1.
    9000002    1    1    2    0    0  0.44829307260E+00 -0.10932424384E+00  0.14486048684E+00  0.10553421388E+01  0.93800000000E+00 0.  1.
         22    1    1    2    0    0 -0.34582067392E+00  0.82912667346E-01  0.29749885081E+01  0.29961680647E+01  0.00000000000E+00 0.  1.
</event>
<event>
 5    1  0.6564536E+001  0.1591464E+01  0.7818608E-02  0.3362681E+00
         11   -1    0    0    0    0  0.00000000000E+00  0.00000000000E+00  0.39999999674E+01  0.40000000000E+01  0.51100000000E-03 0. -1.
    9000002   -1    0    0    0    0 -0.00000000000E+00 -0.00000000000E+00  0.00000000000E+00  0.93800000000E+00  0.93800000000E+00 0.  1.
         11    1    1    2    0    0  0.37888721669E-01  0.83185761580E-02  0.67512129336E-01  0.77864643244E-01  0.51100000000E-03 0. -1.
    9000002    1    1    2    0    0 -0.58312887625E+00  0.31993606043E+00  0.32219137671E+00  0.11941732087E+01  0.93800000000E+00 0.  1.
         22    1    1    2    0    0  0.54524015458E+00 -0.32825463659E+00  0.36102964613E+01  0.36659621481E+01  0.00000000000E+00 0. -1.
</event>
<event>
 5    1  0.6744755E+001  0.1538909E+01  0.7818608E-02  0.3422461E+00
         11   -1    0    0    0    0  0.00000000000E+00  0.00000000000E+00  0.39999999674E+01  0.40000000000E+01  0.51100000000E-03 0.  1.
    9000002   -1    0    0    0    0 -0.00000000000E+00 -0.00000000000E+00  0.00000000000E+00  0.93800000000E+00  0.93800000000E+00 0. -1.
         11    1    1    2    0    0  0.21906151239E+00  0.50834039765E-01  0.79506889828E+00  0.82626076994E+00  0.51100000000E-03 0.  1.
    9000002    1    1    2    0    0  0.75855124785E-01 -0.22129943821E-01  0.49708602929E-01  0.94263390538E+00  0.93800000000E+00 0. -1.
         22    1    1    2    0    0 -0.29491663717E+00 -0.28704095944E-01  0.31552224661E+01  0.31691053247E+01  0.00000000000E+00 0.  1.
</event>
<event>
 5    1  0.6564536E+001  0.1599656E+01  0.7818608E-02  0.3353736E+00
         11   -1    0    0    0    0  0.00000000000E+00  0.00000000000E+00  0.39999999674E+01  0.40000000000E+01  0.51100000000E-03 0. -1.
    9000002   -1    0    0    0    0 -0.00000000000E+00 -0.00000000000E+00  0.00000000000E+00  0.93800000000E+00  0.93800000000E+00 0. -1.
         11    1    1    2    0    0 -0.12938127806E-01 -0.21264697620E-01  0.26547587306E+00  0.26664073735E+00  0.51100000000E-03 0. -1.
    9000002    1    1    2    0    0  0.15199968853E+00  0.32349224061E+00  0.85746155878E-01  0.10074460473E+01  0.93800000000E+00 0. -1.
         22    1    1    2    0    0 -0.13906156073E+00 -0.30222754300E+00  0.36487779384E+01  0.36639132153E+01  0.00000000000E+00 0. -1.
</event>
<event>
 5    1  0.6564536E+001  0.1599332E+01  0.7818608E-02  0.3354089E+00
         11   -1    0    0    0    0  0.00000000000E+00  0.00000000000E+00  0.39999999674E+01  0.40000000000E+01  0.51100000000E-03 0.  1.
    9000002   -1    0    0    0    0 -0.00000000000E+00 -0.00000000000E+00  0.00000000000E+00  0.93800000000E+00  0.93800000000E+00 0.  1.
         11    1    1    2    0    0  0.11387467890E+00 -0.48686887245E-01  0.10959945328E+01  0.11029696880E+01  0.51100000000E-03 0.  1.
    9000002    1    1    2    0    0 -0.37568117628E+00  0.10769279335E+00  0.10318773112E+00  0.10213842528E+01  0.93800000000E+00 0.  1.
         22    1    1    2    0    0  0.26180649738E+00 -0.59005906100E-01  0.28008177034E+01  0.28136460593E+01  0.00000000000E+00 0.  1.
</event>
<event>
 5    1  0.6564536E+001  0.1599639E+01  0.7818608E-02  0.3353755E+00
         11   -1    0    0    0    0  0.00000000000E+00  0.00000000000E+00  0.39999999674E+01  0.40000000000E+01  0.51100000000E-03 0.  1.
    9000002   -1    0    0    0    0 -0.00000000000E+00 -0.00000000000E+00  0.00000000000E+00  0.93800000000E+00  0.93800000000E+00 0. -1.
         11    1    1    2    0    0  0.45274721078E-01 -0.59144769387E-02  0.44976262770E+00  0.45207462194E+00  0.51100000000E-03 0.  1.
    9000002    1    1    2    0    0 -0.38663690491E+00  0.91613165180E-01  0.10648909422E+00  0.10242387395E+01  0.93800000000E+00 0. -1.
         22    1    1    2    0    0  0.34136218383E+00 -0.85698688241E-01  0.34437482454E+01  0.34616866386E+01  0.00000000000E+00 0.  1.
</event>
<event>
 5    1  0.6564536E+001  0.1599606E+01  0.7818608E-02  0.3353791E+00
         11   -1    0    0    0    0  0.00000000000E+00  0.00000000000E+00  0.39999999674E+01  0.40000000000E+01  0.51100000000E-03 0. -1.
    9000002   -1    0    0    0    0 -0.00000000000E+00 -0.00000000000E+00  0.00000000000E+00  0.93800000000E+00  0.93800000000E+00 0. -1.
         11    1    1    2    0    0  0.39295888635E-03  0.23190491818E-02  0.14717597225E-01  0.14913121567E-01  0.51100000000E-03 0. -1.
    9000002    1    1    2    0    0 -0.32245292424E+00 -0.40079686158E+00  0.18165444853E+00  0.10851066083E+01  0.93800000000E+00 0. -1.
         22    1    1    2    0    0  0.32205996535E+00  0.39847781240E+00  0.38036279216E+01  0.38379802702E+01  0.00000000000E+00 0. -1.
</event>
<event>
 5    1  0.6564536E+001  0.1599677E+01  0.7818608E-02  0.3353715E+00
         11   -1    0    0    0    0  0.00000000000E+00  0.00000000000E+00  0.39999999674E+01  0.40000000000E+01  0.51100000000E-03 0. -1.
    9000002   -1    0    0    0    0 -0.00000000000E+00 -0.00000000000E+00  0.00000000000E+00  0.93800000000E+00  0.93800000000E+00 0. -1.
         11    1    1    2    0    0  0.10104331210E+00 -0.32746765042E-01  0.11468323139E+01  0.11517407342E+01  0.51100000000E-03 0.  1.
    9000002    1    1    2    0    0 -0.34308573265E+00  0.11361025821E+00  0.87691436753E-01  0.10090336460E+01  0.93800000000E+00 0. -1.
         22    1    1    2    0    0  0.24204242054E+00 -0.80863493173E-01  0.27654762167E+01  0.27772256198E+01  0.00000000000E+00 0. -1.
</event>
<event>
 5    1  0.6564536E+001  0.1599303E+01  0.7818608E-02  0.3354120E+00
         11   -1    0    0    0    0  0.00000000000E+00  0.00000000000E+00  0.39999999674E+01  0.40000000000E+01  0.51100000000E-03 0.  1.
    9000002   -1    0    0    0    0 -0.00000000000E+00 -0.00000000000E+00  0.00000000000E+00  0.93800000000E+00  0.93800000000E+00 0.  1.
         11    1    1    2    0    0  0.11066918713E+00 -0.72199129176E-01  0.13879218236E+01  0.13941978457E+01  0.51100000000E-03 0.  1.
    9000002    1    1    2    0    0 -0.26595316552E+00  0.24619789530E+00  0.88494224528E-01  0.10094650651E+01  0.93800000000E+00 0.  1.
         22    1    1    2    0    0  0.15528397839E+00 -0.17399876613E+00  0.25235839192E+01  0.25343370892E+01  0.00000000000E+00 0.  1.
</event>
<event>
 5    1  0.6564536E+001  0.1599671E+01  0.7818608E-02  0.3353721E+00
         11   -1    0    0    0    0  0.00000000000E+00  0.00000000000E+00  0.39999999674E+01  0.40000000000E+01  0.51100000000E-03 0.  1.
    9000002   -1    0    0    0    0 -0.00000000000E+00 -0.00000000000E+00  0.00000000000E+00  0.93800000000E+00  0.93800000000E+00 0.  1.
         11    1    1    2    0    0 -0.99459394881E-01 -0.22308372884E-01  0.11409325442E+01  0.11454768292E+01  0.51100000000E-03 0.  1.
    9000002    1    1    2    0    0  0.34644248563E+00  0.68824489481E-01  0.83687053608E-01  0.10057866221E+01  0.93800000000E+00 0.  1.
         22    1    1    2    0    0 -0.24698309075E+00 -0.46516116597E-01  0.27753803696E+01  0.27867365487E+01  0.00000000000E+00 0.  1.
</event>
<event>
 5    1  0.6564536E+001  0.1599675E+01  0.7818608E-02  0.3353716E+00
         11   -1    0    0    0    0  0.00000000000E+00  0.00000000000E+00  0.39999999674E+01  0.40000000000E+01  0.51100000000E-03 0.  1.
    9000002   -1    0    0    0    0 -0.00000000000E+00 -0.00000000000E+00  0.00000000000E+00  0.93800000000E+00  0.93800000000E+00 0. -1.
         11    1    1    2    0    0  0.20115909195E-01 -0.32412292523E-01  0.18515884702E+00  0.18904831726E+00  0.51100000000E-03 0.  1.
    9000002    1    1    2    0    0 -0.38139281290E+00  0.62848659865E+00  0.39007515507E+00  0.12539770768E+01  0.93800000000E+00 0. -1.
         22    1    1    2    0    0  0.36127690371E+00 -0.59607430613E+00  0.34247659653E+01  0.34949746060E+01  0.00000000000E+00 0.  1.
</event>
<event>
 5    1  0.6564536E+001  0.1599430E+01  0.7818608E-02  0.3353982E+00
         11   -1    0    0    0    0  0.00000000000E+00  0.00000000000E+00  0.39999999674E+01  0.40000000000E+01  0.51100000000E-03 0.  1.
    9000002   -1    0    0    0    0 -0.00000000000E+00 -0.00000000000E+00  0.00000000000E+00  0.93800000000E+00  0.93800000000E+00 0. -1.
         11    1    1    2    0    0  0.16979744334E+00  0.27073260470E-01  0.57738865045E+00  0.60244671796E+00  0.51100000000E-03 0.  1.
    9000002    1    1    2    0    0 -0.92827695764E+00 -0.87894869319E-01  0.67571206353E+00  0.14852119078E+01  0.93800000000E+00 0. -1.
         22    1    1    2    0    0  0.75847951430E+00  0.60821608849E-01  0.27468992534E+01  0.28503413743E+01  0.00000000000E+00 0.  1.
</event>
<event>
 5    1  0.6564536E+001  0.1582379E+01  0.7818608E-02  0.3372714E+00
         11   -1    0    0    0    0  0.00000000000E+00  0.00000000000E+00  0.39999999674E+01  0.40000000000E+01  0.51100000000E-03 0. -1.
    9000002   -1    0    0    0    0 -0.00000000000E+00 -0.00000000000E+00  0.00000000000E+00  0.93800000000E+00  0.93800000000E+00 0. -1.
         11    1    1    2    0    0 -0.65943168171E-01 -0.95796943580E-02  0.11441216716E+01  0.11460606147E+01  0.51100000000E-03 0. -1.
    9000002    1    1    2    0    0 -0.22341058081E+00  0.23613654384E+00  0.84522338987E-01  0.99632363253E+00  0.93800000000E+00 0. -1.
         22    1    1    2    0    0  0.28935374898E+00 -0.22655684949E+00  0.27713559568E+01  0.27956157528E+01  0.00000000000E+00 0. -1.
</event>
<event>
 5    1  0.6564536E+001  0.1599117E+01  0.7818608E-02  0.3354322E+00
         11   -1    0    0    0    0  0.00000000000E+00  0.00000000000E+00  0.39999999674E+01  0.40000000000E+01  0.51100000000E-03 0.  1.
    9000002   -1    0    0    0    0 -0.00000000000E+00 -0.00000000000E+00  0.00000000000E+00  0.93800000000E+00  0.93800000000E+00 0.  1.
         11    1    1    2    0    0 -0.50929906995E-01  0.41352960170E-01  0.64838258361E+00  0.65169330102E+00  0.51100000000E-03 0.  1.
    9000002    1    1    2    0    0  0.34881585097E+00 -0.12864092306E+00  0.93366268437E-01  0.10133026424E+01  0.93800000000E+00 0.  1.
         22    1    1    2    0    0 -0.29788594398E+00  0.87287962891E-01  0.32582511153E+01  0.32730040566E+01  0.00000000000E+00 0.  1.
</event>
<event>
 5    1  0.6564536E+001  0.1598878E+01  0.7818608E-02  0.3354582E+00
         11   -1    0    0    0    0  0.00000000000E+00  0.00000000000E+00  0.39999999674E+01  0.40000000000E+01  0.51100000000E-03 0.  1.
    9000002   -1    0    0    0    0 -0.00000000000E+00 -0.00000000000E+00  0.00000000000E+00  0.93800000000E+00  0.93800000000E+00 0. -1.
         11    1    1    2    0    0 -0.12905576011E+00 -0.62429382950E-01  0.11971227664E+01  0.12056765719E+01  0.51100000000E-03 0.  1.
    9000002    1    1    2    0    0  0.38781444141E+00  0.10565728174E+00  0.10967100124E+00  0.10263699288E+01  0.93800000000E+00 0. -1.
         22    1    1    2    0    0 -0.25875868130E+00 -0.43227898792E-01  0.26932061997E+01  0.27059534993E+01  0.00000000000E+00 0.  1.
</event>
<event>
 5    1  0.6564536E+001  0.1599656E+01  0.7818608E-02  0.3353736E+00
         11   -1    0    0    0    0  0.00000000000E+00  0.00000000000E+00  0.39999999674E+01  0.40000000000E+01  0.51100000000E-03 0.  1.
    9000002   -1    0    0    0    0 -0.00000000000E+00 -0.00000000000E+00  0.00000000000E+00  0.93800000000E+00  0.93800000000E+00 0.  1.
         11    1    1    2    0    0 -0.29648089648E-02 -0.24467785795E-02  0.34027718536E-01  0.34247971726E-01  0.51100000000E-03 0.  1.
    9000002    1    1    2    0    0  0.23981918771E+00  0.29381380951E+00  0.96789392500E-01  0.10163916489E+01  0.93800000000E+00 0.  1.
         22    1    1    2    0    0 -0.23685437874E+00 -0.29136703093E+00  0.38691828563E+01  0.38873603794E+01  0.00000000000E+00 0.  1.
</event>
<event>
 5    1  0.6564536E+001  0.1448551E+01  0.7818608E-02  0.3536149E+00
         11   -1    0    0    0    0  0.00000000000E+00  0.00000000000E+00  0.39999999674E+01  0.40000000000E+01  0.51100000000E-03 0.  1.
    9000002   -1    0    0    0    0 -0.00000000000E+00 -0.00000000000E+00  0.00000000000E+00  0.93800000000E+00  0.93800000000E+00 0. -1.
         11    1    1    2    0    0 -0.15691466366E+00  0.16329372274E+00  0.29012629031E+00  0.36804969366E+00  0.51100000000E-03 0.  1.
    9000002    1    1    2    0    0 -0.49807646955E+00  0.13572920149E+00  0.33903784565E+00  0.11230731260E+01  0.93800000000E+00 0. -1.
         22    1    1    2    0    0  0.65499113321E+00 -0.29902292422E+00  0.33708358314E+01  0.34468771803E+01  0.00000000000E+00 0.  1.
</event>
<event>
 5    1  0.6564536E+001  0.1537154E+01  0.7818608E-02  0.3424532E+00
         11   -1    0    0    0    0  0.00000000000E+00  0.00000000000E+00  0.39999999674E+01  0.40000000000E+01  0.51100000000E-03 0. -1.
    9000002   -1    0    0    0    0 -0.00000000000E+00 -0.00000000000E+00  0.00000000000E+00  0.93800000000E+00  0.93800000000E+00 0.  1.
         11    1    1    2    0    0  0.31868820922E+00  0.39285733710E-01  0.11999913822E+01  0.12422097738E+01  0.51100000000E-03 0. -1.
    9000002    1    1    2    0    0 -0.13640641718E+00 -0.23994262963E+00  0.10073716336E+00  0.98294005527E+00  0.93800000000E+00 0.  1.
         22    1    1    2    0    0 -0.18228179204E+00  0.20065689592E+00  0.26992714218E+01  0.27128501710E+01  0.00000000000E+00 0. -1.
</event>
<event>
 5    1  0.6564536E+001  0.1585451E+01  0.7818608E-02  0.3369308E+00
         11   -1    0    0    0    0  0.00000000000E+00  0.00000000000E+00  0.39999999674E+01  0.40000000000E+01  0.51100000000E-03 0. -1.
    9000002   -1    0    0    0    0 -0.00000000000E+00 -0.00000000000E+00  0.00000000000E+00  0.93800000000E+00  0.93800000000E+00 0. -1.
         11    1    1    2    0    0 -0.23054250964E+00  0.80928667460E-01  0.14768355406E+01  0.14969110772E+01  0.51100000000E-03 0. -1.
    9000002    1    1    2    0    0  0.49368998341E+00  0.13766526495E+00  0.19328072365E+00  0.10862241771E+01  0.93800000000E+00 0. -1.
         22    1    1    2    0    0 -0.26314747377E+00 -0.21859393241E+00  0.23298837031E+01  0.23548647456E+01  0.00000000000E+00 0. -1.
</event>
<event>
 5    1  0.6564536E+001  0.1592759E+01  0.7818608E-02  0.3361260E+00
         11   -1    0    0    0    0  0.00000000000E+00  0.00000000000E+00  0.39999999674E+01  0.40000000000E+01  0.51100000000E-03 0. -1.
    9000002   -1    0    0    0    0 -0.00000000000E+00 -0.00000000000E+00  0.00000000000E+00  0.93800000000E+00  0.93800000000E+00 0.  1.
         11    1    1    2    0    0 -0.13033617401E+00  0.12213405767E+00  0.11708933615E+01  0.11844390113E+01  0.51100000000E-03 0. -1.
    9000002    1    1    2    0    0  0.12957495423E+00 -0.36931395023E+00  0.10895566935E+00  0.10222024264E+01  0.93800000000E+00 0.  1.
         22    1    1    2    0    0  0.76121978057E-03  0.24717989256E+00  0.27201509365E+01  0.27313585623E+01  0.00000000000E+00 0. -1.
</event>
<event>
 5    1  0.6564536E+001  0.1586244E+01  0.7818608E-02  0.3368430E+00
         11   -1    0    0    0    0  0.00000000000E+00  0.00000000000E+00  0.39999999674E+01  0.40000000000E+01  0.51100000000E-03 0.  1.
    9000002   -1    0    0    0    0 -0.00000000000E+00 -0.00000000000E+00  0.00000000000E+00  0.93800000000E+00  0.93800000000E+00 0.  1.
         11    1    1    2    0    0 -0.33450835157E-01  0.46471948688E-01  0.66095827131E+00  0.66343401927E+00  0.51100000000E-03 0.  1.
    9000002    1    1    2    0    0  0.47258437639E+00  0.27213116682E+00  0.21795986212E+00  0.11066805620E+01  0.93800000000E+00 0.  1.
         22    1    1    2    0    0 -0.43913354124E+00 -0.31860311551E+00  0.31210818339E+01  0.31678854188E+01  0.00000000000E+00 0.  1.
</event>
<event>
 5    1  0.6564536E+001  0.1451303E+01  0.7818608E-02  0.3532460E+00
         11   -1    0    0    0    0  0.00000000000E+00  0.00000000000E+00  0.39999999674E+01  0.40000000000E+01  0.51100000000E-03 0.  1.
    9000002   -1    0    0    0    0 -0.00000000000E+00 -0.00000000000E+00  0.00000000000E+00  0.93800000000E+00  0.93800000000E+00 0.  1.
         11    1    1    2    0    0  0.18066393862E+00 -0.63718296479E-01  0.14778502641E+00  0.24195072882E+00  0.51100000000E-03 0.  1.
    9000002    1    1    2    0    0  0.16419124904E+00 -0.15269490062E+00  0.15538037032E+00  0.97686312164E+00  0.93800000000E+00 0.  1.
         22    1    1    2    0    0 -0.34485518767E+00  0.21641319710E+00  0.36968345706E+01  0.37191861495E+01  0.00000000000E+00 0.  1.
</event>
<event>
 5    1  0.6564536E+001  0.1599674E+01  0.7818608E-02  0.3353718E+00
         11   -1    0    0    0    0  0.00000000000E+00  0.00000000000E+00  0.39999999674E+01  0.40000000000E+01  0.51100000000E-03 0.  1.
    9000002   -1    0    0    0    0 -0.00000000000E+00 -0.00000000000E+00  0.00000000000E+00  0.93800000000E+00  0.93800000000E+00 0.  1.
         11    1    1    2    0    0  0.54560037742E-01  0.57504430297E-01  0.82566548310E+00  0.82946205961E+00  0.51100000000E-03 0.  1.
    9000002    1    1    2    0    0 -0.25565999046E+00 -0.26407906510E+00  0.90769199385E-01  0.10115250026E+01  0.93800000000E+00 0.  1.
         22    1    1    2    0    0  0.20109995272E+00  0.20657463480E+00  0.30835652849E+01  0.30970129378E+01  0.00000000000E+00 0.  1.
</event>
<event>
 5    1  0.6564536E+001  0.1599677E+01  0.7818608E-02  0.3353714E+00
         11   -1    0    0    0    0  0.00000000000E+00  0.00000000000E+00  0.39999999674E+01  0.40000000000E+01  0.51100000000E-03 0. -1.
    9000002   -1    0    0    0    0 -0.00000000000E+00 -0.00000000000E+00  0.00000000000E+00  0.93800000000E+00  0.93800000000E+00 0. -1.
         11    1    1    2    0    0  0.14194860449E+00 -0.29461387528E+00  0.13651025647E+01  0.14037278992E+01  0.51100000000E-03 0.  1.
    9000002    1    1    2    0    0 -0.36224001631E+00  0.75134046597E+00  0.51869836633E+00  0.13581687378E+01  0.93800000000E+00 0. -1.
         22    1    1    2    0    0  0.22029141181E+00 -0.45672659068E+00  0.21161990364E+01  0.21761033629E+01  0.00000000000E+00 0. -1.
</event>
<event>
 5    1  0.6564536E+001  0.1599673E+01  0.7818608E-02  0.3353719E+00
         11   -1    0    0    0    0  0.00000000000E+00  0.00000000000E+00  0.39999999674E+01  0.40000000000E+01  0.51100000000E-03 0.  1.
    9000002   -1    0    0    0    0 -0.00000000000E+00 -0.00000000000E+00  0.00000000000E+00  0.93800000000E+00  0.93800000000E+00 0.  1.
         11    1    1    2    0    0 -0.17282184654E+00  0.72579025147E-01  0.10543234415E+01  0.10708563330E+01  0.51100000000E-03 0.  1.
    9000002    1    1    2    0    0  0.60133017369E+00 -0.24903090874E+00  0.29898885376E+00  0.11801918090E+01  0.93800000000E+00 0.  1.
         22    1    1    2    0    0 -0.42850832715E+00  0.17645188359E+00  0.26466876721E+01  0.26869518580E+01  0.00000000000E+00 0.  1.
</event>
<event>
 5    1  0.6564536E+001  0.1585080E+01  0.7818608E-02  0.3369718E+00
         11   -1    0    0    0    0  0.00000000000E+00  0.00000000000E+00  0.39999999674E+01  0.40000000000E+01  0.51100000000E-03 0.  1.
    9000002   -1    0    0    0    0 -0.00000000000E+00 -0.00000000000E+00  0.00000000000E+00  0.93800000000E+00  0.93800000000E+00 0.  1.
         11    1    1    2    0    0 -0.41473962495E-01 -0.88582798033E-01  0.10540380422E+01  0.10585666994E+01  0.51100000000E-03 0.  1.
    9000002    1    1    2    0    0  0.19816881081E+00 -0.14805479048E+00  0.51866938257E-01  0.97145523718E+00  0.93800000000E+00 0.  1.
         22    1    1    2    0    0 -0.15669484831E+00  0.23663758851E+00  0.28940949869E+01  0.29079780634E+01  0.00000000000E+00 0.  1.
</event>
<event>
 5    1  0.6564536E+001  0.1573483E+01  0.7818608E-02  0.3382656E+00
         11   -1    0    0    0    0  0.00000000000E+00  0.00000000000E+00  0.39999999674E+01  0.40000000000E+01  0.51100000000E-03 0. -1.
    9000002   -1    0    0    0    0 -0.00000000000E+00 -0.00000000000E+00  0.00000000000E+00  0.93800000000E+00  0.93800000000E+00 0.  1.
         11    1    1    2    0    0  0.22191415532E-01 -0.50936204208E-01  0.10359749143E+00  0.11755703796E+00  0.51100000000E-03 0. -1.
    9000002    1    1    2    0    0  0.44326655956E+00 -0.13631645414E+00  0.16961731519E+00  0.10600384201E+01  0.93800000000E+00 0.  1.
         22    1    1    2    0    0 -0.46545797509E+00  0.18725265835E+00  0.37267851607E+01  0.37604045419E+01  0.00000000000E+00 0. -1.
</event>
<event>
 5    1  0.6564536E+001  0.1599669E+01  0.7818608E-02  0.3353722E+00
         11   -1    0    0    0    0  0.00000000000E+00  0.00000000000E+00  0.39999999674E+01  0.40000000000E+01  0.51100000000E-03 0. -1.
    9000002   -1    0    0    0    0 -0.00000000000E+00 -0.00000000000E+00  0.00000000000E+00  0.93800000000E+00  0.93800000000E+00 0.  1.
         11    1    1    2    0    0 -0.87191526622E-02  0.17115560025E-01  0.14296852430E+00  0.14425403314E+00  0.51100000000E-03 0.  1.
    9000002    1    1    2    0    0  0.22361799103E+00 -0.48522950706E+00  0.19659277708E+00  0.10972444579E+01  0.93800000000E+00 0.  1.
         22    1    1    2    0    0 -0.21489883837E+00  0.46811394704E+00  0.36604386660E+01  0.36965015089E+01  0.00000000000E+00 0. -1.
</event>
<event>
 5    1  0.6564536E+001  0.1599674E+01  0.7818608E-02  0.3353718E+00
         11   -1    0    0    0    0  0.00000000000E+00  0.00000000000E+00  0.39999999674E+01  0.40000000000E+01  0.51100000000E-03 0.  1.
    9000002   -1    0    0    0    0 -0.00000000000E+00 -0.00000000000E+00  0.00000000000E+00  0.93800000000E+00  0.93800000000E+00 0. -1.
         11    1    1    2    0    0  0.97653125070E-01  0.64349279398E-01  0.12204593946E+01  0.12260499001E+01  0.51100000000E-03 0.  1.
    9000002    1    1    2    0    0 -0.31880591215E+00 -0.20602284560E+00  0.96942418587E-01  0.10165256785E+01  0.93800000000E+00 0. -1.
         22    1    1    2    0    0  0.22115278708E+00  0.14167356620E+00  0.26825981542E+01  0.26954244214E+01  0.00000000000E+00 0.  1.
</event>
<event>
 5    1  0.6564536E+001  0.1529293E+01  0.7818608E-02  0.3433873E+00
         11   -1    0    0    0    0  0.00000000000E+00  0.00000000000E+00  0.39999999674E+01  0.40000000000E+01  0.51100000000E-03 0.  1.
    9000002   -1    0    0    0    0 -0.00000000000E+00 -0.00000000000E+00  0.00000000000E+00  0.93800000000E+00  0.93800000000E+00 0. -1.
         11    1    1    2    0    0 -0.23077437561E+00 -0.12623968980E+00  0.12152023181E+01  0.12433463744E+01  0.51100000000E-03 0.  1.
    9000002    1    1    2    0    0  0.65008380257E-05 -0.18784517416E+00  0.77844239353E-01  0.95978619239E+00  0.93800000000E+00 0. -1.
         22    1    1    2    0    0  0.23076787477E+00  0.31408486396E+00  0.27069534099E+01  0.27348674332E+01  0.00000000000E+00 0.  1.
</event>
<event>
 5    1  0.6564536E+001  0.1599675E+01  0.7818608E-02  0.3353716E+00
         11   -1    0    0    0    0  0.00000000000E+00  0.00000000000E+00  0.39999999674E+01  0.40000000000E+01  0.51100000000E-03 0. -1.
    9000002   -1    0    0    0    0 -0.00000000000E+00 -0.00000000000E+00  0.00000000000E+00  0.93800000000E+00  0.93800000000E+00 0.  1.
         11    1    1    2    0    0 -0.43127641553E-01 -0.33719638764E-01  0.50699372547E+00  0.50994108119E+00  0.51100000000E-03 0. -1.
    9000002    1    1    2    0    0  0.33495699212E+00  0.25070617234E+00  0.11836299015E+00  0.10338779274E+01  0.93800000000E+00 0.  1.
         22    1    1    2    0    0 -0.29182935056E+00 -0.21698653358E+00  0.33746432517E+01  0.33941809914E+01  0.00000000000E+00 0. -1.
</event>
<event>
 5    1  0.6564536E+001  0.1599322E+01  0.7818608E-02  0.3354100E+00
         11   -1    0    0    0    0  0.00000000000E+00  0.00000000000E+00  0.39999999674E+01  0.40000000000E+01  0.51100000000E-03 0.  1.
    9000002   -1    0    0    0    0 -0.00000000000E+00 -0.00000000000E+00  0.00000000000E+00  0.93800000000E+00  0.93800000000E+00 0. -1.
         11    1    1    2    0    0 -0.15562060785E-01 -0.13060524162E+00  0.11877715665E+01  0.11950319921E+01  0.51100000000E-03 0.  1.
    9000002    1    1    2    0    0  0.42644485247E-01  0.48943752216E+00  0.16530858913E+00  0.10716989175E+01  0.93800000000E+00 0. -1.
         22    1    1    2    0    0 -0.27082424462E-01 -0.35883228055E+00  0.26469198117E+01  0.26712690903E+01  0.00000000000E+00 0.  1.
</event>
<event>
 5    1  0.6564536E+001  0.1484791E+01  0.7818608E-02  0.3488756E+00
         11   -1    0    0    0    0  0.00000000000E+00  0.00000000000E+00  0.39999999674E+01  0.40000000000E+01  0.51100000000E-03 0. -1.
    9000002   -1    0    0    0    0 -0.00000000000E+00 -0.00000000000E+00  0.00000000000E+00  0.93800000000E+00  0.93800000000E+00 0. -1.
         11    1    1    2    0    0 -0.34307084154E+00  0.12685017290E+00  0.63138180306E+00  0.72967925216E+00  0.51100000000E-03 0. -1.
    9000002    1    1    2    0    0  0.47247309677E+00  0.30542395422E+00  0.33875019826E+00  0.11450372552E+01  0.93800000000E+00 0. -1.
         22    1    1    2    0    0 -0.12940225523E+00 -0.43227412711E+00  0.30298679660E+01  0.30632834926E+01  0.00000000000E+00 0. -1.
</event>
<event>
 5    1  0.6564536E+001  0.1599668E+01  0.7818608E-02  0.3353724E+00
         11   -1    0    0    0    0  0.00000000000E+00  0.00000000000E+00  0.39999999674E+01  0.40000000000E+01  0.51100000000E-03 0. -1.
    9000002   -1    0    0    0    0 -0.00000000000E+00 -0.00000000000E+00  0.00000000000E+00  0.93800000000E+00  0.93800000000E+00 0. -1.
         11    1    1    2    0    0  0.45706834018E-01 -0.39481632704E-01  0.40747934815E+00  0.41193154078E+00  0.51100000000E-03 0. -1.
    9000002    1    1    2    0    0 -0.41529151225E+00  0.38452519299E+00  0.22194350406E+00  0.11177788615E+01  0.93800000000E+00 0. -1.
         22    1    1    2    0    0  0.36958467823E+00 -0.34504356029E+00  0.33705771152E+01  0.34082895977E+01  0.00000000000E+00 0. -1.
</event>
<event>
 5    1  0.6564536E+001  0.1599384E+01  0.7818608E-02  0.3354032E+00
         11   -1    0    0    0    0  0.00000000000E+00  0.00000000000E+00  0.39999999674E+01  0.40000000000E+01  0.51100000000E-03 0. -1.
    9000002   -1    0    0    0    0 -0.00000000000E+00 -0.00000000000E+00  0.00000000000E+00  0.93800000000E+00  0.93800000000E+00 0. -1.
         11    1    1    2    0    0  0.27840737181E-01  0.18187286098E-01  0.19268327659E+00  0.19553258097E+00  0.51100000000E-03 0. -1.
    9000002    1    1    2    0    0 -0.41129089848E+00 -0.25260721222E+00  0.15928797917E+00  0.10668585975E+01  0.93800000000E+00 0. -1.
         22    1    1    2    0    0  0.38345016129E+00  0.23441992612E+00  0.36480287116E+01  0.36756088215E+01  0.00000000000E+00 0. -1.
</event>
<event>
 5    1  0.6564536E+001  0.1599677E+01  0.7818608E-02  0.3353714E+00
         11   -1    0    0    0    0  0.00000000000E+00  0.00000000000E+00  0.39999999674E+01  0.40000000000E+01  0.51100000000E-03 0.  1.
    9000002   -1    0    0    0    0 -0.00000000000E+00 -0.00000000000E+00  0.00000000000E+00  0.93800000000E+00  0.93800000000E+00 0. -1.
         11    1    1    2    0    0  0.74057166773E-01 -0.29589847064E-02  0.78756854902E+00  0.79104848149E+00  0.51100000000E-03 0.  1.
    9000002    1    1    2    0    0 -0.36643351399E+00  0.13654486237E-01  0.90327509005E-01  0.10111691372E+01  0.93800000000E+00 0. -1.
         22    1    1    2    0    0  0.29237634722E+00 -0.10695501531E-01  0.31221039093E+01  0.31357823813E+01  0.00000000000E+00 0.  1.
</event>
<event>
 5    1  0.6564536E+001  0.1558551E+01  0.7818608E-02  0.3399617E+00
         11   -1    0    0    0    0  0.00000000000E+00  0.00000000000E+00  0.39999999674E+01  0.40000000000E+01  0.51100000000E-03 0.  1.
    9000002   -1    0    0    0    0 -0.00000000000E+00 -0.00000000000E+00  0.00000000000E+00  0.93800000000E+00  0.93800000000E+00 0.  1.
         11    1    1    2    0    0 -0.31897146144E-01  0.15425574992E+00  0.43625372056E+00  0.46382090740E+00  0.51100000000E-03 0.  1.
    9000002    1    1    2    0    0 -0.31311961778E+00 -0.12306513846E+00  0.10939097593E+00  0.10024965381E+01  0.93800000000E+00 0.  1.
         22    1    1    2    0    0  0.34501676393E+00 -0.31190611460E-01  0.34543552709E+01  0.34716825545E+01  0.00000000000E+00 0.  1.
</event>
<event>
 5    1  0.6564536E+001  0.1581234E+01  0.7818608E-02  0.3373986E+00
         11   -1    0    0    0    0  0.00000000000E+00  0.00000000000E+00  0.39999999674E+01  0.40000000000E+01  0.51100000000E-03 0. -1.
    9000002   -1    0    0    0    0 -0.00000000000E+00 -0.00000000000E+00  0.00000000000E+00  0.93800000000E+00  0.93800000000E+00 0. -1.
         11    1    1    2    0    0  0.78080142318E-02  0.10264806132E+00  0.14838397915E+01  0.14874065945E+01  0.51100000000E-03 0. -1.
    9000002    1    1    2    0    0 -0.88960735416E-01  0.14289483632E+00  0.32532367744E-01  0.95353830633E+00  0.93800000000E+00 0. -1.
         22    1    1    2    0    0  0.81152721184E-01 -0.24554289764E+00  0.24836278081E+01  0.24970550991E+01  0.00000000000E+00 0. -1.
</event>
<event>
 5    1  0.6564536E+001  0.1543819E+01  0.7818608E-02  0.3416693E+00
         11   -1    0    0    0    0  0.00000000000E+00  0.00000000000E+00  0.39999999674E+01  0.40000000000E+01  0.51100000000E-03 0.  1.
    9000002   -1    0    0    0    0 -0.00000000000E+00 -0.00000000000E+00  0.00000000000E+00  0.93800000000E+00  0.93800000000E+00 0. -1.
         11    1    1    2    0    0  0.49945954959E-01  0.19689143660E+00  0.10785186902E+01  0.10974805978E+01  0.51100000000E-03 0.  1.
    9000002    1    1    2    0    0  0.35734118375E+00  0.34784448054E-01  0.13321984553E+00  0.10131605039E+01  0.93800000000E+00 0. -1.
         22    1    1    2    0    0 -0.40728713871E+00 -0.23167588465E+00  0.27882614316E+01  0.28273588983E+01  0.00000000000E+00 0.  1.
</event>
<event>
 5    1  0.6564536E+001  0.1381484E+01  0.7818608E-02  0.3637018E+00
         11   -1    0    0    0    0  0.00000000000E+00  0.00000000000E+00  0.39999999674E+01  0.40000000000E+01  0.51100000000E-03 0. -1.
    9000002   -1    0    0    0    0 -0.00000000000E+00 -0.00000000000E+00  0.00000000000E+00  0.93800000000E+00  0.93800000000E+00 0.  1.
         11    1    1    2    0    0  0.55477431957E+00  0.35472171455E+00  0.87244641299E+00  0.10930530843E+01  0.51100000000E-03 0. -1.
    9000002    1    1    2    0    0 -0.70821032526E+00  0.31321905936E-01  0.67146881348E+00  0.13539783211E+01  0.93800000000E+00 0.  1.
         22    1    1    2    0    0  0.15343600570E+00 -0.38604362048E+00  0.24560847409E+01  0.24909685946E+01  0.00000000000E+00 0. -1.
</event>
<event>
 5    1  0.6564536E+001  0.1598908E+01  0.7818608E-02  0.3354550E+00
         11   -1    0    0    0    0  0.00000000000E+00  0.00000000000E+00  0.39999999674E+01  0.40000000000E+01  0.51100000000E-03 0. -1.
    9000002   -1    0    0    0    0 -0.00000000000E+00 -0.00000000000E+00  0.00000000000E+00  0.93800000000E+00  0.93800000000E+00 0.  1.
         11    1    1    2    0    0  0.34648551442E-01  0.63243483339E-01  0.54039627149E+00  0.54518680437E+00  0.51100000000E-03 0. -1.
    9000002    1    1    2    0    0 -0.36039294449E+00 -0.33034678071E+00  0.16400272088E+00  0.10703985064E+01  0.93800000000E+00 0.  1.
         22    1    1    2    0    0  0.32574439305E+00  0.26710329737E+00  0.32956009750E+01  0.33224146893E+01  0.00000000000E+00 0. -1.
</event>
<event>
 5    1  0.6564536E+001  0.1531256E+01  0.7818608E-02  0.3431531E+00
         11   -1    0    0    0    0  0.00000000000E+00  0.00000000000E+00  0.39999999674E+01  0.40000000000E+01  0.51100000000E-03 0. -1.
    9000002   -1    0    0    0    0 -0.00000000000E+00 -0.00000000000E+00  0.00000000000E+00  0.93800000000E+00  0.93800000000E+00 0. -1.
         11    1    1    2    0    0  0.24069238767E+00  0.18950396352E-01  0.13247272684E+01  0.13465491227E+01  0.51100000000E-03 0. -1.
    9000002    1    1    2    0    0  0.16879851326E+00 -0.58304028803E-01  0.73847949554E-01  0.95770027540E+00  0.93800000000E+00 0. -1.
         22    1    1    2    0    0 -0.40949090093E+00  0.39353632451E-01  0.26014247494E+01  0.26337506019E+01  0.00000000000E+00 0. -1.
</event>
<event>
 5    1  0.6564536E+001  0.1597118E+01  0.7818608E-02  0.3356498E+00
         11   -1    0    0    0    0  0.00000000000E+00  0.00000000000E+00  0.39999999674E+01  0.40000000000E+01  0.51100000000E-03 0. -1.
    9000002   -1    0    0    0    0 -0.00000000000E+00 -0.00000000000E+00  0.00000000000E+00  0.93800000000E+00  0.93800000000E+00 0. -1.
         11    1    1    2    0    0 -0.11118874562E+00  0.35852823612E-01  0.12046391620E+01  0.12102909295E+01  0.51100000000E-03 0. -1.
    9000002    1    1    2    0    0  0.51901161801E+00 -0.17417052134E+00  0.20932265241E+00  0.11060598550E+01  0.93800000000E+00 0. -1.
         22    1    1    2    0    0 -0.40782287239E+00  0.13831769773E+00  0.25860381529E+01  0.26216492155E+01  0.00000000000E+00 0. -1.
</event>
<event>
 5    1  0.6564536E+001  0.1599675E+01  0.7818608E-02  0.3353716E+00
         11   -1    0    0    0    0  0.00000000000E+00  0.00000000000E+00  0.39999999674E+01  0.40000000000E+01  0.51100000000E-03 0. -1.
    9000002   -1    0    0    0    0 -0.00000000000E+00 -0.00000000000E+00  0.00000000000E+00  0.93800000000E+00  0.93800000000E+00 0.  1.
         11    1    1    2    0    0 -0.44739415331E-01 -0.28849969881E-01  0.55162217491E+00  0.55418518658E+00  0.51100000000E-03 0. -1.
    9000002    1    1    2    0    0  0.31501390151E+00  0.21221146795E+00  0.97068644516E-01  0.10166286377E+01  0.93800000000E+00 0.  1.
         22    1    1    2    0    0 -0.27027448618E+00 -0.18336149807E+00  0.33513091479E+01  0.33671861757E+01  0.00000000000E+00 0. -1.
</event>
<event>
 5    1  0.6564536E+001  0.1599516E+01  0.7818608E-02  0.3353889E+00
         11   -1    0    0    0    0  0.00000000000E+00  0.00000000000E+00  0.39999999674E+01  0.40000000000E+01  0.51100000000E-03 0. -1.
    9000002   -1    0    0    0    0 -0.00000000000E+00 -0.00000000000E+00  0.00000000000E+00  0.93800000000E+00  0.93800000000E+00 0.  1.
         11    1    1    2    0    0  0.42698621356E-02 -0.84746200927E-01  0.73852214885E+00  0.74338104344E+00  0.51100000000E-03 0. -1.
    9000002    1    1    2    0    0 -0.17518367231E-01  0.50197751818E+00  0.17291760461E+00  0.10779762613E+01  0.93800000000E+00 0.  1.
         22    1    1    2    0    0  0.13248505095E-01 -0.41723131725E+00  0.30885602139E+01  0.31166426953E+01  0.00000000000E+00 0. -1.
</event>
<event>
 5    1  0.6564536E+001  0.1599656E+01  0.7818608E-02  0.3353737E+00
         11   -1    0    0    0    0  0.00000000000E+00  0.00000000000E+00  0.39999999674E+01  0.40000000000E+01  0.51100000000E-03 0.  1.
    9000002   -1    0    0    0    0 -0.00000000000E+00 -0.00000000000E+00  0.00000000000E+00  0.93800000000E+00  0.93800000000E+00 0. -1.
         11    1    1    2    0    0  0.10006714548E+00 -0.32202500852E-01  0.92387967825E+00  0.92984103785E+00  0.51100000000E-03 0.  1.
    9000002    1    1    2    0    0 -0.43069197292E+00  0.11901767190E+00  0.13556181127E+00  0.10477985429E+01  0.93800000000E+00 0. -1.
         22    1    1    2    0    0  0.33062482744E+00 -0.86815171050E-01  0.29405584778E+01  0.29603604193E+01  0.00000000000E+00 0.  1.
</event>
<event>
 5    1  0.7525356E+001  0.1593198E+01  0.7818608E-02  0.3360779E+00
         11   -1    0    0    0    0  0.00000000000E+00  0.00000000000E+00  0.39999999674E+01  0.40000000000E+01  0.51100000000E-03 0.  1.
    9000002   -1    0    0    0    0 -0.00000000000E+00 -0.00000000000E+00  0.00000000000E+00  0.93800000000E+00  0.93800000000E+00 0. -1.
         11    1    1    2    0    0  0.45245092499E-01  0.99296337532E-01  0.11144525580E+01  0.11197819637E+01  0.51100000000E-03 0.  1.
    9000002    1    1    2    0    0 -0.31103089430E+00 -0.82118931131E-01  0.74328602517E-01  0.99441061801E+00  0.93800000000E+00 0. -1.
         22    1    1    2    0    0  0.26578580180E+00 -0.17177406400E-01  0.28112188068E+01  0.28238074183E+01  0.00000000000E+00 0.  1.
</event>
<event>
 5    1  0.6564536E+001  0.1599676E+01  0.7818608E-02  0.3353715E+00
         11   -1    0    0    0    0  0.00000000000E+00  0.00000000000E+00  0.39999999674E+01  0.40000000000E+01  0.51100000000E-03 0. -1.
    9000002   -1    0    0    0    0 -0.00000000000E+00 -0.00000000000E+00  0.00000000000E+00  0.93800000000E+00  0.93800000000E+00 0.  1.
         11    1    1    2    0    0 -0.20981648552E-01 -0.15399356562E-01  0.28121367399E+00  0.28241593673E+00  0.51100000000E-03 0.  1.
    9000002    1    1    2    0    0  0.28931467363E+00  0.20825612163E+00  0.85266538839E-01  0.10070690022E+01  0.93800000000E+00 0.  1.
         22    1    1    2    0    0 -0.26833302508E+00 -0.19285676507E+00  0.36335197545E+01  0.36485150611E+01  0.00000000000E+00 0. -1.
</event>
<event>
 5    1  0.6564536E+001  0.1558270E+01  0.7818608E-02  0.3399939E+00
         11   -1    0    0    0    0  0.00000000000E+00  0.00000000000E+00  0.39999999674E+01  0.40000000000E+01  0.51100000000E-03 0.  1.
    9000002   -1    0    0    0    0 -0.00000000000E+00 -0.00000000000E+00  0.00000000000E+00  0.93800000000E+00  0.93800000000E+00 0.  1.
         11    1    1    2    0    0 -0.21355711688E+00 -0.10515574221E+00  0.11727310654E+01  0.11966464746E+01  0.51100000000E-03 0.  1.
    9000002    1    1    2    0    0  0.20907236479E+00 -0.20455822532E+00  0.90050543123E-01  0.98666530373E+00  0.93800000000E+00 0.  1.
         22    1    1    2    0    0  0.44847520974E-02  0.30971396753E+00  0.27372183589E+01  0.27546882217E+01  0.00000000000E+00 0.  1.
</event>
<event>
 5    1  0.6564536E+001  0.1599481E+01  0.7818608E-02  0.3353927E+00
         11   -1    0    0    0    0  0.00000000000E+00  0.00000000000E+00  0.39999999674E+01  0.40000000000E+01  0.51100000000E-03 0.  1.
    9000002   -1    0    0    0    0 -0.00000000000E+00 -0.00000000000E+00  0.00000000000E+00  0.93800000000E+00  0.93800000000E+00 0.  1.
         11    1    1    2    0    0 -0.44190191485E-01 -0.19153220512E-01  0.41712455168E+00  0.41989614384E+00  0.51100000000E-03 0.  1.
    9000002    1    1    2    0    0  0.33109882041E+00  0.23247366658E+00  0.11062766584E+00  0.10274983771E+01  0.93800000000E+00 0.  1.
         22    1    1    2    0    0 -0.28690862892E+00 -0.21332044606E+00  0.34722477498E+01  0.34906054790E+01  0.00000000000E+00 0.  1.
</event>
<event>
 5    1  0.6564536E+001  0.1599677E+01  0.7818608E-02  0.3353714E+00
         11   -1    0    0    0    0  0.00000000000E+00  0.00000000000E+00  0.39999999674E+01  0.40000000000E+01  0.51100000000E-03 0. -1.
    9000002   -1    0    0    0    0 -0.00000000000E+00 -0.00000000000E+00  0.00000000000E+00  0.93800000000E+00  0.93800000000E+00 0. -1.
         11    1    1    2    0    0  0.62157848839E-01  0.19124884813E+00  0.14324197378E+01  0.14464668287E+01  0.51100000000E-03 0.  1.
    9000002    1    1    2    0    0 -0.16500000291E+00 -0.50814359823E+00  0.19657297489E+00  0.10972328157E+01  0.93800000000E+00 0. -1.
         22    1    1    2    0    0  0.10284215407E+00  0.31689475010E+00  0.23710072546E+01  0.23943003556E+01  0.00000000000E+00 0. -1.
</event>
<event>
 5    1  0.6564536E+001  0.1599676E+01  0.7818608E-02  0.3353715E+00
         11   -1    0    0    0    0  0.00000000000E+00  0.00000000000E+00  0.39999999674E+01  0.40000000000E+01  0.51100000000E-03 0. -1.
    9000002   -1    0    0    0    0 -0.00000000000E+00 -0.00000000000E+00  0.00000000000E+00  0.93800000000E+00  0.93800000000E+00 0.  1.
         11    1    1    2    0    0 -0.12198759941E+00 -0.68339864251E-02  0.90211014143E+00  0.91034644294E+00  0.51100000000E-03 0. -1.
    9000002    1    1    2    0    0  0.51883874303E+00  0.25412460414E-01  0.18534080229E+00  0.10881335614E+01  0.93800000000E+00 0.  1.
         22    1    1    2    0    0 -0.39685114362E+00 -0.18578473989E-01  0.29125490236E+01  0.29395199957E+01  0.00000000000E+00 0. -1.
</event>
<event>
 5    1  0.6564536E+001  0.1599677E+01  0.7818608E-02  0.3353714E+00
         11   -1    0    0    0    0  0.00000000000E+00  0.00000000000E+00  0.39999999674E+01  0.40000000000E+01  0.51100000000E-03 0. -1.
    9000002   -1    0    0    0    0 -0.00000000000E+00 -0.00000000000E+00  0.00000000000E+00  0.93800000000E+00  0.93800000000E+00 0.  1.
         11    1    1    2    0    0 -0.54869915605E-01 -0.11435158345E+00  0.13749975549E+01  0.13808350841E+01  0.51100000000E-03 0. -1.
    9000002    1    1    2    0    0  0.15677137003E+00  0.32482519068E+00  0.87330401625E-01  0.10087414267E+01  0.93800000000E+00 0.  1.
         22    1    1    2    0    0 -0.10190145442E+00 -0.21047360723E+00  0.25376720108E+01  0.25484234892E+01  0.00000000000E+00 0.  1.
</event>
<event>
 5    1  0.6564536E+001  0.1599559E+01  0.7818608E-02  0.3353842E+00
         11   -1    0    0    0    0  0.00000000000E+00  0.00000000000E+00  0.39999999674E+01  0.40000000000E+01  0.51100000000E-03 0. -1.
    9000002   -1    0    0    0    0 -0.00000000000E+00 -0.00000000000E+00  0.00000000000E+00  0.93800000000E+00  0.93800000000E+00 0.  1.
         11    1    1    2    0    0  0.12005191853E-02  0.23152076432E-01  0.22317806568E+00  0.22437952226E+00  0.51100000000E-03 0. -1.
    9000002    1    1    2    0    0  0.68387155147E-01 -0.34924058653E+00  0.85067990465E-01  0.10068397853E+01  0.93800000000E+00 0.  1.
         22    1    1    2    0    0 -0.69587674333E-01  0.32608851009E+00  0.36917539112E+01  0.37067806924E+01  0.00000000000E+00 0. -1.
</event>
<event>
 5    1  0.6564536E+001  0.1587876E+01  0.7818608E-02  0.3366628E+00
         11   -1    0    0    0    0  0.00000000000E+00  0.00000000000E+00  0.39999999674E+01  0.40000000000E+01  0.51100000000E-03 0. -1.
    9000002   -1    0    0    0    0 -0.00000000000E+00 -0.00000000000E+00  0.00000000000E+00  0.93800000000E+00  0.93800000000E+00 0.  1.
         11    1    1    2    0    0  0.91796455030E-01 -0.56545069451E-01  0.58258340772E+00  0.59247584095E+00  0.51100000000E-03 0. -1.
    9000002    1    1    2    0    0 -0.31453702664E+00 -0.16960675295E+00  0.95301608164E-01  0.10082789239E+01  0.93800000000E+00 0.  1.
         22    1    1    2    0    0  0.22274057161E+00  0.22615182240E+00  0.33221149515E+01  0.33372452352E+01  0.00000000000E+00 0. -1.
</event>
<event>
 5    1  0.9043424E+001  0.1583211E+01  0.7818608E-02  0.3371790E+00
         11   -1    0    0    0    0  0.00000000000E+00  0.00000000000E+00  0.39999999674E+01  0.40000000000E+01  0.51100000000E-03 0.  1.
    9000002   -1    0    0    0    0 -0.00000000000E+00 -0.00000000000E+00  0.00000000000E+00  0.93800000000E+00  0.93800000000E+00 0.  1.
         11    1    1    2    0    0 -0.11663842951E+00 -0.94977800234E-01  0.14868794754E+01  0.14944685146E+01  0.51100000000E-03 0.  1.
    9000002    1    1    2    0    0 -0.83336108910E-01  0.19461225358E+00  0.42188180082E-01  0.96251892388E+00  0.93800000000E+00 0.  1.
         22    1    1    2    0    0  0.19997453842E+00 -0.99634453345E-01  0.24709323119E+01  0.24810125615E+01  0.00000000000E+00 0.  1.
</event>
<event>
 5    1  0.7608772E+001  0.1595541E+01  0.7818608E-02  0.3358217E+00
         11   -1    0    0    0    0  0.00000000000E+00  0.00000000000E+00  0.39999999674E+01  0.40000000000E+01  0.51100000000E-03 0.  1.
    9000002   -1    0    0    0    0 -0.00000000000E+00 -0.00000000000E+00  0.00000000000E+00  0.93800000000E+00  0.93800000000E+00 0.  1.
         11    1    1    2    0    0 -0.11542745072E-01 -0.29989037496E-01  0.37790565206E+00  0.37926971974E+00  0.51100000000E-03 0.  1.
    9000002    1    1    2    0    0  0.29005346396E+00 -0.13105297949E+00  0.70977346815E-01  0.99306982592E+00  0.93800000000E+00 0.  1.
         22    1    1    2    0    0 -0.27851071889E+00  0.16104201699E+00  0.35511169685E+01  0.35656604543E+01  0.00000000000E+00 0.  1.
</event>
<event>
 5    1  0.6564536E+001  0.1599257E+01  0.7818608E-02  0.3354170E+00
         11   -1    0    0    0    0  0.00000000000E+00  0.00000000000E+00  0.39999999674E+01  0.40000000000E+01  0.51100000000E-03 0. -1.
    9000002   -1    0    0    0    0 -0.00000000000E+00 -0.00000000000E+00  0.00000000000E+00  0.93800000000E+00  0.93800000000E+00 0.  1.
         11    1    1    2    0    0  0.11328831307E+00 -0.16658252378E-01  0.10741577422E+01  0.10802438871E+01  0.51100000000E-03 0. -1.
    9000002    1    1    2    0    0 -0.45879497400E+00 -0.35612904717E-03  0.14351653458E+00  0.10540085155E+01  0.93800000000E+00 0.  1.
         22    1    1    2    0    0  0.34550666093E+00  0.17014381425E-01  0.27823256906E+01  0.28037475975E+01  0.00000000000E+00 0. -1.
</event>
<event>
 5    1  0.6564536E+001  0.1517658E+01  0.7818608E-02  0.3447888E+00
         11   -1    0    0    0    0  0.00000000000E+00  0.00000000000E+00  0.39999999674E+01  0.40000000000E+01  0.51100000000E-03 0. -1.
    9000002   -1    0    0    0    0 -0.00000000000E+00 -0.00000000000E+00  0.00000000000E+00  0.93800000000E+00  0.93800000000E+00 0.  1.
         11    1    1    2    0    0 -0.20180312215E+00 -0.21081710178E+00  0.10640307472E+01  0.11033268068E+01  0.51100000000E-03 0. -1.
    9000002    1    1    2    0    0 -0.87149080691E-01  0.86433657103E-02  0.67378025084E-01  0.94448582218E+00  0.93800000000E+00 0.  1.
         22    1    1    2    0    0  0.28895220284E+00  0.20217373607E+00  0.28685911951E+01  0.28901873710E+01  0.00000000000E+00 0. -1.
</event>
<event>
 5    1  0.6564536E+001  0.1553648E+01  0.7818608E-02  0.3405261E+00
         11   -1    0    0    0    0  0.00000000000E+00  0.00000000000E+00  0.39999999674E+01  0.40000000000E+01  0.51100000000E-03 0. -1.
    9000002   -1    0    0    0    0 -0.00000000000E+00 -0.00000000000E+00  0.00000000000E+00  0.93800000000E+00  0.93800000000E+00 0.  1.
         11    1    1    2    0    0 -0.46270451724E-01 -0.17323081779E+00  0.99954693719E+00  0.10155019506E+01  0.51100000000E-03 0. -1.
    9000002    1    1    2    0    0 -0.45164113416E-01 -0.17320028628E+00  0.56257075411E-01  0.95658088777E+00  0.93800000000E+00 0.  1.
         22    1    1    2    0    0  0.91434565140E-01  0.34643110407E+00  0.29441959548E+01  0.29659171616E+01  0.00000000000E+00 0. -1.
</event>
<event>
 5    1  0.6564536E+001  0.1599675E+01  0.7818608E-02  0.3353716E+00
         11   -1    0    0    0    0  0.00000000000E+00  0.00000000000E+00  0.39999999674E+01  0.40000000000E+01  0.51100000000E-03 0. -1.
    9000002   -1    0    0    0    0 -0.00000000000E+00 -0.00000000000E+00  0.00000000000E+00  0.93800000000E+00  0.93800000000E+00 0. -1.
         11    1    1    2    0    0 -0.84562912016E-01  0.32470876022E-01  0.63346616336E+00  0.63991006019E+00  0.51100000000E-03 0. -1.
    9000002    1    1    2    0    0  0.51188089157E+00 -0.19856617550E+00  0.20817622447E+00  0.11066308841E+01  0.93800000000E+00 0. -1.
         22    1    1    2    0    0 -0.42731797956E+00  0.16609529947E+00  0.31583575795E+01  0.31914590557E+01  0.00000000000E+00 0. -1.
</event>
<event>
 5    1  0.6564536E+001  0.1599468E+01  0.7818608E-02  0.3353941E+00
         11   -1    0    0    0    0  0.00000000000E+00  0.00000000000E+00  0.39999999674E+01  0.40000000000E+01  0.51100000000E-03 0.  1.
    9000002   -1    0    0    0    0 -0.00000000000E+00 -0.00000000000E+00  0.00000000000E+00  0.93800000000E+00  0.93800000000E+00 0. -1.
         11    1    1    2    0    0  0.84349801349E-01 -0.40193852588E-01  0.88755299315E+00  0.89245784860E+00  0.51100000000E-03 0.  1.
    9000002    1    1    2    0    0 -0.31905564923E+00  0.21473918843E+00  0.99747290389E-01  0.10186770579E+01  0.93800000000E+00 0. -1.
         22    1    1    2    0    0  0.23470584788E+00 -0.17454533584E+00  0.30126996838E+01  0.30268650935E+01  0.00000000000E+00 0.  1.
</event>
<event>
 5    1  0.6564536E+001  0.1570913E+01  0.7818608E-02  0.3385551E+00
         11   -1    0    0    0    0  0.00000000000E+00  0.00000000000E+00  0.39999999674E+01  0.40000000000E+01  0.51100000000E-03 0. -1.
    9000002   -1    0    0    0    0 -0.00000000000E+00 -0.00000000000E+00  0.00000000000E+00  0.93800000000E+00  0.93800000000E+00 0. -1.
         11    1    1    2    0    0 -0.30783901924E-01 -0.61485648036E-01  0.54731859893E+00  0.55162128620E+00  0.51100000000E-03 0. -1.
    9000002    1    1    2    0    0 -0.55196572038E+00 -0.20532462321E+00  0.27024461339E+00  0.11400440818E+01  0.93800000000E+00 0. -1.
         22    1    1    2    0    0  0.58274962231E+00  0.26681027125E+00  0.31824367550E+01  0.32463346320E+01  0.00000000000E+00 0. -1.
</event>
<event>
 5    1  0.6564536E+001  0.1597435E+01  0.7818608E-02  0.3356152E+00
         11   -1    0    0    0    0  0.00000000000E+00  0.00000000000E+00  0.39999999674E+01  0.40000000000E+01  0.51100000000E-03 0. -1.
    9000002   -1    0    0    0    0 -0.00000000000E+00 -0.00000000000E+00  0.00000000000E+00  0.93800000000E+00  0.93800000000E+00 0.  1.
         11    1    1    2    0    0 -0.38041999017E-01 -0.15282959387E+00  0.10078451446E+01  0.10200765536E+01  0.51100000000E-03 0. -1.
    9000002    1    1    2    0    0  0.19149151453E+00  0.39871252149E+00  0.13465396788E+00  0.10457611419E+01  0.93800000000E+00 0.  1.
         22    1    1    2    0    0 -0.15344951551E+00 -0.24588292762E+00  0.28575008548E+01  0.28721623045E+01  0.00000000000E+00 0. -1.
</event>
<event>
 5    1  0.8161904E+001  0.1599666E+01  0.7818608E-02  0.3353726E+00
         11   -1    0    0    0    0  0.00000000000E+00  0.00000000000E+00  0.39999999674E+01  0.40000000000E+01  0.51100000000E-03 0.  1.
    9000002   -1    0    0    0    0 -0.00000000000E+00 -0.00000000000E+00  0.00000000000E+00  0.93800000000E+00  0.93800000000E+00 0.  1.
         11    1    1    2    0    0 -0.12803975147E+00  0.43502323921E-02  0.14182274663E+01  0.14240022857E+01  0.51100000000E-03 0.  1.
    9000002    1    1    2    0    0  0.36322833765E+00 -0.15744255730E-01  0.88774717944E-01  0.10099047764E+01  0.93800000000E+00 0.  1.
         22    1    1    2    0    0 -0.23518858618E+00  0.11394023338E-01  0.24929977831E+01  0.25040929379E+01  0.00000000000E+00 0.  1.
</event>
<event>
 5    1  0.6564536E+001  0.1598952E+01  0.7818608E-02  0.3354502E+00
         11   -1    0    0    0    0  0.00000000000E+00  0.00000000000E+00  0.39999999674E+01  0.40000000000E+01  0.51100000000E-03 0.  1.
    9000002   -1    0    0    0    0 -0.00000000000E+00 -0.00000000000E+00  0.00000000000E+00  0.93800000000E+00  0.93800000000E+00 0.  1.
         11    1    1    2    0    0  0.79326255015E-01 -0.29980557186E-01  0.74451208628E+00  0.74932636166E+00  0.51100000000E-03 0.  1.
    9000002    1    1    2    0    0 -0.47250936433E+00  0.38355372036E-01  0.15383639797E+00  0.10621891881E+01  0.93800000000E+00 0.  1.
         22    1    1    2    0    0  0.39318310932E+00 -0.83748148501E-02  0.31016514831E+01  0.31264844503E+01  0.00000000000E+00 0.  1.
</event>
<event>
 5    1  0.8267195E+001  0.1599508E+01  0.7818608E-02  0.3353898E+00
         11   -1    0    0    0    0  0.00000000000E+00  0.00000000000E+00  0.39999999674E+01  0.40000000000E+01  0.51100000000E-03 0.  1.
    9000002   -1    0    0    0    0 -0.00000000000E+00 -0.00000000000E+00  0.00000000000E+00  0.93800000000E+00  0.93800000000E+00 0.  1.
         11    1    1    2    0    0 -0.25230011038E-01 -0.22126287634E+00  0.14682525351E+01  0.14850453131E+01  0.51100000000E-03 0.  1.
    9000002    1    1    2    0    0  0.61272902546E-01  0.60336570868E+00  0.25714385901E+00  0.11461987224E+01  0.93800000000E+00 0.  1.
         22    1    1    2    0    0 -0.36042891508E-01 -0.38210283234E+00  0.22746035732E+01  0.23067559645E+01  0.00000000000E+00 0.  1.
</event>
<event>
 5    1  0.6564536E+001  0.1599609E+01  0.7818608E-02  0.3353788E+00
         11   -1    0    0    0    0  0.00000000000E+00  0.00000000000E+00  0.39999999674E+01  0.40000000000E+01  0.51100000000E-03 0.  1.
    9000002   -1    0    0    0    0 -0.00000000000E+00 -0.00000000000E+00  0.00000000000E+00  0.93800000000E+00  0.93800000000E+00 0.  1.
         11    1    1    2    0    0 -0.14681319054E-01 -0.17458353639E-01  0.18830032097E+00  0.18967764033E+00  0.51100000000E-03 0.  1.
    9000002    1    1    2    0    0  0.23928884153E+00  0.41855508326E+00  0.15871728492E+00  0.10665283325E+01  0.93800000000E+00 0.  1.
         22    1    1    2    0    0 -0.22460752247E+00 -0.40109672962E+00  0.36529823615E+01  0.36817940272E+01  0.00000000000E+00 0.  1.
</event>
<event>
 5    1  0.6564536E+001  0.1585798E+01  0.7818608E-02  0.3368924E+00
         11   -1    0    0    0    0  0.00000000000E+00  0.00000000000E+00  0.39999999674E+01  0.40000000000E+01  0.51100000000E-03 0. -1.
    9000002   -1    0    0    0    0 -0.00000000000E+00 -0.00000000000E+00  0.00000000000E+00  0.93800000000E+00  0.93800000000E+00 0. -1.
         11    1    1    2    0    0 -0.55606273343E-01  0.75183038481E-01  0.21248200221E+00  0.23214954081E+00  0.51100000000E-03 0. -1.
    9000002    1    1    2    0    0  0.21323086218E+00 -0.43549347290E+00  0.17299728609E+00  0.10699972086E+01  0.93800000000E+00 0. -1.
         22    1    1    2    0    0 -0.15762458884E+00  0.36031043442E+00  0.36145206791E+01  0.36358532505E+01  0.00000000000E+00 0. -1.
</event>
<event>
 5    1  0.6564536E+001  0.1599669E+01  0.7818608E-02  0.3353722E+00
         11   -1    0    0    0    0  0.00000000000E+00  0.00000000000E+00  0.39999999674E+01  0.40000000000E+01  0.51100000000E-03 0.  1.
    9000002   -1    0    0    0    0 -0.00000000000E+00 -0.00000000000E+00  0.00000000000E+00  0.93800000000E+00  0.93800000000E+00 0.  1.
         11    1    1    2    0    0  0.18779460395E-01  0.13734999170E+00  0.12363099729E+01  0.12440579964E+01  0.51100000000E-03 0.  1.
    9000002    1    1    2    0    0 -0.64754066832E-01 -0.43732929500E+00  0.13260012802E+00  0.10454074782E+01  0.93800000000E+00 0.  1.
         22    1    1    2    0    0  0.45974606437E-01  0.29997930330E+00  0.26310898665E+01  0.26485345254E+01  0.00000000000E+00 0.  1.
</event>
<event>
 5    1  0.6564536E+001  0.1582236E+01  0.7818608E-02  0.3372873E+00
         11   -1    0    0    0    0  0.00000000000E+00  0.00000000000E+00  0.39999999674E+01  0.40000000000E+01  0.51100000000E-03 0.  1.
    9000002   -1    0    0    0    0 -0.00000000000E+00 -0.00000000000E+00  0.00000000000E+00  0.93800000000E+00  0.93800000000E+00 0. -1.
         11    1    1    2    0    0  0.49433617531E-01  0.58188650917E-01  0.13454768039E+01  0.13476415297E+01  0.51100000000E-03 0.  1.
    9000002    1    1    2    0    0  0.16803832033E+00  0.14177083960E+00  0.45322843719E-01  0.96448639608E+00  0.93800000000E+00 0. -1.
         22    1    1    2    0    0 -0.21747193786E+00 -0.19995949051E+00  0.26092003197E+01  0.26258720742E+01  0.00000000000E+00 0.  1.
</event>
<event>
 5    1  0.6564536E+001  0.1599667E+01  0.7818608E-02  0.3353725E+00
         11   -1    0    0    0    0  0.00000000000E+00  0.00000000000E+00  0.39999999674E+01  0.40000000000E+01  0.51100000000E-03 0.  1.
    9000002   -1    0    0    0    0 -0.00000000000E+00 -0.00000000000E+00  0.00000000000E+00  0.93800000000E+00  0.93800000000E+00 0. -1.
         11    1    1    2    0    0  0.33895565664E+00 -0.29348947206E-01  0.13090984681E+01  0.13525869134E+01  0.51100000000E-03 0.  1.
    9000002    1    1    2    0    0 -0.87730296637E+00  0.68875848247E-01  0.58777334186E+00  0.14141166425E+01  0.93800000000E+00 0. -1.
         22    1    1    2    0    0  0.53834730973E+00 -0.39526901041E-01  0.21031281574E+01  0.21712964441E+01  0.00000000000E+00 0. -1.
</event>
<event>
 5    1  0.6564536E+001  0.1599363E+01  0.7818608E-02  0.3354055E+00
         11   -1    0    0    0    0  0.00000000000E+00  0.00000000000E+00  0.39999999674E+01  0.40000000000E+01  0.51100000000E-03 0.  1.
    9000002   -1    0    0    0    0 -0.00000000000E+00 -0.00000000000E+00  0.00000000000E+00  0.93800000000E+00  0.93800000000E+00 0. -1.
         11    1    1    2    0    0  0.14681047496E+00  0.15825769807E+00  0.70360458890E+00  0.73597451939E+00  0.51100000000E-03 0.  1.
    9000002    1    1    2    0    0 -0.71595742920E+00 -0.75030851106E+00  0.88563347362E+00  0.16552185813E+01  0.93800000000E+00 0. -1.
         22    1    1    2    0    0  0.56914695424E+00  0.59205081299E+00  0.24107619048E+01  0.25468068993E+01  0.00000000000E+00 0.  1.
</event>
<event>
 5    1  0.6564536E+001  0.1599307E+01  0.7818608E-02  0.3354116E+00
         11   -1    0    0    0    0  0.00000000000E+00  0.00000000000E+00  0.39999999674E+01  0.40000000000E+01  0.51100000000E-03 0.  1.
    9000002   -1    0    0    0    0 -0.00000000000E+00 -0.00000000000E+00  0.00000000000E+00  0.93800000000E+00  0.93800000000E+00 0.  1.
         11    1    1    2    0    0  0.79734106413E-02  0.11828543597E-01  0.84491466358E-01  0.85688731635E-01  0.51100000000E-03 0.  1.
    9000002    1    1    2    0    0 -0.76290040362E-01 -0.42801500463E+00  0.12841118746E+00  0.10418015394E+01  0.93800000000E+00 0.  1.
         22    1    1    2    0    0  0.68316629721E-01  0.41618646103E+00  0.37870973135E+01  0.38105097290E+01  0.00000000000E+00 0.  1.
</event>
<event>
 5    1  0.6564536E+001  0.1599350E+01  0.7818608E-02  0.3354069E+00
         11   -1    0    0    0    0  0.00000000000E+00  0.00000000000E+00  0.39999999674E+01  0.40000000000E+01  0.51100000000E-03 0.  1.
    9000002   -1    0    0    0    0 -0.00000000000E+00 -0.00000000000E+00  0.00000000000E+00  0.93800000000E+00  0.93800000000E+00 0.  1.
         11    1    1    2    0    0 -0.11411578327E+00  0.56139125286E-01  0.12028531967E+01  0.12095578066E+01  0.51100000000E-03 0.  1.
    9000002    1    1    2    0    0  0.36439286457E+00 -0.11711431381E+00  0.98871353056E-01  0.10178985542E+01  0.93800000000E+00 0.  1.
         22    1    1    2    0    0 -0.25027708130E+00  0.60975188522E-01  0.26982754176E+01  0.27105436392E+01  0.00000000000E+00 0.  1.
</event>
<event>
 5    1  0.6564536E+001  0.1470241E+01  0.7818608E-02  0.3507479E+00
         11   -1    0    0    0    0  0.00000000000E+00  0.00000000000E+00  0.39999999674E+01  0.40000000000E+01  0.51100000000E-03 0.  1.
    9000002   -1    0    0    0    0 -0.00000000000E+00 -0.00000000000E+00  0.00000000000E+00  0.93800000000E+00  0.93800000000E+00 0. -1.
         11    1    1    2    0    0  0.40660793552E+00  0.26146207107E+00  0.10130490071E+01  0.11224798349E+01  0.51100000000E-03 0.  1.
    9000002    1    1    2    0    0  0.19188934269E-01 -0.29454570230E+00  0.20948658157E+00  0.10054123601E+01  0.93800000000E+00 0. -1.
         22    1    1    2    0    0 -0.42579686979E+00  0.33083631228E-01  0.27774643787E+01  0.28101078050E+01  0.00000000000E+00 0.  1.
</event>
<event>
 5    1  0.6564536E+001  0.1599673E+01  0.7818608E-02  0.3353719E+00
         11   -1    0    0    0    0  0.00000000000E+00  0.00000000000E+00  0.39999999674E+01  0.40000000000E+01  0.51100000000E-03 0. -1.
    9000002   -1    0    0    0    0 -0.00000000000E+00 -0.00000000000E+00  0.00000000000E+00  0.93800000000E+00  0.93800000000E+00 0. -1.
         11    1    1    2    0    0 -0.31817172070E-01 -0.17184797824E-01  0.28899972903E+00  0.29125376257E+00  0.51100000000E-03 0. -1.
    9000002    1    1    2    0    0  0.42252018587E+00  0.21223868553E+00  0.15237598679E+00  0.10614287581E+01  0.93800000000E+00 0. -1.
         22    1    1    2    0    0 -0.39070301380E+00 -0.19505388771E+00  0.35586242515E+01  0.35853174794E+01  0.00000000000E+00 0. -1.
</event>
<event>
 5    1  0.6564536E+001  0.1599677E+01  0.7818608E-02  0.3353714E+00
         11   -1    0    0    0    0  0.00000000000E+00  0.00000000000E+00  0.39999999674E+01  0.40000000000E+01  0.51100000000E-03 0.  1.
    9000002   -1    0    0    0    0 -0.00000000000E+00 -0.00000000000E+00  0.00000000000E+00  0.93800000000E+00  0.93800000000E+00 0.  1.
         11    1    1    2    0    0  0.85175876839E-01  0.11392163351E+00  0.13929505880E+01  0.14001945116E+01  0.51100000000E-03 0.  1.
    9000002    1    1    2    0    0 -0.23699801276E+00 -0.31954371192E+00  0.10673117894E+00  0.10244568251E+01  0.93800000000E+00 0.  1.
         22    1    1    2    0    0  0.15182213592E+00  0.20562207841E+00  0.25003182004E+01  0.25133486633E+01  0.00000000000E+00 0.  1.
</event>
<event>
 5    1  0.6564536E+001  0.1599646E+01  0.7818608E-02  0.3353747E+00
         11   -1    0    0    0    0  0.00000000000E+00  0.00000000000E+00  0.39999999674E+01  0.40000000000E+01  0.51100000000E-03 0. -1.
    9000002   -1    0    0    0    0 -0.00000000000E+00 -0.00000000000E+00  0.00000000000E+00  0.93800000000E+00  0.93800000000E+00 0. -1.
         11    1    1    2    0    0 -0.17860799965E-01  0.18733476308E-01  0.25673554842E+00  0.25803750552E+00  0.51100000000E-03 0. -1.
    9000002    1    1    2    0    0  0.31842931907E+00 -0.29205385451E+00  0.12649821807E+00  0.10404510966E+01  0.93800000000E+00 0. -1.
         22    1    1    2    0    0 -0.30056851910E+00  0.27332037820E+00  0.36167662009E+01  0.36395113979E+01  0.00000000000E+00 0. -1.
</event>
<event>
 5    1  0.6564536E+001  0.1596051E+01  0.7818608E-02  0.3357661E+00
         11   -1    0    0    0    0  0.00000000000E+00  0.00000000000E+00  0.39999999674E+01  0.40000000000E+01  0.51100000000E-03 0. -1.
    9000002   -1    0    0    0    0 -0.00000000000E+00 -0.00000000000E+00  0.00000000000E+00  0.93800000000E+00  0.93800000000E+00 0. -1.
         11    1    1    2    0    0 -0.74046433604E-01 -0.31870115323E-01  0.31835729715E+00  0.32840555468E+00  0.51100000000E-03 0. -1.
    9000002    1    1    2    0    0  0.67313097858E+00 -0.69670260898E-01  0.32925634920E+00  0.12025859649E+01  0.93800000000E+00 0. -1.
         22    1    1    2    0    0 -0.59908454498E+00  0.10154037622E+00  0.33523863210E+01  0.34070084804E+01  0.00000000000E+00 0. -1.
</event>
<event>
 5    1  0.6564536E+001  0.1516343E+01  0.7818608E-02  0.3449486E+00
         11   -1    0    0    0    0  0.00000000000E+00  0.00000000000E+00  0.39999999674E+01  0.40000000000E+01  0.51100000000E-03 0.  1.
    9000002   -1    0    0    0    0 -0.00000000000E+00 -0.00000000000E+00  0.00000000000E+00  0.93800000000E+00  0.93800000000E+00 0.  1.
         11    1    1    2    0    0 -0.24121418294E+00  0.10722305599E+00  0.85511267431E+00  0.89492961325E+00  0.51100000000E-03 0.  1.
    9000002    1    1    2    0    0 -0.89523998240E-01  0.68303537158E-01  0.72021095739E-01  0.94747609874E+00  0.93800000000E+00 0.  1.
         22    1    1    2    0    0  0.33073818118E+00 -0.17552659315E+00  0.30728661973E+01  0.30955942880E+01  0.00000000000E+00 0.  1.
</event>
<event>
 5    1  0.6564536E+001  0.1461221E+01  0.7818608E-02  0.3519290E+00
         11   -1    0    0    0    0  0.00000000000E+00  0.00000000000E+00  0.39999999674E+01  0.40000000000E+01  0.51100000000E-03 0.  1.
    9000002   -1    0    0    0    0 -0.00000000000E+00 -0.00000000000E+00  0.00000000000E+00  0.93800000000E+00  0.93800000000E+00 0.  1.
         11    1    1    2    0    0 -0.20272103519E-01  0.32685976324E+00  0.63116993171E+00  0.71107243430E+00  0.51100000000E-03 0.  1.
    9000002    1    1    2    0    0 -0.21875697654E-01  0.52107484254E-01  0.11028662280E+00  0.94615055632E+00  0.93800000000E+00 0.  1.
         22    1    1    2    0    0  0.42147801173E-01 -0.37896724749E+00  0.32585434128E+01  0.32807770094E+01  0.00000000000E+00 0.  1.
</event>
<event>
 5    1  0.6564536E+001  0.1599540E+01  0.7818608E-02  0.3353862E+00
         11   -1    0    0    0    0  0.00000000000E+00  0.00000000000E+00  0.39999999674E+01  0.40000000000E+01  0.51100000000E-03 0.  1.
    9000002   -1    0    0    0    0 -0.00000000000E+00 -0.00000000000E+00  0.00000000000E+00  0.93800000000E+00  0.93800000000E+00 0. -1.
         11    1    1    2    0    0  0.44362164541E-02  0.29456526404E-01  0.27648901857E+00  0.27808956376E+00  0.51100000000E-03 0.  1.
    9000002    1    1    2    0    0  0.33689373547E-01 -0.44467515014E+00  0.13510742340E+00  0.10473628688E+01  0.93800000000E+00 0. -1.
         22    1    1    2    0    0 -0.38125590002E-01  0.41521862373E+00  0.35884035254E+01  0.36125475675E+01  0.00000000000E+00 0.  1.
</event>
<event>
 5    1  0.6564536E+001  0.1474408E+01  0.7818608E-02  0.3502077E+00
         11   -1    0    0    0    0  0.00000000000E+00  0.00000000000E+00  0.39999999674E+01  0.40000000000E+01  0.51100000000E-03 0.  1.
    9000002   -1    0    0    0    0 -0.00000000000E+00 -0.00000000000E+00  0.00000000000E+00  0.93800000000E+00  0.93800000000E+00 0. -1.
         11    1    1    2    0    0  0.28645438539E-02  0.21821448267E+00  0.22755187485E+00  0.31528698502E+00  0.51100000000E-03 0.  1.
    9000002    1    1    2    0    0  0.31442648967E+00 -0.34178168673E-01  0.17332438685E+00  0.10049465198E+01  0.93800000000E+00 0. -1.
         22    1    1    2    0    0 -0.31729103352E+00 -0.18403631399E+00  0.35991237057E+01  0.36177664952E+01  0.00000000000E+00 0.  1.
</event>
<event>
 5    1  0.1002403E+002  0.1594188E+01  0.7818608E-02  0.3359696E+00
         11   -1    0    0    0    0  0.00000000000E+00  0.00000000000E+00  0.39999999674E+01  0.40000000000E+01  0.51100000000E-03 0.  1.
    9000002   -1    0    0    0    0 -0.00000000000E+00 -0.00000000000E+00  0.00000000000E+00  0.93800000000E+00  0.93800000000E+00 0. -1.
         11    1    1    2    0    0 -0.27781546073E-01  0.24258940560E-01  0.14722933513E+01  0.14727553374E+01  0.51100000000E-03 0.  1.
    9000002    1    1    2    0    0 -0.28578300938E-01 -0.27223087876E+00  0.54120158908E-01  0.97862115358E+00  0.93800000000E+00 0. -1.
         22    1    1    2    0    0  0.56359847010E-01  0.24797193820E+00  0.24735864572E+01  0.24866235090E+01  0.00000000000E+00 0.  1.
</event>
<event>
 5    1  0.6564536E+001  0.1599669E+01  0.7818608E-02  0.3353722E+00
         11   -1    0    0    0    0  0.00000000000E+00  0.00000000000E+00  0.39999999674E+01  0.40000000000E+01  0.51100000000E-03 0. -1.
    9000002   -1    0    0    0    0 -0.00000000000E+00 -0.00000000000E+00  0.00000000000E+00  0.93800000000E+00  0.93800000000E+00 0. -1.
         11    1    1    2    0    0 -0.11874565027E-01  0.49667583734E-01  0.52674651506E+00  0.52921642682E+00  0.51100000000E-03 0. -1.
    9000002    1    1    2    0    0  0.10447217796E+00 -0.36506517795E+00  0.97017911294E-01  0.10165842293E+01  0.93800000000E+00 0. -1.
         22    1    1    2    0    0 -0.92597612937E-01  0.31539759422E+00  0.33762355410E+01  0.33921993439E+01  0.00000000000E+00 0. -1.
</event>
<event>
 5    1  0.6564536E+001  0.1599676E+01  0.7818608E-02  0.3353715E+00
         11   -1    0    0    0    0  0.00000000000E+00  0.00000000000E+00  0.39999999674E+01  0.40000000000E+01  0.51100000000E-03 0.  1.
    9000002   -1    0    0    0    0 -0.00000000000E+00 -0.00000000000E+00  0.00000000000E+00  0.93800000000E+00  0.93800000000E+00 0.  1.
         11    1    1    2    0    0  0.13138079585E+00  0.11583735091E+00  0.14011468156E+01  0.14120523593E+01  0.51100000000E-03 0.  1.
    9000002    1    1    2    0    0 -0.36151618457E+00 -0.31948699120E+00  0.15888346741E+00  0.10667023228E+01  0.93800000000E+00 0.  1.
         22    1    1    2    0    0  0.23013538872E+00  0.20364964029E+00  0.24399696843E+01  0.24592453179E+01  0.00000000000E+00 0.  1.
</event>
<event>
 5    1  0.6564536E+001  0.1599629E+01  0.7818608E-02  0.3353766E+00
         11   -1    0    0    0    0  0.00000000000E+00  0.00000000000E+00  0.39999999674E+01  0.40000000000E+01  0.51100000000E-03 0. -1.
    9000002   -1    0    0    0    0 -0.00000000000E+00 -0.00000000000E+00  0.00000000000E+00  0.93800000000E+00  0.93800000000E+00 0. -1.
         11    1    1    2    0    0  0.36917216259E-02 -0.11081467713E+00  0.10454090838E+01  0.10512725313E+01  0.51100000000E-03 0. -1.
    9000002    1    1    2    0    0 -0.52050059494E-02  0.38701794801E+00  0.10092470911E+00  0.10197253459E+01  0.93800000000E+00 0. -1.
         22    1    1    2    0    0  0.15132843235E-02 -0.27620327088E+00  0.28536661745E+01  0.28670021228E+01  0.00000000000E+00 0. -1.
</event>
<event>
 5    1  0.6564536E+001  0.1599634E+01  0.7818608E-02  0.3353760E+00
         11   -1    0    0    0    0  0.00000000000E+00  0.00000000000E+00  0.39999999674E+01  0.40000000000E+01  0.51100000000E-03 0.  1.
    9000002   -1    0    0    0    0 -0.00000000000E+00 -0.00000000000E+00  0.00000000000E+00  0.93800000000E+00  0.93800000000E+00 0. -1.
         11    1    1    2    0    0 -0.84180036339E-01  0.11206694029E+00  0.12147606065E+01  0.12228200480E+01  0.51100000000E-03 0.  1.
    9000002    1    1    2    0    0  0.24522351341E+00 -0.35511537220E+00  0.12619348366E+00  0.10401972382E+01  0.93800000000E+00 0. -1.
         22    1    1    2    0    0 -0.16104347707E+00  0.24304843192E+00  0.26590458772E+01  0.26749827137E+01  0.00000000000E+00 0.  1.
</event>
<event>
 5    1  0.6564536E+001  0.1599155E+01  0.7818608E-02  0.3354281E+00
         11   -1    0    0    0    0  0.00000000000E+00  0.00000000000E+00  0.39999999674E+01  0.40000000000E+01  0.51100000000E-03 0.  1.
    9000002   -1    0    0    0    0 -0.00000000000E+00 -0.00000000000E+00  0.00000000000E+00  0.93800000000E+00  0.93800000000E+00 0.  1.
         11    1    1    2    0    0 -0.42439647647E-01  0.30180380517E-01  0.23125573605E+00  0.23704737003E+00  0.51100000000E-03 0.  1.
    9000002    1    1    2    0    0  0.48326446163E+00 -0.58395962071E+00  0.41816181665E+00  0.12764233950E+01  0.93800000000E+00 0.  1.
         22    1    1    2    0    0 -0.44082481399E+00  0.55377924019E+00  0.33505824147E+01  0.34245292349E+01  0.00000000000E+00 0.  1.
</event>
<event>
 5    1  0.6564536E+001  0.1555160E+01  0.7818608E-02  0.3403517E+00
         11   -1    0    0    0    0  0.00000000000E+00  0.00000000000E+00  0.39999999674E+01  0.40000000000E+01  0.51100000000E-03 0. -1.
    9000002   -1    0    0    0    0 -0.00000000000E+00 -0.00000000000E+00  0.00000000000E+00  0.93800000000E+00  0.93800000000E+00 0. -1.
         11    1    1    2    0    0  0.24451753150E+00 -0.34527251964E-01  0.12754864079E+01  0.12991715792E+01  0.51100000000E-03 0. -1.
    9000002    1    1    2    0    0 -0.77225396727E-01 -0.17603779135E+00  0.58495245085E-01  0.95928033420E+00  0.93800000000E+00 0. -1.
         22    1    1    2    0    0 -0.16729213478E+00  0.21056504332E+00  0.26660183144E+01  0.26795480866E+01  0.00000000000E+00 0. -1.
</event>
<event>
 5    1  0.6564536E+001  0.1599652E+01  0.7818608E-02  0.3353742E+00
         11   -1    0    0    0    0  0.00000000000E+00  0.00000000000E+00  0.39999999674E+01  0.40000000000E+01  0.51100000000E-03 0. -1.
    9000002   -1    0    0    0    0 -0.00000000000E+00 -0.00000000000E+00  0.00000000000E+00  0.93800000000E+00  0.93800000000E+00 0.  1.
         11    1    1    2    0    0  0.10622818497E+00  0.82384968126E-01  0.13670816985E+01  0.13736754863E+01  0.51100000000E-03 0. -1.
    9000002    1    1    2    0    0 -0.29116106839E+00 -0.24646334372E+00  0.97949344371E-01  0.10173283745E+01  0.93800000000E+00 0.  1.
         22    1    1    2    0    0  0.18493288341E+00  0.16407837560E+00  0.25349689245E+01  0.25469961392E+01  0.00000000000E+00 0. -1.
</event>
<event>
 5    1  0.6657207E+001  0.1573752E+01  0.7818608E-02  0.3382354E+00
         11   -1    0    0    0    0  0.00000000000E+00  0.00000000000E+00  0.39999999674E+01  0.40000000000E+01  0.51100000000E-03 0.  1.
    9000002   -1    0    0    0    0 -0.00000000000E+00 -0.00000000000E+00  0.00000000000E+00  0.93800000000E+00  0.93800000000E+00 0.  1.
         11    1    1    2    0    0 -0.91216623690E-01  0.14370620272E+00  0.14721133061E+01  0.14819209804E+01  0.51100000000E-03 0.  1.
    9000002    1    1    2    0    0  0.12260986685E+00  0.10193630805E+00  0.36228950246E-01  0.95214532882E+00  0.93800000000E+00 0.  1.
         22    1    1    2    0    0 -0.31393243164E-01 -0.24564251077E+00  0.24916577110E+01  0.25039336907E+01  0.00000000000E+00 0.  1.
</event>
<event>
 5    1  0.6564536E+001  0.1599637E+01  0.7818608E-02  0.3353758E+00
         11   -1    0    0    0    0  0.00000000000E+00  0.00000000000E+00  0.39999999674E+01  0.40000000000E+01  0.51100000000E-03 0.  1.
    9000002   -1    0    0    0    0 -0.00000000000E+00 -0.00000000000E+00  0.00000000000E+00  0.93800000000E+00  0.93800000000E+00 0. -1.
         11    1    1    2    0    0  0.22160671621E-01  0.67023143366E-03  0.24677801482E+00  0.24777246477E+00  0.51100000000E-03 0.  1.
    9000002    1    1    2    0    0 -0.34715651146E+00 -0.69004438264E-01  0.84070457745E-01  0.10060770834E+01  0.93800000000E+00 0. -1.
         22    1    1    2    0    0  0.32499583984E+00  0.68334206830E-01  0.36691514948E+01  0.36841504518E+01  0.00000000000E+00 0.  1.
</event>
<event>
 5    1  0.6564536E+001  0.1599671E+01  0.7818608E-02  0.3353721E+00
         11   -1    0    0    0    0  0.00000000000E+00  0.00000000000E+00  0.39999999674E+01  0.40000000000E+01  0.51100000000E-03 0.  1.
    9000002   -1    0    0    0    0 -0.00000000000E+00 -0.00000000000E+00  0.00000000000E+00  0.93800000000E+00  0.93800000000E+00 0.  1.
         11    1    1    2    0    0 -0.13846534838E+00  0.29451097520E-01  0.13121019674E+01  0.13197165809E+01  0.51100000000E-03 0.  1.
    9000002    1    1    2    0    0  0.41554581953E+00 -0.92273151161E-01  0.12264159892E+00  0.10373416141E+01  0.93800000000E+00 0.  1.
         22    1    1    2    0    0 -0.27708047115E+00  0.62822053641E-01  0.25652564010E+01  0.25809418050E+01  0.00000000000E+00 0.  1.
</event>
<event>
 5    1  0.6564536E+001  0.1599671E+01  0.7818608E-02  0.3353721E+00
         11   -1    0    0    0    0  0.00000000000E+00  0.00000000000E+00  0.39999999674E+01  0.40000000000E+01  0.51100000000E-03 0. -1.
    9000002   -1    0    0    0    0 -0.00000000000E+00 -0.00000000000E+00  0.00000000000E+00  0.93800000000E+00  0.93800000000E+00 0.  1.
         11    1    1    2    0    0 -0.20232636519E-01 -0.25638779244E-01  0.31630226612E+00  0.31798441983E+00  0.51100000000E-03 0.  1.
    9000002    1    1    2    0    0  0.24295985149E+00  0.33387854769E+00  0.11520848044E+00  0.10313202063E+01  0.93800000000E+00 0.  1.
         22    1    1    2    0    0 -0.22272721497E+00 -0.30823976845E+00  0.35684892208E+01  0.35886953738E+01  0.00000000000E+00 0. -1.
</event>
<event>
 5    1  0.6564536E+001  0.1599677E+01  0.7818608E-02  0.3353714E+00
         11   -1    0    0    0    0  0.00000000000E+00  0.00000000000E+00  0.39999999674E+01  0.40000000000E+01  0.51100000000E-03 0. -1.
    9000002   -1    0    0    0    0 -0.00000000000E+00 -0.00000000000E+00  0.00000000000E+00  0.93800000000E+00  0.93800000000E+00 0. -1.
         11    1    1    2    0    0  0.14547305276E+00  0.18325935726E-01  0.11879984803E+01  0.11970124892E+01  0.51100000000E-03 0. -1.
    9000002    1    1    2    0    0 -0.47108925322E+00 -0.60811298439E-01  0.15382497420E+00  0.10626049224E+01  0.93800000000E+00 0. -1.
         22    1    1    2    0    0  0.32561620046E+00  0.42485362713E-01  0.26581765128E+01  0.26783825883E+01  0.00000000000E+00 0. -1.
</event>
<event>
 5    1  0.6564536E+001  0.1555827E+01  0.7818608E-02  0.3402749E+00
         11   -1    0    0    0    0  0.00000000000E+00  0.00000000000E+00  0.39999999674E+01  0.40000000000E+01  0.51100000000E-03 0.  1.
    9000002   -1    0    0    0    0 -0.00000000000E+00 -0.00000000000E+00  0.00000000000E+00  0.93800000000E+00  0.93800000000E+00 0.  1.
         11    1    1    2    0    0 -0.91766027755E-01  0.12994617388E-01  0.50240857713E+00  0.51088599847E+00  0.51100000000E-03 0.  1.
    9000002    1    1    2    0    0 -0.54996064734E+00  0.24218099704E+00  0.29703970784E+00  0.11529028307E+01  0.93800000000E+00 0.  1.
         22    1    1    2    0    0  0.64172667510E+00 -0.25517561442E+00  0.32005516824E+01  0.32742111709E+01  0.00000000000E+00 0.  1.
</event>
<event>
 5    1  0.6564536E+001  0.1533555E+01  0.7818608E-02  0.3428797E+00
         11   -1    0    0    0    0  0.00000000000E+00  0.00000000000E+00  0.39999999674E+01  0.40000000000E+01  0.51100000000E-03 0.  1.
    9000002   -1    0    0    0    0 -0.00000000000E+00 -0.00000000000E+00  0.00000000000E+00  0.93800000000E+00  0.93800000000E+00 0. -1.
         11    1    1    2    0    0  0.85562223306E-01 -0.32067701530E+00  0.10663597959E+01  0.11168160626E+01  0.51100000000E-03 0.  1.
    9000002    1    1    2    0    0 -0.49986230407E+00  0.16183831252E+00  0.25355936867E+00  0.11046222503E+01  0.93800000000E+00 0. -1.
         22    1    1    2    0    0  0.41430008077E+00  0.15883870278E+00  0.26800808028E+01  0.27165616871E+01  0.00000000000E+00 0. -1.
</event>
<event>
 5    1  0.6564536E+001  0.1599397E+01  0.7818608E-02  0.3354018E+00
         11   -1    0    0    0    0  0.00000000000E+00  0.00000000000E+00  0.39999999674E+01  0.40000000000E+01  0.51100000000E-03 0. -1.
    9000002   -1    0    0    0    0 -0.00000000000E+00 -0.00000000000E+00  0.00000000000E+00  0.93800000000E+00  0.93800000000E+00 0.  1.
         11    1    1    2    0    0  0.23753367190E-01  0.31011349185E-01  0.42812613487E+00  0.42990484379E+00  0.51100000000E-03 0. -1.
    9000002    1    1    2    0    0 -0.32609096414E+00 -0.25144380684E+00  0.11478209516E+00  0.10308143549E+01  0.93800000000E+00 0.  1.
         22    1    1    2    0    0  0.30233759695E+00  0.22043245765E+00  0.34570917373E+01  0.34772808013E+01  0.00000000000E+00 0. -1.
</event>
<event>
 5    1  0.6564536E+001  0.1599677E+01  0.7818608E-02  0.3353714E+00
         11   -1    0    0    0    0  0.00000000000E+00  0.00000000000E+00  0.39999999674E+01  0.40000000000E+01  0.51100000000E-03 0. -1.
    9000002   -1    0    0    0    0 -0.00000000000E+00 -0.00000000000E+00  0.00000000000E+00  0.93800000000E+00  0.93800000000E+00 0. -1.
         11    1    1    2    0    0  0.10637973921E+00  0.76242099003E-01  0.13484438610E+01  0.13547806516E+01  0.51100000000E-03 0. -1.
    9000002    1    1    2    0    0 -0.30681555509E+00 -0.22250139587E+00  0.96637248137E-01  0.10162801847E+01  0.93800000000E+00 0. -1.
         22    1    1    2    0    0  0.20043581588E+00  0.14625929687E+00  0.25549188582E+01  0.25669391637E+01  0.00000000000E+00 0. -1.
</event>
<event>
 5    1  0.6564536E+001  0.1548597E+01  0.7818608E-02  0.3411117E+00
         11   -1    0    0    0    0  0.00000000000E+00  0.00000000000E+00  0.39999999674E+01  0.40000000000E+01  0.51100000000E-03 0. -1.
    9000002   -1    0    0    0    0 -0.00000000000E+00 -0.00000000000E+00  0.00000000000E+00  0.93800000000E+00  0.93800000000E+00 0. -1.
         11    1    1    2    0    0 -0.29389925244E+00 -0.23045377816E+00  0.63158796614E+00  0.73375018538E+00  0.51100000000E-03 0. -1.
    9000002    1    1    2    0    0 -0.48912855451E+00 -0.22751998498E+00  0.49287759300E+00  0.11890266642E+01  0.93800000000E+00 0. -1.
         22    1    1    2    0    0  0.78302780695E+00  0.45797376314E+00  0.28755344082E+01  0.30152231505E+01  0.00000000000E+00 0. -1.
</event>
<event>
 5    1  0.6564536E+001  0.1599665E+01  0.7818608E-02  0.3353727E+00
         11   -1    0    0    0    0  0.00000000000E+00  0.00000000000E+00  0.39999999674E+01  0.40000000000E+01  0.51100000000E-03 0.  1.
    9000002   -1    0    0    0    0 -0.00000000000E+00 -0.00000000000E+00  0.00000000000E+00  0.93800000000E+00  0.93800000000E+00 0. -1.
         11    1    1    2    0    0  0.75234359561E+00  0.19829356239E-01  0.11942777035E+01  0.14116350744E+01  0.51100000000E-03 0.  1.
    9000002    1    1    2    0    0 -0.12868764411E+01 -0.40570996754E-01  0.19604612739E+01  0.25260541140E+01  0.93800000000E+00 0. -1.
         22    1    1    2    0    0  0.53453284547E+00  0.20741640516E-01  0.84526098999E+00  0.10003108116E+01  0.00000000000E+00 0.  1.
</event>
<event>
 5    1  0.6564536E+001  0.1599597E+01  0.7818608E-02  0.3353801E+00
         11   -1    0    0    0    0  0.00000000000E+00  0.00000000000E+00  0.39999999674E+01  0.40000000000E+01  0.51100000000E-03 0. -1.
    9000002   -1    0    0    0    0 -0.00000000000E+00 -0.00000000000E+00  0.00000000000E+00  0.93800000000E+00  0.93800000000E+00 0. -1.
         11    1    1    2    0    0 -0.19325122813E-01 -0.72903185597E-01  0.70941256004E+00  0.71341066456E+00  0.51100000000E-03 0. -1.
    9000002    1    1    2    0    0  0.75024139334E-01  0.36802315126E+00  0.94932272164E-01  0.10148525990E+01  0.93800000000E+00 0. -1.
         22    1    1    2    0    0 -0.55699016521E-01 -0.29511996566E+00  0.31956551352E+01  0.32097367365E+01  0.00000000000E+00 0. -1.
</event>
<event>
 5    1  0.6564536E+001  0.1599509E+01  0.7818608E-02  0.3353897E+00
         11   -1    0    0    0    0  0.00000000000E+00  0.00000000000E+00  0.39999999674E+01  0.40000000000E+01  0.51100000000E-03 0.  1.
    9000002   -1    0    0    0    0 -0.00000000000E+00 -0.00000000000E+00  0.00000000000E+00  0.93800000000E+00  0.93800000000E+00 0.  1.
         11    1    1    2    0    0  0.13456047854E+00 -0.12715271635E+00  0.10178985010E+01  0.10345974846E+01  0.51100000000E-03 0.  1.
    9000002    1    1    2    0    0 -0.45808736843E+00  0.42669536392E+00  0.27518201181E+00  0.11608109710E+01  0.93800000000E+00 0.  1.
         22    1    1    2    0    0  0.32352688989E+00 -0.29954264757E+00  0.27069194545E+01  0.27425915444E+01  0.00000000000E+00 0. -1.
</event>
<event>
 5    1  0.6564536E+001  0.1599357E+01  0.7818608E-02  0.3354062E+00
         11   -1    0    0    0    0  0.00000000000E+00  0.00000000000E+00  0.39999999674E+01  0.40000000000E+01  0.51100000000E-03 0.  1.
    9000002   -1    0    0    0    0 -0.00000000000E+00 -0.00000000000E+00  0.00000000000E+00  0.93800000000E+00  0.93800000000E+00 0. -1.
         11    1    1    2    0    0  0.73971452243E-01 -0.55218941059E-01  0.62839613415E+00  0.63514003947E+00  0.51100000000E-03 0.  1.
    9000002    1    1    2    0    0 -0.37406181722E+00  0.28012867970E+00  0.14899906922E+00  0.10585079324E+01  0.93800000000E+00 0. -1.
         22    1    1    2    0    0  0.30009036497E+00 -0.22490973864E+00  0.32226047640E+01  0.32443520281E+01  0.00000000000E+00 0.  1.
</event>
<event>
 5    1  0.6564536E+001  0.1599661E+01  0.7818608E-02  0.3353732E+00
         11   -1    0    0    0    0  0.00000000000E+00  0.00000000000E+00  0.39999999674E+01  0.40000000000E+01  0.51100000000E-03 0. -1.
    9000002   -1    0    0    0    0 -0.00000000000E+00 -0.00000000000E+00  0.00000000000E+00  0.93800000000E+00  0.93800000000E+00 0.  1.
         11    1    1    2    0    0  0.22296259415E-01  0.79009713488E-01  0.85419581943E+00  0.85813193454E+00  0.51100000000E-03 0. -1.
    9000002    1    1    2    0    0 -0.85865103894E-01 -0.35310088600E+00  0.88689897805E-01  0.10098331296E+01  0.93800000000E+00 0.  1.
         22    1    1    2    0    0  0.63568844480E-01  0.27409117252E+00  0.30571142501E+01  0.30700349358E+01  0.00000000000E+00 0. -1.
</event>
<event>
 5    1  0.6564536E+001  0.1590668E+01  0.7818608E-02  0.3363555E+00
         11   -1    0    0    0    0  0.00000000000E+00  0.00000000000E+00  0.39999999674E+01  0.40000000000E+01  0.51100000000E-03 0. -1.
    9000002   -1    0    0    0    0 -0.00000000000E+00 -0.00000000000E+00  0.00000000000E+00  0.93800000000E+00  0.93800000000E+00 0.  1.
         11    1    1    2    0    0  0.13045282846E-01 -0.52213958830E-01  0.54674169549E+00  0.54938440059E+00  0.51100000000E-03 0. -1.
    9000002    1    1    2    0    0 -0.31854199085E+00 -0.14641282863E+00  0.89707358293E-01  0.10053840691E+01  0.93800000000E+00 0.  1.
         22    1    1    2    0    0  0.30549670800E+00  0.19862678746E+00  0.33635509136E+01  0.33832315303E+01  0.00000000000E+00 0. -1.
</event>
<event>
 5    1  0.6564536E+001  0.1599676E+01  0.7818608E-02  0.3353715E+00
         11   -1    0    0    0    0  0.00000000000E+00  0.00000000000E+00  0.39999999674E+01  0.40000000000E+01  0.51100000000E-03 0. -1.
    9000002   -1    0    0    0    0 -0.00000000000E+00 -0.00000000000E+00  0.00000000000E+00  0.93800000000E+00  0.93800000000E+00 0. -1.
         11    1    1    2    0    0 -0.99563450177E-01  0.69873847596E-01  0.11621121662E+01  0.11684606040E+01  0.51100000000E-03 0. -1.
    9000002    1    1    2    0    0  0.32945694020E+00 -0.23574622971E+00  0.11077533378E+00  0.10277321319E+01  0.93800000000E+00 0. -1.
         22    1    1    2    0    0 -0.22989349002E+00  0.16587238211E+00  0.27271124674E+01  0.27418072641E+01  0.00000000000E+00 0. -1.
</event>
<event>
 5    1  0.6564536E+001  0.1599654E+01  0.7818608E-02  0.3353739E+00
         11   -1    0    0    0    0  0.00000000000E+00  0.00000000000E+00  0.39999999674E+01  0.40000000000E+01  0.51100000000E-03 0.  1.
    9000002   -1    0    0    0    0 -0.00000000000E+00 -0.00000000000E+00  0.00000000000E+00  0.93800000000E+00  0.93800000000E+00 0. -1.
         11    1    1    2    0    0 -0.84362174569E-01 -0.61526755238E-01  0.12043795190E+01  0.12088973509E+01  0.51100000000E-03 0.  1.
    9000002    1    1    2    0    0  0.28355845094E+00  0.21465872046E+00  0.84880549977E-01  0.10067434972E+01  0.93800000000E+00 0. -1.
         22    1    1    2    0    0 -0.19919627637E+00 -0.15313196522E+00  0.27107398984E+01  0.27223591519E+01  0.00000000000E+00 0.  1.
</event>
<event>
 5    1  0.6564536E+001  0.1591203E+01  0.7818608E-02  0.3362967E+00
         11   -1    0    0    0    0  0.00000000000E+00  0.00000000000E+00  0.39999999674E+01  0.40000000000E+01  0.51100000000E-03 0. -1.
    9000002   -1    0    0    0    0 -0.00000000000E+00 -0.00000000000E+00  0.00000000000E+00  0.93800000000E+00  0.93800000000E+00 0.  1.
         11    1    1    2    0    0 -0.27993711964E-01  0.25025384836E-01  0.73082313612E+00  0.73178728823E+00  0.51100000000E-03 0. -1.
    9000002    1    1    2    0    0 -0.17850765874E+00 -0.45270674205E+00  0.16933383700E+00  0.10701991996E+01  0.93800000000E+00 0.  1.
         22    1    1    2    0    0  0.20650137071E+00  0.42768135722E+00  0.30998429942E+01  0.31360135121E+01  0.00000000000E+00 0. -1.
</event>
<event>
 5    1  0.6564536E+001  0.1531098E+01  0.7818608E-02  0.3431719E+00
         11   -1    0    0    0    0  0.00000000000E+00  0.00000000000E+00  0.39999999674E+01  0.40000000000E+01  0.51100000000E-03 0. -1.
    9000002   -1    0    0    0    0 -0.00000000000E+00 -0.00000000000E+00  0.00000000000E+00  0.93800000000E+00  0.93800000000E+00 0. -1.
         11    1    1    2    0    0  0.88270966118E-01 -0.18755752588E+00  0.49083981938E+00  0.53281664612E+00  0.51100000000E-03 0. -1.
    9000002    1    1    2    0    0 -0.35964905265E+00 -0.16635218854E+00  0.16515760429E+00  0.10315723561E+01  0.93800000000E+00 0. -1.
         22    1    1    2    0    0  0.27137808654E+00  0.35390971442E+00  0.33440025437E+01  0.33736109977E+01  0.00000000000E+00 0. -1.
</event>
<event>
 5    1  0.6564536E+001  0.1598821E+01  0.7818608E-02  0.3354644E+00
         11   -1    0    0    0    0  0.00000000000E+00  0.00000000000E+00  0.39999999674E+01  0.40000000000E+01  0.51100000000E-03 0.  1.
    9000002   -1    0    0    0    0 -0.00000000000E+00 -0.00000000000E+00  0.00000000000E+00  0.93800000000E+00  0.93800000000E+00 0. -1.
         11    1    1    2    0    0  0.21538986768E-01 -0.10247065296E+00  0.12547777715E+01  0.12591392614E+01  0.51100000000E-03 0.  1.
    9000002    1    1    2    0    0  0.11338478293E-01  0.38444970526E+00  0.10029415205E+00  0.10187409160E+01  0.93800000000E+00 0. -1.
         22    1    1    2    0    0 -0.32877465061E-01 -0.28197905229E+00  0.26449280439E+01  0.26601198226E+01  0.00000000000E+00 0.  1.
</event>
<event>
 5    1  0.6564536E+001  0.1598904E+01  0.7818608E-02  0.3354554E+00
         11   -1    0    0    0    0  0.00000000000E+00  0.00000000000E+00  0.39999999674E+01  0.40000000000E+01  0.51100000000E-03 0.  1.
    9000002   -1    0    0    0    0 -0.00000000000E+00 -0.00000000000E+00  0.00000000000E+00  0.93800000000E+00  0.93800000000E+00 0.  1.
         11    1    1    2    0    0 -0.15924746914E-02 -0.84155921752E-02  0.20226952501E+00  0.20245142636E+00  0.51100000000E-03 0.  1.
    9000002    1    1    2    0    0  0.28070523174E+00  0.30029218254E+00  0.11478720132E+00  0.10305294385E+01  0.93800000000E+00 0.  1.
         22    1    1    2    0    0 -0.27911275705E+00 -0.29187659036E+00  0.36829432410E+01  0.37050191351E+01  0.00000000000E+00 0.  1.
</event>
<event>
 5    1  0.6564536E+001  0.1598856E+01  0.7818608E-02  0.3354606E+00
         11   -1    0    0    0    0  0.00000000000E+00  0.00000000000E+00  0.39999999674E+01  0.40000000000E+01  0.51100000000E-03 0.  1.
    9000002   -1    0    0    0    0 -0.00000000000E+00 -0.00000000000E+00  0.00000000000E+00  0.93800000000E+00  0.93800000000E+00 0. -1.
         11    1    1    2    0    0 -0.14399652474E-01 -0.73254790316E-02  0.17531517026E+00  0.17605874781E+00  0.51100000000E-03 0.  1.
    9000002    1    1    2    0    0  0.10091728118E+00  0.39245329644E+00  0.11151949719E+00  0.10278543116E+01  0.93800000000E+00 0. -1.
         22    1    1    2    0    0 -0.86517628709E-01 -0.38512781741E+00  0.37131652999E+01  0.37340869406E+01  0.00000000000E+00 0.  1.
</event>
<event>
 5    1  0.6564536E+001  0.1552438E+01  0.7818608E-02  0.3406660E+00
         11   -1    0    0    0    0  0.00000000000E+00  0.00000000000E+00  0.39999999674E+01  0.40000000000E+01  0.51100000000E-03 0. -1.
    9000002   -1    0    0    0    0 -0.00000000000E+00 -0.00000000000E+00  0.00000000000E+00  0.93800000000E+00  0.93800000000E+00 0. -1.
         11    1    1    2    0    0 -0.91196808428E-01  0.20866291708E+00  0.14556404241E+01  0.14733453011E+01  0.51100000000E-03 0. -1.
    9000002    1    1    2    0    0 -0.26815265812E+00 -0.11554204986E+00  0.94611579466E-01  0.98694030433E+00  0.93800000000E+00 0. -1.
         22    1    1    2    0    0  0.35934946655E+00 -0.93120867218E-01  0.24497479638E+01  0.24777143946E+01  0.00000000000E+00 0.  1.
</event>
<event>
 5    1  0.6564536E+001  0.1568621E+01  0.7818608E-02  0.3388142E+00
         11   -1    0    0    0    0  0.00000000000E+00  0.00000000000E+00  0.39999999674E+01  0.40000000000E+01  0.51100000000E-03 0. -1.
    9000002   -1    0    0    0    0 -0.00000000000E+00 -0.00000000000E+00  0.00000000000E+00  0.93800000000E+00  0.93800000000E+00 0. -1.
         11    1    1    2    0    0 -0.90019998006E-01  0.25803003348E+00  0.82754326647E+00  0.87149940747E+00  0.51100000000E-03 0. -1.
    9000002    1    1    2    0    0 -0.38207118772E-01 -0.50361103736E+00  0.20343320381E+00  0.10845796095E+01  0.93800000000E+00 0. -1.
         22    1    1    2    0    0  0.12822711678E+00  0.24558100388E+00  0.29690234971E+01  0.29819209831E+01  0.00000000000E+00 0. -1.
</event>
<event>
 5    1  0.6564536E+001  0.1599659E+01  0.7818608E-02  0.3353734E+00
         11   -1    0    0    0    0  0.00000000000E+00  0.00000000000E+00  0.39999999674E+01  0.40000000000E+01  0.51100000000E-03 0.  1.
    9000002   -1    0    0    0    0 -0.00000000000E+00 -0.00000000000E+00  0.00000000000E+00  0.93800000000E+00  0.93800000000E+00 0.  1.
         11    1    1    2    0    0  0.14888677605E-01 -0.13084465499E+00  0.13252714718E+01  0.13317983074E+01  0.51100000000E-03 0.  1.
    9000002    1    1    2    0    0 -0.29523161582E-01  0.38341820707E+00  0.99570752197E-01  0.10186459018E+01  0.93800000000E+00 0.  1.
         22    1    1    2    0    0  0.14634483977E-01 -0.25257355208E+00  0.25751577434E+01  0.25875557908E+01  0.00000000000E+00 0.  1.
</event>
<event>
 5    1  0.6564536E+001  0.1542035E+01  0.7818608E-02  0.3418784E+00
         11   -1    0    0    0    0  0.00000000000E+00  0.00000000000E+00  0.39999999674E+01  0.40000000000E+01  0.51100000000E-03 0.  1.
    9000002   -1    0    0    0    0 -0.00000000000E+00 -0.00000000000E+00  0.00000000000E+00  0.93800000000E+00  0.93800000000E+00 0. -1.
         11    1    1    2    0    0 -0.15517066561E+00  0.13780802618E+00  0.11785155313E+01  0.11966486979E+01  0.51100000000E-03 0.  1.
    9000002    1    1    2    0    0 -0.10011423217E+00  0.17143306638E+00  0.70579070952E-01  0.96137274820E+00  0.93800000000E+00 0. -1.
         22    1    1    2    0    0  0.25528489778E+00 -0.30924109256E+00  0.27509053651E+01  0.27799785539E+01  0.00000000000E+00 0.  1.
</event>
<event>
 5    1  0.6564536E+001  0.1599531E+01  0.7818608E-02  0.3353872E+00
         11   -1    0    0    0    0  0.00000000000E+00  0.00000000000E+00  0.39999999674E+01  0.40000000000E+01  0.51100000000E-03 0.  1.
    9000002   -1    0    0    0    0 -0.00000000000E+00 -0.00000000000E+00  0.00000000000E+00  0.93800000000E+00  0.93800000000E+00 0.  1.
         11    1    1    2    0    0 -0.12656258697E+00 -0.71197739965E-01  0.10429503055E+01  0.10530113045E+01  0.51100000000E-03 0.  1.
    9000002    1    1    2    0    0  0.41758390093E+00  0.26756874951E+00  0.16839691245E+00  0.10743234476E+01  0.93800000000E+00 0.  1.
         22    1    1    2    0    0 -0.29102131396E+00 -0.19637100955E+00  0.27886527494E+01  0.28106652478E+01  0.00000000000E+00 0.  1.
</event>
<event>
 5    1  0.6564536E+001  0.1594665E+01  0.7818608E-02  0.3359175E+00
         11   -1    0    0    0    0  0.00000000000E+00  0.00000000000E+00  0.39999999674E+01  0.40000000000E+01  0.51100000000E-03 0.  1.
    9000002   -1    0    0    0    0 -0.00000000000E+00 -0.00000000000E+00  0.00000000000E+00  0.93800000000E+00  0.93800000000E+00 0. -1.
         11    1    1    2    0    0  0.57199967313E-01 -0.18220571942E-02  0.24383335583E+00  0.25045982251E+00  0.51100000000E-03 0.  1.
    9000002    1    1    2    0    0 -0.30950197851E+00  0.31223470668E+00  0.13538277275E+00  0.10447269892E+01  0.93800000000E+00 0. -1.
         22    1    1    2    0    0  0.25230201119E+00 -0.31041264949E+00  0.36207838388E+01  0.36428131883E+01  0.00000000000E+00 0.  1.
</event>
<event>
 5    1  0.6564536E+001  0.1599677E+01  0.7818608E-02  0.3353714E+00
         11   -1    0    0    0    0  0.00000000000E+00  0.00000000000E+00  0.39999999674E+01  0.40000000000E+01  0.51100000000E-03 0. -1.
    9000002   -1    0    0    0    0 -0.00000000000E+00 -0.00000000000E+00  0.00000000000E+00  0.93800000000E+00  0.93800000000E+00 0.  1.
         11    1    1    2    0    0  0.15417119600E+00  0.81271762513E-01  0.14362692672E+01  0.14468045916E+01  0.51100000000E-03 0.  1.
    9000002    1    1    2    0    0 -0.41280674283E+00 -0.21762924173E+00  0.14827931769E+00  0.10581127775E+01  0.93800000000E+00 0.  1.
         22    1    1    2    0    0  0.25863554683E+00  0.13635747922E+00  0.24154513824E+01  0.24330826310E+01  0.00000000000E+00 0. -1.
</event>
<event>
 5    1  0.8589178E+001  0.1582144E+01  0.7818608E-02  0.3372975E+00
         11   -1    0    0    0    0  0.00000000000E+00  0.00000000000E+00  0.39999999674E+01  0.40000000000E+01  0.51100000000E-03 0.  1.
    9000002   -1    0    0    0    0 -0.00000000000E+00 -0.00000000000E+00  0.00000000000E+00  0.93800000000E+00  0.93800000000E+00 0.  1.
         11    1    1    2    0    0  0.98226948779E-01 -0.62527577260E-01  0.10146297593E+01  0.10212894012E+01  0.51100000000E-03 0.  1.
    9000002    1    1    2    0    0 -0.73505652642E-01 -0.20187008183E+00  0.43911665647E-01  0.96328959575E+00  0.93800000000E+00 0.  1.
         22    1    1    2    0    0 -0.24721296138E-01  0.26439765909E+00  0.29414585424E+01  0.29534210031E+01  0.00000000000E+00 0.  1.
</event>
<event>
 5    1  0.6564536E+001  0.1597045E+01  0.7818608E-02  0.3356577E+00
         11   -1    0    0    0    0  0.00000000000E+00  0.00000000000E+00  0.39999999674E+01  0.40000000000E+01  0.51100000000E-03 0.  1.
    9000002   -1    0    0    0    0 -0.00000000000E+00 -0.00000000000E+00  0.00000000000E+00  0.93800000000E+00  0.93800000000E+00 0. -1.
         11    1    1    2    0    0  0.62689553203E-01 -0.10643119087E+00  0.70667733752E+00  0.71739159387E+00  0.51100000000E-03 0.  1.
    9000002    1    1    2    0    0 -0.17353638665E+00  0.38284228087E+00  0.12172270727E+00  0.10350572482E+01  0.93800000000E+00 0. -1.
         22    1    1    2    0    0  0.11084683345E+00 -0.27641109001E+00  0.31715999226E+01  0.31855511580E+01  0.00000000000E+00 0.  1.
</event>
<event>
 5    1  0.6564536E+001  0.1504933E+01  0.7818608E-02  0.3463483E+00
         11   -1    0    0    0    0  0.00000000000E+00  0.00000000000E+00  0.39999999674E+01  0.40000000000E+01  0.51100000000E-03 0.  1.
    9000002   -1    0    0    0    0 -0.00000000000E+00 -0.00000000000E+00  0.00000000000E+00  0.93800000000E+00  0.93800000000E+00 0.  1.
         11    1    1    2    0    0  0.12357917676E-01 -0.26507164805E+00  0.57402018865E+00  0.63238843667E+00  0.51100000000E-03 0.  1.
    9000002    1    1    2    0    0 -0.27667734141E+00 -0.46171830769E-02  0.12825787987E+00  0.98633957306E+00  0.93800000000E+00 0.  1.
         22    1    1    2    0    0  0.26431942373E+00  0.26968883112E+00  0.32977218988E+01  0.33192719903E+01  0.00000000000E+00 0.  1.
</event>
<event>
 5    1  0.6564536E+001  0.1599642E+01  0.7818608E-02  0.3353752E+00
         11   -1    0    0    0    0  0.00000000000E+00  0.00000000000E+00  0.39999999674E+01  0.40000000000E+01  0.51100000000E-03 0.  1.
    9000002   -1    0    0    0    0 -0.00000000000E+00 -0.00000000000E+00  0.00000000000E+00  0.93800000000E+00  0.93800000000E+00 0. -1.
         11    1    1    2    0    0 -0.10633298913E+00 -0.98346630395E-01  0.84534209281E+00  0.85766093492E+00  0.51100000000E-03 0.  1.
    9000002    1    1    2    0    0  0.48567802323E+00  0.44553343519E+00  0.30723450777E+00  0.11868530772E+01  0.93800000000E+00 0. -1.
         22    1    1    2    0    0 -0.37934503410E+00 -0.34718680480E+00  0.28474233668E+01  0.28934859879E+01  0.00000000000E+00 0.  1.
</event>
<event>
 5    1  0.6564536E+001  0.1599639E+01  0.7818608E-02  0.3353755E+00
         11   -1    0    0    0    0  0.00000000000E+00  0.00000000000E+00  0.39999999674E+01  0.40000000000E+01  0.51100000000E-03 0.  1.
    9000002   -1    0    0    0    0 -0.00000000000E+00 -0.00000000000E+00  0.00000000000E+00  0.93800000000E+00  0.93800000000E+00 0. -1.
         11    1    1    2    0    0 -0.26366966783E-01  0.95919648544E-01  0.96229168547E+00  0.96741994241E+00  0.51100000000E-03 0.  1.
    9000002    1    1    2    0    0  0.13072541353E+00 -0.37866460517E+00  0.10828404966E+00  0.10256926695E+01  0.93800000000E+00 0. -1.
         22    1    1    2    0    0 -0.10435844675E+00  0.28274495663E+00  0.29294242322E+01  0.29448873880E+01  0.00000000000E+00 0.  1.
</event>
<event>
 5    1  0.6564536E+001  0.1587229E+01  0.7818608E-02  0.3367342E+00
         11   -1    0    0    0    0  0.00000000000E+00  0.00000000000E+00  0.39999999674E+01  0.40000000000E+01  0.51100000000E-03 0. -1.
    9000002   -1    0    0    0    0 -0.00000000000E+00 -0.00000000000E+00  0.00000000000E+00  0.93800000000E+00  0.93800000000E+00 0. -1.
         11    1    1    2    0    0  0.37304891730E-01  0.14861624433E-01  0.34940417789E+00  0.35170451159E+00  0.51100000000E-03 0. -1.
    9000002    1    1    2    0    0  0.43801719055E+00 -0.12730499920E+00  0.15232839436E+00  0.10540937158E+01  0.93800000000E+00 0. -1.
         22    1    1    2    0    0 -0.47532208228E+00  0.11244337477E+00  0.34982673951E+01  0.35322017726E+01  0.00000000000E+00 0. -1.
</event>
<event>
 5    1  0.6564536E+001  0.1599657E+01  0.7818608E-02  0.3353735E+00
         11   -1    0    0    0    0  0.00000000000E+00  0.00000000000E+00  0.39999999674E+01  0.40000000000E+01  0.51100000000E-03 0.  1.
    9000002   -1    0    0    0    0 -0.00000000000E+00 -0.00000000000E+00  0.00000000000E+00  0.93800000000E+00  0.93800000000E+00 0. -1.
         11    1    1    2    0    0  0.11602849784E+00 -0.36641356531E-01  0.10984734539E+01  0.11051920156E+01  0.51100000000E-03 0.  1.
    9000002    1    1    2    0    0 -0.41834828936E+00  0.14288339306E+00  0.13259714477E+00  0.10453979903E+01  0.93800000000E+00 0. -1.
         22    1    1    2    0    0  0.30231979152E+00 -0.10624203653E+00  0.27689293687E+01  0.27874099941E+01  0.00000000000E+00 0. -1.
</event>
<event>
 5    1  0.6564536E+001  0.1599650E+01  0.7818608E-02  0.3353744E+00
         11   -1    0    0    0    0  0.00000000000E+00  0.00000000000E+00  0.39999999674E+01  0.40000000000E+01  0.51100000000E-03 0. -1.
    9000002   -1    0    0    0    0 -0.00000000000E+00 -0.00000000000E+00  0.00000000000E+00  0.93800000000E+00  0.93800000000E+00 0. -1.
         11    1    1    2    0    0 -0.34450530892E-01 -0.15256958108E-01  0.38732623432E+00  0.38915483649E+00  0.51100000000E-03 0. -1.
    9000002    1    1    2    0    0  0.33310576978E+00  0.18856043606E+00  0.98636395568E-01  0.10178838983E+01  0.93800000000E+00 0. -1.
         22    1    1    2    0    0 -0.29865523889E+00 -0.17330347796E+00  0.35140373375E+01  0.35309612652E+01  0.00000000000E+00 0. -1.
</event>
<event>
 5    1  0.6564536E+001  0.1599675E+01  0.7818608E-02  0.3353716E+00
         11   -1    0    0    0    0  0.00000000000E+00  0.00000000000E+00  0.39999999674E+01  0.40000000000E+01  0.51100000000E-03 0. -1.
    9000002   -1    0    0    0    0 -0.00000000000E+00 -0.00000000000E+00  0.00000000000E+00  0.93800000000E+00  0.93800000000E+00 0. -1.
         11    1    1    2    0    0  0.19209534809E-01 -0.65489324376E-02  0.22258910642E+00  0.22351301117E+00  0.51100000000E-03 0.  1.
    9000002    1    1    2    0    0 -0.33939083873E+00  0.10613776713E+00  0.84841052200E-01  0.10067240790E+01  0.93800000000E+00 0. -1.
         22    1    1    2    0    0  0.32018130392E+00 -0.99588834694E-01  0.36925698087E+01  0.37077629099E+01  0.00000000000E+00 0. -1.
</event>
<event>
 5    1  0.6564536E+001  0.1598296E+01  0.7818608E-02  0.3355215E+00
         11   -1    0    0    0    0  0.00000000000E+00  0.00000000000E+00  0.39999999674E+01  0.40000000000E+01  0.51100000000E-03 0.  1.
    9000002   -1    0    0    0    0 -0.00000000000E+00 -0.00000000000E+00  0.00000000000E+00  0.93800000000E+00  0.93800000000E+00 0.  1.
         11    1    1    2    0    0  0.23822241005E-01  0.36187262892E-01  0.24569039655E+00  0.24948156092E+00  0.51100000000E-03 0.  1.
    9000002    1    1    2    0    0 -0.48091334154E+00 -0.77981081660E+00  0.64930335584E+00  0.14631546055E+01  0.93800000000E+00 0.  1.
         22    1    1    2    0    0  0.45709110053E+00  0.74362355371E+00  0.31050062150E+01  0.32253638336E+01  0.00000000000E+00 0.  1.
</event>
<event>
 5    1  0.6564536E+001  0.1599671E+01  0.7818608E-02  0.3353720E+00
         11   -1    0    0    0    0  0.00000000000E+00  0.00000000000E+00  0.39999999674E+01  0.40000000000E+01  0.51100000000E-03 0. -1.
    9000002   -1    0    0    0    0 -0.00000000000E+00 -0.00000000000E+00  0.00000000000E+00  0.93800000000E+00  0.93800000000E+00 0. -1.
         11    1    1    2    0    0 -0.55530329696E-01  0.11065351985E+00  0.10001058723E+01  0.10077399644E+01  0.51100000000E-03 0. -1.
    9000002    1    1    2    0    0  0.22192050525E+00 -0.42950486077E+00  0.15956700958E+00  0.10672529066E+01  0.93800000000E+00 0. -1.
         22    1    1    2    0    0 -0.16639017555E+00  0.31885134092E+00  0.28403270855E+01  0.28630071290E+01  0.00000000000E+00 0. -1.
</event>
<event>
 5    1  0.6564536E+001  0.1590811E+01  0.7818608E-02  0.3363397E+00
         11   -1    0    0    0    0  0.00000000000E+00  0.00000000000E+00  0.39999999674E+01  0.40000000000E+01  0.51100000000E-03 0.  1.
    9000002   -1    0    0    0    0 -0.00000000000E+00 -0.00000000000E+00  0.00000000000E+00  0.93800000000E+00  0.93800000000E+00 0. -1.
         11    1    1    2    0    0 -0.15595805341E-01 -0.29386031726E-01  0.42732421642E-01  0.54158000195E-01  0.51100000000E-03 0.  1.
    9000002    1    1    2    0    0  0.55977413983E+00  0.38115264492E+00  0.33552869796E+00  0.12045945100E+01  0.93800000000E+00 0. -1.
         22    1    1    2    0    0 -0.54417833449E+00 -0.35176661320E+00  0.36217388478E+01  0.36792474898E+01  0.00000000000E+00 0.  1.
</event>
<event>
 5    1  0.6564536E+001  0.1599262E+01  0.7818608E-02  0.3354164E+00
         11   -1    0    0    0    0  0.00000000000E+00  0.00000000000E+00  0.39999999674E+01  0.40000000000E+01  0.51100000000E-03 0. -1.
    9000002   -1    0    0    0    0 -0.00000000000E+00 -0.00000000000E+00  0.00000000000E+00  0.93800000000E+00  0.93800000000E+00 0. -1.
         11    1    1    2    0    0  0.24972241531E-01 -0.17225376830E-02  0.30185708197E+00  0.30289361010E+00  0.51100000000E-03 0. -1.
    9000002    1    1    2    0    0 -0.46836690068E+00 -0.55040701294E-01  0.15190889470E+00  0.10608097590E+01  0.93800000000E+00 0. -1.
         22    1    1    2    0    0  0.44339465915E+00  0.56763238977E-01  0.35462339907E+01  0.35742966309E+01  0.00000000000E+00 0. -1.
</event>
<event>
 5    1  0.6564536E+001  0.1578182E+01  0.7818608E-02  0.3377390E+00
         11   -1    0    0    0    0  0.00000000000E+00  0.00000000000E+00  0.39999999674E+01  0.40000000000E+01  0.51100000000E-03 0. -1.
    9000002   -1    0    0    0    0 -0.00000000000E+00 -0.00000000000E+00  0.00000000000E+00  0.93800000000E+00  0.93800000000E+00 0. -1.
         11    1    1    2    0    0  0.43224087820E-01  0.49712045955E-01  0.96782743522E-01  0.11707591488E+00  0.51100000000E-03 0. -1.
    9000002    1    1    2    0    0  0.58307146557E-01 -0.46790112878E+00  0.17064152755E+00  0.10636229222E+01  0.93800000000E+00 0. -1.
         22    1    1    2    0    0 -0.10153123438E+00  0.41818908282E+00  0.37325756963E+01  0.37573011629E+01  0.00000000000E+00 0. -1.
</event>
<event>
 5    1  0.6564536E+001  0.1599677E+01  0.7818608E-02  0.3353714E+00
         11   -1    0    0    0    0  0.00000000000E+00  0.00000000000E+00  0.39999999674E+01  0.40000000000E+01  0.51100000000E-03 0. -1.
    9000002   -1    0    0    0    0 -0.00000000000E+00 -0.00000000000E+00  0.00000000000E+00  0.93800000000E+00  0.93800000000E+00 0.  1.
         11    1    1    2    0    0  0.66613396153E-01  0.17697196898E+00  0.11154025830E+01  0.11313176414E+01  0.51100000000E-03 0.  1.
    9000002    1    1    2    0    0 -0.22257795267E+00 -0.59027906782E+00  0.27956781651E+00  0.11644623167E+01  0.93800000000E+00 0.  1.
         22    1    1    2    0    0  0.15596455651E+00  0.41330709884E+00  0.26050295678E+01  0.26422200420E+01  0.00000000000E+00 0. -1.
</event>
<event>
 5    1  0.6564536E+001  0.1599676E+01  0.7818608E-02  0.3353715E+00
         11   -1    0    0    0    0  0.00000000000E+00  0.00000000000E+00  0.39999999674E+01  0.40000000000E+01  0.51100000000E-03 0. -1.
    9000002   -1    0    0    0    0 -0.00000000000E+00 -0.00000000000E+00  0.00000000000E+00  0.93800000000E+00  0.93800000000E+00 0.  1.
         11    1    1    2    0    0  0.74122046313E-01  0.29427909534E-01  0.87712086767E+00  0.88073909714E+00  0.51100000000E-03 0. -1.
    9000002    1    1    2    0    0 -0.33091607278E+00 -0.13596261195E+00  0.85894790319E-01  0.10075778849E+01  0.93800000000E+00 0.  1.
         22    1    1    2    0    0  0.25679402647E+00  0.10653470242E+00  0.30369843094E+01  0.30496830180E+01  0.00000000000E+00 0. -1.
</event>
<event>
 5    1  0.6564536E+001  0.1553786E+01  0.7818608E-02  0.3405102E+00
         11   -1    0    0    0    0  0.00000000000E+00  0.00000000000E+00  0.39999999674E+01  0.40000000000E+01  0.51100000000E-03 0.  1.
    9000002   -1    0    0    0    0 -0.00000000000E+00 -0.00000000000E+00  0.00000000000E+00  0.93800000000E+00  0.93800000000E+00 0.  1.
         11    1    1    2    0    0  0.18570158578E-01  0.35833513341E+00  0.10482066612E+01  0.11079198456E+01  0.51100000000E-03 0.  1.
    9000002    1    1    2    0    0  0.44834127281E+00 -0.59529265720E+00  0.45906242777E+00  0.12829518920E+01  0.93800000000E+00 0.  1.
         22    1    1    2    0    0 -0.46691143139E+00  0.23695752379E+00  0.24927308784E+01  0.25471282623E+01  0.00000000000E+00 0.  1.
</event>
<event>
 5    1  0.6564536E+001  0.1599515E+01  0.7818608E-02  0.3353890E+00
         11   -1    0    0    0    0  0.00000000000E+00  0.00000000000E+00  0.39999999674E+01  0.40000000000E+01  0.51100000000E-03 0.  1.
    9000002   -1    0    0    0    0 -0.00000000000E+00 -0.00000000000E+00  0.00000000000E+00  0.93800000000E+00  0.93800000000E+00 0. -1.
         11    1    1    2    0    0 -0.36569942367E-01  0.11834999088E+00  0.10144878053E+01  0.10220224309E+01  0.51100000000E-03 0.  1.
    9000002    1    1    2    0    0  0.17561182204E+00 -0.41439895891E+00  0.13772072494E+00  0.10494651053E+01  0.93800000000E+00 0. -1.
         22    1    1    2    0    0 -0.13904187967E+00  0.29604896803E+00  0.28477914371E+01  0.28665124638E+01  0.00000000000E+00 0.  1.
</event>
<event>
 5    1  0.6564536E+001  0.1599672E+01  0.7818608E-02  0.3353719E+00
         11   -1    0    0    0    0  0.00000000000E+00  0.00000000000E+00  0.39999999674E+01  0.40000000000E+01  0.51100000000E-03 0. -1.
    9000002   -1    0    0    0    0 -0.00000000000E+00 -0.00000000000E+00  0.00000000000E+00  0.93800000000E+00  0.93800000000E+00 0.  1.
         11    1    1    2    0    0  0.67993876678E-01  0.17599634825E+00  0.10565563509E+01  0.10732704532E+01  0.51100000000E-03 0. -1.
    9000002    1    1    2    0    0 -0.23777481203E+00 -0.62231015104E+00  0.31441851731E+00  0.11926901481E+01  0.93800000000E+00 0.  1.
         22    1    1    2    0    0  0.16978093535E+00  0.44631380279E+00  0.26290250992E+01  0.26720393988E+01  0.00000000000E+00 0. -1.
</event>
<event>
 5    1  0.6564536E+001  0.1599569E+01  0.7818608E-02  0.3353831E+00
         11   -1    0    0    0    0  0.00000000000E+00  0.00000000000E+00  0.39999999674E+01  0.40000000000E+01  0.51100000000E-03 0.  1.
    9000002   -1    0    0    0    0 -0.00000000000E+00 -0.00000000000E+00  0.00000000000E+00  0.93800000000E+00  0.93800000000E+00 0.  1.
         11    1    1    2    0    0  0.30896683254E+00  0.23566683237E-01  0.37197576270E+00  0.48413027309E+00  0.51100000000E-03 0.  1.
    9000002    1    1    2    0    0 -0.12773728660E+01 -0.11861833453E+00  0.25196708847E+01  0.29789825637E+01  0.93800000000E+00 0.  1.
         22    1    1    2    0    0  0.96840603348E+00  0.95051651290E-01  0.11083533200E+01  0.14748871632E+01  0.00000000000E+00 0.  1.
</event>
<event>
 5    1  0.6564536E+001  0.1584118E+01  0.7818608E-02  0.3370784E+00
         11   -1    0    0    0    0  0.00000000000E+00  0.00000000000E+00  0.39999999674E+01  0.40000000000E+01  0.51100000000E-03 0.  1.
    9000002   -1    0    0    0    0 -0.00000000000E+00 -0.00000000000E+00  0.00000000000E+00  0.93800000000E+00  0.93800000000E+00 0. -1.
         11    1    1    2    0    0  0.55684146815E-01 -0.30134773051E+00  0.13823275672E+01  0.14158887467E+01  0.51100000000E-03 0.  1.
    9000002    1    1    2    0    0 -0.36745933056E+00  0.48602201804E+00  0.27533495824E+00  0.11519101965E+01  0.93800000000E+00 0. -1.
         22    1    1    2    0    0  0.31177518374E+00 -0.18467428753E+00  0.23423374419E+01  0.23702010568E+01  0.00000000000E+00 0. -1.
</event>
<event>
 5    1  0.6564536E+001  0.1599677E+01  0.7818608E-02  0.3353714E+00
         11   -1    0    0    0    0  0.00000000000E+00  0.00000000000E+00  0.39999999674E+01  0.40000000000E+01  0.51100000000E-03 0.  1.
    9000002   -1    0    0    0    0 -0.00000000000E+00 -0.00000000000E+00  0.00000000000E+00  0.93800000000E+00  0.93800000000E+00 0.  1.
         11    1    1    2    0    0 -0.85954459338E-01  0.85377593229E-01  0.10425374841E+01  0.10495533190E+01  0.51100000000E-03 0. -1.
    9000002    1    1    2    0    0  0.31884351193E+00 -0.31724036890E+00  0.13739640763E+00  0.10492971026E+01  0.93800000000E+00 0.  1.
         22    1    1    2    0    0 -0.23288905259E+00  0.23186277567E+00  0.28200660756E+01  0.28391495784E+01  0.00000000000E+00 0.  1.
</event>
<event>
 5    1  0.6564536E+001  0.1599655E+01  0.7818608E-02  0.3353738E+00
         11   -1    0    0    0    0  0.00000000000E+00  0.00000000000E+00  0.39999999674E+01  0.40000000000E+01  0.51100000000E-03 0. -1.
    9000002   -1    0    0    0    0 -0.00000000000E+00 -0.00000000000E+00  0.00000000000E+00  0.93800000000E+00  0.93800000000E+00 0. -1.
         11    1    1    2    0    0  0.84822205387E-01 -0.61704637187E-01  0.10616930120E+01  0.10668620256E+01  0.51100000000E-03 0. -1.
    9000002    1    1    2    0    0 -0.29375538159E+00  0.23057515465E+00  0.93776941759E-01  0.10139503148E+01  0.93800000000E+00 0. -1.
         22    1    1    2    0    0  0.20893317620E+00 -0.16887051746E+00  0.28445300136E+01  0.28571876595E+01  0.00000000000E+00 0. -1.
</event>
<event>
 5    1  0.6564536E+001  0.1599672E+01  0.7818608E-02  0.3353719E+00
         11   -1    0    0    0    0  0.00000000000E+00  0.00000000000E+00  0.39999999674E+01  0.40000000000E+01  0.51100000000E-03 0.  1.
    9000002   -1    0    0    0    0 -0.00000000000E+00 -0.00000000000E+00  0.00000000000E+00  0.93800000000E+00  0.93800000000E+00 0. -1.
         11    1    1    2    0    0  0.26789161697E-01  0.91736156265E-02  0.27915478395E+00  0.28058772056E+00  0.51100000000E-03 0.  1.
    9000002    1    1    2    0    0 -0.38798704918E+00 -0.13643510358E+00  0.11426581029E+00  0.10305576952E+01  0.93800000000E+00 0. -1.
         22    1    1    2    0    0  0.36119788749E+00  0.12726148795E+00  0.36065793731E+01  0.36268545842E+01  0.00000000000E+00 0.  1.
</event>
<event>
 5    1  0.6564536E+001  0.1554833E+01  0.7818608E-02  0.3403894E+00
         11   -1    0    0    0    0  0.00000000000E+00  0.00000000000E+00  0.39999999674E+01  0.40000000000E+01  0.51100000000E-03 0. -1.
    9000002   -1    0    0    0    0 -0.00000000000E+00 -0.00000000000E+00  0.00000000000E+00  0.93800000000E+00  0.93800000000E+00 0. -1.
         11    1    1    2    0    0  0.14351668240E+00  0.52184099794E-01  0.11582989152E+01  0.11683222400E+01  0.51100000000E-03 0. -1.
    9000002    1    1    2    0    0  0.30054574044E+00 -0.18106441212E+00  0.11960996111E+00  0.10085943715E+01  0.93800000000E+00 0. -1.
         22    1    1    2    0    0 -0.44406242284E+00  0.12888031233E+00  0.27220910910E+01  0.27610833885E+01  0.00000000000E+00 0. -1.
</event>
<event>
 5    1  0.6564536E+001  0.1577520E+01  0.7818608E-02  0.3378130E+00
         11   -1    0    0    0    0  0.00000000000E+00  0.00000000000E+00  0.39999999674E+01  0.40000000000E+01  0.51100000000E-03 0.  1.
    9000002   -1    0    0    0    0 -0.00000000000E+00 -0.00000000000E+00  0.00000000000E+00  0.93800000000E+00  0.93800000000E+00 0.  1.
         11    1    1    2    0    0  0.21441626565E-01 -0.89533282156E-01  0.27518713291E+00  0.29017954994E+00  0.51100000000E-03 0.  1.
    9000002    1    1    2    0    0 -0.40354666305E+00 -0.43063338271E-01  0.12993092170E+00  0.10302574459E+01  0.93800000000E+00 0.  1.
         22    1    1    2    0    0  0.38210503649E+00  0.13259662043E+00  0.35948819127E+01  0.36175630042E+01  0.00000000000E+00 0.  1.
</event>
<event>
 5    1  0.6564536E+001  0.1580166E+01  0.7818608E-02  0.3375176E+00
         11   -1    0    0    0    0  0.00000000000E+00  0.00000000000E+00  0.39999999674E+01  0.40000000000E+01  0.51100000000E-03 0. -1.
    9000002   -1    0    0    0    0 -0.00000000000E+00 -0.00000000000E+00  0.00000000000E+00  0.93800000000E+00  0.93800000000E+00 0. -1.
         11    1    1    2    0    0  0.11730498659E-01  0.12476982074E+00  0.55529199746E+00  0.56925791723E+00  0.51100000000E-03 0. -1.
    9000002    1    1    2    0    0 -0.44767171386E+00 -0.12971330179E+00  0.16517688410E+00  0.10603598008E+01  0.93800000000E+00 0. -1.
         22    1    1    2    0    0  0.43594121520E+00  0.49434810477E-02  0.32795310858E+01  0.33083822820E+01  0.00000000000E+00 0. -1.
</event>
<event>
 5    1  0.6564536E+001  0.1599646E+01  0.7818608E-02  0.3353747E+00
         11   -1    0    0    0    0  0.00000000000E+00  0.00000000000E+00  0.39999999674E+01  0.40000000000E+01  0.51100000000E-03 0. -1.
    9000002   -1    0    0    0    0 -0.00000000000E+00 -0.00000000000E+00  0.00000000000E+00  0.93800000000E+00  0.93800000000E+00 0.  1.
         11    1    1    2    0    0  0.26394733367E-01 -0.11556026318E+00  0.11318105974E+01  0.11380010307E+01  0.51100000000E-03 0. -1.
    9000002    1    1    2    0    0 -0.82698630110E-01  0.37884578161E+00  0.10129189744E+00  0.10200329593E+01  0.93800000000E+00 0.  1.
         22    1    1    2    0    0  0.56303896743E-01 -0.26328551843E+00  0.27668974726E+01  0.27799660100E+01  0.00000000000E+00 0. -1.
</event>
<event>
 5    1  0.6564536E+001  0.1597199E+01  0.7818608E-02  0.3356409E+00
         11   -1    0    0    0    0  0.00000000000E+00  0.00000000000E+00  0.39999999674E+01  0.40000000000E+01  0.51100000000E-03 0. -1.
    9000002   -1    0    0    0    0 -0.00000000000E+00 -0.00000000000E+00  0.00000000000E+00  0.93800000000E+00  0.93800000000E+00 0.  1.
         11    1    1    2    0    0  0.18678682469E-01 -0.13627087173E-02  0.19693014765E+00  0.19781934771E+00  0.51100000000E-03 0. -1.
    9000002    1    1    2    0    0 -0.87611025395E-01 -0.40869796642E+00  0.12021593423E+00  0.10339272655E+01  0.93800000000E+00 0.  1.
         22    1    1    2    0    0  0.68932342926E-01  0.41006067514E+00  0.36828538855E+01  0.37062533868E+01  0.00000000000E+00 0. -1.
</event>
<event>
 5    1  0.6564536E+001  0.1494228E+01  0.7818608E-02  0.3476823E+00
         11   -1    0    0    0    0  0.00000000000E+00  0.00000000000E+00  0.39999999674E+01  0.40000000000E+01  0.51100000000E-03 0. -1.
    9000002   -1    0    0    0    0 -0.00000000000E+00 -0.00000000000E+00  0.00000000000E+00  0.93800000000E+00  0.93800000000E+00 0. -1.
         11    1    1    2    0    0  0.13703382962E+00  0.87235072428E-01  0.13763860670E+00  0.21291518381E+00  0.51100000000E-03 0. -1.
    9000002    1    1    2    0    0  0.17414298389E+00 -0.30663977576E+00  0.17396062101E+00  0.10170840814E+01  0.93800000000E+00 0. -1.
         22    1    1    2    0    0 -0.31117681352E+00  0.21940470334E+00  0.36884007397E+01  0.37080007348E+01  0.00000000000E+00 0. -1.
</event>
<event>
 5    1  0.6564536E+001  0.1586599E+01  0.7818608E-02  0.3368038E+00
         11   -1    0    0    0    0  0.00000000000E+00  0.00000000000E+00  0.39999999674E+01  0.40000000000E+01  0.51100000000E-03 0.  1.
    9000002   -1    0    0    0    0 -0.00000000000E+00 -0.00000000000E+00  0.00000000000E+00  0.93800000000E+00  0.93800000000E+00 0.  1.
         11    1    1    2    0    0 -0.48964830870E-01 -0.55669466482E-01  0.14490774545E+01  0.14509729061E+01  0.51100000000E-03 0.  1.
    9000002    1    1    2    0    0 -0.20979497455E+00  0.26080104510E+00  0.85502976149E-01  0.99959285482E+00  0.93800000000E+00 0.  1.
         22    1    1    2    0    0  0.25875980542E+00 -0.20513157862E+00  0.24654195367E+01  0.24874342391E+01  0.00000000000E+00 0.  1.
</event>
<event>
 5    1  0.6564536E+001  0.1493487E+01  0.7818608E-02  0.3477755E+00
         11   -1    0    0    0    0  0.00000000000E+00  0.00000000000E+00  0.39999999674E+01  0.40000000000E+01  0.51100000000E-03 0. -1.
    9000002   -1    0    0    0    0 -0.00000000000E+00 -0.00000000000E+00  0.00000000000E+00  0.93800000000E+00  0.93800000000E+00 0.  1.
         11    1    1    2    0    0  0.21446526045E+00  0.32762217904E+00  0.12178238869E+01  0.12792290337E+01  0.51100000000E-03 0. -1.
    9000002    1    1    2    0    0  0.33791520971E-01 -0.12868326013E+00  0.94229153678E-01  0.95206322360E+00  0.93800000000E+00 0.  1.
         22    1    1    2    0    0 -0.24825678142E+00 -0.19893891891E+00  0.26879469268E+01  0.27067077427E+01  0.00000000000E+00 0.  1.
</event>
<event>
 5    1  0.6564536E+001  0.1599577E+01  0.7818608E-02  0.3353822E+00
         11   -1    0    0    0    0  0.00000000000E+00  0.00000000000E+00  0.39999999674E+01  0.40000000000E+01  0.51100000000E-03 0.  1.
    9000002   -1    0    0    0    0 -0.00000000000E+00 -0.00000000000E+00  0.00000000000E+00  0.93800000000E+00  0.93800000000E+00 0. -1.
         11    1    1    2    0    0 -0.80521161171E-01 -0.27243031605E+00  0.13868312168E+01  0.14156281361E+01  0.51100000000E-03 0.  1.
    9000002    1    1    2    0    0  0.23869409488E+00  0.70048564295E+00  0.39595275500E+00  0.12586808933E+01  0.93800000000E+00 0. -1.
         22    1    1    2    0    0 -0.15817293371E+00 -0.42805532690E+00  0.22172159955E+01  0.22636909707E+01  0.00000000000E+00 0. -1.
</event>
<event>
 5    1  0.6564536E+001  0.1549473E+01  0.7818608E-02  0.3410099E+00
         11   -1    0    0    0    0  0.00000000000E+00  0.00000000000E+00  0.39999999674E+01  0.40000000000E+01  0.51100000000E-03 0. -1.
    9000002   -1    0    0    0    0 -0.00000000000E+00 -0.00000000000E+00  0.00000000000E+00  0.93800000000E+00  0.93800000000E+00 0.  1.
         11    1    1    2    0    0  0.27158774669E+00  0.19259605799E+00  0.13204273125E+01  0.13617568412E+01  0.51100000000E-03 0. -1.
    9000002    1    1    2    0    0 -0.37079433662E+00  0.56652538967E-01  0.13689385489E+00  0.10194517535E+01  0.93800000000E+00 0.  1.
         22    1    1    2    0    0  0.99206589938E-01 -0.24924859695E+00  0.25426787999E+01  0.25567914053E+01  0.00000000000E+00 0. -1.
</event>
<event>
 5    1  0.6564536E+001  0.1553539E+01  0.7818608E-02  0.3405387E+00
         11   -1    0    0    0    0  0.00000000000E+00  0.00000000000E+00  0.39999999674E+01  0.40000000000E+01  0.51100000000E-03 0.  1.
    9000002   -1    0    0    0    0 -0.00000000000E+00 -0.00000000000E+00  0.00000000000E+00  0.93800000000E+00  0.93800000000E+00 0.  1.
         11    1    1    2    0    0 -0.40678045644E-01  0.13839481094E+00  0.51130438705E+00  0.53126289578E+00  0.51100000000E-03 0.  1.
    9000002    1    1    2    0    0 -0.28662980862E+00  0.13879828520E+00  0.10519428303E+00  0.99615834502E+00  0.93800000000E+00 0.  1.
         22    1    1    2    0    0  0.32730785427E+00 -0.27719309614E+00  0.33835012973E+01  0.34105787592E+01  0.00000000000E+00 0.  1.
</event>
<event>
 5    1  0.6564536E+001  0.1599635E+01  0.7818608E-02  0.3353760E+00
         11   -1    0    0    0    0  0.00000000000E+00  0.00000000000E+00  0.39999999674E+01  0.40000000000E+01  0.51100000000E-03 0. -1.
    9000002   -1    0    0    0    0 -0.00000000000E+00 -0.00000000000E+00  0.00000000000E+00  0.93800000000E+00  0.93800000000E+00 0.  1.
         11    1    1    2    0    0 -0.53440293130E-01 -0.62885974517E-01  0.72048256800E+00  0.72519370007E+00  0.51100000000E-03 0. -1.
    9000002    1    1    2    0    0  0.28064485367E+00  0.30701038586E+00  0.11698342806E+00  0.10327371560E+01  0.93800000000E+00 0.  1.
         22    1    1    2    0    0 -0.22720456054E+00 -0.24412441134E+00  0.31625339713E+01  0.31800691439E+01  0.00000000000E+00 0. -1.
</event>
<event>
 5    1  0.6564536E+001  0.1529880E+01  0.7818608E-02  0.3433172E+00
         11   -1    0    0    0    0  0.00000000000E+00  0.00000000000E+00  0.39999999674E+01  0.40000000000E+01  0.51100000000E-03 0.  1.
    9000002   -1    0    0    0    0 -0.00000000000E+00 -0.00000000000E+00  0.00000000000E+00  0.93800000000E+00  0.93800000000E+00 0.  1.
         11    1    1    2    0    0  0.37720797375E+00  0.26738103846E+00  0.57907953686E+00  0.74102081369E+00  0.51100000000E-03 0.  1.
    9000002    1    1    2    0    0  0.12868633184E+00 -0.42054855988E+00  0.36917690228E+00  0.10997985490E+01  0.93800000000E+00 0.  1.
         22    1    1    2    0    0 -0.50589430559E+00  0.15316752142E+00  0.30517435282E+01  0.30971806373E+01  0.00000000000E+00 0.  1.
</event>
<event>
 5    1  0.6564536E+001  0.1599675E+01  0.7818608E-02  0.3353716E+00
         11   -1    0    0    0    0  0.00000000000E+00  0.00000000000E+00  0.39999999674E+01  0.40000000000E+01  0.51100000000E-03 0.  1.
    9000002   -1    0    0    0    0 -0.00000000000E+00 -0.00000000000E+00  0.00000000000E+00  0.93800000000E+00  0.93800000000E+00 0.  1.
         11    1    1    2    0    0 -0.42297384723E-01 -0.14597950121E+00  0.12707372026E+01  0.12797938829E+01  0.51100000000E-03 0.  1.
    9000002    1    1    2    0    0  0.13261745267E+00  0.44266737886E+00  0.14529899909E+00  0.10556976822E+01  0.93800000000E+00 0.  1.
         22    1    1    2    0    0 -0.90320067944E-01 -0.29668787765E+00  0.25839637657E+01  0.26025084349E+01  0.00000000000E+00 0. -1.
</event>
<event>
 5    1  0.6564536E+001  0.1599674E+01  0.7818608E-02  0.3353717E+00
         11   -1    0    0    0    0  0.00000000000E+00  0.00000000000E+00  0.39999999674E+01  0.40000000000E+01  0.51100000000E-03 0. -1.
    9000002   -1    0    0    0    0 -0.00000000000E+00 -0.00000000000E+00  0.00000000000E+00  0.93800000000E+00  0.93800000000E+00 0. -1.
         11    1    1    2    0    0 -0.14823271182E+00 -0.53998403903E-02  0.12498837858E+01  0.12586547716E+01  0.51100000000E-03 0. -1.
    9000002    1    1    2    0    0  0.46293068984E+00  0.16508772292E-01  0.14602961556E+00  0.10562887918E+01  0.93800000000E+00 0. -1.
         22    1    1    2    0    0 -0.31469797801E+00 -0.11108931902E-01  0.26040865660E+01  0.26230564365E+01  0.00000000000E+00 0. -1.
</event>
<event>
 5    1  0.6564536E+001  0.1599667E+01  0.7818608E-02  0.3353725E+00
         11   -1    0    0    0    0  0.00000000000E+00  0.00000000000E+00  0.39999999674E+01  0.40000000000E+01  0.51100000000E-03 0. -1.
    9000002   -1    0    0    0    0 -0.00000000000E+00 -0.00000000000E+00  0.00000000000E+00  0.93800000000E+00  0.93800000000E+00 0.  1.
         11    1    1    2    0    0  0.13827182820E+00  0.13789530531E+00  0.12635184794E+01  0.12785200126E+01  0.51100000000E-03 0. -1.
    9000002    1    1    2    0    0 -0.42223193068E+00 -0.40908786965E+00  0.24054375071E+00  0.11328450840E+01  0.93800000000E+00 0.  1.
         22    1    1    2    0    0  0.28396010249E+00  0.27119256434E+00  0.24959377373E+01  0.25266349034E+01  0.00000000000E+00 0. -1.
</event>
<event>
 5    1  0.6564536E+001  0.1598720E+01  0.7818608E-02  0.3354754E+00
         11   -1    0    0    0    0  0.00000000000E+00  0.00000000000E+00  0.39999999674E+01  0.40000000000E+01  0.51100000000E-03 0.  1.
    9000002   -1    0    0    0    0 -0.00000000000E+00 -0.00000000000E+00  0.00000000000E+00  0.93800000000E+00  0.93800000000E+00 0.  1.
         11    1    1    2    0    0  0.14012546427E+00 -0.14318665318E-01  0.11498261673E+01  0.11584216184E+01  0.51100000000E-03 0.  1.
    9000002    1    1    2    0    0 -0.38122124046E+00  0.11641795874E+00  0.10794637545E+00  0.10248800882E+01  0.93800000000E+00 0.  1.
         22    1    1    2    0    0  0.24109577618E+00 -0.10209929342E+00  0.27422274246E+01  0.27546982933E+01  0.00000000000E+00 0.  1.
</event>
<event>
 5    1  0.6564536E+001  0.1599673E+01  0.7818608E-02  0.3353719E+00
         11   -1    0    0    0    0  0.00000000000E+00  0.00000000000E+00  0.39999999674E+01  0.40000000000E+01  0.51100000000E-03 0.  1.
    9000002   -1    0    0    0    0 -0.00000000000E+00 -0.00000000000E+00  0.00000000000E+00  0.93800000000E+00  0.93800000000E+00 0.  1.
         11    1    1    2    0    0  0.47920488103E-01 -0.20457073056E-01  0.36123785041E+00  0.36497658926E+00  0.51100000000E-03 0.  1.
    9000002    1    1    2    0    0 -0.50771059635E+00  0.20102244514E+00  0.20580385067E+00  0.11047077885E+01  0.93800000000E+00 0.  1.
         22    1    1    2    0    0  0.45979010824E+00 -0.18056537208E+00  0.34329582663E+01  0.34683156222E+01  0.00000000000E+00 0.  1.
</event>
<event>
 5    1  0.6564536E+001  0.1599666E+01  0.7818608E-02  0.3353726E+00
         11   -1    0    0    0    0  0.00000000000E+00  0.00000000000E+00  0.39999999674E+01  0.40000000000E+01  0.51100000000E-03 0.  1.
    9000002   -1    0    0    0    0 -0.00000000000E+00 -0.00000000000E+00  0.00000000000E+00  0.93800000000E+00  0.93800000000E+00 0.  1.
         11    1    1    2    0    0  0.64013991836E-01 -0.75985311391E-01  0.10218545194E+01  0.10266735015E+01  0.51100000000E-03 0.  1.
    9000002    1    1    2    0    0 -0.25789931016E+00  0.29002964325E+00  0.10145961393E+00  0.10201800338E+01  0.93800000000E+00 0.  1.
         22    1    1    2    0    0  0.19388531832E+00 -0.21404433186E+00  0.28766858340E+01  0.28911464647E+01  0.00000000000E+00 0.  1.
</event>
<event>
 5    1  0.6564536E+001  0.1595962E+01  0.7818608E-02  0.3357758E+00
         11   -1    0    0    0    0  0.00000000000E+00  0.00000000000E+00  0.39999999674E+01  0.40000000000E+01  0.51100000000E-03 0. -1.
    9000002   -1    0    0    0    0 -0.00000000000E+00 -0.00000000000E+00  0.00000000000E+00  0.93800000000E+00  0.93800000000E+00 0. -1.
         11    1    1    2    0    0 -0.87654155913E-02 -0.97881731178E-01  0.13283791988E+01  0.13320094679E+01  0.51100000000E-03 0. -1.
    9000002    1    1    2    0    0  0.22561520969E+00  0.24244435909E+00  0.76358574645E-01  0.99767535903E+00  0.93800000000E+00 0. -1.
         22    1    1    2    0    0 -0.21684979410E+00 -0.14456262791E+00  0.25952621939E+01  0.26083151730E+01  0.00000000000E+00 0. -1.
</event>
<event>
 5    1  0.6564536E+001  0.1598770E+01  0.7818608E-02  0.3354700E+00
         11   -1    0    0    0    0  0.00000000000E+00  0.00000000000E+00  0.39999999674E+01  0.40000000000E+01  0.51100000000E-03 0.  1.
    9000002   -1    0    0    0    0 -0.00000000000E+00 -0.00000000000E+00  0.00000000000E+00  0.93800000000E+00  0.93800000000E+00 0.  1.
         11    1    1    2    0    0 -0.16299272147E+00  0.20483527263E-01  0.10959675920E+01  0.11082109122E+01  0.51100000000E-03 0.  1.
    9000002    1    1    2    0    0  0.45985814073E+00 -0.98855742835E-01  0.15152526382E+00  0.10602102966E+01  0.93800000000E+00 0.  1.
         22    1    1    2    0    0 -0.29686541925E+00  0.78372215572E-01  0.27525071115E+01  0.27695787911E+01  0.00000000000E+00 0.  1.
</event>
<event>
 5    1  0.6564536E+001  0.1598091E+01  0.7818608E-02  0.3355438E+00
         11   -1    0    0    0    0  0.00000000000E+00  0.00000000000E+00  0.39999999674E+01  0.40000000000E+01  0.51100000000E-03 0. -1.
    9000002   -1    0    0    0    0 -0.00000000000E+00 -0.00000000000E+00  0.00000000000E+00  0.93800000000E+00  0.93800000000E+00 0.  1.
         11    1    1    2    0    0 -0.31485834034E-01 -0.42147033333E-01  0.50650032344E+00  0.50922545982E+00  0.51100000000E-03 0. -1.
    9000002    1    1    2    0    0  0.39749011451E+00  0.13121336482E+00  0.11981433236E+00  0.10341251435E+01  0.93800000000E+00 0.  1.
         22    1    1    2    0    0 -0.36600428047E+00 -0.89066331482E-01  0.33736853116E+01  0.33946493967E+01  0.00000000000E+00 0. -1.
</event>
<event>
 5    1  0.6564536E+001  0.1596285E+01  0.7818608E-02  0.3357405E+00
         11   -1    0    0    0    0  0.00000000000E+00  0.00000000000E+00  0.39999999674E+01  0.40000000000E+01  0.51100000000E-03 0.  1.
    9000002   -1    0    0    0    0 -0.00000000000E+00 -0.00000000000E+00  0.00000000000E+00  0.93800000000E+00  0.93800000000E+00 0. -1.
         11    1    1    2    0    0 -0.92886010289E-01  0.21237272919E+00  0.13727302157E+01  0.13921632423E+01  0.51100000000E-03 0.  1.
    9000002    1    1    2    0    0  0.28267979770E+00 -0.40543389781E+00  0.17011180792E+00  0.10738093596E+01  0.93800000000E+00 0. -1.
         22    1    1    2    0    0 -0.18979378741E+00  0.19306116862E+00  0.24571579437E+01  0.24720273981E+01  0.00000000000E+00 0.  1.
</event>
<event>
 5    1  0.6564536E+001  0.1599676E+01  0.7818608E-02  0.3353715E+00
         11   -1    0    0    0    0  0.00000000000E+00  0.00000000000E+00  0.39999999674E+01  0.40000000000E+01  0.51100000000E-03 0. -1.
    9000002   -1    0    0    0    0 -0.00000000000E+00 -0.00000000000E+00  0.00000000000E+00  0.93800000000E+00  0.93800000000E+00 0.  1.
         11    1    1    2    0    0  0.87637880337E-01  0.45109313311E-01  0.74259199400E+00  0.74910505197E+00  0.51100000000E-03 0. -1.
    9000002    1    1    2    0    0 -0.45015352157E+00 -0.23579629392E+00  0.17702426396E+00  0.10813970941E+01  0.93800000000E+00 0.  1.
         22    1    1    2    0    0  0.36251564123E+00  0.19068698061E+00  0.30803837094E+01  0.31074978539E+01  0.00000000000E+00 0. -1.
</event>
<event>
 5    1  0.6564536E+001  0.1598393E+01  0.7818608E-02  0.3355110E+00
         11   -1    0    0    0    0  0.00000000000E+00  0.00000000000E+00  0.39999999674E+01  0.40000000000E+01  0.51100000000E-03 0.  1.
    9000002   -1    0    0    0    0 -0.00000000000E+00 -0.00000000000E+00  0.00000000000E+00  0.93800000000E+00  0.93800000000E+00 0.  1.
         11    1    1    2    0    0 -0.72028574720E-01  0.92815853339E-02  0.81286299829E+00  0.81610096098E+00  0.51100000000E-03 0.  1.
    9000002    1    1    2    0    0  0.47241816775E+00  0.59034321465E-01  0.15569494645E+00  0.10633667724E+01  0.93800000000E+00 0.  1.
         22    1    1    2    0    0 -0.40038959303E+00 -0.68315906798E-01  0.30314420226E+01  0.30585322666E+01  0.00000000000E+00 0.  1.
</event>
<event>
 5    1  0.6564536E+001  0.1599675E+01  0.7818608E-02  0.3353716E+00
         11   -1    0    0    0    0  0.00000000000E+00  0.00000000000E+00  0.39999999674E+01  0.40000000000E+01  0.51100000000E-03 0.  1.
    9000002   -1    0    0    0    0 -0.00000000000E+00 -0.00000000000E+00  0.00000000000E+00  0.93800000000E+00  0.93800000000E+00 0. -1.
         11    1    1    2    0    0  0.89102450976E-02  0.40997146796E-01  0.26545079570E+00  0.26874624569E+00  0.51100000000E-03 0.  1.
    9000002    1    1    2    0    0 -0.11741978752E+00 -0.57509189372E+00  0.23971269862E+00  0.11321767842E+01  0.93800000000E+00 0. -1.
         22    1    1    2    0    0  0.10850954242E+00  0.53409474692E+00  0.34948364730E+01  0.35370769701E+01  0.00000000000E+00 0.  1.
</event>
<event>
 5    1  0.6564536E+001  0.1599665E+01  0.7818608E-02  0.3353727E+00
         11   -1    0    0    0    0  0.00000000000E+00  0.00000000000E+00  0.39999999674E+01  0.40000000000E+01  0.51100000000E-03 0. -1.
    9000002   -1    0    0    0    0 -0.00000000000E+00 -0.00000000000E+00  0.00000000000E+00  0.93800000000E+00  0.93800000000E+00 0.  1.
         11    1    1    2    0    0 -0.30795069705E-01  0.16443293155E+00  0.10208878093E+01  0.10345040867E+01  0.51100000000E-03 0. -1.
    9000002    1    1    2    0    0  0.10120008445E+00 -0.59616542083E+00  0.25538625130E+00  0.11448671554E+01  0.93800000000E+00 0.  1.
         22    1    1    2    0    0 -0.70405014749E-01  0.43173248928E+00  0.27237259068E+01  0.27586287579E+01  0.00000000000E+00 0. -1.
</event>
<event>
 5    1  0.6564536E+001  0.1498294E+01  0.7818608E-02  0.3471732E+00
         11   -1    0    0    0    0  0.00000000000E+00  0.00000000000E+00  0.39999999674E+01  0.40000000000E+01  0.51100000000E-03 0.  1.
    9000002   -1    0    0    0    0 -0.00000000000E+00 -0.00000000000E+00  0.00000000000E+00  0.93800000000E+00  0.93800000000E+00 0. -1.
         11    1    1    2    0    0  0.33231115668E+00 -0.10431600597E+00  0.12744352946E+01  0.13211730073E+01  0.51100000000E-03 0.  1.
    9000002    1    1    2    0    0 -0.69487011280E-01 -0.24512062279E+00  0.12526789976E+00  0.98002480130E+00  0.93800000000E+00 0. -1.
         22    1    1    2    0    0 -0.26282414540E+00  0.34943662876E+00  0.26002967730E+01  0.26368021914E+01  0.00000000000E+00 0.  1.
</event>
<event>
 5    1  0.6564536E+001  0.1599669E+01  0.7818608E-02  0.3353723E+00
         11   -1    0    0    0    0  0.00000000000E+00  0.00000000000E+00  0.39999999674E+01  0.40000000000E+01  0.51100000000E-03 0.  1.
    9000002   -1    0    0    0    0 -0.00000000000E+00 -0.00000000000E+00  0.00000000000E+00  0.93800000000E+00  0.93800000000E+00 0.  1.
         11    1    1    2    0    0  0.11336758602E-01  0.94747396193E-01  0.80475766954E+00  0.81039543372E+00  0.51100000000E-03 0.  1.
    9000002    1    1    2    0    0 -0.61960527801E-01 -0.46406541013E+00  0.14929088695E+00  0.10589275616E+01  0.93800000000E+00 0.  1.
         22    1    1    2    0    0  0.50623769199E-01  0.36931801393E+00  0.30459514109E+01  0.30686770046E+01  0.00000000000E+00 0.  1.
</event>
<event>
 5    1  0.6564536E+001  0.1588857E+01  0.7818608E-02  0.3365547E+00
         11   -1    0    0    0    0  0.00000000000E+00  0.00000000000E+00  0.39999999674E+01  0.40000000000E+01  0.51100000000E-03 0. -1.
    9000002   -1    0    0    0    0 -0.00000000000E+00 -0.00000000000E+00  0.00000000000E+00  0.93800000000E+00  0.93800000000E+00 0. -1.
         11    1    1    2    0    0 -0.86656146068E-01  0.89662730799E-01  0.13534928883E+01  0.13592247617E+01  0.51100000000E-03 0. -1.
    9000002    1    1    2    0    0  0.42285684707E+00  0.36944431503E-01  0.13114711423E+00  0.10378903457E+01  0.93800000000E+00 0. -1.
         22    1    1    2    0    0 -0.33620070100E+00 -0.12660716230E+00  0.25153599648E+01  0.25408848926E+01  0.00000000000E+00 0. -1.
</event>
<event>
 5    1  0.6564536E+001  0.1599574E+01  0.7818608E-02  0.3353825E+00
         11   -1    0    0    0    0  0.00000000000E+00  0.00000000000E+00  0.39999999674E+01  0.40000000000E+01  0.51100000000E-03 0. -1.
    9000002   -1    0    0    0    0 -0.00000000000E+00 -0.00000000000E+00  0.00000000000E+00  0.93800000000E+00  0.93800000000E+00 0. -1.
         11    1    1    2    0    0  0.27229083539E+00  0.20911557379E-01  0.13629549131E+01  0.13900453045E+01  0.51100000000E-03 0. -1.
    9000002    1    1    2    0    0 -0.70056735316E+00 -0.40739562009E-01  0.35222596075E+00  0.12232585400E+01  0.93800000000E+00 0. -1.
         22    1    1    2    0    0  0.42827651777E+00  0.19828004631E-01  0.22848190935E+01  0.23246961555E+01  0.00000000000E+00 0. -1.
</event>
<event>
 5    1  0.6564536E+001  0.1593401E+01  0.7818608E-02  0.3360557E+00
         11   -1    0    0    0    0  0.00000000000E+00  0.00000000000E+00  0.39999999674E+01  0.40000000000E+01  0.51100000000E-03 0. -1.
    9000002   -1    0    0    0    0 -0.00000000000E+00 -0.00000000000E+00  0.00000000000E+00  0.93800000000E+00  0.93800000000E+00 0.  1.
         11    1    1    2    0    0  0.11785498196E-01  0.31612873106E-01  0.51813047840E+00  0.51922800914E+00  0.51100000000E-03 0. -1.
    9000002    1    1    2    0    0  0.38478651755E+00 -0.12489249978E+00  0.11571341376E+00  0.10280527198E+01  0.93800000000E+00 0.  1.
         22    1    1    2    0    0 -0.39657201574E+00  0.93279626678E-01  0.33661560752E+01  0.33907192710E+01  0.00000000000E+00 0. -1.
</event>
<event>
 5    1  0.6564536E+001  0.1599674E+01  0.7818608E-02  0.3353718E+00
         11   -1    0    0    0    0  0.00000000000E+00  0.00000000000E+00  0.39999999674E+01  0.40000000000E+01  0.51100000000E-03 0.  1.
    9000002   -1    0    0    0    0 -0.00000000000E+00 -0.00000000000E+00  0.00000000000E+00  0.93800000000E+00  0.93800000000E+00 0.  1.
         11    1    1    2    0    0  0.21631544861E-01 -0.10184060335E-01  0.20894575938E+00  0.21030984357E+00  0.51100000000E-03 0.  1.
    9000002    1    1    2    0    0 -0.39100126721E+00  0.20194022058E+00  0.13134501993E+00  0.10443932966E+01  0.93800000000E+00 0.  1.
         22    1    1    2    0    0  0.36936972235E+00 -0.19175616025E+00  0.36597091881E+01  0.36832968599E+01  0.00000000000E+00 0.  1.
</event>
<event>
 5    1  0.6564536E+001  0.1599674E+01  0.7818608E-02  0.3353717E+00
         11   -1    0    0    0    0  0.00000000000E+00  0.00000000000E+00  0.39999999674E+01  0.40000000000E+01  0.51100000000E-03 0.  1.
    9000002   -1    0    0    0    0 -0.00000000000E+00 -0.00000000000E+00  0.00000000000E+00  0.93800000000E+00  0.93800000000E+00 0.  1.
         11    1    1    2    0    0 -0.77901678697E-01 -0.68861309520E-01  0.97471059204E+00  0.98024055765E+00  0.51100000000E-03 0.  1.
    9000002    1    1    2    0    0  0.30351009942E+00  0.27456827891E+00  0.11312513625E+00  0.10296346035E+01  0.93800000000E+00 0.  1.
         22    1    1    2    0    0 -0.22560842072E+00 -0.20570696939E+00  0.29121642391E+01  0.29281248389E+01  0.00000000000E+00 0.  1.
</event>
<event>
 5    1  0.7073222E+001  0.1598131E+01  0.7818608E-02  0.3355394E+00
         11   -1    0    0    0    0  0.00000000000E+00  0.00000000000E+00  0.39999999674E+01  0.40000000000E+01  0.51100000000E-03 0. -1.
    9000002   -1    0    0    0    0 -0.00000000000E+00 -0.00000000000E+00  0.00000000000E+00  0.93800000000E+00  0.93800000000E+00 0. -1.
         11    1    1    2    0    0  0.72616414336E-01 -0.30037745203E-01  0.14226482646E+01  0.14248170955E+01  0.51100000000E-03 0. -1.
    9000002    1    1    2    0    0 -0.29977850227E+00  0.15961018733E+00  0.78489436003E-01  0.10006733502E+01  0.93800000000E+00 0. -1.
         22    1    1    2    0    0  0.22716208794E+00 -0.12957244213E+00  0.24988622668E+01  0.25125095543E+01  0.00000000000E+00 0. -1.
</event>
<event>
 5    1  0.6564536E+001  0.1599539E+01  0.7818608E-02  0.3353864E+00
         11   -1    0    0    0    0  0.00000000000E+00  0.00000000000E+00  0.39999999674E+01  0.40000000000E+01  0.51100000000E-03 0. -1.
    9000002   -1    0    0    0    0 -0.00000000000E+00 -0.00000000000E+00  0.00000000000E+00  0.93800000000E+00  0.93800000000E+00 0. -1.
         11    1    1    2    0    0 -0.78291262874E-01  0.95194484945E-01  0.14773838568E+01  0.14825163855E+01  0.51100000000E-03 0. -1.
    9000002    1    1    2    0    0  0.22250746821E+00 -0.28518661442E+00  0.87957792043E-01  0.10091687429E+01  0.93800000000E+00 0. -1.
         22    1    1    2    0    0 -0.14421620534E+00  0.18999212947E+00  0.24346583185E+01  0.24463148716E+01  0.00000000000E+00 0. -1.
</event>
<event>
 5    1  0.6564536E+001  0.1564595E+01  0.7818608E-02  0.3392711E+00
         11   -1    0    0    0    0  0.00000000000E+00  0.00000000000E+00  0.39999999674E+01  0.40000000000E+01  0.51100000000E-03 0. -1.
    9000002   -1    0    0    0    0 -0.00000000000E+00 -0.00000000000E+00  0.00000000000E+00  0.93800000000E+00  0.93800000000E+00 0.  1.
         11    1    1    2    0    0 -0.16564484507E+00 -0.23958423368E-01  0.81720831029E+00  0.83417138783E+00  0.51100000000E-03 0. -1.
    9000002    1    1    2    0    0 -0.51444259660E-02 -0.24981061553E+00  0.68778631408E-01  0.97314249156E+00  0.93800000000E+00 0.  1.
         22    1    1    2    0    0  0.17078927103E+00  0.27376903890E+00  0.31140130257E+01  0.31306861206E+01  0.00000000000E+00 0.  1.
</event>
<event>
 5    1  0.6564536E+001  0.1599617E+01  0.7818608E-02  0.3353779E+00
         11   -1    0    0    0    0  0.00000000000E+00  0.00000000000E+00  0.39999999674E+01  0.40000000000E+01  0.51100000000E-03 0. -1.
    9000002   -1    0    0    0    0 -0.00000000000E+00 -0.00000000000E+00  0.00000000000E+00  0.93800000000E+00  0.93800000000E+00 0.  1.
         11    1    1    2    0    0  0.33873624888E-01  0.60846114117E-02  0.26941176252E+00  0.27160155350E+00  0.51100000000E-03 0. -1.
    9000002    1    1    2    0    0 -0.43865537552E+00 -0.39028212409E-01  0.13158909009E+00  0.10445580063E+01  0.93800000000E+00 0.  1.
         22    1    1    2    0    0  0.40478175063E+00  0.32943600997E-01  0.35989991147E+01  0.36218404402E+01  0.00000000000E+00 0. -1.
</event>
<event>
 5    1  0.6564536E+001  0.1577588E+01  0.7818608E-02  0.3378054E+00
         11   -1    0    0    0    0  0.00000000000E+00  0.00000000000E+00  0.39999999674E+01  0.40000000000E+01  0.51100000000E-03 0. -1.
    9000002   -1    0    0    0    0 -0.00000000000E+00 -0.00000000000E+00  0.00000000000E+00  0.93800000000E+00  0.93800000000E+00 0.  1.
         11    1    1    2    0    0  0.88800157206E-01 -0.10554196023E+00  0.67379996590E+00  0.68777265753E+00  0.51100000000E-03 0. -1.
    9000002    1    1    2    0    0  0.19480064885E+00  0.27615339382E+00  0.94351018732E-01  0.10014759630E+01  0.93800000000E+00 0.  1.
         22    1    1    2    0    0 -0.28360080606E+00 -0.17061143358E+00  0.32318489827E+01  0.32487513795E+01  0.00000000000E+00 0. -1.
</event>
<event>
 5    1  0.6564536E+001  0.1596653E+01  0.7818608E-02  0.3357004E+00
         11   -1    0    0    0    0  0.00000000000E+00  0.00000000000E+00  0.39999999674E+01  0.40000000000E+01  0.51100000000E-03 0.  1.
    9000002   -1    0    0    0    0 -0.00000000000E+00 -0.00000000000E+00  0.00000000000E+00  0.93800000000E+00  0.93800000000E+00 0. -1.
         11    1    1    2    0    0 -0.14657005858E+00 -0.61159893465E-01  0.12474338943E+01  0.12575034379E+01  0.51100000000E-03 0.  1.
    9000002    1    1    2    0    0  0.34680572167E+00  0.34784115299E+00  0.16762714096E+00  0.10720123762E+01  0.93800000000E+00 0. -1.
         22    1    1    2    0    0 -0.20023566309E+00 -0.28668125952E+00  0.25849389321E+01  0.26084841859E+01  0.00000000000E+00 0.  1.
</event>
<event>
 5    1  0.6564536E+001  0.1593175E+01  0.7818608E-02  0.3360805E+00
         11   -1    0    0    0    0  0.00000000000E+00  0.00000000000E+00  0.39999999674E+01  0.40000000000E+01  0.51100000000E-03 0.  1.
    9000002   -1    0    0    0    0 -0.00000000000E+00 -0.00000000000E+00  0.00000000000E+00  0.93800000000E+00  0.93800000000E+00 0.  1.
         11    1    1    2    0    0 -0.86443150804E-02  0.19641947676E-01  0.11073010017E+01  0.11075090518E+01  0.51100000000E-03 0.  1.
    9000002    1    1    2    0    0 -0.26247775557E+00  0.33647312934E-01  0.51590097266E-01  0.97597758784E+00  0.93800000000E+00 0.  1.
         22    1    1    2    0    0  0.27112207065E+00 -0.53289260610E-01  0.28411088684E+01  0.28545133604E+01  0.00000000000E+00 0.  1.
</event>
<event>
 5    1  0.6564536E+001  0.1599677E+01  0.7818608E-02  0.3353714E+00
         11   -1    0    0    0    0  0.00000000000E+00  0.00000000000E+00  0.39999999674E+01  0.40000000000E+01  0.51100000000E-03 0.  1.
    9000002   -1    0    0    0    0 -0.00000000000E+00 -0.00000000000E+00  0.00000000000E+00  0.93800000000E+00  0.93800000000E+00 0.  1.
         11    1    1    2    0    0 -0.66693508855E-01 -0.60921066464E-01  0.97524969900E+00  0.97942413539E+00  0.51100000000E-03 0.  1.
    9000002    1    1    2    0    0  0.26765749707E+00  0.24677020611E+00  0.89008109000E-01  0.10101002494E+01  0.93800000000E+00 0.  1.
         22    1    1    2    0    0 -0.20096398822E+00 -0.18584913965E+00  0.29357421594E+01  0.29484756152E+01  0.00000000000E+00 0. -1.
</event>
<event>
 5    1  0.6564536E+001  0.1599623E+01  0.7818608E-02  0.3353772E+00
         11   -1    0    0    0    0  0.00000000000E+00  0.00000000000E+00  0.39999999674E+01  0.40000000000E+01  0.51100000000E-03 0.  1.
    9000002   -1    0    0    0    0 -0.00000000000E+00 -0.00000000000E+00  0.00000000000E+00  0.93800000000E+00  0.93800000000E+00 0.  1.
         11    1    1    2    0    0 -0.68228241527E-02 -0.14645627020E+00  0.86697139377E+00  0.87928132514E+00  0.51100000000E-03 0.  1.
    9000002    1    1    2    0    0  0.18309784100E-01  0.65488630135E+00  0.30330545365E+00  0.11836593742E+01  0.93800000000E+00 0.  1.
         22    1    1    2    0    0 -0.11486959947E-01 -0.50843003115E+00  0.28297231199E+01  0.28750593007E+01  0.00000000000E+00 0. -1.
</event>
<event>
 5    1  0.8409416E+001  0.1598732E+01  0.7818608E-02  0.3354740E+00
         11   -1    0    0    0    0  0.00000000000E+00  0.00000000000E+00  0.39999999674E+01  0.40000000000E+01  0.51100000000E-03 0. -1.
    9000002   -1    0    0    0    0 -0.00000000000E+00 -0.00000000000E+00  0.00000000000E+00  0.93800000000E+00  0.93800000000E+00 0. -1.
         11    1    1    2    0    0 -0.15642311419E+00  0.74485783105E-01  0.13282711492E+01  0.13395226125E+01  0.51100000000E-03 0. -1.
    9000002    1    1    2    0    0  0.38300266918E+00 -0.14661307599E+00  0.11438642536E+00  0.10301042146E+01  0.93800000000E+00 0. -1.
         22    1    1    2    0    0 -0.22657955499E+00  0.72127292890E-01  0.25573423928E+01  0.25683731729E+01  0.00000000000E+00 0.  1.
</event>
<event>
 5    1  0.6564536E+001  0.1599665E+01  0.7818608E-02  0.3353727E+00
         11   -1    0    0    0    0  0.00000000000E+00  0.00000000000E+00  0.39999999674E+01  0.40000000000E+01  0.51100000000E-03 0. -1.
    9000002   -1    0    0    0    0 -0.00000000000E+00 -0.00000000000E+00  0.00000000000E+00  0.93800000000E+00  0.93800000000E+00 0. -1.
         11    1    1    2    0    0  0.80977832654E-01 -0.81758414876E-01  0.12249255374E+01  0.12303189347E+01  0.51100000000E-03 0. -1.
    9000002    1    1    2    0    0 -0.25564249810E+00  0.27278944569E+00  0.93981531134E-01  0.10141221311E+01  0.93800000000E+00 0. -1.
         22    1    1    2    0    0  0.17466466545E+00 -0.19103103081E+00  0.26810928988E+01  0.26935589342E+01  0.00000000000E+00 0. -1.
</event>
<event>
 5    1  0.6564536E+001  0.1599646E+01  0.7818608E-02  0.3353747E+00
         11   -1    0    0    0    0  0.00000000000E+00  0.00000000000E+00  0.39999999674E+01  0.40000000000E+01  0.51100000000E-03 0.  1.
    9000002   -1    0    0    0    0 -0.00000000000E+00 -0.00000000000E+00  0.00000000000E+00  0.93800000000E+00  0.93800000000E+00 0. -1.
         11    1    1    2    0    0 -0.81247171971E-02  0.49477052013E-01  0.51793656677E+00  0.52035808634E+00  0.51100000000E-03 0.  1.
    9000002    1    1    2    0    0  0.33797009179E-01 -0.39222543969E+00  0.10448048451E+00  0.10226158639E+01  0.93800000000E+00 0. -1.
         22    1    1    2    0    0 -0.25672291982E-01  0.34274838767E+00  0.33775829161E+01  0.33950260498E+01  0.00000000000E+00 0.  1.
</event>
<event>
 5    1  0.6564536E+001  0.1598838E+01  0.7818608E-02  0.3354626E+00
         11   -1    0    0    0    0  0.00000000000E+00  0.00000000000E+00  0.39999999674E+01  0.40000000000E+01  0.51100000000E-03 0. -1.
    9000002   -1    0    0    0    0 -0.00000000000E+00 -0.00000000000E+00  0.00000000000E+00  0.93800000000E+00  0.93800000000E+00 0. -1.
         11    1    1    2    0    0 -0.33832364614E-01  0.12083426406E+00  0.11445591076E+01  0.11514171096E+01  0.51100000000E-03 0. -1.
    9000002    1    1    2    0    0  0.26001163013E-01 -0.46816749069E+00  0.15048679607E+00  0.10594088614E+01  0.93800000000E+00 0. -1.
         22    1    1    2    0    0  0.78312016004E-02  0.34733322663E+00  0.27049540637E+01  0.27271740290E+01  0.00000000000E+00 0. -1.
</event>
<event>
 5    1  0.6564536E+001  0.1522749E+01  0.7818608E-02  0.3441727E+00
         11   -1    0    0    0    0  0.00000000000E+00  0.00000000000E+00  0.39999999674E+01  0.40000000000E+01  0.51100000000E-03 0. -1.
    9000002   -1    0    0    0    0 -0.00000000000E+00 -0.00000000000E+00  0.00000000000E+00  0.93800000000E+00  0.93800000000E+00 0. -1.
         11    1    1    2    0    0  0.32416624195E+00 -0.23229766356E-01  0.10823432314E+01  0.11300842916E+01  0.51100000000E-03 0. -1.
    9000002    1    1    2    0    0 -0.10079284652E+00  0.27195046490E+00  0.11858381228E+00  0.98895013717E+00  0.93800000000E+00 0. -1.
         22    1    1    2    0    0 -0.22337339543E+00 -0.24872069855E+00  0.27990729236E+01  0.28189655712E+01  0.00000000000E+00 0. -1.
</event>
<event>
 5    1  0.6564536E+001  0.1599677E+01  0.7818608E-02  0.3353714E+00
         11   -1    0    0    0    0  0.00000000000E+00  0.00000000000E+00  0.39999999674E+01  0.40000000000E+01  0.51100000000E-03 0.  1.
    9000002   -1    0    0    0    0 -0.00000000000E+00 -0.00000000000E+00  0.00000000000E+00  0.93800000000E+00  0.93800000000E+00 0. -1.
         11    1    1    2    0    0 -0.14314336177E+00 -0.11943014736E+00  0.13831238078E+01  0.13956307932E+01  0.51100000000E-03 0.  1.
    9000002    1    1    2    0    0  0.39670750458E+00  0.32840099820E+00  0.18202760638E+00  0.10854501874E+01  0.93800000000E+00 0. -1.
         22    1    1    2    0    0 -0.25356414282E+00 -0.20897085084E+00  0.24348485532E+01  0.24569190194E+01  0.00000000000E+00 0.  1.
</event>
<event>
 5    1  0.6564536E+001  0.1599645E+01  0.7818608E-02  0.3353748E+00
         11   -1    0    0    0    0  0.00000000000E+00  0.00000000000E+00  0.39999999674E+01  0.40000000000E+01  0.51100000000E-03 0. -1.
    9000002   -1    0    0    0    0 -0.00000000000E+00 -0.00000000000E+00  0.00000000000E+00  0.93800000000E+00  0.93800000000E+00 0.  1.
         11    1    1    2    0    0 -0.33947516174E-02  0.14228032562E-02  0.36532141470E-01  0.36720664333E-01  0.51100000000E-03 0. -1.
    9000002    1    1    2    0    0  0.47493698668E+00 -0.19386583379E+00  0.18056863388E+00  0.10842500331E+01  0.93800000000E+00 0.  1.
         22    1    1    2    0    0 -0.47154223506E+00  0.19244303054E+00  0.37828991920E+01  0.38170293025E+01  0.00000000000E+00 0. -1.
</event>
<event>
 5    1  0.6564536E+001  0.1599609E+01  0.7818608E-02  0.3353788E+00
         11   -1    0    0    0    0  0.00000000000E+00  0.00000000000E+00  0.39999999674E+01  0.40000000000E+01  0.51100000000E-03 0.  1.
    9000002   -1    0    0    0    0 -0.00000000000E+00 -0.00000000000E+00  0.00000000000E+00  0.93800000000E+00  0.93800000000E+00 0.  1.
         11    1    1    2    0    0  0.27657926495E-02 -0.19604974370E-01  0.17129457312E+00  0.17243577509E+00  0.51100000000E-03 0.  1.
    9000002    1    1    2    0    0 -0.11809386233E+00  0.37196978532E+00  0.10266455205E+00  0.10211227604E+01  0.93800000000E+00 0.  1.
         22    1    1    2    0    0  0.11532806968E+00 -0.35236481095E+00  0.37260408422E+01  0.37444414645E+01  0.00000000000E+00 0.  1.
</event>
<event>
 5    1  0.6564536E+001  0.1599676E+01  0.7818608E-02  0.3353715E+00
         11   -1    0    0    0    0  0.00000000000E+00  0.00000000000E+00  0.39999999674E+01  0.40000000000E+01  0.51100000000E-03 0.  1.
    9000002   -1    0    0    0    0 -0.00000000000E+00 -0.00000000000E+00  0.00000000000E+00  0.93800000000E+00  0.93800000000E+00 0.  1.
         11    1    1    2    0    0  0.68240506806E-01 -0.50507140624E-01  0.72279038584E+00  0.72775953515E+00  0.51100000000E-03 0.  1.
    9000002    1    1    2    0    0 -0.36676454750E+00  0.26529493008E+00  0.13921893020E+00  0.10507728317E+01  0.93800000000E+00 0.  1.
         22    1    1    2    0    0  0.29852404069E+00 -0.21478778946E+00  0.31379906513E+01  0.31594676332E+01  0.00000000000E+00 0.  1.
</event>
<event>
 5    1  0.6564536E+001  0.1586083E+01  0.7818608E-02  0.3368608E+00
         11   -1    0    0    0    0  0.00000000000E+00  0.00000000000E+00  0.39999999674E+01  0.40000000000E+01  0.51100000000E-03 0. -1.
    9000002   -1    0    0    0    0 -0.00000000000E+00 -0.00000000000E+00  0.00000000000E+00  0.93800000000E+00  0.93800000000E+00 0. -1.
         11    1    1    2    0    0  0.39092770845E-01 -0.61091074694E-02  0.12984767972E+01  0.12990796050E+01  0.51100000000E-03 0. -1.
    9000002    1    1    2    0    0  0.14954470160E+00  0.31395890532E+00  0.92079594297E-01  0.10046175709E+01  0.93800000000E+00 0. -1.
         22    1    1    2    0    0 -0.18863747245E+00 -0.30784979785E+00  0.26094435758E+01  0.26343028242E+01  0.00000000000E+00 0. -1.
</event>
<event>
 5    1  0.6564536E+001  0.1599675E+01  0.7818608E-02  0.3353717E+00
         11   -1    0    0    0    0  0.00000000000E+00  0.00000000000E+00  0.39999999674E+01  0.40000000000E+01  0.51100000000E-03 0. -1.
    9000002   -1    0    0    0    0 -0.00000000000E+00 -0.00000000000E+00  0.00000000000E+00  0.93800000000E+00  0.93800000000E+00 0.  1.
         11    1    1    2    0    0  0.10100175505E+00  0.22627198293E-01  0.10115637259E+01  0.10168455031E+01  0.51100000000E-03 0. -1.
    9000002    1    1    2    0    0 -0.38846724557E+00 -0.80889435517E-01  0.10616167836E+00  0.10239942400E+01  0.93800000000E+00 0.  1.
         22    1    1    2    0    0  0.28746549052E+00  0.58262237224E-01  0.28822745631E+01  0.28971602569E+01  0.00000000000E+00 0. -1.
</event>
<event>
 5    1  0.6564536E+001  0.1597224E+01  0.7818608E-02  0.3356382E+00
         11   -1    0    0    0    0  0.00000000000E+00  0.00000000000E+00  0.39999999674E+01  0.40000000000E+01  0.51100000000E-03 0. -1.
    9000002   -1    0    0    0    0 -0.00000000000E+00 -0.00000000000E+00  0.00000000000E+00  0.93800000000E+00  0.93800000000E+00 0.  1.
         11    1    1    2    0    0  0.10668544352E+00  0.98235575602E-02  0.56705026803E+00  0.57708279626E+00  0.51100000000E-03 0. -1.
    9000002    1    1    2    0    0 -0.49775880299E+00  0.11761018881E+00  0.18166270525E+00  0.10837164394E+01  0.93800000000E+00 0.  1.
         22    1    1    2    0    0  0.39107335947E+00 -0.12743374637E+00  0.32512869941E+01  0.32772007644E+01  0.00000000000E+00 0. -1.
</event>
<event>
 5    1  0.6564536E+001  0.1599320E+01  0.7818608E-02  0.3354102E+00
         11   -1    0    0    0    0  0.00000000000E+00  0.00000000000E+00  0.39999999674E+01  0.40000000000E+01  0.51100000000E-03 0.  1.
    9000002   -1    0    0    0    0 -0.00000000000E+00 -0.00000000000E+00  0.00000000000E+00  0.93800000000E+00  0.93800000000E+00 0. -1.
         11    1    1    2    0    0 -0.12936542097E+00  0.18200427049E+00  0.12038741831E+01  0.12244077248E+01  0.51100000000E-03 0.  1.
    9000002    1    1    2    0    0  0.34688313678E+00 -0.52277122801E+00  0.27665745557E+00  0.11618954407E+01  0.93800000000E+00 0. -1.
         22    1    1    2    0    0 -0.21751771582E+00  0.34076695753E+00  0.25194683287E+01  0.25516968345E+01  0.00000000000E+00 0.  1.
</event>
<event>
 5    1  0.6564536E+001  0.1599676E+01  0.7818608E-02  0.3353715E+00
         11   -1    0    0    0    0  0.00000000000E+00  0.00000000000E+00  0.39999999674E+01  0.40000000000E+01  0.51100000000E-03 0.  1.
    9000002   -1    0    0    0    0 -0.00000000000E+00 -0.00000000000E+00  0.00000000000E+00  0.93800000000E+00  0.93800000000E+00 0.  1.
         11    1    1    2    0    0 -0.38608375747E-01  0.16488024178E+00  0.14589501617E+01  0.14687450208E+01  0.51100000000E-03 0.  1.
    9000002    1    1    2    0    0  0.10311388059E+00 -0.43337508086E+00  0.13469340157E+00  0.10471068453E+01  0.93800000000E+00 0.  1.
         22    1    1    2    0    0 -0.64505504846E-01  0.26849483907E+00  0.24063564041E+01  0.24221481338E+01  0.00000000000E+00 0.  1.
</event>
<event>
 5    1  0.6564536E+001  0.1595665E+01  0.7818608E-02  0.3358081E+00
         11   -1    0    0    0    0  0.00000000000E+00  0.00000000000E+00  0.39999999674E+01  0.40000000000E+01  0.51100000000E-03 0.  1.
    9000002   -1    0    0    0    0 -0.00000000000E+00 -0.00000000000E+00  0.00000000000E+00  0.93800000000E+00  0.93800000000E+00 0. -1.
         11    1    1    2    0    0  0.86299277803E-01  0.13070093453E+00  0.90659788952E+00  0.92002733331E+00  0.51100000000E-03 0.  1.
    9000002    1    1    2    0    0 -0.10542702220E+00 -0.46408188987E+00  0.15798294372E+00  0.10636209231E+01  0.93800000000E+00 0. -1.
         22    1    1    2    0    0  0.19127744400E-01  0.33338095534E+00  0.29354191341E+01  0.29543517436E+01  0.00000000000E+00 0.  1.
</event>
<event>
 5    1  0.6564536E+001  0.1599676E+01  0.7818608E-02  0.3353715E+00
         11   -1    0    0    0    0  0.00000000000E+00  0.00000000000E+00  0.39999999674E+01  0.40000000000E+01  0.51100000000E-03 0.  1.
    9000002   -1    0    0    0    0 -0.00000000000E+00 -0.00000000000E+00  0.00000000000E+00  0.93800000000E+00  0.93800000000E+00 0.  1.
         11    1    1    2    0    0 -0.29244540763E-01 -0.12334053960E+00  0.13004306960E+01  0.13065941941E+01  0.51100000000E-03 0. -1.
    9000002    1    1    2    0    0  0.85952127320E-01  0.37264548441E+00  0.98434270583E-01  0.10177355899E+01  0.93800000000E+00 0.  1.
         22    1    1    2    0    0 -0.56707586557E-01 -0.24930494480E+00  0.26011350008E+01  0.26136702160E+01  0.00000000000E+00 0.  1.
</event>
<event>
 5    1  0.6564536E+001  0.1598984E+01  0.7818608E-02  0.3354467E+00
         11   -1    0    0    0    0  0.00000000000E+00  0.00000000000E+00  0.39999999674E+01  0.40000000000E+01  0.51100000000E-03 0.  1.
    9000002   -1    0    0    0    0 -0.00000000000E+00 -0.00000000000E+00  0.00000000000E+00  0.93800000000E+00  0.93800000000E+00 0.  1.
         11    1    1    2    0    0  0.33488908825E-01 -0.10016014550E+00  0.82310049131E+00  0.82984832450E+00  0.51100000000E-03 0.  1.
    9000002    1    1    2    0    0 -0.27518644403E+00  0.46505021265E+00  0.20196841556E+00  0.11011968580E+01  0.93800000000E+00 0.  1.
         22    1    1    2    0    0  0.24169753520E+00 -0.36489006714E+00  0.29749310605E+01  0.30069548175E+01  0.00000000000E+00 0.  1.
</event>
<event>
 5    1  0.6564536E+001  0.1599630E+01  0.7818608E-02  0.3353765E+00
         11   -1    0    0    0    0  0.00000000000E+00  0.00000000000E+00  0.39999999674E+01  0.40000000000E+01  0.51100000000E-03 0.  1.
    9000002   -1    0    0    0    0 -0.00000000000E+00 -0.00000000000E+00  0.00000000000E+00  0.93800000000E+00  0.93800000000E+00 0.  1.
         11    1    1    2    0    0  0.65507259969E-01 -0.14851643653E+00  0.14001799591E+01  0.14095575590E+01  0.51100000000E-03 0.  1.
    9000002    1    1    2    0    0 -0.15915348417E+00  0.41254249916E+00  0.13268368719E+00  0.10454521060E+01  0.93800000000E+00 0.  1.
         22    1    1    2    0    0  0.93646224199E-01 -0.26402606264E+00  0.24671363211E+01  0.24829903350E+01  0.00000000000E+00 0.  1.
</event>
<event>
 5    1  0.6564536E+001  0.1599676E+01  0.7818608E-02  0.3353715E+00
         11   -1    0    0    0    0  0.00000000000E+00  0.00000000000E+00  0.39999999674E+01  0.40000000000E+01  0.51100000000E-03 0. -1.
    9000002   -1    0    0    0    0 -0.00000000000E+00 -0.00000000000E+00  0.00000000000E+00  0.93800000000E+00  0.93800000000E+00 0.  1.
         11    1    1    2    0    0 -0.79400257233E-02 -0.21040656436E-01  0.24101397568E+00  0.24206146084E+00  0.51100000000E-03 0. -1.
    9000002    1    1    2    0    0  0.13322865702E+00  0.33571068556E+00  0.87579948598E-01  0.10089429056E+01  0.93800000000E+00 0.  1.
         22    1    1    2    0    0 -0.12528863129E+00 -0.31467002913E+00  0.36714060431E+01  0.36869956335E+01  0.00000000000E+00 0. -1.
</event>
<event>
 5    1  0.6564536E+001  0.1566617E+01  0.7818608E-02  0.3390412E+00
         11   -1    0    0    0    0  0.00000000000E+00  0.00000000000E+00  0.39999999674E+01  0.40000000000E+01  0.51100000000E-03 0. -1.
    9000002   -1    0    0    0    0 -0.00000000000E+00 -0.00000000000E+00  0.00000000000E+00  0.93800000000E+00  0.93800000000E+00 0. -1.
         11    1    1    2    0    0 -0.22370567351E+00  0.18159057578E+00  0.81829903388E+00  0.86754419804E+00  0.51100000000E-03 0. -1.
    9000002    1    1    2    0    0  0.15470294047E+00 -0.81756467048E+00  0.56249187144E+00  0.13742583802E+01  0.93800000000E+00 0. -1.
         22    1    1    2    0    0  0.69002733042E-01  0.63597409470E+00  0.26192090620E+01  0.26961974217E+01  0.00000000000E+00 0. -1.
</event>
<event>
 5    1  0.6564536E+001  0.1599676E+01  0.7818608E-02  0.3353715E+00
         11   -1    0    0    0    0  0.00000000000E+00  0.00000000000E+00  0.39999999674E+01  0.40000000000E+01  0.51100000000E-03 0.  1.
    9000002   -1    0    0    0    0 -0.00000000000E+00 -0.00000000000E+00  0.00000000000E+00  0.93800000000E+00  0.93800000000E+00 0. -1.
         11    1    1    2    0    0  0.66262921891E-02  0.16564414994E+00  0.13402046950E+01  0.13504187417E+01  0.51100000000E-03 0.  1.
    9000002    1    1    2    0    0 -0.19176476069E-01 -0.47789001624E+00  0.15603582374E+00  0.10643955013E+01  0.93800000000E+00 0. -1.
         22    1    1    2    0    0  0.12550183879E-01  0.31224586630E+00  0.25037594486E+01  0.25231857570E+01  0.00000000000E+00 0.  1.
</event>
<event>
 5    1  0.6564536E+001  0.1457786E+01  0.7818608E-02  0.3523829E+00
         11   -1    0    0    0    0  0.00000000000E+00  0.00000000000E+00  0.39999999674E+01  0.40000000000E+01  0.51100000000E-03 0.  1.
    9000002   -1    0    0    0    0 -0.00000000000E+00 -0.00000000000E+00  0.00000000000E+00  0.93800000000E+00  0.93800000000E+00 0.  1.
         11    1    1    2    0    0 -0.29309423541E+00  0.54023446612E-01  0.26426201048E+00  0.39831825833E+00  0.51100000000E-03 0.  1.
    9000002    1    1    2    0    0  0.39602785610E+00 -0.39153001017E+00  0.36467534307E+00  0.11502025550E+01  0.93800000000E+00 0.  1.
         22    1    1    2    0    0 -0.10293362069E+00  0.33750656356E+00  0.33710626138E+01  0.33894791867E+01  0.00000000000E+00 0.  1.
</event>
<event>
 5    1  0.7699025E+001  0.1594924E+01  0.7818608E-02  0.3358891E+00
         11   -1    0    0    0    0  0.00000000000E+00  0.00000000000E+00  0.39999999674E+01  0.40000000000E+01  0.51100000000E-03 0. -1.
    9000002   -1    0    0    0    0 -0.00000000000E+00 -0.00000000000E+00  0.00000000000E+00  0.93800000000E+00  0.93800000000E+00 0.  1.
         11    1    1    2    0    0  0.21226754779E-01 -0.32294660313E-01  0.96618763822E+00  0.96696035781E+00  0.51100000000E-03 0. -1.
    9000002    1    1    2    0    0  0.18941348451E+00  0.22469296794E+00  0.61299687194E-01  0.98486854433E+00  0.93800000000E+00 0.  1.
         22    1    1    2    0    0 -0.21064023929E+00 -0.19239830763E+00  0.29725126419E+01  0.29861710979E+01  0.00000000000E+00 0. -1.
</event>
<event>
 5    1  0.6564536E+001  0.1599674E+01  0.7818608E-02  0.3353718E+00
         11   -1    0    0    0    0  0.00000000000E+00  0.00000000000E+00  0.39999999674E+01  0.40000000000E+01  0.51100000000E-03 0.  1.
    9000002   -1    0    0    0    0 -0.00000000000E+00 -0.00000000000E+00  0.00000000000E+00  0.93800000000E+00  0.93800000000E+00 0.  1.
         11    1    1    2    0    0 -0.60769614328E-02 -0.16308856699E-01  0.16489611228E+00  0.16581283796E+00  0.51100000000E-03 0.  1.
    9000002    1    1    2    0    0  0.15709404137E+00  0.39483806489E+00  0.12220960984E+00  0.10369931649E+01  0.93800000000E+00 0.  1.
         22    1    1    2    0    0 -0.15101707994E+00 -0.37852920819E+00  0.37128942452E+01  0.37351939971E+01  0.00000000000E+00 0.  1.
</event>
<event>
 5    1  0.6564536E+001  0.1592240E+01  0.7818608E-02  0.3361829E+00
         11   -1    0    0    0    0  0.00000000000E+00  0.00000000000E+00  0.39999999674E+01  0.40000000000E+01  0.51100000000E-03 0.  1.
    9000002   -1    0    0    0    0 -0.00000000000E+00 -0.00000000000E+00  0.00000000000E+00  0.93800000000E+00  0.93800000000E+00 0.  1.
         11    1    1    2    0    0  0.70700169309E-01 -0.82518070330E-02  0.12030973524E+01  0.12052012722E+01  0.51100000000E-03 0.  1.
    9000002    1    1    2    0    0 -0.28945511959E+00  0.32960677711E+00  0.13687063599E+00  0.10445106341E+01  0.93800000000E+00 0.  1.
         22    1    1    2    0    0  0.21875495028E+00 -0.32135497008E+00  0.26600319790E+01  0.26882880936E+01  0.00000000000E+00 0.  1.
</event>
<event>
 5    1  0.6564536E+001  0.1525073E+01  0.7818608E-02  0.3438930E+00
         11   -1    0    0    0    0  0.00000000000E+00  0.00000000000E+00  0.39999999674E+01  0.40000000000E+01  0.51100000000E-03 0.  1.
    9000002   -1    0    0    0    0 -0.00000000000E+00 -0.00000000000E+00  0.00000000000E+00  0.93800000000E+00  0.93800000000E+00 0.  1.
         11    1    1    2    0    0 -0.20532582413E+00  0.14256396760E+00  0.50264138576E+00  0.56136601493E+00  0.51100000000E-03 0.  1.
    9000002    1    1    2    0    0  0.38291324484E+00  0.18353683191E+00  0.18818515377E+00  0.10466928746E+01  0.93800000000E+00 0.  1.
         22    1    1    2    0    0 -0.17758742071E+00 -0.32610079951E+00  0.33091734278E+01  0.33299411104E+01  0.00000000000E+00 0.  1.
</event>
<event>
 5    1  0.6564536E+001  0.1599603E+01  0.7818608E-02  0.3353794E+00
         11   -1    0    0    0    0  0.00000000000E+00  0.00000000000E+00  0.39999999674E+01  0.40000000000E+01  0.51100000000E-03 0. -1.
    9000002   -1    0    0    0    0 -0.00000000000E+00 -0.00000000000E+00  0.00000000000E+00  0.93800000000E+00  0.93800000000E+00 0. -1.
         11    1    1    2    0    0 -0.50318812320E-01  0.15403041460E-01  0.46997081425E+00  0.47290809247E+00  0.51100000000E-03 0. -1.
    9000002    1    1    2    0    0  0.36229996662E+00 -0.13811006254E+00  0.10130878822E+00  0.10200211399E+01  0.93800000000E+00 0. -1.
         22    1    1    2    0    0 -0.31198115430E+00  0.12270702108E+00  0.34287203649E+01  0.34450707677E+01  0.00000000000E+00 0. -1.
</event>
<event>
 5    1  0.7656777E+001  0.1598254E+01  0.7818608E-02  0.3355261E+00
         11   -1    0    0    0    0  0.00000000000E+00  0.00000000000E+00  0.39999999674E+01  0.40000000000E+01  0.51100000000E-03 0. -1.
    9000002   -1    0    0    0    0 -0.00000000000E+00 -0.00000000000E+00  0.00000000000E+00  0.93800000000E+00  0.93800000000E+00 0. -1.
         11    1    1    2    0    0  0.44312679776E-01  0.66178255099E-01  0.11649457994E+01  0.11676652567E+01  0.51100000000E-03 0. -1.
    9000002    1    1    2    0    0 -0.50761435387E-01 -0.32232313688E+00  0.72339749678E-01  0.99576401184E+00  0.93800000000E+00 0. -1.
         22    1    1    2    0    0  0.64487556110E-02  0.25614488178E+00  0.27627144183E+01  0.27745707315E+01  0.00000000000E+00 0. -1.
</event>
<event>
 5    1  0.6564536E+001  0.1599596E+01  0.7818608E-02  0.3353802E+00
         11   -1    0    0    0    0  0.00000000000E+00  0.00000000000E+00  0.39999999674E+01  0.40000000000E+01  0.51100000000E-03 0. -1.
    9000002   -1    0    0    0    0 -0.00000000000E+00 -0.00000000000E+00  0.00000000000E+00  0.93800000000E+00  0.93800000000E+00 0.  1.
         11    1    1    2    0    0  0.11513916478E-01  0.13061608665E-01  0.25629824534E+00  0.25688952408E+00  0.51100000000E-03 0. -1.
    9000002    1    1    2    0    0 -0.23031940481E+00 -0.26119518984E+00  0.81362447339E-01  0.10038594539E+01  0.93800000000E+00 0.  1.
         22    1    1    2    0    0  0.21880548833E+00  0.24813358118E+00  0.36623392747E+01  0.36772510220E+01  0.00000000000E+00 0. -1.
</event>
<event>
 5    1  0.6564536E+001  0.1587890E+01  0.7818608E-02  0.3366613E+00
         11   -1    0    0    0    0  0.00000000000E+00  0.00000000000E+00  0.39999999674E+01  0.40000000000E+01  0.51100000000E-03 0. -1.
    9000002   -1    0    0    0    0 -0.00000000000E+00 -0.00000000000E+00  0.00000000000E+00  0.93800000000E+00  0.93800000000E+00 0.  1.
         11    1    1    2    0    0 -0.12687719967E-01  0.11893105042E+00  0.12448477129E+01  0.12505805302E+01  0.51100000000E-03 0. -1.
    9000002    1    1    2    0    0 -0.30702058038E+00 -0.21339046193E+00  0.10369081344E+00  0.10150827113E+01  0.93800000000E+00 0.  1.
         22    1    1    2    0    0  0.31970830035E+00  0.94459411509E-01  0.26514614410E+01  0.26723367585E+01  0.00000000000E+00 0. -1.
</event>
<event>
 5    1  0.6564536E+001  0.1597092E+01  0.7818608E-02  0.3356526E+00
         11   -1    0    0    0    0  0.00000000000E+00  0.00000000000E+00  0.39999999674E+01  0.40000000000E+01  0.51100000000E-03 0.  1.
    9000002   -1    0    0    0    0 -0.00000000000E+00 -0.00000000000E+00  0.00000000000E+00  0.93800000000E+00  0.93800000000E+00 0. -1.
         11    1    1    2    0    0 -0.68649617684E-01  0.57467561116E-01  0.70489714933E+00  0.71056002058E+00  0.51100000000E-03 0.  1.
    9000002    1    1    2    0    0  0.44289816118E+00 -0.64659633159E-01  0.13825102853E+00  0.10484736507E+01  0.93800000000E+00 0. -1.
         22    1    1    2    0    0 -0.37424854350E+00  0.71920720428E-02  0.31568517895E+01  0.31789663287E+01  0.00000000000E+00 0.  1.
</event>
<event>
 5    1  0.6564536E+001  0.1554073E+01  0.7818608E-02  0.3404771E+00
         11   -1    0    0    0    0  0.00000000000E+00  0.00000000000E+00  0.39999999674E+01  0.40000000000E+01  0.51100000000E-03 0.  1.
    9000002   -1    0    0    0    0 -0.00000000000E+00 -0.00000000000E+00  0.00000000000E+00  0.93800000000E+00  0.93800000000E+00 0. -1.
         11    1    1    2    0    0 -0.16786197319E+00  0.18079685156E+00  0.75202506332E+00  0.79145884325E+00  0.51100000000E-03 0.  1.
    9000002    1    1    2    0    0  0.41127735245E+00  0.28153485736E-01  0.15414122107E+00  0.10361202611E+01  0.93800000000E+00 0. -1.
         22    1    1    2    0    0 -0.24341537926E+00 -0.20895033730E+00  0.30938336830E+01  0.31104208957E+01  0.00000000000E+00 0.  1.
</event>
<event>
 5    1  0.6564536E+001  0.1595514E+01  0.7818608E-02  0.3358247E+00
         11   -1    0    0    0    0  0.00000000000E+00  0.00000000000E+00  0.39999999674E+01  0.40000000000E+01  0.51100000000E-03 0.  1.
    9000002   -1    0    0    0    0 -0.00000000000E+00 -0.00000000000E+00  0.00000000000E+00  0.93800000000E+00  0.93800000000E+00 0.  1.
         11    1    1    2    0    0  0.83654497752E-01  0.49611899552E-01  0.56765326382E+00  0.57592525957E+00  0.51100000000E-03 0.  1.
    9000002    1    1    2    0    0 -0.46672606528E+00  0.24053411647E-01  0.15238569262E+00  0.10589981992E+01  0.93800000000E+00 0.  1.
         22    1    1    2    0    0  0.38307156753E+00 -0.73665311198E-01  0.32799610109E+01  0.33030765412E+01  0.00000000000E+00 0.  1.
</event>
<event>
 5    1  0.6564536E+001  0.1599676E+01  0.7818608E-02  0.3353715E+00
         11   -1    0    0    0    0  0.00000000000E+00  0.00000000000E+00  0.39999999674E+01  0.40000000000E+01  0.51100000000E-03 0. -1.
    9000002   -1    0    0    0    0 -0.00000000000E+00 -0.00000000000E+00  0.00000000000E+00  0.93800000000E+00  0.93800000000E+00 0. -1.
         11    1    1    2    0    0 -0.23203338361E-01  0.37850691373E-01  0.39010541821E+00  0.39262395264E+00  0.51100000000E-03 0. -1.
    9000002    1    1    2    0    0  0.22320548029E+00 -0.37567222746E+00  0.12944701467E+00  0.10428570557E+01  0.93800000000E+00 0. -1.
         22    1    1    2    0    0 -0.20000214193E+00  0.33782153608E+00  0.34804475345E+01  0.35025189917E+01  0.00000000000E+00 0. -1.
</event>
<event>
 5    1  0.6564536E+001  0.1599612E+01  0.7818608E-02  0.3353784E+00
         11   -1    0    0    0    0  0.00000000000E+00  0.00000000000E+00  0.39999999674E+01  0.40000000000E+01  0.51100000000E-03 0.  1.
    9000002   -1    0    0    0    0 -0.00000000000E+00 -0.00000000000E+00  0.00000000000E+00  0.93800000000E+00  0.93800000000E+00 0. -1.
         11    1    1    2    0    0 -0.57719593242E-01 -0.25432446787E-01  0.69410465786E+00  0.69696477528E+00  0.51100000000E-03 0.  1.
    9000002    1    1    2    0    0  0.36557243746E+00  0.13872465765E+00  0.10306198602E+00  0.10214467733E+01  0.93800000000E+00 0. -1.
         22    1    1    2    0    0 -0.30785284422E+00 -0.11329221086E+00  0.32028333235E+01  0.32195884514E+01  0.00000000000E+00 0.  1.
</event>
<event>
 5    1  0.6564536E+001  0.1599605E+01  0.7818608E-02  0.3353792E+00
         11   -1    0    0    0    0  0.00000000000E+00  0.00000000000E+00  0.39999999674E+01  0.40000000000E+01  0.51100000000E-03 0.  1.
    9000002   -1    0    0    0    0 -0.00000000000E+00 -0.00000000000E+00  0.00000000000E+00  0.93800000000E+00  0.93800000000E+00 0. -1.
         11    1    1    2    0    0  0.67123768610E-02  0.63025421872E-01  0.48630989568E+00  0.49042311891E+00  0.51100000000E-03 0.  1.
    9000002    1    1    2    0    0 -0.21803289119E-01 -0.45634357521E+00  0.14196965059E+00  0.10529597446E+01  0.93800000000E+00 0. -1.
         22    1    1    2    0    0  0.15090912258E-01  0.39331815333E+00  0.33717204211E+01  0.33946171365E+01  0.00000000000E+00 0.  1.
</event>
<event>
 5    1  0.6564536E+001  0.1599540E+01  0.7818608E-02  0.3353863E+00
         11   -1    0    0    0    0  0.00000000000E+00  0.00000000000E+00  0.39999999674E+01  0.40000000000E+01  0.51100000000E-03 0.  1.
    9000002   -1    0    0    0    0 -0.00000000000E+00 -0.00000000000E+00  0.00000000000E+00  0.93800000000E+00  0.93800000000E+00 0.  1.
         11    1    1    2    0    0  0.13355753103E-02 -0.19546274099E-01  0.27467204929E+00  0.27537036220E+00  0.51100000000E-03 0.  1.
    9000002    1    1    2    0    0 -0.72983397225E-01  0.36531474097E+00  0.93406504631E-01  0.10135828587E+01  0.93800000000E+00 0.  1.
         22    1    1    2    0    0  0.71647821914E-01 -0.34576846687E+00  0.36319214134E+01  0.36490467792E+01  0.00000000000E+00 0.  1.
</event>
<event>
 5    1  0.6564536E+001  0.1599633E+01  0.7818608E-02  0.3353762E+00
         11   -1    0    0    0    0  0.00000000000E+00  0.00000000000E+00  0.39999999674E+01  0.40000000000E+01  0.51100000000E-03 0. -1.
    9000002   -1    0    0    0    0 -0.00000000000E+00 -0.00000000000E+00  0.00000000000E+00  0.93800000000E+00  0.93800000000E+00 0. -1.
         11    1    1    2    0    0  0.37583447504E-01 -0.47831344775E-01  0.61022804428E+00  0.61325270502E+00  0.51100000000E-03 0. -1.
    9000002    1    1    2    0    0 -0.27064605135E+00  0.28497066971E+00  0.10412844965E+00  0.10223229929E+01  0.93800000000E+00 0. -1.
         22    1    1    2    0    0  0.23306260384E+00 -0.23713932494E+00  0.32856434734E+01  0.33024243021E+01  0.00000000000E+00 0. -1.
</event>
<event>
 5    1  0.6564536E+001  0.1599652E+01  0.7818608E-02  0.3353741E+00
         11   -1    0    0    0    0  0.00000000000E+00  0.00000000000E+00  0.39999999674E+01  0.40000000000E+01  0.51100000000E-03 0.  1.
    9000002   -1    0    0    0    0 -0.00000000000E+00 -0.00000000000E+00  0.00000000000E+00  0.93800000000E+00  0.93800000000E+00 0. -1.
         11    1    1    2    0    0 -0.52283351266E-01 -0.67998611019E-01  0.62316391651E+00  0.62903965526E+00  0.51100000000E-03 0.  1.
    9000002    1    1    2    0    0  0.33747067191E+00  0.39551171318E+00  0.18570482137E+00  0.10884145581E+01  0.93800000000E+00 0. -1.
         22    1    1    2    0    0 -0.28518732065E+00 -0.32751310216E+00  0.31911312295E+01  0.32205457866E+01  0.00000000000E+00 0.  1.
</event>
<event>
 5    1  0.6564536E+001  0.1599656E+01  0.7818608E-02  0.3353737E+00
         11   -1    0    0    0    0  0.00000000000E+00  0.00000000000E+00  0.39999999674E+01  0.40000000000E+01  0.51100000000E-03 0.  1.
    9000002   -1    0    0    0    0 -0.00000000000E+00 -0.00000000000E+00  0.00000000000E+00  0.93800000000E+00  0.93800000000E+00 0. -1.
         11    1    1    2    0    0 -0.55756920836E-01 -0.80850393536E-02  0.53422309022E+00  0.53718597649E+00  0.51100000000E-03 0.  1.
    9000002    1    1    2    0    0  0.42101253239E+00  0.36406356989E-01  0.12083275552E+00  0.10358675253E+01  0.93800000000E+00 0. -1.
         22    1    1    2    0    0 -0.36525561155E+00 -0.28321317635E-01  0.33449441216E+01  0.33649464982E+01  0.00000000000E+00 0.  1.
</event>
<event>
 5    1  0.6564536E+001  0.1583686E+01  0.7818608E-02  0.3371262E+00
         11   -1    0    0    0    0  0.00000000000E+00  0.00000000000E+00  0.39999999674E+01  0.40000000000E+01  0.51100000000E-03 0. -1.
    9000002   -1    0    0    0    0 -0.00000000000E+00 -0.00000000000E+00  0.00000000000E+00  0.93800000000E+00  0.93800000000E+00 0.  1.
         11    1    1    2    0    0 -0.90859086160E-01  0.81810819045E-01  0.40323956314E+00  0.42136776105E+00  0.51100000000E-03 0. -1.
    9000002    1    1    2    0    0  0.40072149134E+00 -0.15924922402E-01  0.12193513808E+00  0.10273964642E+01  0.93800000000E+00 0.  1.
         22    1    1    2    0    0 -0.30986240518E+00 -0.65885896643E-01  0.34748252661E+01  0.34892357747E+01  0.00000000000E+00 0. -1.
</event>
<event>
 5    1  0.6564536E+001  0.1595804E+01  0.7818608E-02  0.3357930E+00
         11   -1    0    0    0    0  0.00000000000E+00  0.00000000000E+00  0.39999999674E+01  0.40000000000E+01  0.51100000000E-03 0.  1.
    9000002   -1    0    0    0    0 -0.00000000000E+00 -0.00000000000E+00  0.00000000000E+00  0.93800000000E+00  0.93800000000E+00 0.  1.
         11    1    1    2    0    0 -0.24594849365E-01 -0.54740406746E-01  0.39798207719E+00  0.40248156930E+00  0.51100000000E-03 0.  1.
    9000002    1    1    2    0    0 -0.18525950699E+00  0.40587073039E+00  0.13845868259E+00  0.10478868935E+01  0.93800000000E+00 0.  1.
         22    1    1    2    0    0  0.20985435636E+00 -0.35113032364E+00  0.34635592076E+01  0.34876315372E+01  0.00000000000E+00 0.  1.
</event>
<event>
 5    1  0.6564536E+001  0.1599651E+01  0.7818608E-02  0.3353742E+00
         11   -1    0    0    0    0  0.00000000000E+00  0.00000000000E+00  0.39999999674E+01  0.40000000000E+01  0.51100000000E-03 0. -1.
    9000002   -1    0    0    0    0 -0.00000000000E+00 -0.00000000000E+00  0.00000000000E+00  0.93800000000E+00  0.93800000000E+00 0.  1.
         11    1    1    2    0    0 -0.10799357515E+00 -0.13935635556E+00  0.12888263523E+01  0.13008291331E+01  0.51100000000E-03 0. -1.
    9000002    1    1    2    0    0  0.33583975364E+00  0.40765484234E+00  0.19193356514E+00  0.10934593289E+01  0.93800000000E+00 0.  1.
         22    1    1    2    0    0 -0.22784617850E+00 -0.26829848677E+00  0.25192400499E+01  0.25437115379E+01  0.00000000000E+00 0. -1.
</event>
<event>
 5    1  0.6564536E+001  0.1599673E+01  0.7818608E-02  0.3353718E+00
         11   -1    0    0    0    0  0.00000000000E+00  0.00000000000E+00  0.39999999674E+01  0.40000000000E+01  0.51100000000E-03 0. -1.
    9000002   -1    0    0    0    0 -0.00000000000E+00 -0.00000000000E+00  0.00000000000E+00  0.93800000000E+00  0.93800000000E+00 0. -1.
         11    1    1    2    0    0  0.19701649410E-02 -0.98738189672E-02  0.79339780081E-01  0.79977719867E-01  0.51100000000E-03 0.  1.
    9000002    1    1    2    0    0 -0.85980849064E-01  0.45982265761E+00  0.14902876500E+00  0.10587176940E+01  0.93800000000E+00 0. -1.
         22    1    1    2    0    0  0.84010684122E-01 -0.44994883864E+00  0.37716314223E+01  0.37993045861E+01  0.00000000000E+00 0. -1.
</event>
<event>
 5    1  0.6564536E+001  0.1599677E+01  0.7818608E-02  0.3353714E+00
         11   -1    0    0    0    0  0.00000000000E+00  0.00000000000E+00  0.39999999674E+01  0.40000000000E+01  0.51100000000E-03 0. -1.
    9000002   -1    0    0    0    0 -0.00000000000E+00 -0.00000000000E+00  0.00000000000E+00  0.93800000000E+00  0.93800000000E+00 0. -1.
         11    1    1    2    0    0  0.90456941854E-01 -0.14761933259E+00  0.14386599231E+01  0.14490398756E+01  0.51100000000E-03 0.  1.
    9000002    1    1    2    0    0 -0.24242128361E+00  0.39505337477E+00  0.14620887816E+00  0.10564356505E+01  0.93800000000E+00 0. -1.
         22    1    1    2    0    0  0.15196434176E+00 -0.24743404218E+00  0.24151311661E+01  0.24325244739E+01  0.00000000000E+00 0. -1.
</event>
<event>
 5    1  0.6564536E+001  0.1599567E+01  0.7818608E-02  0.3353833E+00
         11   -1    0    0    0    0  0.00000000000E+00  0.00000000000E+00  0.39999999674E+01  0.40000000000E+01  0.51100000000E-03 0.  1.
    9000002   -1    0    0    0    0 -0.00000000000E+00 -0.00000000000E+00  0.00000000000E+00  0.93800000000E+00  0.93800000000E+00 0.  1.
         11    1    1    2    0    0  0.34338417666E-01  0.28621799976E-01  0.41353701359E+00  0.41594645940E+00  0.51100000000E-03 0.  1.
    9000002    1    1    2    0    0 -0.25135041896E+00 -0.26630777005E+00  0.90167540250E-01  0.10109752949E+01  0.93800000000E+00 0.  1.
         22    1    1    2    0    0  0.21701200130E+00  0.23768597007E+00  0.34962954135E+01  0.35110782457E+01  0.00000000000E+00 0.  1.
</event>
<event>
 5    1  0.6564536E+001  0.1597289E+01  0.7818608E-02  0.3356311E+00
         11   -1    0    0    0    0  0.00000000000E+00  0.00000000000E+00  0.39999999674E+01  0.40000000000E+01  0.51100000000E-03 0. -1.
    9000002   -1    0    0    0    0 -0.00000000000E+00 -0.00000000000E+00  0.00000000000E+00  0.93800000000E+00  0.93800000000E+00 0. -1.
         11    1    1    2    0    0  0.19022188781E-02 -0.19401912815E-02  0.13110675310E-02  0.30598689417E-02  0.51100000000E-03 0. -1.
    9000002    1    1    2    0    0  0.33931151216E+00  0.29303689310E+00  0.13854693703E+00  0.10488289550E+01  0.93800000000E+00 0. -1.
         22    1    1    2    0    0 -0.34121373104E+00 -0.29109670182E+00  0.38601419628E+01  0.38861111761E+01  0.00000000000E+00 0. -1.
</event>
<event>
 5    1  0.6564536E+001  0.1559382E+01  0.7818608E-02  0.3398664E+00
         11   -1    0    0    0    0  0.00000000000E+00  0.00000000000E+00  0.39999999674E+01  0.40000000000E+01  0.51100000000E-03 0.  1.
    9000002   -1    0    0    0    0 -0.00000000000E+00 -0.00000000000E+00  0.00000000000E+00  0.93800000000E+00  0.93800000000E+00 0.  1.
         11    1    1    2    0    0  0.11893788041E+00 -0.10782577430E+00  0.78647496403E+00  0.80269280996E+00  0.51100000000E-03 0.  1.
    9000002    1    1    2    0    0  0.49412982626E-01 -0.18160877776E+00  0.54137975870E-01  0.95822664931E+00  0.93800000000E+00 0.  1.
         22    1    1    2    0    0 -0.16835086303E+00  0.28943455206E+00  0.31593870275E+01  0.31770805407E+01  0.00000000000E+00 0.  1.
</event>
<event>
 5    1  0.6564536E+001  0.1599675E+01  0.7818608E-02  0.3353716E+00
         11   -1    0    0    0    0  0.00000000000E+00  0.00000000000E+00  0.39999999674E+01  0.40000000000E+01  0.51100000000E-03 0.  1.
    9000002   -1    0    0    0    0 -0.00000000000E+00 -0.00000000000E+00  0.00000000000E+00  0.93800000000E+00  0.93800000000E+00 0. -1.
         11    1    1    2    0    0 -0.16741742300E-01 -0.13226336762E+00  0.13194023014E+01  0.13261208762E+01  0.51100000000E-03 0.  1.
    9000002    1    1    2    0    0  0.47190931201E-01  0.38712744610E+00  0.10246239811E+00  0.10209981325E+01  0.93800000000E+00 0. -1.
         22    1    1    2    0    0 -0.30449188901E-01 -0.25486407848E+00  0.25781352679E+01  0.25908809913E+01  0.00000000000E+00 0. -1.
</event>
<event>
 5    1  0.6564536E+001  0.1599394E+01  0.7818608E-02  0.3354021E+00
         11   -1    0    0    0    0  0.00000000000E+00  0.00000000000E+00  0.39999999674E+01  0.40000000000E+01  0.51100000000E-03 0.  1.
    9000002   -1    0    0    0    0 -0.00000000000E+00 -0.00000000000E+00  0.00000000000E+00  0.93800000000E+00  0.93800000000E+00 0. -1.
         11    1    1    2    0    0 -0.17708580869E+00  0.23488726659E-01  0.14114493903E+01  0.14227089465E+01  0.51100000000E-03 0.  1.
    9000002    1    1    2    0    0  0.52418964081E+00 -0.37209462637E-01  0.19014524808E+00  0.10918601280E+01  0.93800000000E+00 0. -1.
         22    1    1    2    0    0 -0.34710383213E+00  0.13720735978E-01  0.23984053289E+01  0.24234309255E+01  0.00000000000E+00 0.  1.
</event>
<event>
 5    1  0.6564536E+001  0.1599676E+01  0.7818608E-02  0.3353715E+00
         11   -1    0    0    0    0  0.00000000000E+00  0.00000000000E+00  0.39999999674E+01  0.40000000000E+01  0.51100000000E-03 0.  1.
    9000002   -1    0    0    0    0 -0.00000000000E+00 -0.00000000000E+00  0.00000000000E+00  0.93800000000E+00  0.93800000000E+00 0.  1.
         11    1    1    2    0    0  0.35080561869E-01 -0.28245568435E-02  0.27924619629E+00  0.28145572157E+00  0.51100000000E-03 0.  1.
    9000002    1    1    2    0    0 -0.48025722148E+00  0.41292175667E-01  0.15859015608E+00  0.10664646643E+01  0.93800000000E+00 0.  1.
         22    1    1    2    0    0  0.44517665961E+00 -0.38467618823E-01  0.35621636150E+01  0.35900796141E+01  0.00000000000E+00 0.  1.
</event>
<event>
 5    1  0.6564536E+001  0.1599647E+01  0.7818608E-02  0.3353747E+00
         11   -1    0    0    0    0  0.00000000000E+00  0.00000000000E+00  0.39999999674E+01  0.40000000000E+01  0.51100000000E-03 0.  1.
    9000002   -1    0    0    0    0 -0.00000000000E+00 -0.00000000000E+00  0.00000000000E+00  0.93800000000E+00  0.93800000000E+00 0.  1.
         11    1    1    2    0    0  0.23051181050E-02 -0.75622665034E-02  0.90880226330E-01  0.91224876557E-01  0.51100000000E-03 0.  1.
    9000002    1    1    2    0    0 -0.17996793623E+00  0.30457858759E+00  0.83978428285E-01  0.10060084247E+01  0.93800000000E+00 0.  1.
         22    1    1    2    0    0  0.17766281813E+00 -0.29701632108E+00  0.38251413127E+01  0.38407666988E+01  0.00000000000E+00 0.  1.
</event>
<event>
 5    1  0.6564536E+001  0.1598734E+01  0.7818608E-02  0.3354738E+00
         11   -1    0    0    0    0  0.00000000000E+00  0.00000000000E+00  0.39999999674E+01  0.40000000000E+01  0.51100000000E-03 0. -1.
    9000002   -1    0    0    0    0 -0.00000000000E+00 -0.00000000000E+00  0.00000000000E+00  0.93800000000E+00  0.93800000000E+00 0. -1.
         11    1    1    2    0    0 -0.53393206475E-02  0.32042103395E-01  0.33021613582E+00  0.33181043114E+00  0.51100000000E-03 0. -1.
    9000002    1    1    2    0    0 -0.16932377397E+00 -0.30827832082E+00  0.83722228584E-01  0.10052658728E+01  0.93800000000E+00 0. -1.
         22    1    1    2    0    0  0.17466309462E+00  0.27623621743E+00  0.35860616030E+01  0.36009236960E+01  0.00000000000E+00 0. -1.
</event>
<event>
 5    1  0.6564536E+001  0.1599676E+01  0.7818608E-02  0.3353715E+00
         11   -1    0    0    0    0  0.00000000000E+00  0.00000000000E+00  0.39999999674E+01  0.40000000000E+01  0.51100000000E-03 0.  1.
    9000002   -1    0    0    0    0 -0.00000000000E+00 -0.00000000000E+00  0.00000000000E+00  0.93800000000E+00  0.93800000000E+00 0. -1.
         11    1    1    2    0    0  0.50418803998E-01 -0.12430372050E+00  0.13544766828E+01  0.13611027940E+01  0.51100000000E-03 0.  1.
    9000002    1    1    2    0    0 -0.14828528568E+00  0.35593272857E+00  0.10010486906E+00  0.10190886213E+01  0.93800000000E+00 0. -1.
         22    1    1    2    0    0  0.97866481684E-01 -0.23162900806E+00  0.25454184155E+01  0.25578085847E+01  0.00000000000E+00 0.  1.
</event>
<event>
 5    1  0.6564536E+001  0.1599660E+01  0.7818608E-02  0.3353732E+00
         11   -1    0    0    0    0  0.00000000000E+00  0.00000000000E+00  0.39999999674E+01  0.40000000000E+01  0.51100000000E-03 0. -1.
    9000002   -1    0    0    0    0 -0.00000000000E+00 -0.00000000000E+00  0.00000000000E+00  0.93800000000E+00  0.93800000000E+00 0. -1.
         11    1    1    2    0    0  0.94400909621E-02 -0.10171094379E-01  0.10261634028E+00  0.10355163394E+00  0.51100000000E-03 0. -1.
    9000002    1    1    2    0    0 -0.29677710927E+00  0.38404042356E+00  0.16088243888E+00  0.10683121541E+01  0.93800000000E+00 0. -1.
         22    1    1    2    0    0  0.28733701831E+00 -0.37386932918E+00  0.37365011882E+01  0.37661362119E+01  0.00000000000E+00 0. -1.
</event>
<event>
 5    1  0.7046158E+001  0.1584716E+01  0.7818608E-02  0.3370121E+00
         11   -1    0    0    0    0  0.00000000000E+00  0.00000000000E+00  0.39999999674E+01  0.40000000000E+01  0.51100000000E-03 0. -1.
    9000002   -1    0    0    0    0 -0.00000000000E+00 -0.00000000000E+00  0.00000000000E+00  0.93800000000E+00  0.93800000000E+00 0.  1.
         11    1    1    2    0    0 -0.81807110183E-01 -0.59020529221E-01  0.14154128629E+01  0.14190030513E+01  0.51100000000E-03 0. -1.
    9000002    1    1    2    0    0  0.90201710133E-02 -0.16279371503E+00  0.28727686621E-01  0.95249799848E+00  0.93800000000E+00 0.  1.
         22    1    1    2    0    0  0.72786939170E-01  0.22181424425E+00  0.25558594178E+01  0.25664989502E+01  0.00000000000E+00 0. -1.
</event>
<event>
 5    1  0.6564536E+001  0.1599652E+01  0.7818608E-02  0.3353741E+00
         11   -1    0    0    0    0  0.00000000000E+00  0.00000000000E+00  0.39999999674E+01  0.40000000000E+01  0.51100000000E-03 0.  1.
    9000002   -1    0    0    0    0 -0.00000000000E+00 -0.00000000000E+00  0.00000000000E+00  0.93800000000E+00  0.93800000000E+00 0. -1.
         11    1    1    2    0    0 -0.16688272084E-01  0.83752137668E-01  0.78530171376E+00  0.78993161839E+00  0.51100000000E-03 0.  1.
    9000002    1    1    2    0    0  0.87765606174E-01 -0.39165369341E+00  0.10870184502E+00  0.10260387460E+01  0.93800000000E+00 0. -1.
         22    1    1    2    0    0 -0.71077334090E-01  0.30790155575E+00  0.31059964086E+01  0.31220296356E+01  0.00000000000E+00 0.  1.
</event>
<event>
 5    1  0.6564536E+001  0.1599677E+01  0.7818608E-02  0.3353714E+00
         11   -1    0    0    0    0  0.00000000000E+00  0.00000000000E+00  0.39999999674E+01  0.40000000000E+01  0.51100000000E-03 0.  1.
    9000002   -1    0    0    0    0 -0.00000000000E+00 -0.00000000000E+00  0.00000000000E+00  0.93800000000E+00  0.93800000000E+00 0. -1.
         11    1    1    2    0    0 -0.28045520445E+00  0.38180880738E+00  0.96274091870E+00  0.10729880823E+01  0.51100000000E-03 0.  1.
    9000002    1    1    2    0    0  0.72676582669E+00 -0.99005378445E+00  0.15052278357E+01  0.21573015321E+01  0.93800000000E+00 0. -1.
         22    1    1    2    0    0 -0.44631062224E+00  0.60824497707E+00  0.15320312130E+01  0.17077103856E+01  0.00000000000E+00 0. -1.
</event>
<event>
 5    1  0.6564536E+001  0.1599677E+01  0.7818608E-02  0.3353714E+00
         11   -1    0    0    0    0  0.00000000000E+00  0.00000000000E+00  0.39999999674E+01  0.40000000000E+01  0.51100000000E-03 0.  1.
    9000002   -1    0    0    0    0 -0.00000000000E+00 -0.00000000000E+00  0.00000000000E+00  0.93800000000E+00  0.93800000000E+00 0. -1.
         11    1    1    2    0    0 -0.10943095776E+00 -0.30877024079E-01  0.11649682735E+01  0.11705041070E+01  0.51100000000E-03 0.  1.
    9000002    1    1    2    0    0  0.36857389585E+00  0.10323089789E+00  0.98606661630E-01  0.10178755369E+01  0.93800000000E+00 0. -1.
         22    1    1    2    0    0 -0.25914293809E+00 -0.72353873811E-01  0.27364250322E+01  0.27496203561E+01  0.00000000000E+00 0.  1.
</event>
<event>
 5    1  0.6564536E+001  0.1599677E+01  0.7818608E-02  0.3353714E+00
         11   -1    0    0    0    0  0.00000000000E+00  0.00000000000E+00  0.39999999674E+01  0.40000000000E+01  0.51100000000E-03 0.  1.
    9000002   -1    0    0    0    0 -0.00000000000E+00 -0.00000000000E+00  0.00000000000E+00  0.93800000000E+00  0.93800000000E+00 0.  1.
         11    1    1    2    0    0  0.10946947143E+00 -0.43787214652E-01  0.10629671187E+01  0.10694859709E+01  0.51100000000E-03 0. -1.
    9000002    1    1    2    0    0 -0.39909831310E+00  0.15987109679E+00  0.12517804213E+00  0.10393997178E+01  0.93800000000E+00 0.  1.
         22    1    1    2    0    0  0.28962884167E+00 -0.11608388213E+00  0.28118548065E+01  0.28291143113E+01  0.00000000000E+00 0.  1.
</event>
<event>
 5    1  0.6564536E+001  0.1599677E+01  0.7818608E-02  0.3353714E+00
         11   -1    0    0    0    0  0.00000000000E+00  0.00000000000E+00  0.39999999674E+01  0.40000000000E+01  0.51100000000E-03 0. -1.
    9000002   -1    0    0    0    0 -0.00000000000E+00 -0.00000000000E+00  0.00000000000E+00  0.93800000000E+00  0.93800000000E+00 0.  1.
         11    1    1    2    0    0  0.29117272576E-01 -0.11485279114E+00  0.11370416552E+01  0.11431985681E+01  0.51100000000E-03 0.  1.
    9000002    1    1    2    0    0 -0.10054882612E+00  0.39368301930E+00  0.11145215700E+00  0.10282810751E+01  0.93800000000E+00 0.  1.
         22    1    1    2    0    0  0.71431553545E-01 -0.27883022816E+00  0.27515061551E+01  0.27665203568E+01  0.00000000000E+00 0. -1.
</event>
<event>
 5    1  0.6564536E+001  0.1599669E+01  0.7818608E-02  0.3353722E+00
         11   -1    0    0    0    0  0.00000000000E+00  0.00000000000E+00  0.39999999674E+01  0.40000000000E+01  0.51100000000E-03 0.  1.
    9000002   -1    0    0    0    0 -0.00000000000E+00 -0.00000000000E+00  0.00000000000E+00  0.93800000000E+00  0.93800000000E+00 0. -1.
         11    1    1    2    0    0  0.43135755618E-01 -0.33920807603E-02  0.38727240479E+00  0.38968240435E+00  0.51100000000E-03 0.  1.
    9000002    1    1    2    0    0 -0.41693028608E+00  0.21853518220E-01  0.11785218240E+00  0.10334609700E+01  0.93800000000E+00 0. -1.
         22    1    1    2    0    0  0.37379453046E+00 -0.18461437459E-01  0.34948753802E+01  0.35148566256E+01  0.00000000000E+00 0.  1.
</event>
<event>
 5    1  0.6564536E+001  0.1542564E+01  0.7818608E-02  0.3418164E+00
         11   -1    0    0    0    0  0.00000000000E+00  0.00000000000E+00  0.39999999674E+01  0.40000000000E+01  0.51100000000E-03 0.  1.
    9000002   -1    0    0    0    0 -0.00000000000E+00 -0.00000000000E+00  0.00000000000E+00  0.93800000000E+00  0.93800000000E+00 0. -1.
         11    1    1    2    0    0 -0.19188790521E+00  0.25053780731E-01  0.81476087036E+00  0.83742712941E+00  0.51100000000E-03 0.  1.
    9000002    1    1    2    0    0 -0.18388673857E+00  0.73067249358E-01  0.69975728453E-01  0.96119392327E+00  0.93800000000E+00 0. -1.
         22    1    1    2    0    0  0.37577464378E+00 -0.98121030089E-01  0.31152633685E+01  0.31393789473E+01  0.00000000000E+00 0.  1.
</event>
<event>
 5    1  0.6564536E+001  0.1595721E+01  0.7818608E-02  0.3358021E+00
         11   -1    0    0    0    0  0.00000000000E+00  0.00000000000E+00  0.39999999674E+01  0.40000000000E+01  0.51100000000E-03 0.  1.
    9000002   -1    0    0    0    0 -0.00000000000E+00 -0.00000000000E+00  0.00000000000E+00  0.93800000000E+00  0.93800000000E+00 0.  1.
         11    1    1    2    0    0 -0.62638024104E-01 -0.13244997457E+00  0.79781035792E+00  0.81115235693E+00  0.51100000000E-03 0.  1.
    9000002    1    1    2    0    0  0.24411957933E-02  0.62150720319E+00  0.27481738662E+00  0.11582943318E+01  0.93800000000E+00 0.  1.
         22    1    1    2    0    0  0.60196828310E-01 -0.48905722862E+00  0.29273722228E+01  0.29685533113E+01  0.00000000000E+00 0.  1.
</event>
<event>
 5    1  0.6564536E+001  0.1599672E+01  0.7818608E-02  0.3353720E+00
         11   -1    0    0    0    0  0.00000000000E+00  0.00000000000E+00  0.39999999674E+01  0.40000000000E+01  0.51100000000E-03 0.  1.
    9000002   -1    0    0    0    0 -0.00000000000E+00 -0.00000000000E+00  0.00000000000E+00  0.93800000000E+00  0.93800000000E+00 0. -1.
         11    1    1    2    0    0  0.89490496548E-01  0.33450097104E-01  0.72232952211E+00  0.72862037962E+00  0.51100000000E-03 0.  1.
    9000002    1    1    2    0    0 -0.46902746291E+00 -0.18752957782E+00  0.17482360448E+00  0.10796116877E+01  0.93800000000E+00 0. -1.
         22    1    1    2    0    0  0.37953696636E+00  0.15407948071E+00  0.31028468408E+01  0.31297679327E+01  0.00000000000E+00 0.  1.
</event>
<event>
 5    1  0.6564536E+001  0.1599584E+01  0.7818608E-02  0.3353815E+00
         11   -1    0    0    0    0  0.00000000000E+00  0.00000000000E+00  0.39999999674E+01  0.40000000000E+01  0.51100000000E-03 0. -1.
    9000002   -1    0    0    0    0 -0.00000000000E+00 -0.00000000000E+00  0.00000000000E+00  0.93800000000E+00  0.93800000000E+00 0. -1.
         11    1    1    2    0    0 -0.65174196965E-01  0.61767975904E+00  0.71024666315E+00  0.94351817381E+00  0.51100000000E-03 0. -1.
    9000002    1    1    2    0    0  0.13127382343E+00 -0.12781897682E+01  0.24942369917E+01  0.29583887627E+01  0.93800000000E+00 0. -1.
         22    1    1    2    0    0 -0.66099626465E-01  0.66051000916E+00  0.79551631250E+00  0.10360930635E+01  0.00000000000E+00 0.  1.
</event>
<event>
 5    1  0.6564536E+001  0.1599492E+01  0.7818608E-02  0.3353914E+00
         11   -1    0    0    0    0  0.00000000000E+00  0.00000000000E+00  0.39999999674E+01  0.40000000000E+01  0.51100000000E-03 0.  1.
    9000002   -1    0    0    0    0 -0.00000000000E+00 -0.00000000000E+00  0.00000000000E+00  0.93800000000E+00  0.93800000000E+00 0.  1.
         11    1    1    2    0    0 -0.10343010717E+00  0.70081549353E-01  0.84751546063E+00  0.85667492537E+00  0.51100000000E-03 0.  1.
    9000002    1    1    2    0    0  0.41272491026E+00 -0.28683090130E+00  0.17317089802E+00  0.10781678800E+01  0.93800000000E+00 0.  1.
         22    1    1    2    0    0 -0.30929480309E+00  0.21674935194E+00  0.29793136087E+01  0.30031571947E+01  0.00000000000E+00 0.  1.
</event>
<event>
 5    1  0.6564536E+001  0.1597931E+01  0.7818608E-02  0.3355612E+00
         11   -1    0    0    0    0  0.00000000000E+00  0.00000000000E+00  0.39999999674E+01  0.40000000000E+01  0.51100000000E-03 0.  1.
    9000002   -1    0    0    0    0 -0.00000000000E+00 -0.00000000000E+00  0.00000000000E+00  0.93800000000E+00  0.93800000000E+00 0.  1.
         11    1    1    2    0    0 -0.98435761382E-01 -0.33451331784E-01  0.11866922258E+01  0.11912377137E+01  0.51100000000E-03 0.  1.
    9000002    1    1    2    0    0  0.33748026317E+00 -0.41603135436E-01  0.78841534052E-01  0.10008415141E+01  0.93800000000E+00 0.  1.
         22    1    1    2    0    0 -0.23904450179E+00  0.75054467220E-01  0.27344662075E+01  0.27459207721E+01  0.00000000000E+00 0.  1.
</event>
<event>
 5    1  0.6564536E+001  0.1599672E+01  0.7818608E-02  0.3353719E+00
         11   -1    0    0    0    0  0.00000000000E+00  0.00000000000E+00  0.39999999674E+01  0.40000000000E+01  0.51100000000E-03 0. -1.
    9000002   -1    0    0    0    0 -0.00000000000E+00 -0.00000000000E+00  0.00000000000E+00  0.93800000000E+00  0.93800000000E+00 0.  1.
         11    1    1    2    0    0  0.97093261713E-01 -0.12538316593E+00  0.12090957010E+01  0.12194509892E+01  0.51100000000E-03 0. -1.
    9000002    1    1    2    0    0 -0.30040223142E+00  0.40020799036E+00  0.17143432736E+00  0.10768665956E+01  0.93800000000E+00 0.  1.
         22    1    1    2    0    0  0.20330896970E+00 -0.27482482443E+00  0.26194699390E+01  0.26416824152E+01  0.00000000000E+00 0. -1.
</event>
<event>
 5    1  0.6564536E+001  0.1568517E+01  0.7818608E-02  0.3388259E+00
         11   -1    0    0    0    0  0.00000000000E+00  0.00000000000E+00  0.39999999674E+01  0.40000000000E+01  0.51100000000E-03 0. -1.
    9000002   -1    0    0    0    0 -0.00000000000E+00 -0.00000000000E+00  0.00000000000E+00  0.93800000000E+00  0.93800000000E+00 0.  1.
         11    1    1    2    0    0 -0.67727838760E-01  0.12498104164E+00  0.12385940565E+01  0.12467248368E+01  0.51100000000E-03 0. -1.
    9000002    1    1    2    0    0  0.34875737368E+00  0.21328677928E+00  0.13942555634E+00  0.10326695704E+01  0.93800000000E+00 0.  1.
         22    1    1    2    0    0 -0.28102953492E+00 -0.33826782093E+00  0.26219803546E+01  0.26586055928E+01  0.00000000000E+00 0. -1.
</event>
<event>
 5    1  0.6564536E+001  0.1599553E+01  0.7818608E-02  0.3353849E+00
         11   -1    0    0    0    0  0.00000000000E+00  0.00000000000E+00  0.39999999674E+01  0.40000000000E+01  0.51100000000E-03 0. -1.
    9000002   -1    0    0    0    0 -0.00000000000E+00 -0.00000000000E+00  0.00000000000E+00  0.93800000000E+00  0.93800000000E+00 0. -1.
         11    1    1    2    0    0 -0.15093319949E+00 -0.33733924458E-01  0.13944222020E+01  0.14029726821E+01  0.51100000000E-03 0. -1.
    9000002    1    1    2    0    0  0.45166197580E+00  0.82794566276E-01  0.14351288377E+00  0.10541790305E+01  0.93800000000E+00 0. -1.
         22    1    1    2    0    0 -0.30072877631E+00 -0.49060641818E-01  0.24620648816E+01  0.24808482874E+01  0.00000000000E+00 0. -1.
</event>
<event>
 5    1  0.6564536E+001  0.1599677E+01  0.7818608E-02  0.3353715E+00
         11   -1    0    0    0    0  0.00000000000E+00  0.00000000000E+00  0.39999999674E+01  0.40000000000E+01  0.51100000000E-03 0. -1.
    9000002   -1    0    0    0    0 -0.00000000000E+00 -0.00000000000E+00  0.00000000000E+00  0.93800000000E+00  0.93800000000E+00 0. -1.
         11    1    1    2    0    0  0.11627246021E+00 -0.90184731660E-02  0.10017901502E+01  0.10085555929E+01  0.51100000000E-03 0. -1.
    9000002    1    1    2    0    0 -0.44682846722E+00  0.32761826180E-01  0.13629283039E+00  0.10484029531E+01  0.93800000000E+00 0. -1.
         22    1    1    2    0    0  0.33055600701E+00 -0.23743353014E-01  0.28619169868E+01  0.28810414540E+01  0.00000000000E+00 0. -1.
</event>
<event>
 5    1  0.6564536E+001  0.1599676E+01  0.7818608E-02  0.3353715E+00
         11   -1    0    0    0    0  0.00000000000E+00  0.00000000000E+00  0.39999999674E+01  0.40000000000E+01  0.51100000000E-03 0.  1.
    9000002   -1    0    0    0    0 -0.00000000000E+00 -0.00000000000E+00  0.00000000000E+00  0.93800000000E+00  0.93800000000E+00 0.  1.
         11    1    1    2    0    0 -0.48564320640E-01  0.95653797554E-01  0.10855359595E+01  0.10908238734E+01  0.51100000000E-03 0. -1.
    9000002    1    1    2    0    0  0.17631915284E+00 -0.33972851083E+00  0.98607864333E-01  0.10178759333E+01  0.93800000000E+00 0.  1.
         22    1    1    2    0    0 -0.12775483220E+00  0.24407471328E+00  0.28158561435E+01  0.28293001933E+01  0.00000000000E+00 0.  1.
</event>
<event>
 5    1  0.6564536E+001  0.1579302E+01  0.7818608E-02  0.3376139E+00
         11   -1    0    0    0    0  0.00000000000E+00  0.00000000000E+00  0.39999999674E+01  0.40000000000E+01  0.51100000000E-03 0.  1.
    9000002   -1    0    0    0    0 -0.00000000000E+00 -0.00000000000E+00  0.00000000000E+00  0.93800000000E+00  0.93800000000E+00 0.  1.
         11    1    1    2    0    0  0.12480996483E+00  0.20590962377E-01  0.13014061268E+01  0.13075395531E+01  0.51100000000E-03 0.  1.
    9000002    1    1    2    0    0  0.78171873809E-01  0.11422719133E+00  0.27791134678E-01  0.94856472645E+00  0.93800000000E+00 0.  1.
         22    1    1    2    0    0 -0.20298183864E+00 -0.13481815370E+00  0.26708027059E+01  0.26818957204E+01  0.00000000000E+00 0.  1.
</event>
<event>
 5    1  0.6564536E+001  0.1599675E+01  0.7818608E-02  0.3353716E+00
         11   -1    0    0    0    0  0.00000000000E+00  0.00000000000E+00  0.39999999674E+01  0.40000000000E+01  0.51100000000E-03 0. -1.
    9000002   -1    0    0    0    0 -0.00000000000E+00 -0.00000000000E+00  0.00000000000E+00  0.93800000000E+00  0.93800000000E+00 0. -1.
         11    1    1    2    0    0  0.57666242189E-01 -0.84051206639E-01  0.97683357789E+00  0.98213751626E+00  0.51100000000E-03 0. -1.
    9000002    1    1    2    0    0 -0.23365557819E+00  0.33049133156E+00  0.11056897786E+00  0.10275645714E+01  0.93800000000E+00 0. -1.
         22    1    1    2    0    0  0.17598933600E+00 -0.24644012492E+00  0.29125974116E+01  0.29282979124E+01  0.00000000000E+00 0. -1.
</event>
<event>
 5    1  0.6564536E+001  0.1599677E+01  0.7818608E-02  0.3353714E+00
         11   -1    0    0    0    0  0.00000000000E+00  0.00000000000E+00  0.39999999674E+01  0.40000000000E+01  0.51100000000E-03 0.  1.
    9000002   -1    0    0    0    0 -0.00000000000E+00 -0.00000000000E+00  0.00000000000E+00  0.93800000000E+00  0.93800000000E+00 0. -1.
         11    1    1    2    0    0  0.79676003117E-01 -0.18476051677E+00  0.13066264208E+01  0.13220278282E+01  0.51100000000E-03 0.  1.
    9000002    1    1    2    0    0 -0.22890455889E+00  0.53087588785E+00  0.23212941856E+00  0.11260348895E+01  0.93800000000E+00 0. -1.
         22    1    1    2    0    0  0.14922855577E+00 -0.34611537108E+00  0.24612441280E+01  0.24899372823E+01  0.00000000000E+00 0.  1.
</event>
<event>
 5    1  0.6564536E+001  0.1599613E+01  0.7818608E-02  0.3353783E+00
         11   -1    0    0    0    0  0.00000000000E+00  0.00000000000E+00  0.39999999674E+01  0.40000000000E+01  0.51100000000E-03 0. -1.
    9000002   -1    0    0    0    0 -0.00000000000E+00 -0.00000000000E+00  0.00000000000E+00  0.93800000000E+00  0.93800000000E+00 0. -1.
         11    1    1    2    0    0 -0.40694810266E-01 -0.70370328034E-01  0.55968715940E+00  0.56555992447E+00  0.51100000000E-03 0. -1.
    9000002    1    1    2    0    0  0.23680336921E+00  0.45733730315E+00  0.18209220886E+00  0.10854652537E+01  0.93800000000E+00 0. -1.
         22    1    1    2    0    0 -0.19610855895E+00 -0.38696697512E+00  0.32582205991E+01  0.32869748218E+01  0.00000000000E+00 0. -1.
</event>
<event>
 5    1  0.6564536E+001  0.1599204E+01  0.7818608E-02  0.3354228E+00
         11   -1    0    0    0    0  0.00000000000E+00  0.00000000000E+00  0.39999999674E+01  0.40000000000E+01  0.51100000000E-03 0. -1.
    9000002   -1    0    0    0    0 -0.00000000000E+00 -0.00000000000E+00  0.00000000000E+00  0.93800000000E+00  0.93800000000E+00 0. -1.
         11    1    1    2    0    0 -0.76664480729E-02 -0.33548370183E-01  0.24738234192E+00  0.24976499311E+00  0.51100000000E-03 0. -1.
    9000002    1    1    2    0    0 -0.31825774371E-02  0.37049224195E+00  0.92645088562E-01  0.10127693432E+01  0.93800000000E+00 0. -1.
         22    1    1    2    0    0  0.10849025510E-01 -0.33694387177E+00  0.36599725369E+01  0.36754656637E+01  0.00000000000E+00 0. -1.
</event>
<event>
 5    1  0.6564536E+001  0.1599676E+01  0.7818608E-02  0.3353715E+00
         11   -1    0    0    0    0  0.00000000000E+00  0.00000000000E+00  0.39999999674E+01  0.40000000000E+01  0.51100000000E-03 0.  1.
    9000002   -1    0    0    0    0 -0.00000000000E+00 -0.00000000000E+00  0.00000000000E+00  0.93800000000E+00  0.93800000000E+00 0.  1.
         11    1    1    2    0    0  0.10180733269E-02  0.15359537170E+00  0.73223378417E+00  0.74817053569E+00  0.51100000000E-03 0.  1.
    9000002    1    1    2    0    0 -0.68952326819E-02 -0.74906656814E+00  0.40668541070E+00  0.12674325588E+01  0.93800000000E+00 0.  1.
         22    1    1    2    0    0  0.58771593551E-02  0.59547119644E+00  0.28610807725E+01  0.29223969055E+01  0.00000000000E+00 0.  1.
</event>
<event>
 5    1  0.6564536E+001  0.1599420E+01  0.7818608E-02  0.3353993E+00
         11   -1    0    0    0    0  0.00000000000E+00  0.00000000000E+00  0.39999999674E+01  0.40000000000E+01  0.51100000000E-03 0. -1.
    9000002   -1    0    0    0    0 -0.00000000000E+00 -0.00000000000E+00  0.00000000000E+00  0.93800000000E+00  0.93800000000E+00 0. -1.
         11    1    1    2    0    0  0.47632166280E-03  0.31720791783E-02  0.83521084887E-01  0.83584219266E-01  0.51100000000E-03 0. -1.
    9000002    1    1    2    0    0 -0.15961715983E+00 -0.36837772513E+00  0.10895334411E+00  0.10261065331E+01  0.93800000000E+00 0. -1.
         22    1    1    2    0    0  0.15914083816E+00  0.36520564596E+00  0.38075255384E+01  0.38283092476E+01  0.00000000000E+00 0. -1.
</event>
<event>
 5    1  0.6564536E+001  0.1517933E+01  0.7818608E-02  0.3447554E+00
         11   -1    0    0    0    0  0.00000000000E+00  0.00000000000E+00  0.39999999674E+01  0.40000000000E+01  0.51100000000E-03 0. -1.
    9000002   -1    0    0    0    0 -0.00000000000E+00 -0.00000000000E+00  0.00000000000E+00  0.93800000000E+00  0.93800000000E+00 0.  1.
         11    1    1    2    0    0  0.30895367222E+00 -0.20957609908E+00  0.46075789895E+00  0.59301991151E+00  0.51100000000E-03 0. -1.
    9000002    1    1    2    0    0  0.18777644607E+00  0.80478400452E-01  0.21814883122E+00  0.98446415841E+00  0.93800000000E+00 0.  1.
         22    1    1    2    0    0 -0.49673011829E+00  0.12909769863E+00  0.33210932372E+01  0.33605159301E+01  0.00000000000E+00 0. -1.
</event>
<event>
 5    1  0.6564536E+001  0.1599671E+01  0.7818608E-02  0.3353721E+00
         11   -1    0    0    0    0  0.00000000000E+00  0.00000000000E+00  0.39999999674E+01  0.40000000000E+01  0.51100000000E-03 0. -1.
    9000002   -1    0    0    0    0 -0.00000000000E+00 -0.00000000000E+00  0.00000000000E+00  0.93800000000E+00  0.93800000000E+00 0.  1.
         11    1    1    2    0    0  0.17835823656E-01 -0.19522444360E-01  0.20682136146E+00  0.20850558534E+00  0.51100000000E-03 0. -1.
    9000002    1    1    2    0    0 -0.30962969818E+00  0.37325968344E+00  0.16061052183E+00  0.10680978799E+01  0.93800000000E+00 0.  1.
         22    1    1    2    0    0  0.29179387453E+00 -0.35373723908E+00  0.36325680841E+01  0.36613965348E+01  0.00000000000E+00 0. -1.
</event>
<event>
 5    1  0.6564536E+001  0.1599626E+01  0.7818608E-02  0.3353769E+00
         11   -1    0    0    0    0  0.00000000000E+00  0.00000000000E+00  0.39999999674E+01  0.40000000000E+01  0.51100000000E-03 0. -1.
    9000002   -1    0    0    0    0 -0.00000000000E+00 -0.00000000000E+00  0.00000000000E+00  0.93800000000E+00  0.93800000000E+00 0.  1.
         11    1    1    2    0    0  0.58574449179E-01 -0.12356466284E+00  0.79956277048E+00  0.81117203912E+00  0.51100000000E-03 0. -1.
    9000002    1    1    2    0    0 -0.27783978692E+00  0.60224221629E+00  0.31146573688E+00  0.11902712042E+01  0.93800000000E+00 0.  1.
         22    1    1    2    0    0  0.21926533775E+00 -0.47867755344E+00  0.28889714600E+01  0.29365567567E+01  0.00000000000E+00 0. -1.
</event>
<event>
 5    1  0.6564536E+001  0.1585793E+01  0.7818608E-02  0.3368929E+00
         11   -1    0    0    0    0  0.00000000000E+00  0.00000000000E+00  0.39999999674E+01  0.40000000000E+01  0.51100000000E-03 0.  1.
    9000002   -1    0    0    0    0 -0.00000000000E+00 -0.00000000000E+00  0.00000000000E+00  0.93800000000E+00  0.93800000000E+00 0.  1.
         11    1    1    2    0    0  0.24582450925E-01 -0.31910173797E-02  0.37055050440E-01  0.44584945548E-01  0.51100000000E-03 0.  1.
    9000002    1    1    2    0    0  0.40107234527E+00  0.80653879734E-01  0.12474398871E+00  0.10309069488E+01  0.93800000000E+00 0.  1.
         22    1    1    2    0    0 -0.42565479619E+00 -0.77462862355E-01  0.38382009282E+01  0.38625081056E+01  0.00000000000E+00 0.  1.
</event>
<event>
 5    1  0.6564536E+001  0.1599621E+01  0.7818608E-02  0.3353775E+00
         11   -1    0    0    0    0  0.00000000000E+00  0.00000000000E+00  0.39999999674E+01  0.40000000000E+01  0.51100000000E-03 0. -1.
    9000002   -1    0    0    0    0 -0.00000000000E+00 -0.00000000000E+00  0.00000000000E+00  0.93800000000E+00  0.93800000000E+00 0.  1.
         11    1    1    2    0    0  0.18779078454E+00  0.13248708258E-01  0.10969907174E+01  0.11130273142E+01  0.51100000000E-03 0. -1.
    9000002    1    1    2    0    0 -0.61382922785E+00 -0.57697753662E-01  0.26622035087E+00  0.11536171926E+01  0.93800000000E+00 0.  1.
         22    1    1    2    0    0  0.42603844331E+00  0.44449045404E-01  0.26367888991E+01  0.26713554932E+01  0.00000000000E+00 0. -1.
</event>
<event>
 5    1  0.6564536E+001  0.1599671E+01  0.7818608E-02  0.3353720E+00
         11   -1    0    0    0    0  0.00000000000E+00  0.00000000000E+00  0.39999999674E+01  0.40000000000E+01  0.51100000000E-03 0. -1.
    9000002   -1    0    0    0    0 -0.00000000000E+00 -0.00000000000E+00  0.00000000000E+00  0.93800000000E+00  0.93800000000E+00 0. -1.
         11    1    1    2    0    0 -0.86725238562E-01  0.12153947012E+00  0.10698157893E+01  0.10801847962E+01  0.51100000000E-03 0. -1.
    9000002    1    1    2    0    0  0.31393509010E+00 -0.43887769117E+00  0.20072434544E+00  0.11005921731E+01  0.93800000000E+00 0. -1.
         22    1    1    2    0    0 -0.22720985153E+00  0.31733822105E+00  0.27294598326E+01  0.27572230307E+01  0.00000000000E+00 0. -1.
</event>
<event>
 5    1  0.6564536E+001  0.1599676E+01  0.7818608E-02  0.3353715E+00
         11   -1    0    0    0    0  0.00000000000E+00  0.00000000000E+00  0.39999999674E+01  0.40000000000E+01  0.51100000000E-03 0.  1.
    9000002   -1    0    0    0    0 -0.00000000000E+00 -0.00000000000E+00  0.00000000000E+00  0.93800000000E+00  0.93800000000E+00 0. -1.
         11    1    1    2    0    0  0.25490053539E-01  0.37728929205E-01  0.50116571094E+00  0.50323011225E+00  0.51100000000E-03 0.  1.
    9000002    1    1    2    0    0 -0.20144078121E+00 -0.29756891884E+00  0.86671140773E-01  0.10082070901E+01  0.93800000000E+00 0. -1.
         22    1    1    2    0    0  0.17595072767E+00  0.25983998964E+00  0.34121631156E+01  0.34265627977E+01  0.00000000000E+00 0.  1.
</event>
<event>
 5    1  0.6564536E+001  0.1544671E+01  0.7818608E-02  0.3415696E+00
         11   -1    0    0    0    0  0.00000000000E+00  0.00000000000E+00  0.39999999674E+01  0.40000000000E+01  0.51100000000E-03 0.  1.
    9000002   -1    0    0    0    0 -0.00000000000E+00 -0.00000000000E+00  0.00000000000E+00  0.93800000000E+00  0.93800000000E+00 0.  1.
         11    1    1    2    0    0 -0.12924989121E+00 -0.22931685381E+00  0.10831643946E+01  0.11146914912E+01  0.51100000000E-03 0.  1.
    9000002    1    1    2    0    0  0.23302402104E+00 -0.55379666868E-01  0.81164556639E-01  0.97149307107E+00  0.93800000000E+00 0.  1.
         22    1    1    2    0    0 -0.10377412984E+00  0.28469652067E+00  0.28356710161E+01  0.28518154377E+01  0.00000000000E+00 0.  1.
</event>
<event>
 5    1  0.6564536E+001  0.1599645E+01  0.7818608E-02  0.3353749E+00
         11   -1    0    0    0    0  0.00000000000E+00  0.00000000000E+00  0.39999999674E+01  0.40000000000E+01  0.51100000000E-03 0. -1.
    9000002   -1    0    0    0    0 -0.00000000000E+00 -0.00000000000E+00  0.00000000000E+00  0.93800000000E+00  0.93800000000E+00 0.  1.
         11    1    1    2    0    0  0.29915168735E-01  0.73621713514E-01  0.68833242847E+00  0.69290465955E+00  0.51100000000E-03 0. -1.
    9000002    1    1    2    0    0 -0.16952869039E+00 -0.44094421045E+00  0.15212024983E+00  0.10612051376E+01  0.93800000000E+00 0.  1.
         22    1    1    2    0    0  0.13961352165E+00  0.36732249693E+00  0.31595472891E+01  0.31838902029E+01  0.00000000000E+00 0. -1.
</event>
<event>
 5    1  0.6564536E+001  0.1599630E+01  0.7818608E-02  0.3353765E+00
         11   -1    0    0    0    0  0.00000000000E+00  0.00000000000E+00  0.39999999674E+01  0.40000000000E+01  0.51100000000E-03 0.  1.
    9000002   -1    0    0    0    0 -0.00000000000E+00 -0.00000000000E+00  0.00000000000E+00  0.93800000000E+00  0.93800000000E+00 0. -1.
         11    1    1    2    0    0 -0.66289334298E-01  0.43493654288E-01  0.85735519033E+00  0.86101344782E+00  0.51100000000E-03 0.  1.
    9000002    1    1    2    0    0  0.31295822867E+00 -0.22688424094E+00  0.10065479836E+00  0.10195070868E+01  0.93800000000E+00 0. -1.
         22    1    1    2    0    0 -0.24666889437E+00  0.18339058665E+00  0.30419899787E+01  0.30574794653E+01  0.00000000000E+00 0.  1.
</event>
<event>
 5    1  0.6564536E+001  0.1599676E+01  0.7818608E-02  0.3353716E+00
         11   -1    0    0    0    0  0.00000000000E+00  0.00000000000E+00  0.39999999674E+01  0.40000000000E+01  0.51100000000E-03 0.  1.
    9000002   -1    0    0    0    0 -0.00000000000E+00 -0.00000000000E+00  0.00000000000E+00  0.93800000000E+00  0.93800000000E+00 0.  1.
         11    1    1    2    0    0 -0.15378992820E-01 -0.57278768639E-01  0.42193570356E+00  0.42608375916E+00  0.51100000000E-03 0.  1.
    9000002    1    1    2    0    0  0.13260294746E+00  0.51299998327E+00  0.19319500829E+00  0.10944956993E+01  0.93800000000E+00 0.  1.
         22    1    1    2    0    0 -0.11722395464E+00 -0.45572121463E+00  0.33848692555E+01  0.34174205416E+01  0.00000000000E+00 0.  1.
</event>
<event>
 5    1  0.6564536E+001  0.1599677E+01  0.7818608E-02  0.3353714E+00
         11   -1    0    0    0    0  0.00000000000E+00  0.00000000000E+00  0.39999999674E+01  0.40000000000E+01  0.51100000000E-03 0.  1.
    9000002   -1    0    0    0    0 -0.00000000000E+00 -0.00000000000E+00  0.00000000000E+00  0.93800000000E+00  0.93800000000E+00 0. -1.
         11    1    1    2    0    0 -0.14272703943E+00  0.82185309004E-01  0.89632125952E+00  0.91132732550E+00  0.51100000000E-03 0.  1.
    9000002    1    1    2    0    0  0.58305643078E+00 -0.33741483297E+00  0.32209898696E+00  0.11989142290E+01  0.93800000000E+00 0. -1.
         22    1    1    2    0    0 -0.44032939135E+00  0.25522952397E+00  0.27815797209E+01  0.28277584456E+01  0.00000000000E+00 0.  1.
</event>
<event>
 5    1  0.6564536E+001  0.1599677E+01  0.7818608E-02  0.3353714E+00
         11   -1    0    0    0    0  0.00000000000E+00  0.00000000000E+00  0.39999999674E+01  0.40000000000E+01  0.51100000000E-03 0. -1.
    9000002   -1    0    0    0    0 -0.00000000000E+00 -0.00000000000E+00  0.00000000000E+00  0.93800000000E+00  0.93800000000E+00 0. -1.
         11    1    1    2    0    0 -0.16465292615E+00  0.92445218448E-01  0.14697754207E+01  0.14818558475E+01  0.51100000000E-03 0. -1.
    9000002    1    1    2    0    0  0.42832438398E+00 -0.24069997269E+00  0.16501289082E+00  0.10716676299E+01  0.93800000000E+00 0. -1.
         22    1    1    2    0    0 -0.26367145783E+00  0.14825475424E+00  0.23652116559E+01  0.23844765226E+01  0.00000000000E+00 0. -1.
</event>
<event>
 5    1  0.6564536E+001  0.1599666E+01  0.7818608E-02  0.3353726E+00
         11   -1    0    0    0    0  0.00000000000E+00  0.00000000000E+00  0.39999999674E+01  0.40000000000E+01  0.51100000000E-03 0. -1.
    9000002   -1    0    0    0    0 -0.00000000000E+00 -0.00000000000E+00  0.00000000000E+00  0.93800000000E+00  0.93800000000E+00 0.  1.
         11    1    1    2    0    0  0.26075188705E-01  0.54208358370E-01  0.58215693409E+00  0.58525671172E+00  0.51100000000E-03 0. -1.
    9000002    1    1    2    0    0 -0.16201155338E+00 -0.37629285276E+00  0.11336614219E+00  0.10298251971E+01  0.93800000000E+00 0.  1.
         22    1    1    2    0    0  0.13593636467E+00  0.32208449439E+00  0.33044768911E+01  0.33229180911E+01  0.00000000000E+00 0. -1.
</event>
<event>
 5    1  0.6564536E+001  0.1598357E+01  0.7818608E-02  0.3355148E+00
         11   -1    0    0    0    0  0.00000000000E+00  0.00000000000E+00  0.39999999674E+01  0.40000000000E+01  0.51100000000E-03 0. -1.
    9000002   -1    0    0    0    0 -0.00000000000E+00 -0.00000000000E+00  0.00000000000E+00  0.93800000000E+00  0.93800000000E+00 0.  1.
         11    1    1    2    0    0  0.10353118919E+00 -0.54629797729E-02  0.50311298903E+00  0.51368423388E+00  0.51100000000E-03 0. -1.
    9000002    1    1    2    0    0 -0.82132107253E+00 -0.14873077903E+00  0.52133478329E+00  0.13595304723E+01  0.93800000000E+00 0.  1.
         22    1    1    2    0    0  0.71778988334E+00  0.15419375881E+00  0.29755521950E+01  0.30647852938E+01  0.00000000000E+00 0. -1.
</event>
<event>
 5    1  0.6564536E+001  0.1525056E+01  0.7818608E-02  0.3438950E+00
         11   -1    0    0    0    0  0.00000000000E+00  0.00000000000E+00  0.39999999674E+01  0.40000000000E+01  0.51100000000E-03 0. -1.
    9000002   -1    0    0    0    0 -0.00000000000E+00 -0.00000000000E+00  0.00000000000E+00  0.93800000000E+00  0.93800000000E+00 0.  1.
         11    1    1    2    0    0 -0.11580139914E+00 -0.15213234864E+00  0.43126432640E+00  0.47174505391E+00  0.51100000000E-03 0. -1.
    9000002    1    1    2    0    0 -0.20909426566E+00 -0.32590048044E-01  0.88089920943E-01  0.96560155206E+00  0.93800000000E+00 0.  1.
         22    1    1    2    0    0  0.32489566480E+00  0.18472239669E+00  0.34806457200E+01  0.35006533940E+01  0.00000000000E+00 0. -1.
</event>
<event>
 5    1  0.6564536E+001  0.1599675E+01  0.7818608E-02  0.3353716E+00
         11   -1    0    0    0    0  0.00000000000E+00  0.00000000000E+00  0.39999999674E+01  0.40000000000E+01  0.51100000000E-03 0.  1.
    9000002   -1    0    0    0    0 -0.00000000000E+00 -0.00000000000E+00  0.00000000000E+00  0.93800000000E+00  0.93800000000E+00 0. -1.
         11    1    1    2    0    0  0.39314397718E-01  0.29857042555E+00  0.14670579235E+01  0.14976478667E+01  0.51100000000E-03 0.  1.
    9000002    1    1    2    0    0 -0.98962282758E-01 -0.73112491039E+00  0.39317895843E+00  0.12564914888E+01  0.93800000000E+00 0. -1.
         22    1    1    2    0    0  0.59647885040E-01  0.43255448484E+00  0.21397630855E+01  0.21838606445E+01  0.00000000000E+00 0.  1.
</event>
<event>
 5    1  0.6564536E+001  0.1458323E+01  0.7818608E-02  0.3523118E+00
         11   -1    0    0    0    0  0.00000000000E+00  0.00000000000E+00  0.39999999674E+01  0.40000000000E+01  0.51100000000E-03 0.  1.
    9000002   -1    0    0    0    0 -0.00000000000E+00 -0.00000000000E+00  0.00000000000E+00  0.93800000000E+00  0.93800000000E+00 0. -1.
         11    1    1    2    0    0 -0.25664850546E+00 -0.20974778036E+00  0.68360985725E+00  0.75972711204E+00  0.51100000000E-03 0.  1.
    9000002    1    1    2    0    0 -0.12418018862E+00 -0.78575631393E-02  0.12216075185E+00  0.95407007596E+00  0.93800000000E+00 0. -1.
         22    1    1    2    0    0  0.38082869408E+00  0.21760534350E+00  0.31942293583E+01  0.32242028120E+01  0.00000000000E+00 0.  1.
</event>
<event>
 5    1  0.6564536E+001  0.1596332E+01  0.7818608E-02  0.3357354E+00
         11   -1    0    0    0    0  0.00000000000E+00  0.00000000000E+00  0.39999999674E+01  0.40000000000E+01  0.51100000000E-03 0. -1.
    9000002   -1    0    0    0    0 -0.00000000000E+00 -0.00000000000E+00  0.00000000000E+00  0.93800000000E+00  0.93800000000E+00 0. -1.
         11    1    1    2    0    0 -0.15639350830E-01 -0.79099399709E-01  0.47673903679E+00  0.48350974618E+00  0.51100000000E-03 0. -1.
    9000002    1    1    2    0    0 -0.18695255534E+00  0.43927260253E+00  0.15840407060E+00  0.10643531025E+01  0.93800000000E+00 0. -1.
         22    1    1    2    0    0  0.20259190617E+00 -0.36017320282E+00  0.33648568600E+01  0.33901371513E+01  0.00000000000E+00 0. -1.
</event>
<event>
 5    1  0.6564536E+001  0.1571343E+01  0.7818608E-02  0.3385066E+00
         11   -1    0    0    0    0  0.00000000000E+00  0.00000000000E+00  0.39999999674E+01  0.40000000000E+01  0.51100000000E-03 0.  1.
    9000002   -1    0    0    0    0 -0.00000000000E+00 -0.00000000000E+00  0.00000000000E+00  0.93800000000E+00  0.93800000000E+00 0.  1.
         11    1    1    2    0    0 -0.11732032614E+00  0.17248528064E-01  0.36747600430E+00  0.38613526840E+00  0.51100000000E-03 0.  1.
    9000002    1    1    2    0    0  0.99737971523E-01  0.36137814361E+00  0.11805632523E+00  0.10170167755E+01  0.93800000000E+00 0.  1.
         22    1    1    2    0    0  0.17582354617E-01 -0.37862667167E+00  0.35144676378E+01  0.35348479561E+01  0.00000000000E+00 0.  1.
</event>
<event>
 5    1  0.6564536E+001  0.1599643E+01  0.7818608E-02  0.3353751E+00
         11   -1    0    0    0    0  0.00000000000E+00  0.00000000000E+00  0.39999999674E+01  0.40000000000E+01  0.51100000000E-03 0. -1.
    9000002   -1    0    0    0    0 -0.00000000000E+00 -0.00000000000E+00  0.00000000000E+00  0.93800000000E+00  0.93800000000E+00 0.  1.
         11    1    1    2    0    0 -0.13972279610E-01 -0.13845803239E+00  0.13684194227E+01  0.13754773094E+01  0.51100000000E-03 0. -1.
    9000002    1    1    2    0    0  0.55622643539E-01  0.38381907415E+00  0.10132756132E+00  0.10200599173E+01  0.93800000000E+00 0.  1.
         22    1    1    2    0    0 -0.41650363930E-01 -0.24536104176E+00  0.25302529834E+01  0.25424627733E+01  0.00000000000E+00 0. -1.
</event>
<event>
 5    1  0.6564536E+001  0.1599676E+01  0.7818608E-02  0.3353715E+00
         11   -1    0    0    0    0  0.00000000000E+00  0.00000000000E+00  0.39999999674E+01  0.40000000000E+01  0.51100000000E-03 0. -1.
    9000002   -1    0    0    0    0 -0.00000000000E+00 -0.00000000000E+00  0.00000000000E+00  0.93800000000E+00  0.93800000000E+00 0.  1.
         11    1    1    2    0    0 -0.17119468894E-02 -0.19693961929E-01  0.18677845015E+00  0.18782234548E+00  0.51100000000E-03 0.  1.
    9000002    1    1    2    0    0  0.33719007622E-01  0.40999738964E+00  0.11432263960E+00  0.10306058883E+01  0.93800000000E+00 0.  1.
         22    1    1    2    0    0 -0.32007060733E-01 -0.39030342771E+00  0.36988988776E+01  0.37195717663E+01  0.00000000000E+00 0. -1.
</event>
<event>
 5    1  0.6564536E+001  0.1599648E+01  0.7818608E-02  0.3353745E+00
         11   -1    0    0    0    0  0.00000000000E+00  0.00000000000E+00  0.39999999674E+01  0.40000000000E+01  0.51100000000E-03 0.  1.
    9000002   -1    0    0    0    0 -0.00000000000E+00 -0.00000000000E+00  0.00000000000E+00  0.93800000000E+00  0.93800000000E+00 0.  1.
         11    1    1    2    0    0 -0.19250508451E+00 -0.47581269288E-01  0.14674070696E+01  0.14807450671E+01  0.51100000000E-03 0.  1.
    9000002    1    1    2    0    0  0.49349984605E+00  0.13833185153E+00  0.18022829414E+00  0.10839760317E+01  0.93800000000E+00 0.  1.
         22    1    1    2    0    0 -0.30099476154E+00 -0.90750582242E-01  0.23523646036E+01  0.23732789012E+01  0.00000000000E+00 0.  1.
</event>
<event>
 5    1  0.6564536E+001  0.1562658E+01  0.7818608E-02  0.3394917E+00
         11   -1    0    0    0    0  0.00000000000E+00  0.00000000000E+00  0.39999999674E+01  0.40000000000E+01  0.51100000000E-03 0.  1.
    9000002   -1    0    0    0    0 -0.00000000000E+00 -0.00000000000E+00  0.00000000000E+00  0.93800000000E+00  0.93800000000E+00 0.  1.
         11    1    1    2    0    0  0.16832346215E-01 -0.14725522695E+00  0.13236627771E+01  0.13319349978E+01  0.51100000000E-03 0.  1.
    9000002    1    1    2    0    0 -0.19560651652E+00 -0.19588180995E+00  0.80226816041E-01  0.98128076247E+00  0.93800000000E+00 0.  1.
         22    1    1    2    0    0  0.17877417031E+00  0.34313703690E+00  0.25961103742E+01  0.26247842397E+01  0.00000000000E+00 0.  1.
</event>
<event>
 5    1  0.6564536E+001  0.1599632E+01  0.7818608E-02  0.3353763E+00
         11   -1    0    0    0    0  0.00000000000E+00  0.00000000000E+00  0.39999999674E+01  0.40000000000E+01  0.51100000000E-03 0. -1.
    9000002   -1    0    0    0    0 -0.00000000000E+00 -0.00000000000E+00  0.00000000000E+00  0.93800000000E+00  0.93800000000E+00 0. -1.
         11    1    1    2    0    0  0.21143510304E+00 -0.18396828464E+00  0.14675904950E+01  0.14941121962E+01  0.51100000000E-03 0. -1.
    9000002    1    1    2    0    0 -0.54045913406E+00  0.46622543369E+00  0.36552315402E+00  0.12340637774E+01  0.93800000000E+00 0. -1.
         22    1    1    2    0    0  0.32902403102E+00 -0.28225714905E+00  0.21668863183E+01  0.22098240264E+01  0.00000000000E+00 0.  1.
</event>
<event>
 5    1  0.6564536E+001  0.1599677E+01  0.7818608E-02  0.3353714E+00
         11   -1    0    0    0    0  0.00000000000E+00  0.00000000000E+00  0.39999999674E+01  0.40000000000E+01  0.51100000000E-03 0.  1.
    9000002   -1    0    0    0    0 -0.00000000000E+00 -0.00000000000E+00  0.00000000000E+00  0.93800000000E+00  0.93800000000E+00 0. -1.
         11    1    1    2    0    0 -0.31856926108E-01  0.82368225102E-01  0.94099814459E+00  0.94513340725E+00  0.51100000000E-03 0.  1.
    9000002    1    1    2    0    0  0.13023550020E+00 -0.34216477535E+00  0.90038118926E-01  0.10109346576E+01  0.93800000000E+00 0. -1.
         22    1    1    2    0    0 -0.98378574095E-01  0.25979655025E+00  0.29689637038E+01  0.29819319352E+01  0.00000000000E+00 0.  1.
</event>
<event>
 5    1  0.6564536E+001  0.1599423E+01  0.7818608E-02  0.3353990E+00
         11   -1    0    0    0    0  0.00000000000E+00  0.00000000000E+00  0.39999999674E+01  0.40000000000E+01  0.51100000000E-03 0. -1.
    9000002   -1    0    0    0    0 -0.00000000000E+00 -0.00000000000E+00  0.00000000000E+00  0.93800000000E+00  0.93800000000E+00 0. -1.
         11    1    1    2    0    0  0.20007457215E+00 -0.28473968201E+00  0.12518191823E+01  0.12992913635E+01  0.51100000000E-03 0. -1.
    9000002    1    1    2    0    0 -0.57492918128E+00  0.75797306129E+00  0.70989773056E+00  0.15128997035E+01  0.93800000000E+00 0. -1.
         22    1    1    2    0    0  0.37485460913E+00 -0.47323337928E+00  0.20382830545E+01  0.21258089330E+01  0.00000000000E+00 0. -1.
</event>
<event>
 5    1  0.6564536E+001  0.1501296E+01  0.7818608E-02  0.3467993E+00
         11   -1    0    0    0    0  0.00000000000E+00  0.00000000000E+00  0.39999999674E+01  0.40000000000E+01  0.51100000000E-03 0.  1.
    9000002   -1    0    0    0    0 -0.00000000000E+00 -0.00000000000E+00  0.00000000000E+00  0.93800000000E+00  0.93800000000E+00 0.  1.
         11    1    1    2    0    0  0.15485705397E+00 -0.53560948646E+00  0.10017340452E+01  0.11464421431E+01  0.51100000000E-03 0.  1.
    9000002    1    1    2    0    0  0.20671324526E+00  0.32787598297E+00  0.29586300694E+00  0.10571716724E+01  0.93800000000E+00 0.  1.
         22    1    1    2    0    0 -0.36157029923E+00  0.20773350349E+00  0.27024029152E+01  0.27343861845E+01  0.00000000000E+00 0.  1.
</event>
<event>
 5    1  0.6564536E+001  0.1599557E+01  0.7818608E-02  0.3353844E+00
         11   -1    0    0    0    0  0.00000000000E+00  0.00000000000E+00  0.39999999674E+01  0.40000000000E+01  0.51100000000E-03 0. -1.
    9000002   -1    0    0    0    0 -0.00000000000E+00 -0.00000000000E+00  0.00000000000E+00  0.93800000000E+00  0.93800000000E+00 0. -1.
         11    1    1    2    0    0 -0.39769530387E-01 -0.73240884913E-01  0.47175972872E+00  0.47906507442E+00  0.51100000000E-03 0. -1.
    9000002    1    1    2    0    0  0.37810016457E+00  0.56629850068E+00  0.32983271575E+00  0.12051088526E+01  0.93800000000E+00 0. -1.
         22    1    1    2    0    0 -0.33833063418E+00 -0.49305761576E+00  0.31984075229E+01  0.32538260729E+01  0.00000000000E+00 0. -1.
</event>
<event>
 5    1  0.6564536E+001  0.1599653E+01  0.7818608E-02  0.3353740E+00
         11   -1    0    0    0    0  0.00000000000E+00  0.00000000000E+00  0.39999999674E+01  0.40000000000E+01  0.51100000000E-03 0.  1.
    9000002   -1    0    0    0    0 -0.00000000000E+00 -0.00000000000E+00  0.00000000000E+00  0.93800000000E+00  0.93800000000E+00 0.  1.
         11    1    1    2    0    0  0.23498544788E-01  0.28244320862E-01  0.32109411467E+00  0.32318975056E+00  0.51100000000E-03 0.  1.
    9000002    1    1    2    0    0 -0.26227014332E+00 -0.31010602187E+00  0.11137137898E+00  0.10282018075E+01  0.93800000000E+00 0.  1.
         22    1    1    2    0    0  0.23877159853E+00  0.28186170101E+00  0.35675344737E+01  0.35866084420E+01  0.00000000000E+00 0.  1.
</event>
<event>
 5    1  0.6564536E+001  0.1599380E+01  0.7818608E-02  0.3354036E+00
         11   -1    0    0    0    0  0.00000000000E+00  0.00000000000E+00  0.39999999674E+01  0.40000000000E+01  0.51100000000E-03 0. -1.
    9000002   -1    0    0    0    0 -0.00000000000E+00 -0.00000000000E+00  0.00000000000E+00  0.93800000000E+00  0.93800000000E+00 0. -1.
         11    1    1    2    0    0  0.15483505822E+00  0.96313289655E-01  0.13173175514E+01  0.13298781664E+01  0.51100000000E-03 0. -1.
    9000002    1    1    2    0    0 -0.48115115883E+00 -0.23245347262E+00  0.19692560159E+00  0.10973444068E+01  0.93800000000E+00 0. -1.
         22    1    1    2    0    0  0.32631610061E+00  0.13614018297E+00  0.24857568143E+01  0.25107774268E+01  0.00000000000E+00 0. -1.
</event>
<event>
 5    1  0.6564536E+001  0.1597528E+01  0.7818608E-02  0.3356050E+00
         11   -1    0    0    0    0  0.00000000000E+00  0.00000000000E+00  0.39999999674E+01  0.40000000000E+01  0.51100000000E-03 0.  1.
    9000002   -1    0    0    0    0 -0.00000000000E+00 -0.00000000000E+00  0.00000000000E+00  0.93800000000E+00  0.93800000000E+00 0. -1.
         11    1    1    2    0    0  0.33124133034E-01 -0.90097163919E-01  0.67894939332E+00  0.68570201032E+00  0.51100000000E-03 0.  1.
    9000002    1    1    2    0    0 -0.38196890603E+00  0.36803162426E+00  0.19561537447E+00  0.10951971952E+01  0.93800000000E+00 0. -1.
         22    1    1    2    0    0  0.34884477300E+00 -0.27793446034E+00  0.31254351996E+01  0.31571007945E+01  0.00000000000E+00 0.  1.
</event>
<event>
 5    1  0.6564536E+001  0.1599603E+01  0.7818608E-02  0.3353795E+00
         11   -1    0    0    0    0  0.00000000000E+00  0.00000000000E+00  0.39999999674E+01  0.40000000000E+01  0.51100000000E-03 0.  1.
    9000002   -1    0    0    0    0 -0.00000000000E+00 -0.00000000000E+00  0.00000000000E+00  0.93800000000E+00  0.93800000000E+00 0.  1.
         11    1    1    2    0    0  0.82463614712E-01 -0.18083419489E-01  0.74880094225E+00  0.75354520106E+00  0.51100000000E-03 0.  1.
    9000002    1    1    2    0    0 -0.42314409846E+00  0.13557989151E+00  0.13404598002E+00  0.10465396122E+01  0.93800000000E+00 0.  1.
         22    1    1    2    0    0  0.34068048375E+00 -0.11749647202E+00  0.31171530451E+01  0.31379151868E+01  0.00000000000E+00 0.  1.
</event>
<event>
 5    1  0.6564536E+001  0.1599666E+01  0.7818608E-02  0.3353726E+00
         11   -1    0    0    0    0  0.00000000000E+00  0.00000000000E+00  0.39999999674E+01  0.40000000000E+01  0.51100000000E-03 0.  1.
    9000002   -1    0    0    0    0 -0.00000000000E+00 -0.00000000000E+00  0.00000000000E+00  0.93800000000E+00  0.93800000000E+00 0. -1.
         11    1    1    2    0    0  0.11932869559E+00 -0.53060987190E-01  0.12940319670E+01  0.13006051663E+01  0.51100000000E-03 0.  1.
    9000002    1    1    2    0    0 -0.35189068680E+00  0.16812541217E+00  0.10246900881E+00  0.10209980938E+01  0.93800000000E+00 0. -1.
         22    1    1    2    0    0  0.23256199121E+00 -0.11506442498E+00  0.26034989916E+01  0.26163967399E+01  0.00000000000E+00 0.  1.
</event>
<event>
 5    1  0.6564536E+001  0.1599669E+01  0.7818608E-02  0.3353723E+00
         11   -1    0    0    0    0  0.00000000000E+00  0.00000000000E+00  0.39999999674E+01  0.40000000000E+01  0.51100000000E-03 0.  1.
    9000002   -1    0    0    0    0 -0.00000000000E+00 -0.00000000000E+00  0.00000000000E+00  0.93800000000E+00  0.93800000000E+00 0. -1.
         11    1    1    2    0    0  0.10835595154E-01  0.25194932733E-02  0.11182447250E+00  0.11237763007E+00  0.51100000000E-03 0.  1.
    9000002    1    1    2    0    0 -0.36769421910E+00 -0.12289322715E+00  0.10123109446E+00  0.10199968228E+01  0.93800000000E+00 0. -1.
         22    1    1    2    0    0  0.35685862394E+00  0.12037373387E+00  0.37869444004E+01  0.38056255471E+01  0.00000000000E+00 0.  1.
</event>
<event>
 5    1  0.6564536E+001  0.1599219E+01  0.7818608E-02  0.3354212E+00
         11   -1    0    0    0    0  0.00000000000E+00  0.00000000000E+00  0.39999999674E+01  0.40000000000E+01  0.51100000000E-03 0.  1.
    9000002   -1    0    0    0    0 -0.00000000000E+00 -0.00000000000E+00  0.00000000000E+00  0.93800000000E+00  0.93800000000E+00 0. -1.
         11    1    1    2    0    0  0.26428904153E+00 -0.38230207689E-01  0.10741095961E+01  0.11068070888E+01  0.51100000000E-03 0.  1.
    9000002    1    1    2    0    0 -0.90379673288E+00  0.10658533049E+00  0.63745505294E+00  0.14540983156E+01  0.93800000000E+00 0. -1.
         22    1    1    2    0    0  0.63950769136E+00 -0.68355122797E-01  0.22884353183E+01  0.23770945956E+01  0.00000000000E+00 0.  1.
</event>
<event>
 5    1  0.6564536E+001  0.1599468E+01  0.7818608E-02  0.3353941E+00
         11   -1    0    0    0    0  0.00000000000E+00  0.00000000000E+00  0.39999999674E+01  0.40000000000E+01  0.51100000000E-03 0.  1.
    9000002   -1    0    0    0    0 -0.00000000000E+00 -0.00000000000E+00  0.00000000000E+00  0.93800000000E+00  0.93800000000E+00 0. -1.
         11    1    1    2    0    0 -0.96978111661E-01 -0.12064435727E+00  0.10252701115E+01  0.10368890383E+01  0.51100000000E-03 0.  1.
    9000002    1    1    2    0    0  0.41140828443E+00  0.43741928497E+00  0.25181954977E+00  0.11418622916E+01  0.93800000000E+00 0. -1.
         22    1    1    2    0    0 -0.31443017277E+00 -0.31677492770E+00  0.27229103061E+01  0.27592486701E+01  0.00000000000E+00 0.  1.
</event>
<event>
 5    1  0.6564536E+001  0.1599673E+01  0.7818608E-02  0.3353718E+00
         11   -1    0    0    0    0  0.00000000000E+00  0.00000000000E+00  0.39999999674E+01  0.40000000000E+01  0.51100000000E-03 0. -1.
    9000002   -1    0    0    0    0 -0.00000000000E+00 -0.00000000000E+00  0.00000000000E+00  0.93800000000E+00  0.93800000000E+00 0. -1.
         11    1    1    2    0    0  0.18328415362E-01  0.63116830173E-02  0.19424551727E+00  0.19521104029E+00  0.51100000000E-03 0. -1.
    9000002    1    1    2    0    0 -0.38042554598E+00 -0.13913851580E+00  0.11075318830E+00  0.10277126988E+01  0.93800000000E+00 0. -1.
         22    1    1    2    0    0  0.36209713062E+00  0.13282683278E+00  0.36950012618E+01  0.37150762609E+01  0.00000000000E+00 0. -1.
</event>
<event>
 5    1  0.6564536E+001  0.1591988E+01  0.7818608E-02  0.3362105E+00
         11   -1    0    0    0    0  0.00000000000E+00  0.00000000000E+00  0.39999999674E+01  0.40000000000E+01  0.51100000000E-03 0.  1.
    9000002   -1    0    0    0    0 -0.00000000000E+00 -0.00000000000E+00  0.00000000000E+00  0.93800000000E+00  0.93800000000E+00 0.  1.
         11    1    1    2    0    0 -0.72984131385E-01  0.10554098463E+00  0.62844303492E+00  0.64140976928E+00  0.51100000000E-03 0.  1.
    9000002    1    1    2    0    0  0.38480985978E+00 -0.17265193774E+00  0.12686222216E+00  0.10362554430E+01  0.93800000000E+00 0.  1.
         22    1    1    2    0    0 -0.31182572840E+00  0.67110953107E-01  0.32446947103E+01  0.32603347877E+01  0.00000000000E+00 0.  1.
</event>
<event>
 5    1  0.6564536E+001  0.1599667E+01  0.7818608E-02  0.3353725E+00
         11   -1    0    0    0    0  0.00000000000E+00  0.00000000000E+00  0.39999999674E+01  0.40000000000E+01  0.51100000000E-03 0.  1.
    9000002   -1    0    0    0    0 -0.00000000000E+00 -0.00000000000E+00  0.00000000000E+00  0.93800000000E+00  0.93800000000E+00 0. -1.
         11    1    1    2    0    0  0.39288774884E-02 -0.49444812200E-01  0.53195947190E+00  0.53426713018E+00  0.51100000000E-03 0.  1.
    9000002    1    1    2    0    0 -0.10865271326E-01  0.35854156840E+00  0.86366595615E-01  0.10079550085E+01  0.93800000000E+00 0. -1.
         22    1    1    2    0    0  0.69363938378E-02 -0.30909675620E+00  0.33816738998E+01  0.33957778613E+01  0.00000000000E+00 0.  1.
</event>
<event>
 5    1  0.1024876E+002  0.1595151E+01  0.7818608E-02  0.3358643E+00
         11   -1    0    0    0    0  0.00000000000E+00  0.00000000000E+00  0.39999999674E+01  0.40000000000E+01  0.51100000000E-03 0. -1.
    9000002   -1    0    0    0    0 -0.00000000000E+00 -0.00000000000E+00  0.00000000000E+00  0.93800000000E+00  0.93800000000E+00 0. -1.
         11    1    1    2    0    0 -0.50650150833E-02  0.35985025831E-01  0.14033816227E+01  0.14038521349E+01  0.51100000000E-03 0. -1.
    9000002    1    1    2    0    0  0.21171380566E+00 -0.19357962535E+00  0.58362134572E-01  0.98262197493E+00  0.93800000000E+00 0. -1.
         22    1    1    2    0    0 -0.20664879058E+00  0.15759459951E+00  0.25382562101E+01  0.25515258902E+01  0.00000000000E+00 0. -1.
</event>
<event>
 5    1  0.6564536E+001  0.1599675E+01  0.7818608E-02  0.3353716E+00
         11   -1    0    0    0    0  0.00000000000E+00  0.00000000000E+00  0.39999999674E+01  0.40000000000E+01  0.51100000000E-03 0. -1.
    9000002   -1    0    0    0    0 -0.00000000000E+00 -0.00000000000E+00  0.00000000000E+00  0.93800000000E+00  0.93800000000E+00 0.  1.
         11    1    1    2    0    0  0.24201160607E+00 -0.74324957107E-01  0.13236012653E+01  0.13475957804E+01  0.51100000000E-03 0. -1.
    9000002    1    1    2    0    0 -0.66542244973E+00  0.20193865380E+00  0.34516846280E+00  0.12176007245E+01  0.93800000000E+00 0.  1.
         22    1    1    2    0    0  0.42341084366E+00 -0.12761369669E+00  0.23312302392E+01  0.23728034951E+01  0.00000000000E+00 0. -1.
</event>
<event>
 5    1  0.6564536E+001  0.1599377E+01  0.7818608E-02  0.3354039E+00
         11   -1    0    0    0    0  0.00000000000E+00  0.00000000000E+00  0.39999999674E+01  0.40000000000E+01  0.51100000000E-03 0. -1.
    9000002   -1    0    0    0    0 -0.00000000000E+00 -0.00000000000E+00  0.00000000000E+00  0.93800000000E+00  0.93800000000E+00 0.  1.
         11    1    1    2    0    0 -0.64699085014E-01  0.93675751810E-02  0.44177822846E+00  0.44658928260E+00  0.51100000000E-03 0. -1.
    9000002    1    1    2    0    0  0.44969856502E+00 -0.10172307683E+00  0.14487884378E+00  0.10551825734E+01  0.93800000000E+00 0.  1.
         22    1    1    2    0    0 -0.38499948001E+00  0.92355501647E-01  0.34133428951E+01  0.34362281440E+01  0.00000000000E+00 0. -1.
</event>
<event>
 5    1  0.6564536E+001  0.1581467E+01  0.7818608E-02  0.3373727E+00
         11   -1    0    0    0    0  0.00000000000E+00  0.00000000000E+00  0.39999999674E+01  0.40000000000E+01  0.51100000000E-03 0. -1.
    9000002   -1    0    0    0    0 -0.00000000000E+00 -0.00000000000E+00  0.00000000000E+00  0.93800000000E+00  0.93800000000E+00 0.  1.
         11    1    1    2    0    0  0.13119960650E+00 -0.23487859246E+00  0.85167608136E+00  0.89315939150E+00  0.51100000000E-03 0. -1.
    9000002    1    1    2    0    0 -0.23013651710E+00  0.53058363967E+00  0.25022729309E+00  0.11300174837E+01  0.93800000000E+00 0.  1.
         22    1    1    2    0    0  0.98936910598E-01 -0.29570504720E+00  0.28980965929E+01  0.29148231248E+01  0.00000000000E+00 0. -1.
</event>
<event>
 5    1  0.6564536E+001  0.1521907E+01  0.7818608E-02  0.3442743E+00
         11   -1    0    0    0    0  0.00000000000E+00  0.00000000000E+00  0.39999999674E+01  0.40000000000E+01  0.51100000000E-03 0. -1.
    9000002   -1    0    0    0    0 -0.00000000000E+00 -0.00000000000E+00  0.00000000000E+00  0.93800000000E+00  0.93800000000E+00 0.  1.
         11    1    1    2    0    0 -0.61781720428E-01 -0.33017304978E+00  0.14123964991E+01  0.14517903966E+01  0.51100000000E-03 0. -1.
    9000002    1    1    2    0    0  0.14141434193E+00  0.21673561295E-01  0.73163714365E-01  0.95166416790E+00  0.93800000000E+00 0.  1.
         22    1    1    2    0    0 -0.79632621506E-01  0.30849948848E+00  0.25144397539E+01  0.25345454355E+01  0.00000000000E+00 0.  1.
</event>
<event>
 5    1  0.6564536E+001  0.1597916E+01  0.7818608E-02  0.3355628E+00
         11   -1    0    0    0    0  0.00000000000E+00  0.00000000000E+00  0.39999999674E+01  0.40000000000E+01  0.51100000000E-03 0.  1.
    9000002   -1    0    0    0    0 -0.00000000000E+00 -0.00000000000E+00  0.00000000000E+00  0.93800000000E+00  0.93800000000E+00 0. -1.
         11    1    1    2    0    0  0.34106786998E-01  0.28286568465E-01  0.79666228066E+00  0.79789376073E+00  0.51100000000E-03 0.  1.
    9000002    1    1    2    0    0 -0.15779274530E+00 -0.33830304021E+00  0.95123361331E-01  0.10140216720E+01  0.93800000000E+00 0. -1.
         22    1    1    2    0    0  0.12368595830E+00  0.31001647175E+00  0.31082143254E+01  0.31260845672E+01  0.00000000000E+00 0.  1.
</event>
<event>
 5    1  0.6564536E+001  0.1573805E+01  0.7818608E-02  0.3382295E+00
         11   -1    0    0    0    0  0.00000000000E+00  0.00000000000E+00  0.39999999674E+01  0.40000000000E+01  0.51100000000E-03 0. -1.
    9000002   -1    0    0    0    0 -0.00000000000E+00 -0.00000000000E+00  0.00000000000E+00  0.93800000000E+00  0.93800000000E+00 0.  1.
         11    1    1    2    0    0  0.10064222647E+00  0.18957991641E+00  0.73669009547E+00  0.76732128886E+00  0.51100000000E-03 0. -1.
    9000002    1    1    2    0    0  0.19590441612E+00 -0.60698739775E+00  0.31360260243E+00  0.11768614334E+01  0.93800000000E+00 0.  1.
         22    1    1    2    0    0 -0.29654664259E+00  0.41740748133E+00  0.29497072695E+01  0.29938172777E+01  0.00000000000E+00 0. -1.
</event>
<event>
 5    1  0.6564536E+001  0.1599677E+01  0.7818608E-02  0.3353714E+00
         11   -1    0    0    0    0  0.00000000000E+00  0.00000000000E+00  0.39999999674E+01  0.40000000000E+01  0.51100000000E-03 0.  1.
    9000002   -1    0    0    0    0 -0.00000000000E+00 -0.00000000000E+00  0.00000000000E+00  0.93800000000E+00  0.93800000000E+00 0.  1.
         11    1    1    2    0    0 -0.79204284297E-01  0.75918872741E-01  0.11430521940E+01  0.11483055226E+01  0.51100000000E-03 0.  1.
    9000002    1    1    2    0    0  0.26948257896E+00 -0.25914371994E+00  0.93978108711E-01  0.10141263298E+01  0.93800000000E+00 0.  1.
         22    1    1    2    0    0 -0.19027829466E+00  0.18322484720E+00  0.27629696647E+01  0.27755681476E+01  0.00000000000E+00 0.  1.
</event>
<event>
 5    1  0.6564536E+001  0.1599672E+01  0.7818608E-02  0.3353720E+00
         11   -1    0    0    0    0  0.00000000000E+00  0.00000000000E+00  0.39999999674E+01  0.40000000000E+01  0.51100000000E-03 0. -1.
    9000002   -1    0    0    0    0 -0.00000000000E+00 -0.00000000000E+00  0.00000000000E+00  0.93800000000E+00  0.93800000000E+00 0. -1.
         11    1    1    2    0    0  0.37262955314E-01  0.14813334030E+00  0.96249419678E+00  0.97453956015E+00  0.51100000000E-03 0. -1.
    9000002    1    1    2    0    0 -0.13679414859E+00 -0.57491831168E+00  0.24320695518E+00  0.11350054305E+01  0.93800000000E+00 0. -1.
         22    1    1    2    0    0  0.99531193277E-01  0.42678497138E+00  0.27942988154E+01  0.28284550094E+01  0.00000000000E+00 0. -1.
</event>
<event>
 5    1  0.6564536E+001  0.1599337E+01  0.7818608E-02  0.3354083E+00
         11   -1    0    0    0    0  0.00000000000E+00  0.00000000000E+00  0.39999999674E+01  0.40000000000E+01  0.51100000000E-03 0.  1.
    9000002   -1    0    0    0    0 -0.00000000000E+00 -0.00000000000E+00  0.00000000000E+00  0.93800000000E+00  0.93800000000E+00 0.  1.
         11    1    1    2    0    0 -0.14293782762E+00  0.10073095708E+00  0.11114212325E+01  0.11250934918E+01  0.51100000000E-03 0.  1.
    9000002    1    1    2    0    0  0.54094000135E+00 -0.30815896796E+00  0.27210063808E+00  0.11582144844E+01  0.93800000000E+00 0.  1.
         22    1    1    2    0    0 -0.39800217373E+00  0.20742801087E+00  0.26164780968E+01  0.26546920238E+01  0.00000000000E+00 0.  1.
</event>
<event>
 5    1  0.6564536E+001  0.1599587E+01  0.7818608E-02  0.3353812E+00
         11   -1    0    0    0    0  0.00000000000E+00  0.00000000000E+00  0.39999999674E+01  0.40000000000E+01  0.51100000000E-03 0.  1.
    9000002   -1    0    0    0    0 -0.00000000000E+00 -0.00000000000E+00  0.00000000000E+00  0.93800000000E+00  0.93800000000E+00 0. -1.
         11    1    1    2    0    0 -0.11570748154E+00  0.82250843748E-01  0.13788855767E+01  0.13861742738E+01  0.51100000000E-03 0.  1.
    9000002    1    1    2    0    0  0.31388958060E+00 -0.26017508151E+00  0.11230477870E+00  0.10289189012E+01  0.93800000000E+00 0. -1.
         22    1    1    2    0    0 -0.19818209906E+00  0.17792423776E+00  0.25088096120E+01  0.25229068251E+01  0.00000000000E+00 0.  1.
</event>
<event>
 5    1  0.6564536E+001  0.1599675E+01  0.7818608E-02  0.3353717E+00
         11   -1    0    0    0    0  0.00000000000E+00  0.00000000000E+00  0.39999999674E+01  0.40000000000E+01  0.51100000000E-03 0.  1.
    9000002   -1    0    0    0    0 -0.00000000000E+00 -0.00000000000E+00  0.00000000000E+00  0.93800000000E+00  0.93800000000E+00 0. -1.
         11    1    1    2    0    0  0.12466024056E+00 -0.25913370904E-01  0.12343104038E+01  0.12408602308E+01  0.51100000000E-03 0.  1.
    9000002    1    1    2    0    0 -0.38827849820E+00  0.79727985944E-01  0.10593134377E+00  0.10238076936E+01  0.93800000000E+00 0. -1.
         22    1    1    2    0    0  0.26361825763E+00 -0.53814615040E-01  0.26597582198E+01  0.26733320756E+01  0.00000000000E+00 0.  1.
</event>
<event>
 5    1  0.6564536E+001  0.1599005E+01  0.7818608E-02  0.3354444E+00
         11   -1    0    0    0    0  0.00000000000E+00  0.00000000000E+00  0.39999999674E+01  0.40000000000E+01  0.51100000000E-03 0. -1.
    9000002   -1    0    0    0    0 -0.00000000000E+00 -0.00000000000E+00  0.00000000000E+00  0.93800000000E+00  0.93800000000E+00 0. -1.
         11    1    1    2    0    0  0.78054801011E-01  0.62232923119E-01  0.13053624987E+01  0.13091741682E+01  0.51100000000E-03 0. -1.
    9000002    1    1    2    0    0 -0.28069097739E+00 -0.26044760127E+00  0.99239711524E-01  0.10179945472E+01  0.93800000000E+00 0. -1.
         22    1    1    2    0    0  0.20263617638E+00  0.19821467815E+00  0.25953977572E+01  0.26108312846E+01  0.00000000000E+00 0. -1.
</event>
<event>
 5    1  0.6564536E+001  0.1599676E+01  0.7818608E-02  0.3353715E+00
         11   -1    0    0    0    0  0.00000000000E+00  0.00000000000E+00  0.39999999674E+01  0.40000000000E+01  0.51100000000E-03 0. -1.
    9000002   -1    0    0    0    0 -0.00000000000E+00 -0.00000000000E+00  0.00000000000E+00  0.93800000000E+00  0.93800000000E+00 0. -1.
         11    1    1    2    0    0 -0.19253310825E+00 -0.10442309701E+00  0.11015254318E+01  0.11230902542E+01  0.51100000000E-03 0. -1.
    9000002    1    1    2    0    0  0.63165416573E+00  0.34373539646E+00  0.37153695998E+00  0.12389611457E+01  0.93800000000E+00 0. -1.
         22    1    1    2    0    0 -0.43912105748E+00 -0.23931229945E+00  0.25269375756E+01  0.25759486001E+01  0.00000000000E+00 0. -1.
</event>
<event>
 5    1  0.6564536E+001  0.1593188E+01  0.7818608E-02  0.3360790E+00
         11   -1    0    0    0    0  0.00000000000E+00  0.00000000000E+00  0.39999999674E+01  0.40000000000E+01  0.51100000000E-03 0. -1.
    9000002   -1    0    0    0    0 -0.00000000000E+00 -0.00000000000E+00  0.00000000000E+00  0.93800000000E+00  0.93800000000E+00 0. -1.
         11    1    1    2    0    0  0.15550537258E+00 -0.49291601251E-02  0.13977831097E+01  0.14064153371E+01  0.51100000000E-03 0. -1.
    9000002    1    1    2    0    0 -0.29708763073E+00  0.23410692221E+00  0.10157917869E+00  0.10164789427E+01  0.93800000000E+00 0. -1.
         22    1    1    2    0    0  0.14158225815E+00 -0.22917776209E+00  0.25006376790E+01  0.25151057203E+01  0.00000000000E+00 0. -1.
</event>
<event>
 5    1  0.6564536E+001  0.1599673E+01  0.7818608E-02  0.3353719E+00
         11   -1    0    0    0    0  0.00000000000E+00  0.00000000000E+00  0.39999999674E+01  0.40000000000E+01  0.51100000000E-03 0.  1.
    9000002   -1    0    0    0    0 -0.00000000000E+00 -0.00000000000E+00  0.00000000000E+00  0.93800000000E+00  0.93800000000E+00 0.  1.
         11    1    1    2    0    0 -0.91799981379E-01 -0.96437981793E-01  0.13422437441E+01  0.13488313648E+01  0.51100000000E-03 0.  1.
    9000002    1    1    2    0    0  0.26424169577E+00  0.27399240864E+00  0.97502767619E-01  0.10169790084E+01  0.93800000000E+00 0.  1.
         22    1    1    2    0    0 -0.17244171439E+00 -0.17755442685E+00  0.25602534556E+01  0.25721896268E+01  0.00000000000E+00 0.  1.
</event>
<event>
 5    1  0.6564536E+001  0.1599670E+01  0.7818608E-02  0.3353722E+00
         11   -1    0    0    0    0  0.00000000000E+00  0.00000000000E+00  0.39999999674E+01  0.40000000000E+01  0.51100000000E-03 0. -1.
    9000002   -1    0    0    0    0 -0.00000000000E+00 -0.00000000000E+00  0.00000000000E+00  0.93800000000E+00  0.93800000000E+00 0.  1.
         11    1    1    2    0    0 -0.37849549744E-01  0.54461784879E-01  0.73582435856E+00  0.73880743242E+00  0.51100000000E-03 0. -1.
    9000002    1    1    2    0    0  0.19180294794E+00 -0.29914794496E+00  0.84726965652E-01  0.10066282941E+01  0.93800000000E+00 0.  1.
         22    1    1    2    0    0 -0.15395339820E+00  0.24468616008E+00  0.31794486431E+01  0.31925642735E+01  0.00000000000E+00 0. -1.
</event>
<event>
 5    1  0.6564536E+001  0.1599254E+01  0.7818608E-02  0.3354173E+00
         11   -1    0    0    0    0  0.00000000000E+00  0.00000000000E+00  0.39999999674E+01  0.40000000000E+01  0.51100000000E-03 0.  1.
    9000002   -1    0    0    0    0 -0.00000000000E+00 -0.00000000000E+00  0.00000000000E+00  0.93800000000E+00  0.93800000000E+00 0.  1.
         11    1    1    2    0    0 -0.13813061481E-01  0.10916638172E+00  0.12328512788E+01  0.12377522515E+01  0.51100000000E-03 0.  1.
    9000002    1    1    2    0    0  0.67819267213E-01 -0.41240025583E+00  0.11845567793E+00  0.10337065210E+01  0.93800000000E+00 0.  1.
         22    1    1    2    0    0 -0.54006205732E-01  0.30323387411E+00  0.26486930107E+01  0.26665412274E+01  0.00000000000E+00 0.  1.
</event>
<event>
 5    1  0.6564536E+001  0.1469298E+01  0.7818608E-02  0.3508706E+00
         11   -1    0    0    0    0  0.00000000000E+00  0.00000000000E+00  0.39999999674E+01  0.40000000000E+01  0.51100000000E-03 0.  1.
    9000002   -1    0    0    0    0 -0.00000000000E+00 -0.00000000000E+00  0.00000000000E+00  0.93800000000E+00  0.93800000000E+00 0.  1.
         11    1    1    2    0    0  0.32263037303E-01  0.10300242350E+00  0.16360607824E-01  0.10917111996E+00  0.51100000000E-03 0.  1.
    9000002    1    1    2    0    0 -0.24611566097E+00  0.17704466338E+00  0.17167881607E+00  0.10006174830E+01  0.93800000000E+00 0.  1.
         22    1    1    2    0    0  0.21385262366E+00 -0.28004708688E+00  0.38119605435E+01  0.38282113970E+01  0.00000000000E+00 0.  1.
</event>
<event>
 5    1  0.6564536E+001  0.1592982E+01  0.7818608E-02  0.3361016E+00
         11   -1    0    0    0    0  0.00000000000E+00  0.00000000000E+00  0.39999999674E+01  0.40000000000E+01  0.51100000000E-03 0.  1.
    9000002   -1    0    0    0    0 -0.00000000000E+00 -0.00000000000E+00  0.00000000000E+00  0.93800000000E+00  0.93800000000E+00 0.  1.
         11    1    1    2    0    0 -0.25073536903E-01  0.12400019064E-02  0.50966839595E+00  0.51028654187E+00  0.51100000000E-03 0.  1.
    9000002    1    1    2    0    0 -0.12007437167E+00 -0.40921404466E+00  0.12881135723E+00  0.10384172354E+01  0.93800000000E+00 0.  1.
         22    1    1    2    0    0  0.14514790857E+00  0.40797404275E+00  0.33615202142E+01  0.33892962227E+01  0.00000000000E+00 0.  1.
</event>
<event>
 5    1  0.6564536E+001  0.1599643E+01  0.7818608E-02  0.3353751E+00
         11   -1    0    0    0    0  0.00000000000E+00  0.00000000000E+00  0.39999999674E+01  0.40000000000E+01  0.51100000000E-03 0.  1.
    9000002   -1    0    0    0    0 -0.00000000000E+00 -0.00000000000E+00  0.00000000000E+00  0.93800000000E+00  0.93800000000E+00 0. -1.
         11    1    1    2    0    0 -0.11945687388E+00  0.79648139761E-01  0.13064231584E+01  0.13142889716E+01  0.51100000000E-03 0.  1.
    9000002    1    1    2    0    0  0.36633724757E+00 -0.25081925718E+00  0.13378766542E+00  0.10463538685E+01  0.93800000000E+00 0. -1.
         22    1    1    2    0    0 -0.24688037369E+00  0.17117111742E+00  0.25597891435E+01  0.25773571599E+01  0.00000000000E+00 0.  1.
</event>
<event>
 5    1  0.6564536E+001  0.1599583E+01  0.7818608E-02  0.3353816E+00
         11   -1    0    0    0    0  0.00000000000E+00  0.00000000000E+00  0.39999999674E+01  0.40000000000E+01  0.51100000000E-03 0. -1.
    9000002   -1    0    0    0    0 -0.00000000000E+00 -0.00000000000E+00  0.00000000000E+00  0.93800000000E+00  0.93800000000E+00 0.  1.
         11    1    1    2    0    0 -0.62515583113E-02 -0.65512171862E-01  0.45922845697E+00  0.46392021238E+00  0.51100000000E-03 0. -1.
    9000002    1    1    2    0    0 -0.80956207664E-02  0.52394883755E+00  0.18884024817E+00  0.10909136367E+01  0.93800000000E+00 0.  1.
         22    1    1    2    0    0  0.14347179078E-01 -0.45843666568E+00  0.33519312622E+01  0.33831661509E+01  0.00000000000E+00 0. -1.
</event>
<event>
 5    1  0.6564536E+001  0.1568077E+01  0.7818608E-02  0.3388758E+00
         11   -1    0    0    0    0  0.00000000000E+00  0.00000000000E+00  0.39999999674E+01  0.40000000000E+01  0.51100000000E-03 0. -1.
    9000002   -1    0    0    0    0 -0.00000000000E+00 -0.00000000000E+00  0.00000000000E+00  0.93800000000E+00  0.93800000000E+00 0.  1.
         11    1    1    2    0    0  0.80119460564E-01 -0.13240627611E+00  0.81328139814E+00  0.82787525848E+00  0.51100000000E-03 0. -1.
    9000002    1    1    2    0    0 -0.15493908051E+00 -0.16521082962E+00  0.58329010026E-01  0.96671971652E+00  0.93800000000E+00 0.  1.
         22    1    1    2    0    0  0.74819619947E-01  0.29761710574E+00  0.31283895592E+01  0.31434050250E+01  0.00000000000E+00 0. -1.
</event>
<event>
 5    1  0.6564536E+001  0.1589144E+01  0.7818608E-02  0.3365231E+00
         11   -1    0    0    0    0  0.00000000000E+00  0.00000000000E+00  0.39999999674E+01  0.40000000000E+01  0.51100000000E-03 0. -1.
    9000002   -1    0    0    0    0 -0.00000000000E+00 -0.00000000000E+00  0.00000000000E+00  0.93800000000E+00  0.93800000000E+00 0. -1.
         11    1    1    2    0    0 -0.62268023191E-01 -0.32441657414E-01  0.92734505384E+00  0.92999939669E+00  0.51100000000E-03 0. -1.
    9000002    1    1    2    0    0 -0.74122394236E-01  0.42225383477E+00  0.13345242429E+00  0.10399259492E+01  0.93800000000E+00 0. -1.
         22    1    1    2    0    0  0.13639041743E+00 -0.38981217735E+00  0.29392024892E+01  0.29680746541E+01  0.00000000000E+00 0. -1.
</event>
<event>
 5    1  0.7985354E+001  0.1599671E+01  0.7818608E-02  0.3353721E+00
         11   -1    0    0    0    0  0.00000000000E+00  0.00000000000E+00  0.39999999674E+01  0.40000000000E+01  0.51100000000E-03 0.  1.
    9000002   -1    0    0    0    0 -0.00000000000E+00 -0.00000000000E+00  0.00000000000E+00  0.93800000000E+00  0.93800000000E+00 0. -1.
         11    1    1    2    0    0 -0.97826703493E-01  0.78020626364E-01  0.14085016576E+01  0.14140489605E+01  0.51100000000E-03 0.  1.
    9000002    1    1    2    0    0  0.27824879555E+00 -0.22203469947E+00  0.85030081080E-01  0.10068743291E+01  0.93800000000E+00 0. -1.
         22    1    1    2    0    0 -0.18042209206E+00  0.14401407310E+00  0.25064682287E+01  0.25170767104E+01  0.00000000000E+00 0.  1.
</event>
<event>
 5    1  0.6564536E+001  0.1599655E+01  0.7818608E-02  0.3353738E+00
         11   -1    0    0    0    0  0.00000000000E+00  0.00000000000E+00  0.39999999674E+01  0.40000000000E+01  0.51100000000E-03 0. -1.
    9000002   -1    0    0    0    0 -0.00000000000E+00 -0.00000000000E+00  0.00000000000E+00  0.93800000000E+00  0.93800000000E+00 0.  1.
         11    1    1    2    0    0  0.92475513295E-02 -0.19313176421E+00  0.14475584712E+01  0.14604147302E+01  0.51100000000E-03 0. -1.
    9000002    1    1    2    0    0 -0.29101026110E-01  0.49709138148E+00  0.16969502888E+00  0.10754474018E+01  0.93800000000E+00 0.  1.
         22    1    1    2    0    0  0.19853474780E-01 -0.30395961727E+00  0.23827464673E+01  0.24021378680E+01  0.00000000000E+00 0. -1.
</event>
<event>
 5    1  0.6564536E+001  0.1598186E+01  0.7818608E-02  0.3355335E+00
         11   -1    0    0    0    0  0.00000000000E+00  0.00000000000E+00  0.39999999674E+01  0.40000000000E+01  0.51100000000E-03 0.  1.
    9000002   -1    0    0    0    0 -0.00000000000E+00 -0.00000000000E+00  0.00000000000E+00  0.93800000000E+00  0.93800000000E+00 0.  1.
         11    1    1    2    0    0 -0.10110444386E+00 -0.19211104798E+00  0.13932888239E+01  0.14101002700E+01  0.51100000000E-03 0.  1.
    9000002    1    1    2    0    0  0.16525291361E+00  0.47629498929E+00  0.17546157402E+00  0.10792572475E+01  0.93800000000E+00 0.  1.
         22    1    1    2    0    0 -0.64148469747E-01 -0.28418394131E+00  0.24312495694E+01  0.24486424825E+01  0.00000000000E+00 0.  1.
</event>
<event>
 5    1  0.6564536E+001  0.1599676E+01  0.7818608E-02  0.3353715E+00
         11   -1    0    0    0    0  0.00000000000E+00  0.00000000000E+00  0.39999999674E+01  0.40000000000E+01  0.51100000000E-03 0. -1.
    9000002   -1    0    0    0    0 -0.00000000000E+00 -0.00000000000E+00  0.00000000000E+00  0.93800000000E+00  0.93800000000E+00 0. -1.
         11    1    1    2    0    0 -0.10670218788E-01 -0.33215768115E-01  0.35052068156E+00  0.35225296329E+00  0.51100000000E-03 0. -1.
    9000002    1    1    2    0    0  0.11883110963E+00  0.37425800145E+00  0.10390806393E+00  0.10221696386E+01  0.93800000000E+00 0. -1.
         22    1    1    2    0    0 -0.10816089084E+00 -0.34104223334E+00  0.35455712219E+01  0.35635773981E+01  0.00000000000E+00 0. -1.
</event>
<event>
 5    1  0.6564536E+001  0.1599360E+01  0.7818608E-02  0.3354058E+00
         11   -1    0    0    0    0  0.00000000000E+00  0.00000000000E+00  0.39999999674E+01  0.40000000000E+01  0.51100000000E-03 0. -1.
    9000002   -1    0    0    0    0 -0.00000000000E+00 -0.00000000000E+00  0.00000000000E+00  0.93800000000E+00  0.93800000000E+00 0. -1.
         11    1    1    2    0    0 -0.10364089875E+00  0.54361160068E-01  0.12269610037E+01  0.12325299742E+01  0.51100000000E-03 0. -1.
    9000002    1    1    2    0    0  0.33675594778E+00 -0.23476100554E+00  0.11408945903E+00  0.10302318684E+01  0.93800000000E+00 0. -1.
         22    1    1    2    0    0 -0.23311504904E+00  0.18039984547E+00  0.26589495046E+01  0.26752381573E+01  0.00000000000E+00 0. -1.
</event>
<event>
 5    1  0.6564536E+001  0.1599675E+01  0.7818608E-02  0.3353717E+00
         11   -1    0    0    0    0  0.00000000000E+00  0.00000000000E+00  0.39999999674E+01  0.40000000000E+01  0.51100000000E-03 0. -1.
    9000002   -1    0    0    0    0 -0.00000000000E+00 -0.00000000000E+00  0.00000000000E+00  0.93800000000E+00  0.93800000000E+00 0.  1.
         11    1    1    2    0    0  0.10621144946E+00  0.69991607491E-01  0.74954082083E+00  0.76025745661E+00  0.51100000000E-03 0. -1.
    9000002    1    1    2    0    0 -0.52193656265E+00 -0.35239804745E+00  0.27853981613E+00  0.11636282003E+01  0.93800000000E+00 0.  1.
         22    1    1    2    0    0  0.41572511318E+00  0.28240643995E+00  0.29719193304E+01  0.30141143431E+01  0.00000000000E+00 0. -1.
</event>
<event>
 5    1  0.8389971E+001  0.1598245E+01  0.7818608E-02  0.3355270E+00
         11   -1    0    0    0    0  0.00000000000E+00  0.00000000000E+00  0.39999999674E+01  0.40000000000E+01  0.51100000000E-03 0.  1.
    9000002   -1    0    0    0    0 -0.00000000000E+00 -0.00000000000E+00  0.00000000000E+00  0.93800000000E+00  0.93800000000E+00 0.  1.
         11    1    1    2    0    0  0.27396497533E-02  0.79749522555E-01  0.14734210021E+01  0.14755802935E+01  0.51100000000E-03 0.  1.
    9000002    1    1    2    0    0  0.32655215526E-01 -0.32348991123E+00  0.71831510482E-01  0.99534710110E+00  0.93800000000E+00 0.  1.
         22    1    1    2    0    0 -0.35394865279E-01  0.24374038867E+00  0.24547474548E+01  0.24670726054E+01  0.00000000000E+00 0.  1.
</event>
<event>
 5    1  0.6564536E+001  0.1510326E+01  0.7818608E-02  0.3456840E+00
         11   -1    0    0    0    0  0.00000000000E+00  0.00000000000E+00  0.39999999674E+01  0.40000000000E+01  0.51100000000E-03 0. -1.
    9000002   -1    0    0    0    0 -0.00000000000E+00 -0.00000000000E+00  0.00000000000E+00  0.93800000000E+00  0.93800000000E+00 0.  1.
         11    1    1    2    0    0 -0.51465374770E-01 -0.33726602408E+00  0.13924752132E+01  0.14336612348E+01  0.51100000000E-03 0. -1.
    9000002    1    1    2    0    0  0.33050781849E+00 -0.49234486130E-02  0.14799259424E+00  0.10054876759E+01  0.93800000000E+00 0.  1.
         22    1    1    2    0    0 -0.27904244372E+00  0.34218947269E+00  0.24595321599E+01  0.24988510893E+01  0.00000000000E+00 0. -1.
</event>
<event>
 5    1  0.6564536E+001  0.1599674E+01  0.7818608E-02  0.3353717E+00
         11   -1    0    0    0    0  0.00000000000E+00  0.00000000000E+00  0.39999999674E+01  0.40000000000E+01  0.51100000000E-03 0. -1.
    9000002   -1    0    0    0    0 -0.00000000000E+00 -0.00000000000E+00  0.00000000000E+00  0.93800000000E+00  0.93800000000E+00 0.  1.
         11    1    1    2    0    0 -0.86969112559E-02  0.70967376068E-03  0.91725401971E-01  0.92140926792E-01  0.51100000000E-03 0. -1.
    9000002    1    1    2    0    0  0.35678487769E+00 -0.29957889202E-01  0.86034059165E-01  0.10076898250E+01  0.93800000000E+00 0.  1.
         22    1    1    2    0    0 -0.34808796643E+00  0.29248215442E-01  0.38222405062E+01  0.38381692482E+01  0.00000000000E+00 0. -1.
</event>
<event>
 5    1  0.6564536E+001  0.1599149E+01  0.7818608E-02  0.3354288E+00
         11   -1    0    0    0    0  0.00000000000E+00  0.00000000000E+00  0.39999999674E+01  0.40000000000E+01  0.51100000000E-03 0. -1.
    9000002   -1    0    0    0    0 -0.00000000000E+00 -0.00000000000E+00  0.00000000000E+00  0.93800000000E+00  0.93800000000E+00 0.  1.
         11    1    1    2    0    0 -0.66621739133E-01  0.95194541106E-02  0.76142605272E+00  0.76439451268E+00  0.51100000000E-03 0. -1.
    9000002    1    1    2    0    0  0.43468159219E+00 -0.10529248975E+00  0.13626076791E+00  0.10480675512E+01  0.93800000000E+00 0.  1.
         22    1    1    2    0    0 -0.36805985306E+00  0.95773035642E-01  0.31023131467E+01  0.31255379361E+01  0.00000000000E+00 0. -1.
</event>
<event>
 5    1  0.6564536E+001  0.1546988E+01  0.7818608E-02  0.3412991E+00
         11   -1    0    0    0    0  0.00000000000E+00  0.00000000000E+00  0.39999999674E+01  0.40000000000E+01  0.51100000000E-03 0. -1.
    9000002   -1    0    0    0    0 -0.00000000000E+00 -0.00000000000E+00  0.00000000000E+00  0.93800000000E+00  0.93800000000E+00 0.  1.
         11    1    1    2    0    0  0.11771531667E+00  0.24254674027E+00  0.13864986497E+01  0.14124675514E+01  0.51100000000E-03 0. -1.
    9000002    1    1    2    0    0 -0.10846251302E+00  0.25712833150E-01  0.47778950049E-01  0.94580764143E+00  0.93800000000E+00 0.  1.
         22    1    1    2    0    0 -0.92528036515E-02 -0.26825957342E+00  0.25657223676E+01  0.25797248072E+01  0.00000000000E+00 0. -1.
</event>
<event>
 5    1  0.6564536E+001  0.1456900E+01  0.7818608E-02  0.3525003E+00
         11   -1    0    0    0    0  0.00000000000E+00  0.00000000000E+00  0.39999999674E+01  0.40000000000E+01  0.51100000000E-03 0.  1.
    9000002   -1    0    0    0    0 -0.00000000000E+00 -0.00000000000E+00  0.00000000000E+00  0.93800000000E+00  0.93800000000E+00 0.  1.
         11    1    1    2    0    0 -0.62074303734E-01  0.43690800662E-01 -0.31378117605E-01  0.82139835841E-01  0.51100000000E-03 0.  1.
    9000002    1    1    2    0    0 -0.35389934258E+00  0.16227567541E+00  0.24974503728E+00  0.10458464147E+01  0.93800000000E+00 0.  1.
         22    1    1    2    0    0  0.41597364632E+00 -0.20596647607E+00  0.37816330477E+01  0.38100137495E+01  0.00000000000E+00 0.  1.
</event>
<event>
 5    1  0.6564536E+001  0.1599673E+01  0.7818608E-02  0.3353719E+00
         11   -1    0    0    0    0  0.00000000000E+00  0.00000000000E+00  0.39999999674E+01  0.40000000000E+01  0.51100000000E-03 0. -1.
    9000002   -1    0    0    0    0 -0.00000000000E+00 -0.00000000000E+00  0.00000000000E+00  0.93800000000E+00  0.93800000000E+00 0. -1.
         11    1    1    2    0    0  0.47701605764E-01 -0.12420699981E+00  0.12993467933E+01  0.13061413294E+01  0.51100000000E-03 0. -1.
    9000002    1    1    2    0    0 -0.14719601690E+00  0.37718764400E+00  0.11065234615E+00  0.10276308325E+01  0.93800000000E+00 0. -1.
         22    1    1    2    0    0  0.99494411136E-01 -0.25298064419E+00  0.25900008279E+01  0.26042278381E+01  0.00000000000E+00 0. -1.
</event>
<event>
 5    1  0.6564536E+001  0.1581947E+01  0.7818608E-02  0.3373193E+00
         11   -1    0    0    0    0  0.00000000000E+00  0.00000000000E+00  0.39999999674E+01  0.40000000000E+01  0.51100000000E-03 0. -1.
    9000002   -1    0    0    0    0 -0.00000000000E+00 -0.00000000000E+00  0.00000000000E+00  0.93800000000E+00  0.93800000000E+00 0.  1.
         11    1    1    2    0    0  0.26433276502E+00 -0.49569869963E-01  0.91202560886E+00  0.95085222564E+00  0.51100000000E-03 0. -1.
    9000002    1    1    2    0    0 -0.55134334795E+00  0.61224491289E-02  0.22699505827E+00  0.11114799720E+01  0.93800000000E+00 0.  1.
         22    1    1    2    0    0  0.28701058293E+00  0.43447420834E-01  0.28609793002E+01  0.28756678023E+01  0.00000000000E+00 0. -1.
</event>
<event>
 5    1  0.6564536E+001  0.1599676E+01  0.7818608E-02  0.3353715E+00
         11   -1    0    0    0    0  0.00000000000E+00  0.00000000000E+00  0.39999999674E+01  0.40000000000E+01  0.51100000000E-03 0. -1.
    9000002   -1    0    0    0    0 -0.00000000000E+00 -0.00000000000E+00  0.00000000000E+00  0.93800000000E+00  0.93800000000E+00 0.  1.
         11    1    1    2    0    0 -0.88140104018E-02 -0.11177316608E-01  0.14735442588E+00  0.14804123457E+00  0.51100000000E-03 0.  1.
    9000002    1    1    2    0    0  0.23599569656E+00  0.29018995133E+00  0.94066979856E-01  0.10141976007E+01  0.93800000000E+00 0.  1.
         22    1    1    2    0    0 -0.22718168616E+00 -0.27901263473E+00  0.37585785616E+01  0.37757611647E+01  0.00000000000E+00 0. -1.
</event>
<event>
 5    1  0.6564536E+001  0.1599644E+01  0.7818608E-02  0.3353750E+00
         11   -1    0    0    0    0  0.00000000000E+00  0.00000000000E+00  0.39999999674E+01  0.40000000000E+01  0.51100000000E-03 0. -1.
    9000002   -1    0    0    0    0 -0.00000000000E+00 -0.00000000000E+00  0.00000000000E+00  0.93800000000E+00  0.93800000000E+00 0. -1.
         11    1    1    2    0    0  0.90498220053E-01 -0.29093676019E-01  0.80759299587E+00  0.81316854213E+00  0.51100000000E-03 0. -1.
    9000002    1    1    2    0    0 -0.43004459658E+00  0.11255443277E+00  0.13413241976E+00  0.10466338239E+01  0.93800000000E+00 0. -1.
         22    1    1    2    0    0  0.33954637653E+00 -0.83460756754E-01  0.30582745517E+01  0.30781976339E+01  0.00000000000E+00 0. -1.
</event>
<event>
 5    1  0.6564536E+001  0.1589048E+01  0.7818608E-02  0.3365337E+00
         11   -1    0    0    0    0  0.00000000000E+00  0.00000000000E+00  0.39999999674E+01  0.40000000000E+01  0.51100000000E-03 0.  1.
    9000002   -1    0    0    0    0 -0.00000000000E+00 -0.00000000000E+00  0.00000000000E+00  0.93800000000E+00  0.93800000000E+00 0. -1.
         11    1    1    2    0    0 -0.12391285898E+00  0.31782421042E-01  0.44562173556E+00  0.46362000737E+00  0.51100000000E-03 0.  1.
    9000002    1    1    2    0    0  0.48194151431E+00  0.10378720842E+00  0.17575773910E+00  0.10741388135E+01  0.93800000000E+00 0. -1.
         22    1    1    2    0    0 -0.35802865533E+00 -0.13556962946E+00  0.33786204927E+01  0.34002411791E+01  0.00000000000E+00 0.  1.
</event>
<event>
 5    1  0.6564536E+001  0.1599676E+01  0.7818608E-02  0.3353715E+00
         11   -1    0    0    0    0  0.00000000000E+00  0.00000000000E+00  0.39999999674E+01  0.40000000000E+01  0.51100000000E-03 0. -1.
    9000002   -1    0    0    0    0 -0.00000000000E+00 -0.00000000000E+00  0.00000000000E+00  0.93800000000E+00  0.93800000000E+00 0.  1.
         11    1    1    2    0    0 -0.55023146717E-02  0.12153636575E+00  0.11212493028E+01  0.11278304943E+01  0.51100000000E-03 0. -1.
    9000002    1    1    2    0    0  0.22936831636E-01 -0.42053355934E+00  0.11997905114E+00  0.10351876861E+01  0.93800000000E+00 0.  1.
         22    1    1    2    0    0 -0.17434516965E-01  0.29899719359E+00  0.27587716134E+01  0.27749818196E+01  0.00000000000E+00 0. -1.
</event>
<event>
 5    1  0.6564536E+001  0.1599677E+01  0.7818608E-02  0.3353714E+00
         11   -1    0    0    0    0  0.00000000000E+00  0.00000000000E+00  0.39999999674E+01  0.40000000000E+01  0.51100000000E-03 0.  1.
    9000002   -1    0    0    0    0 -0.00000000000E+00 -0.00000000000E+00  0.00000000000E+00  0.93800000000E+00  0.93800000000E+00 0. -1.
         11    1    1    2    0    0 -0.89002167095E-01 -0.88373586608E-01  0.13622052528E+01  0.13679673565E+01  0.51100000000E-03 0.  1.
    9000002    1    1    2    0    0  0.25675840565E+00  0.25239899879E+00  0.87016466835E-01  0.10084869850E+01  0.93800000000E+00 0. -1.
         22    1    1    2    0    0 -0.16775623856E+00 -0.16402541218E+00  0.25507782477E+01  0.25615456585E+01  0.00000000000E+00 0.  1.
</event>
<event>
 5    1  0.6564536E+001  0.1597778E+01  0.7818608E-02  0.3355779E+00
         11   -1    0    0    0    0  0.00000000000E+00  0.00000000000E+00  0.39999999674E+01  0.40000000000E+01  0.51100000000E-03 0. -1.
    9000002   -1    0    0    0    0 -0.00000000000E+00 -0.00000000000E+00  0.00000000000E+00  0.93800000000E+00  0.93800000000E+00 0. -1.
         11    1    1    2    0    0  0.45778778586E-02  0.26440904760E-01  0.73805142621E-01  0.78533678180E-01  0.51100000000E-03 0. -1.
    9000002    1    1    2    0    0  0.37624734379E-01 -0.62333362345E+00  0.27548510924E+00  0.11600415821E+01  0.93800000000E+00 0. -1.
         22    1    1    2    0    0 -0.42202612237E-01  0.59689271869E+00  0.36507097155E+01  0.36994247397E+01  0.00000000000E+00 0. -1.
</event>
<event>
 5    1  0.6564536E+001  0.1599582E+01  0.7818608E-02  0.3353817E+00
         11   -1    0    0    0    0  0.00000000000E+00  0.00000000000E+00  0.39999999674E+01  0.40000000000E+01  0.51100000000E-03 0.  1.
    9000002   -1    0    0    0    0 -0.00000000000E+00 -0.00000000000E+00  0.00000000000E+00  0.93800000000E+00  0.93800000000E+00 0.  1.
         11    1    1    2    0    0 -0.18545321417E+00  0.25437826934E+00  0.14518382769E+01  0.14855759294E+01  0.51100000000E-03 0.  1.
    9000002    1    1    2    0    0  0.47982160843E+00 -0.62827471017E+00  0.45902151113E+00  0.13097719783E+01  0.93800000000E+00 0.  1.
         22    1    1    2    0    0 -0.29436839426E+00  0.37389644083E+00  0.20891401793E+01  0.21426520923E+01  0.00000000000E+00 0.  1.
</event>
<event>
 5    1  0.6564536E+001  0.1587341E+01  0.7818608E-02  0.3367218E+00
         11   -1    0    0    0    0  0.00000000000E+00  0.00000000000E+00  0.39999999674E+01  0.40000000000E+01  0.51100000000E-03 0. -1.
    9000002   -1    0    0    0    0 -0.00000000000E+00 -0.00000000000E+00  0.00000000000E+00  0.93800000000E+00  0.93800000000E+00 0. -1.
         11    1    1    2    0    0 -0.41951113210E+00 -0.79735248005E-01  0.89231754516E+00  0.98923109648E+00  0.51100000000E-03 0. -1.
    9000002    1    1    2    0    0  0.12507425490E+01  0.26141722787E+00  0.20490166170E+01  0.25905615198E+01  0.93800000000E+00 0. -1.
         22    1    1    2    0    0 -0.83123141688E+00 -0.18168197987E+00  0.10586658052E+01  0.13582073837E+01  0.00000000000E+00 0.  1.
</event>
<event>
 5    1  0.6564536E+001  0.1522964E+01  0.7818608E-02  0.3441468E+00
         11   -1    0    0    0    0  0.00000000000E+00  0.00000000000E+00  0.39999999674E+01  0.40000000000E+01  0.51100000000E-03 0.  1.
    9000002   -1    0    0    0    0 -0.00000000000E+00 -0.00000000000E+00  0.00000000000E+00  0.93800000000E+00  0.93800000000E+00 0.  1.
         11    1    1    2    0    0  0.22730090907E+00 -0.30403275823E-01  0.53767910642E+00  0.58454182489E+00  0.51100000000E-03 0.  1.
    9000002    1    1    2    0    0  0.38777190979E-01  0.19729367571E+00  0.86657541865E-01  0.96321440738E+00  0.93800000000E+00 0.  1.
         22    1    1    2    0    0 -0.26607810005E+00 -0.16689039989E+00  0.33756633191E+01  0.33902437677E+01  0.00000000000E+00 0.  1.
</event>
<event>
 5    1  0.6564536E+001  0.1599673E+01  0.7818608E-02  0.3353718E+00
         11   -1    0    0    0    0  0.00000000000E+00  0.00000000000E+00  0.39999999674E+01  0.40000000000E+01  0.51100000000E-03 0.  1.
    9000002   -1    0    0    0    0 -0.00000000000E+00 -0.00000000000E+00  0.00000000000E+00  0.93800000000E+00  0.93800000000E+00 0. -1.
         11    1    1    2    0    0 -0.48166000804E-01  0.79432342893E-01  0.93380855548E+00  0.93841789206E+00  0.51100000000E-03 0.  1.
    9000002    1    1    2    0    0  0.19308959482E+00 -0.33009035418E+00  0.98430379432E-01  0.10177306978E+01  0.93800000000E+00 0. -1.
         22    1    1    2    0    0 -0.14492359401E+00  0.25065801129E+00  0.29677610324E+01  0.29818514102E+01  0.00000000000E+00 0. -1.
</event>
<event>
 5    1  0.6564536E+001  0.1599676E+01  0.7818608E-02  0.3353716E+00
         11   -1    0    0    0    0  0.00000000000E+00  0.00000000000E+00  0.39999999674E+01  0.40000000000E+01  0.51100000000E-03 0.  1.
    9000002   -1    0    0    0    0 -0.00000000000E+00 -0.00000000000E+00  0.00000000000E+00  0.93800000000E+00  0.93800000000E+00 0. -1.
         11    1    1    2    0    0 -0.13710008411E+00 -0.79326359107E-01  0.14104658627E+01  0.14193319962E+01  0.51100000000E-03 0.  1.
    9000002    1    1    2    0    0  0.37907361881E+00  0.22015452672E+00  0.13029628720E+00  0.10435448944E+01  0.93800000000E+00 0. -1.
         22    1    1    2    0    0 -0.24197353470E+00 -0.14082816762E+00  0.24592378174E+01  0.24751231094E+01  0.00000000000E+00 0.  1.
</event>
<event>
 5    1  0.6564536E+001  0.1586796E+01  0.7818608E-02  0.3367820E+00
         11   -1    0    0    0    0  0.00000000000E+00  0.00000000000E+00  0.39999999674E+01  0.40000000000E+01  0.51100000000E-03 0.  1.
    9000002   -1    0    0    0    0 -0.00000000000E+00 -0.00000000000E+00  0.00000000000E+00  0.93800000000E+00  0.93800000000E+00 0. -1.
         11    1    1    2    0    0 -0.62497025164E-01  0.45166127755E-01  0.60618859976E+00  0.61107343000E+00  0.51100000000E-03 0.  1.
    9000002    1    1    2    0    0  0.15072867545E+00  0.29416372189E+00  0.83425991056E-01  0.99802571353E+00  0.93800000000E+00 0. -1.
         22    1    1    2    0    0 -0.88231650290E-01 -0.33932984965E+00  0.33103853765E+01  0.33289008565E+01  0.00000000000E+00 0.  1.
</event>
<event>
 5    1  0.6564536E+001  0.1560997E+01  0.7818608E-02  0.3396816E+00
         11   -1    0    0    0    0  0.00000000000E+00  0.00000000000E+00  0.39999999674E+01  0.40000000000E+01  0.51100000000E-03 0. -1.
    9000002   -1    0    0    0    0 -0.00000000000E+00 -0.00000000000E+00  0.00000000000E+00  0.93800000000E+00  0.93800000000E+00 0. -1.
         11    1    1    2    0    0 -0.16829057865E+00  0.22229743792E+00  0.10899597139E+01  0.11250556914E+01  0.51100000000E-03 0. -1.
    9000002    1    1    2    0    0 -0.95019814145E-01 -0.46692445296E+00  0.18981059577E+00  0.10690740256E+01  0.93800000000E+00 0. -1.
         22    1    1    2    0    0  0.26331039280E+00  0.24462701504E+00  0.27202296577E+01  0.27438702830E+01  0.00000000000E+00 0. -1.
</event>
<event>
 5    1  0.6564536E+001  0.1596932E+01  0.7818608E-02  0.3356700E+00
         11   -1    0    0    0    0  0.00000000000E+00  0.00000000000E+00  0.39999999674E+01  0.40000000000E+01  0.51100000000E-03 0. -1.
    9000002   -1    0    0    0    0 -0.00000000000E+00 -0.00000000000E+00  0.00000000000E+00  0.93800000000E+00  0.93800000000E+00 0.  1.
         11    1    1    2    0    0 -0.29949858138E-02 -0.23272299791E+00  0.12542996056E+01  0.12757102827E+01  0.51100000000E-03 0. -1.
    9000002    1    1    2    0    0  0.13443804841E+00  0.56981827725E+00  0.24110953566E+00  0.11316997244E+01  0.93800000000E+00 0.  1.
         22    1    1    2    0    0 -0.13144306260E+00 -0.33709527934E+00  0.25045908261E+01  0.25305899929E+01  0.00000000000E+00 0. -1.
</event>
<event>
 5    1  0.6564536E+001  0.1598203E+01  0.7818608E-02  0.3355316E+00
         11   -1    0    0    0    0  0.00000000000E+00  0.00000000000E+00  0.39999999674E+01  0.40000000000E+01  0.51100000000E-03 0.  1.
    9000002   -1    0    0    0    0 -0.00000000000E+00 -0.00000000000E+00  0.00000000000E+00  0.93800000000E+00  0.93800000000E+00 0. -1.
         11    1    1    2    0    0 -0.15632175807E+00  0.10989601995E+00  0.10134888707E+01  0.10313455190E+01  0.51100000000E-03 0.  1.
    9000002    1    1    2    0    0  0.45855707291E+00 -0.31897703722E+00  0.21727233674E+00  0.11131362036E+01  0.93800000000E+00 0. -1.
         22    1    1    2    0    0 -0.30223531484E+00  0.20908101727E+00  0.27692387599E+01  0.27935182775E+01  0.00000000000E+00 0.  1.
</event>
<event>
 5    1  0.6564536E+001  0.1562358E+01  0.7818608E-02  0.3395261E+00
         11   -1    0    0    0    0  0.00000000000E+00  0.00000000000E+00  0.39999999674E+01  0.40000000000E+01  0.51100000000E-03 0. -1.
    9000002   -1    0    0    0    0 -0.00000000000E+00 -0.00000000000E+00  0.00000000000E+00  0.93800000000E+00  0.93800000000E+00 0.  1.
         11    1    1    2    0    0  0.85322322057E-01  0.22278292701E-01  0.23914380468E+00  0.25488476103E+00  0.51100000000E-03 0. -1.
    9000002    1    1    2    0    0  0.41136914298E+00 -0.16595010924E-01  0.14651357275E+00  0.10347995908E+01  0.93800000000E+00 0.  1.
         22    1    1    2    0    0 -0.49669146503E+00 -0.56832817772E-02  0.36143425899E+01  0.36483156481E+01  0.00000000000E+00 0. -1.
</event>
<event>
 5    1  0.6564536E+001  0.1596483E+01  0.7818608E-02  0.3357189E+00
         11   -1    0    0    0    0  0.00000000000E+00  0.00000000000E+00  0.39999999674E+01  0.40000000000E+01  0.51100000000E-03 0.  1.
    9000002   -1    0    0    0    0 -0.00000000000E+00 -0.00000000000E+00  0.00000000000E+00  0.93800000000E+00  0.93800000000E+00 0.  1.
         11    1    1    2    0    0  0.13464621895E+00 -0.26627086471E-01  0.14390025334E+01  0.14455335203E+01  0.51100000000E-03 0.  1.
    9000002    1    1    2    0    0 -0.38205181903E+00 -0.10469382384E+00  0.10845124930E+00  0.10239775694E+01  0.93800000000E+00 0.  1.
         22    1    1    2    0    0  0.24740560008E+00  0.13132091031E+00  0.24525461847E+01  0.24684889103E+01  0.00000000000E+00 0.  1.
</event>
<event>
 5    1  0.6564536E+001  0.1586977E+01  0.7818608E-02  0.3367620E+00
         11   -1    0    0    0    0  0.00000000000E+00  0.00000000000E+00  0.39999999674E+01  0.40000000000E+01  0.51100000000E-03 0. -1.
    9000002   -1    0    0    0    0 -0.00000000000E+00 -0.00000000000E+00  0.00000000000E+00  0.93800000000E+00  0.93800000000E+00 0. -1.
         11    1    1    2    0    0  0.36596598184E-01  0.17762515799E+00  0.59188487219E+00  0.61904601671E+00  0.51100000000E-03 0. -1.
    9000002    1    1    2    0    0 -0.17222804511E+00 -0.49854010822E+00  0.20318237813E+00  0.10951400905E+01  0.93800000000E+00 0. -1.
         22    1    1    2    0    0  0.13563144692E+00  0.32091495024E+00  0.32049327170E+01  0.32238138928E+01  0.00000000000E+00 0. -1.
</event>
<event>
 5    1  0.6564536E+001  0.1599675E+01  0.7818608E-02  0.3353716E+00
         11   -1    0    0    0    0  0.00000000000E+00  0.00000000000E+00  0.39999999674E+01  0.40000000000E+01  0.51100000000E-03 0.  1.
    9000002   -1    0    0    0    0 -0.00000000000E+00 -0.00000000000E+00  0.00000000000E+00  0.93800000000E+00  0.93800000000E+00 0.  1.
         11    1    1    2    0    0  0.11175150680E-02  0.11219119439E+00  0.11168255693E+01  0.11224472042E+01  0.51100000000E-03 0.  1.
    9000002    1    1    2    0    0 -0.88751165717E-02 -0.39095606391E+00  0.10303589674E+00  0.10214625826E+01  0.93800000000E+00 0.  1.
         22    1    1    2    0    0  0.77576015037E-02  0.27876486952E+00  0.27801385013E+01  0.27940902132E+01  0.00000000000E+00 0.  1.
</event>
<event>
 5    1  0.6564536E+001  0.1575088E+01  0.7818608E-02  0.3380854E+00
         11   -1    0    0    0    0  0.00000000000E+00  0.00000000000E+00  0.39999999674E+01  0.40000000000E+01  0.51100000000E-03 0.  1.
    9000002   -1    0    0    0    0 -0.00000000000E+00 -0.00000000000E+00  0.00000000000E+00  0.93800000000E+00  0.93800000000E+00 0. -1.
         11    1    1    2    0    0 -0.30947340274E+00  0.20092642256E+00  0.11722204592E+01  0.12289207787E+01  0.51100000000E-03 0.  1.
    9000002    1    1    2    0    0  0.44677538121E+00 -0.43951801880E+00  0.30130577707E+00  0.11676529884E+01  0.93800000000E+00 0. -1.
         22    1    1    2    0    0 -0.13730197848E+00  0.23859159624E+00  0.25264737311E+01  0.25414262328E+01  0.00000000000E+00 0.  1.
</event>
<event>
 5    1  0.6564536E+001  0.1599493E+01  0.7818608E-02  0.3353913E+00
         11   -1    0    0    0    0  0.00000000000E+00  0.00000000000E+00  0.39999999674E+01  0.40000000000E+01  0.51100000000E-03 0.  1.
    9000002   -1    0    0    0    0 -0.00000000000E+00 -0.00000000000E+00  0.00000000000E+00  0.93800000000E+00  0.93800000000E+00 0. -1.
         11    1    1    2    0    0  0.45414297426E-01  0.29355775935E-01  0.50924199729E+00  0.51210535334E+00  0.51100000000E-03 0.  1.
    9000002    1    1    2    0    0 -0.30348027793E+00 -0.29587626422E+00  0.12171254370E+00  0.10364849184E+01  0.93800000000E+00 0. -1.
         22    1    1    2    0    0  0.25806598050E+00  0.26652048829E+00  0.33690454264E+01  0.33894097282E+01  0.00000000000E+00 0.  1.
</event>
<event>
 5    1  0.6564536E+001  0.1598371E+01  0.7818608E-02  0.3355134E+00
         11   -1    0    0    0    0  0.00000000000E+00  0.00000000000E+00  0.39999999674E+01  0.40000000000E+01  0.51100000000E-03 0.  1.
    9000002   -1    0    0    0    0 -0.00000000000E+00 -0.00000000000E+00  0.00000000000E+00  0.93800000000E+00  0.93800000000E+00 0.  1.
         11    1    1    2    0    0 -0.52721612000E-01 -0.71937899680E-01  0.38338278385E+00  0.39362069287E+00  0.51100000000E-03 0.  1.
    9000002    1    1    2    0    0  0.29304830223E+00  0.55637998106E+00  0.27900161594E+00  0.11632376767E+01  0.93800000000E+00 0.  1.
         22    1    1    2    0    0 -0.24032669023E+00 -0.48444208138E+00  0.33376155676E+01  0.33811416304E+01  0.00000000000E+00 0.  1.
</event>
<event>
 5    1  0.6564536E+001  0.1587809E+01  0.7818608E-02  0.3366702E+00
         11   -1    0    0    0    0  0.00000000000E+00  0.00000000000E+00  0.39999999674E+01  0.40000000000E+01  0.51100000000E-03 0. -1.
    9000002   -1    0    0    0    0 -0.00000000000E+00 -0.00000000000E+00  0.00000000000E+00  0.93800000000E+00  0.93800000000E+00 0. -1.
         11    1    1    2    0    0 -0.47747459057E-01  0.81373429414E-02  0.45904642964E+00  0.46159497602E+00  0.51100000000E-03 0. -1.
    9000002    1    1    2    0    0 -0.31068309295E+00 -0.24621869820E-01  0.74274671008E-01  0.99120681367E+00  0.93800000000E+00 0. -1.
         22    1    1    2    0    0  0.35843055201E+00  0.16484526878E-01  0.34666788667E+01  0.34851982103E+01  0.00000000000E+00 0. -1.
</event>
<event>
 5    1  0.6564536E+001  0.1599567E+01  0.7818608E-02  0.3353833E+00
         11   -1    0    0    0    0  0.00000000000E+00  0.00000000000E+00  0.39999999674E+01  0.40000000000E+01  0.51100000000E-03 0. -1.
    9000002   -1    0    0    0    0 -0.00000000000E+00 -0.00000000000E+00  0.00000000000E+00  0.93800000000E+00  0.93800000000E+00 0.  1.
         11    1    1    2    0    0  0.63388474249E-01  0.74707997161E-01  0.11358229539E+01  0.11400409762E+01  0.51100000000E-03 0. -1.
    9000002    1    1    2    0    0 -0.25349529692E+00 -0.23912030080E+00  0.81500406818E-01  0.10039545309E+01  0.93800000000E+00 0.  1.
         22    1    1    2    0    0  0.19010682267E+00  0.16441230364E+00  0.27826766066E+01  0.27940044929E+01  0.00000000000E+00 0. -1.
</event>
<event>
 5    1  0.6564536E+001  0.1599672E+01  0.7818608E-02  0.3353719E+00
         11   -1    0    0    0    0  0.00000000000E+00  0.00000000000E+00  0.39999999674E+01  0.40000000000E+01  0.51100000000E-03 0.  1.
    9000002   -1    0    0    0    0 -0.00000000000E+00 -0.00000000000E+00  0.00000000000E+00  0.93800000000E+00  0.93800000000E+00 0. -1.
         11    1    1    2    0    0  0.11356283940E+00 -0.94298893335E-01  0.13622052231E+01  0.13701795980E+01  0.51100000000E-03 0.  1.
    9000002    1    1    2    0    0 -0.33033691176E+00  0.26962568344E+00  0.12307812201E+00  0.10376958652E+01  0.93800000000E+00 0. -1.
         22    1    1    2    0    0  0.21677407236E+00 -0.17532679011E+00  0.25147166222E+01  0.25301245369E+01  0.00000000000E+00 0.  1.
</event>
<event>
 5    1  0.6564536E+001  0.1581033E+01  0.7818608E-02  0.3374211E+00
         11   -1    0    0    0    0  0.00000000000E+00  0.00000000000E+00  0.39999999674E+01  0.40000000000E+01  0.51100000000E-03 0. -1.
    9000002   -1    0    0    0    0 -0.00000000000E+00 -0.00000000000E+00  0.00000000000E+00  0.93800000000E+00  0.93800000000E+00 0.  1.
         11    1    1    2    0    0 -0.52491326149E-01 -0.45734693291E-01  0.92212321158E+00  0.92474779261E+00  0.51100000000E-03 0. -1.
    9000002    1    1    2    0    0 -0.36767352787E+00  0.18619928470E+00  0.13056893533E+00  0.10328340833E+01  0.93800000000E+00 0.  1.
         22    1    1    2    0    0  0.42016485402E+00 -0.14046459141E+00  0.29473078204E+01  0.29804181241E+01  0.00000000000E+00 0. -1.
</event>
<event>
 5    1  0.6564536E+001  0.1599674E+01  0.7818608E-02  0.3353718E+00
         11   -1    0    0    0    0  0.00000000000E+00  0.00000000000E+00  0.39999999674E+01  0.40000000000E+01  0.51100000000E-03 0. -1.
    9000002   -1    0    0    0    0 -0.00000000000E+00 -0.00000000000E+00  0.00000000000E+00  0.93800000000E+00  0.93800000000E+00 0. -1.
         11    1    1    2    0    0  0.56973240593E-02  0.58968609499E-02  0.73386648170E-01  0.73845065652E-01  0.51100000000E-03 0.  1.
    9000002    1    1    2    0    0 -0.28868151432E+00 -0.32356066814E+00  0.12740738624E+00  0.10412037095E+01  0.93800000000E+00 0. -1.
         22    1    1    2    0    0  0.28298419026E+00  0.31766380719E+00  0.37992059330E+01  0.38229512248E+01  0.00000000000E+00 0. -1.
</event>
<event>
 5    1  0.6564536E+001  0.1598947E+01  0.7818608E-02  0.3354507E+00
         11   -1    0    0    0    0  0.00000000000E+00  0.00000000000E+00  0.39999999674E+01  0.40000000000E+01  0.51100000000E-03 0.  1.
    9000002   -1    0    0    0    0 -0.00000000000E+00 -0.00000000000E+00  0.00000000000E+00  0.93800000000E+00  0.93800000000E+00 0.  1.
         11    1    1    2    0    0 -0.17620521619E-01 -0.81078010954E-01  0.55444565134E+00  0.56061962867E+00  0.51100000000E-03 0.  1.
    9000002    1    1    2    0    0  0.39660415951E-01  0.42975905957E+00  0.12679543039E+00  0.10402821151E+01  0.93800000000E+00 0.  1.
         22    1    1    2    0    0 -0.22039894332E-01 -0.34868104862E+00  0.33187588856E+01  0.33370982562E+01  0.00000000000E+00 0.  1.
</event>
<event>
 5    1  0.6564536E+001  0.1592210E+01  0.7818608E-02  0.3361862E+00
         11   -1    0    0    0    0  0.00000000000E+00  0.00000000000E+00  0.39999999674E+01  0.40000000000E+01  0.51100000000E-03 0.  1.
    9000002   -1    0    0    0    0 -0.00000000000E+00 -0.00000000000E+00  0.00000000000E+00  0.93800000000E+00  0.93800000000E+00 0.  1.
         11    1    1    2    0    0 -0.44758577818E-02 -0.34676465971E-01  0.41543076607E+00  0.41689983583E+00  0.51100000000E-03 0.  1.
    9000002    1    1    2    0    0 -0.18928047846E+00 -0.23070137816E+00  0.65260210330E-01  0.98648523580E+00  0.93800000000E+00 0.  1.
         22    1    1    2    0    0  0.19375633624E+00  0.26537784413E+00  0.35193089910E+01  0.35346149284E+01  0.00000000000E+00 0.  1.
</event>
<event>
 5    1  0.6564536E+001  0.1599654E+01  0.7818608E-02  0.3353739E+00
         11   -1    0    0    0    0  0.00000000000E+00  0.00000000000E+00  0.39999999674E+01  0.40000000000E+01  0.51100000000E-03 0. -1.
    9000002   -1    0    0    0    0 -0.00000000000E+00 -0.00000000000E+00  0.00000000000E+00  0.93800000000E+00  0.93800000000E+00 0. -1.
         11    1    1    2    0    0  0.47260373117E-01 -0.33594398691E-02  0.51284155879E+00  0.51502578018E+00  0.51100000000E-03 0. -1.
    9000002    1    1    2    0    0 -0.38151957974E+00  0.60947216121E-02  0.97998919596E-01  0.10173701999E+01  0.93800000000E+00 0. -1.
         22    1    1    2    0    0  0.33425920662E+00 -0.27352817429E-02  0.33891594890E+01  0.34056040199E+01  0.00000000000E+00 0. -1.
</event>
<event>
 5    1  0.6564536E+001  0.1598569E+01  0.7818608E-02  0.3354918E+00
         11   -1    0    0    0    0  0.00000000000E+00  0.00000000000E+00  0.39999999674E+01  0.40000000000E+01  0.51100000000E-03 0.  1.
    9000002   -1    0    0    0    0 -0.00000000000E+00 -0.00000000000E+00  0.00000000000E+00  0.93800000000E+00  0.93800000000E+00 0.  1.
         11    1    1    2    0    0 -0.20735299502E+00  0.13679036809E+00  0.12387259683E+01  0.12633879669E+01  0.51100000000E-03 0.  1.
    9000002    1    1    2    0    0  0.69520107735E+00 -0.41678871559E+00  0.48719236976E+00  0.13319976639E+01  0.93800000000E+00 0.  1.
         22    1    1    2    0    0 -0.48784808233E+00  0.27999834750E+00  0.22740816293E+01  0.23426143692E+01  0.00000000000E+00 0.  1.
</event>
<event>
 5    1  0.6564536E+001  0.1599254E+01  0.7818608E-02  0.3354173E+00
         11   -1    0    0    0    0  0.00000000000E+00  0.00000000000E+00  0.39999999674E+01  0.40000000000E+01  0.51100000000E-03 0. -1.
    9000002   -1    0    0    0    0 -0.00000000000E+00 -0.00000000000E+00  0.00000000000E+00  0.93800000000E+00  0.93800000000E+00 0.  1.
         11    1    1    2    0    0 -0.73627754669E-01 -0.13035020599E+00  0.10061717653E+01  0.10172483005E+01  0.51100000000E-03 0. -1.
    9000002    1    1    2    0    0  0.35370134476E+00  0.50088996031E+00  0.26350976630E+00  0.11512066672E+01  0.93800000000E+00 0.  1.
         22    1    1    2    0    0 -0.28007359009E+00 -0.37053975432E+00  0.27303184357E+01  0.27695450323E+01  0.00000000000E+00 0. -1.
</event>
<event>
 5    1  0.6972071E+001  0.1591807E+01  0.7818608E-02  0.3362304E+00
         11   -1    0    0    0    0  0.00000000000E+00  0.00000000000E+00  0.39999999674E+01  0.40000000000E+01  0.51100000000E-03 0. -1.
    9000002   -1    0    0    0    0 -0.00000000000E+00 -0.00000000000E+00  0.00000000000E+00  0.93800000000E+00  0.93800000000E+00 0.  1.
         11    1    1    2    0    0 -0.19486406843E-02  0.68003896932E-01  0.14394707122E+01  0.14410775550E+01  0.51100000000E-03 0. -1.
    9000002    1    1    2    0    0  0.27305662982E+00 -0.99074522788E-01  0.62393888076E-01  0.98392717283E+00  0.93800000000E+00 0.  1.
         22    1    1    2    0    0 -0.27110798914E+00  0.31070625856E-01  0.24981353671E+01  0.25129952722E+01  0.00000000000E+00 0. -1.
</event>
<event>
 5    1  0.6564536E+001  0.1599677E+01  0.7818608E-02  0.3353715E+00
         11   -1    0    0    0    0  0.00000000000E+00  0.00000000000E+00  0.39999999674E+01  0.40000000000E+01  0.51100000000E-03 0. -1.
    9000002   -1    0    0    0    0 -0.00000000000E+00 -0.00000000000E+00  0.00000000000E+00  0.93800000000E+00  0.93800000000E+00 0. -1.
         11    1    1    2    0    0  0.96248979618E-01  0.44130116677E-01  0.11184195459E+01  0.11234206136E+01  0.51100000000E-03 0. -1.
    9000002    1    1    2    0    0 -0.33406379347E+00 -0.15533325623E+00  0.91197244779E-01  0.10118734980E+01  0.93800000000E+00 0. -1.
         22    1    1    2    0    0  0.23781481385E+00  0.11120313956E+00  0.27903831767E+01  0.28027058883E+01  0.00000000000E+00 0. -1.
</event>
<event>
 5    1  0.6564536E+001  0.1599624E+01  0.7818608E-02  0.3353771E+00
         11   -1    0    0    0    0  0.00000000000E+00  0.00000000000E+00  0.39999999674E+01  0.40000000000E+01  0.51100000000E-03 0. -1.
    9000002   -1    0    0    0    0 -0.00000000000E+00 -0.00000000000E+00  0.00000000000E+00  0.93800000000E+00  0.93800000000E+00 0.  1.
         11    1    1    2    0    0 -0.66152860606E-01 -0.10531414217E+00  0.91856124522E+00  0.92694244258E+00  0.51100000000E-03 0. -1.
    9000002    1    1    2    0    0  0.28652045255E+00  0.40968936415E+00  0.17114335853E+00  0.10766027094E+01  0.93800000000E+00 0.  1.
         22    1    1    2    0    0 -0.22036759194E+00 -0.30437522198E+00  0.29102953636E+01  0.29344548480E+01  0.00000000000E+00 0. -1.
</event>
<event>
 5    1  0.6564536E+001  0.1578166E+01  0.7818608E-02  0.3377408E+00
         11   -1    0    0    0    0  0.00000000000E+00  0.00000000000E+00  0.39999999674E+01  0.40000000000E+01  0.51100000000E-03 0. -1.
    9000002   -1    0    0    0    0 -0.00000000000E+00 -0.00000000000E+00  0.00000000000E+00  0.93800000000E+00  0.93800000000E+00 0. -1.
         11    1    1    2    0    0 -0.45568860334E-01 -0.23383890254E+00  0.12528222308E+01  0.12752728949E+01  0.51100000000E-03 0. -1.
    9000002    1    1    2    0    0 -0.24506794029E+00  0.38520455612E+00  0.16062854112E+00  0.10555029008E+01  0.93800000000E+00 0. -1.
         22    1    1    2    0    0  0.29063680062E+00 -0.15136565358E+00  0.25865491955E+01  0.26072242043E+01  0.00000000000E+00 0. -1.
</event>
<event>
 5    1  0.6564536E+001  0.1577902E+01  0.7818608E-02  0.3377703E+00
         11   -1    0    0    0    0  0.00000000000E+00  0.00000000000E+00  0.39999999674E+01  0.40000000000E+01  0.51100000000E-03 0. -1.
    9000002   -1    0    0    0    0 -0.00000000000E+00 -0.00000000000E+00  0.00000000000E+00  0.93800000000E+00  0.93800000000E+00 0.  1.
         11    1    1    2    0    0 -0.76114680850E-01  0.14419497223E-01  0.34109790971E+00  0.34978480766E+00  0.51100000000E-03 0. -1.
    9000002    1    1    2    0    0 -0.27819291146E+00 -0.18299570271E+00  0.91773697373E-01  0.99957247597E+00  0.93800000000E+00 0.  1.
         22    1    1    2    0    0  0.35430759231E+00  0.16857620549E+00  0.35671283603E+01  0.35886427164E+01  0.00000000000E+00 0. -1.
</event>
<event>
 5    1  0.6564536E+001  0.1599676E+01  0.7818608E-02  0.3353715E+00
         11   -1    0    0    0    0  0.00000000000E+00  0.00000000000E+00  0.39999999674E+01  0.40000000000E+01  0.51100000000E-03 0. -1.
    9000002   -1    0    0    0    0 -0.00000000000E+00 -0.00000000000E+00  0.00000000000E+00  0.93800000000E+00  0.93800000000E+00 0. -1.
         11    1    1    2    0    0 -0.44100250352E-01  0.71326681111E-01  0.62630451992E+00  0.63189393122E+00  0.51100000000E-03 0. -1.
    9000002    1    1    2    0    0  0.26642097455E+00 -0.44031170409E+00  0.18176350195E+00  0.10852356901E+01  0.93800000000E+00 0. -1.
         22    1    1    2    0    0 -0.22232072419E+00  0.36898502298E+00  0.31919319455E+01  0.32208703787E+01  0.00000000000E+00 0. -1.
</event>
<event>
 5    1  0.6564536E+001  0.1599660E+01  0.7818608E-02  0.3353732E+00
         11   -1    0    0    0    0  0.00000000000E+00  0.00000000000E+00  0.39999999674E+01  0.40000000000E+01  0.51100000000E-03 0. -1.
    9000002   -1    0    0    0    0 -0.00000000000E+00 -0.00000000000E+00  0.00000000000E+00  0.93800000000E+00  0.93800000000E+00 0. -1.
         11    1    1    2    0    0 -0.10757306156E+00 -0.68016969274E-02  0.11360071026E+01  0.11411093834E+01  0.51100000000E-03 0. -1.
    9000002    1    1    2    0    0  0.35918424960E+00  0.13134164872E-01  0.86725307408E-01  0.10082415933E+01  0.93800000000E+00 0. -1.
         22    1    1    2    0    0 -0.25161118804E+00 -0.63324679446E-02  0.27772675574E+01  0.27886490233E+01  0.00000000000E+00 0. -1.
</event>
<event>
 5    1  0.6564536E+001  0.1589441E+01  0.7818608E-02  0.3364904E+00
         11   -1    0    0    0    0  0.00000000000E+00  0.00000000000E+00  0.39999999674E+01  0.40000000000E+01  0.51100000000E-03 0.  1.
    9000002   -1    0    0    0    0 -0.00000000000E+00 -0.00000000000E+00  0.00000000000E+00  0.93800000000E+00  0.93800000000E+00 0. -1.
         11    1    1    2    0    0  0.63150560704E-01 -0.61050886285E-01  0.65116053545E+00  0.65705822275E+00  0.51100000000E-03 0.  1.
    9000002    1    1    2    0    0 -0.33663707751E+00 -0.17676076928E+00  0.10572506477E+00  0.10176397599E+01  0.93800000000E+00 0. -1.
         22    1    1    2    0    0  0.27348651680E+00  0.23781165557E+00  0.32431143671E+01  0.32633020174E+01  0.00000000000E+00 0.  1.
</event>
<event>
 5    1  0.7278296E+001  0.1577384E+01  0.7818608E-02  0.3378281E+00
         11   -1    0    0    0    0  0.00000000000E+00  0.00000000000E+00  0.39999999674E+01  0.40000000000E+01  0.51100000000E-03 0.  1.
    9000002   -1    0    0    0    0 -0.00000000000E+00 -0.00000000000E+00  0.00000000000E+00  0.93800000000E+00  0.93800000000E+00 0. -1.
         11    1    1    2    0    0 -0.64010006326E-01 -0.78634864593E-01  0.65400723495E+00  0.66182055523E+00  0.51100000000E-03 0.  1.
    9000002    1    1    2    0    0 -0.51952345873E-01 -0.20234803337E+00  0.45859270661E-01  0.96207632003E+00  0.93800000000E+00 0. -1.
         22    1    1    2    0    0  0.11596235220E+00  0.28098289796E+00  0.33001334618E+01  0.33141031247E+01  0.00000000000E+00 0.  1.
</event>
<event>
 5    1  0.6564536E+001  0.1599676E+01  0.7818608E-02  0.3353715E+00
         11   -1    0    0    0    0  0.00000000000E+00  0.00000000000E+00  0.39999999674E+01  0.40000000000E+01  0.51100000000E-03 0.  1.
    9000002   -1    0    0    0    0 -0.00000000000E+00 -0.00000000000E+00  0.00000000000E+00  0.93800000000E+00  0.93800000000E+00 0. -1.
         11    1    1    2    0    0  0.42867607160E-01  0.23985566449E-01  0.49167777847E+00  0.49412573107E+00  0.51100000000E-03 0.  1.
    9000002    1    1    2    0    0 -0.34313744195E+00 -0.18991334577E+00  0.10364579130E+00  0.10219573538E+01  0.93800000000E+00 0. -1.
         22    1    1    2    0    0  0.30026983479E+00  0.16592777933E+00  0.34046763976E+01  0.34219169151E+01  0.00000000000E+00 0.  1.
</event>
<event>
 5    1  0.6564536E+001  0.1599100E+01  0.7818608E-02  0.3354341E+00
         11   -1    0    0    0    0  0.00000000000E+00  0.00000000000E+00  0.39999999674E+01  0.40000000000E+01  0.51100000000E-03 0. -1.
    9000002   -1    0    0    0    0 -0.00000000000E+00 -0.00000000000E+00  0.00000000000E+00  0.93800000000E+00  0.93800000000E+00 0.  1.
         11    1    1    2    0    0 -0.19909074528E-01  0.11586231299E+00  0.11706035167E+01  0.11764919469E+01  0.51100000000E-03 0. -1.
    9000002    1    1    2    0    0  0.14068638006E+00 -0.33877276530E+00  0.90865514530E-01  0.10112666245E+01  0.93800000000E+00 0.  1.
         22    1    1    2    0    0 -0.12077730553E+00  0.22291045231E+00  0.27385309361E+01  0.27502414286E+01  0.00000000000E+00 0. -1.
</event>
<event>
 5    1  0.6564536E+001  0.1599675E+01  0.7818608E-02  0.3353717E+00
         11   -1    0    0    0    0  0.00000000000E+00  0.00000000000E+00  0.39999999674E+01  0.40000000000E+01  0.51100000000E-03 0.  1.
    9000002   -1    0    0    0    0 -0.00000000000E+00 -0.00000000000E+00  0.00000000000E+00  0.93800000000E+00  0.93800000000E+00 0. -1.
         11    1    1    2    0    0 -0.69617089362E-01 -0.51984505022E-01  0.78280800128E+00  0.78761510643E+00  0.51100000000E-03 0.  1.
    9000002    1    1    2    0    0  0.33848693155E+00  0.26141794958E+00  0.12383740974E+00  0.10383123091E+01  0.93800000000E+00 0. -1.
         22    1    1    2    0    0 -0.26886984219E+00 -0.20943344456E+00  0.30933545563E+01  0.31120725845E+01  0.00000000000E+00 0.  1.
</event>
<event>
 5    1  0.6795240E+001  0.1599653E+01  0.7818608E-02  0.3353740E+00
         11   -1    0    0    0    0  0.00000000000E+00  0.00000000000E+00  0.39999999674E+01  0.40000000000E+01  0.51100000000E-03 0.  1.
    9000002   -1    0    0    0    0 -0.00000000000E+00 -0.00000000000E+00  0.00000000000E+00  0.93800000000E+00  0.93800000000E+00 0.  1.
         11    1    1    2    0    0  0.10098767294E+00 -0.58731824237E-01  0.13541553448E+01  0.13591853796E+01  0.51100000000E-03 0. -1.
    9000002    1    1    2    0    0 -0.30809150849E+00  0.16620824884E+00  0.82188195316E-01  0.10045618244E+01  0.93800000000E+00 0.  1.
         22    1    1    2    0    0  0.20710383556E+00 -0.10747642461E+00  0.25636564273E+01  0.25742527960E+01  0.00000000000E+00 0.  1.
</event>
<event>
 5    1  0.6564536E+001  0.1599596E+01  0.7818608E-02  0.3353802E+00
         11   -1    0    0    0    0  0.00000000000E+00  0.00000000000E+00  0.39999999674E+01  0.40000000000E+01  0.51100000000E-03 0. -1.
    9000002   -1    0    0    0    0 -0.00000000000E+00 -0.00000000000E+00  0.00000000000E+00  0.93800000000E+00  0.93800000000E+00 0. -1.
         11    1    1    2    0    0  0.13634574735E-01 -0.20448900343E+00  0.10813384388E+01  0.11005883583E+01  0.51100000000E-03 0. -1.
    9000002    1    1    2    0    0 -0.20505677000E-01  0.70997165938E+00  0.36164030523E+00  0.12308972135E+01  0.93800000000E+00 0. -1.
         22    1    1    2    0    0  0.68711022649E-02 -0.50548265595E+00  0.25570212233E+01  0.26065144281E+01  0.00000000000E+00 0. -1.
</event>
<event>
 5    1  0.6564536E+001  0.1567286E+01  0.7818608E-02  0.3389653E+00
         11   -1    0    0    0    0  0.00000000000E+00  0.00000000000E+00  0.39999999674E+01  0.40000000000E+01  0.51100000000E-03 0.  1.
    9000002   -1    0    0    0    0 -0.00000000000E+00 -0.00000000000E+00  0.00000000000E+00  0.93800000000E+00  0.93800000000E+00 0.  1.
         11    1    1    2    0    0  0.41201248572E-01  0.11794185886E+00  0.95982029664E+00  0.96791688069E+00  0.51100000000E-03 0.  1.
    9000002    1    1    2    0    0  0.23914681919E+00  0.16057918381E+00  0.80932977483E-01  0.98456641332E+00  0.93800000000E+00 0.  1.
         22    1    1    2    0    0 -0.28034806776E+00 -0.27852104267E+00  0.29592466932E+01  0.29855167060E+01  0.00000000000E+00 0.  1.
</event>
<event>
 5    1  0.6564536E+001  0.1521460E+01  0.7818608E-02  0.3443284E+00
         11   -1    0    0    0    0  0.00000000000E+00  0.00000000000E+00  0.39999999674E+01  0.40000000000E+01  0.51100000000E-03 0.  1.
    9000002   -1    0    0    0    0 -0.00000000000E+00 -0.00000000000E+00  0.00000000000E+00  0.93800000000E+00  0.93800000000E+00 0. -1.
         11    1    1    2    0    0  0.33448825610E+00  0.20599686570E+00  0.13831874094E+01  0.14378889987E+01  0.51100000000E-03 0.  1.
    9000002    1    1    2    0    0 -0.83586521484E-01 -0.27136768645E+00  0.11712225939E+00  0.98701000576E+00  0.93800000000E+00 0. -1.
         22    1    1    2    0    0 -0.25090173462E+00  0.65370820757E-01  0.24996902986E+01  0.25131009955E+01  0.00000000000E+00 0. -1.
</event>
<event>
 5    1  0.6564536E+001  0.1599648E+01  0.7818608E-02  0.3353745E+00
         11   -1    0    0    0    0  0.00000000000E+00  0.00000000000E+00  0.39999999674E+01  0.40000000000E+01  0.51100000000E-03 0. -1.
    9000002   -1    0    0    0    0 -0.00000000000E+00 -0.00000000000E+00  0.00000000000E+00  0.93800000000E+00  0.93800000000E+00 0. -1.
         11    1    1    2    0    0 -0.24337194831E-01 -0.13931197690E-01  0.28617067279E+00  0.28754180984E+00  0.51100000000E-03 0. -1.
    9000002    1    1    2    0    0  0.35218970412E+00  0.14924694362E+00  0.98498426760E-01  0.10177711815E+01  0.93800000000E+00 0. -1.
         22    1    1    2    0    0 -0.32785250929E+00 -0.13531574593E+00  0.36153308678E+01  0.36326870086E+01  0.00000000000E+00 0. -1.
</event>
<event>
 5    1  0.6564536E+001  0.1581018E+01  0.7818608E-02  0.3374228E+00
         11   -1    0    0    0    0  0.00000000000E+00  0.00000000000E+00  0.39999999674E+01  0.40000000000E+01  0.51100000000E-03 0.  1.
    9000002   -1    0    0    0    0 -0.00000000000E+00 -0.00000000000E+00  0.00000000000E+00  0.93800000000E+00  0.93800000000E+00 0. -1.
         11    1    1    2    0    0 -0.40023182140E-01  0.17349406213E+00  0.12121923645E+01  0.12251990183E+01  0.51100000000E-03 0.  1.
    9000002    1    1    2    0    0 -0.25315882685E+00 -0.25177987797E+00  0.10079230155E+00  0.10087049056E+01  0.93800000000E+00 0. -1.
         22    1    1    2    0    0  0.29318200899E+00  0.78285815839E-01  0.26870153013E+01  0.27040960761E+01  0.00000000000E+00 0. -1.
</event>
<event>
 5    1  0.6564536E+001  0.1599641E+01  0.7818608E-02  0.3353754E+00
         11   -1    0    0    0    0  0.00000000000E+00  0.00000000000E+00  0.39999999674E+01  0.40000000000E+01  0.51100000000E-03 0. -1.
    9000002   -1    0    0    0    0 -0.00000000000E+00 -0.00000000000E+00  0.00000000000E+00  0.93800000000E+00  0.93800000000E+00 0.  1.
         11    1    1    2    0    0 -0.19378355010E+00  0.11350734010E+00  0.10378216926E+01  0.10618427884E+01  0.51100000000E-03 0. -1.
    9000002    1    1    2    0    0  0.65784201818E+00 -0.41095210293E+00  0.43968368752E+00  0.12941419925E+01  0.93800000000E+00 0.  1.
         22    1    1    2    0    0 -0.46405846808E+00  0.29744476284E+00  0.25224945872E+01  0.25820152191E+01  0.00000000000E+00 0. -1.
</event>
<event>
 5    1  0.6577698E+001  0.1597718E+01  0.7818608E-02  0.3355844E+00
         11   -1    0    0    0    0  0.00000000000E+00  0.00000000000E+00  0.39999999674E+01  0.40000000000E+01  0.51100000000E-03 0. -1.
    9000002   -1    0    0    0    0 -0.00000000000E+00 -0.00000000000E+00  0.00000000000E+00  0.93800000000E+00  0.93800000000E+00 0. -1.
         11    1    1    2    0    0 -0.29132135377E-01 -0.19412897863E+00  0.13576015170E+01  0.13717204095E+01  0.51100000000E-03 0. -1.
    9000002    1    1    2    0    0  0.18016479914E-01  0.42375071135E+00  0.12338916627E+00  0.10368018833E+01  0.93800000000E+00 0. -1.
         22    1    1    2    0    0  0.11115655463E-01 -0.22962173273E+00  0.25190092841E+01  0.25294777072E+01  0.00000000000E+00 0. -1.
</event>
<event>
 5    1  0.6564536E+001  0.1599664E+01  0.7818608E-02  0.3353728E+00
         11   -1    0    0    0    0  0.00000000000E+00  0.00000000000E+00  0.39999999674E+01  0.40000000000E+01  0.51100000000E-03 0.  1.
    9000002   -1    0    0    0    0 -0.00000000000E+00 -0.00000000000E+00  0.00000000000E+00  0.93800000000E+00  0.93800000000E+00 0. -1.
         11    1    1    2    0    0 -0.30822279386E-01  0.61720637175E-01  0.60886989276E+00  0.61276607069E+00  0.51100000000E-03 0.  1.
    9000002    1    1    2    0    0  0.19892649439E+00 -0.41096573614E+00  0.14173596134E+00  0.10528046681E+01  0.93800000000E+00 0. -1.
         22    1    1    2    0    0 -0.16810421500E+00  0.34924509897E+00  0.32493941133E+01  0.32724292612E+01  0.00000000000E+00 0.  1.
</event>
<event>
 5    1  0.6564536E+001  0.1599457E+01  0.7818608E-02  0.3353953E+00
         11   -1    0    0    0    0  0.00000000000E+00  0.00000000000E+00  0.39999999674E+01  0.40000000000E+01  0.51100000000E-03 0. -1.
    9000002   -1    0    0    0    0 -0.00000000000E+00 -0.00000000000E+00  0.00000000000E+00  0.93800000000E+00  0.93800000000E+00 0.  1.
         11    1    1    2    0    0  0.50298118318E-01 -0.98563676864E-01  0.11326492832E+01  0.11380418968E+01  0.51100000000E-03 0. -1.
    9000002    1    1    2    0    0 -0.11863145197E+00  0.35071062444E+00  0.92299511471E-01  0.10126374293E+01  0.93800000000E+00 0.  1.
         22    1    1    2    0    0  0.68333333648E-01 -0.25214694757E+00  0.27750511727E+01  0.27873206738E+01  0.00000000000E+00 0. -1.
</event>
<event>
 5    1  0.6564536E+001  0.1504682E+01  0.7818608E-02  0.3463794E+00
         11   -1    0    0    0    0  0.00000000000E+00  0.00000000000E+00  0.39999999674E+01  0.40000000000E+01  0.51100000000E-03 0. -1.
    9000002   -1    0    0    0    0 -0.00000000000E+00 -0.00000000000E+00  0.00000000000E+00  0.93800000000E+00  0.93800000000E+00 0. -1.
         11    1    1    2    0    0 -0.10158065144E+00  0.17251245785E+00  0.32657756971E+00  0.38305658462E+00  0.51100000000E-03 0. -1.
    9000002    1    1    2    0    0  0.70245587896E-01  0.19281745533E+00  0.10294615227E+00  0.96568883393E+00  0.93800000000E+00 0. -1.
         22    1    1    2    0    0  0.31335063545E-01 -0.36532991319E+00  0.35704762454E+01  0.35892545815E+01  0.00000000000E+00 0. -1.
</event>
<event>
 5    1  0.6564536E+001  0.1599673E+01  0.7818608E-02  0.3353718E+00
         11   -1    0    0    0    0  0.00000000000E+00  0.00000000000E+00  0.39999999674E+01  0.40000000000E+01  0.51100000000E-03 0. -1.
    9000002   -1    0    0    0    0 -0.00000000000E+00 -0.00000000000E+00  0.00000000000E+00  0.93800000000E+00  0.93800000000E+00 0. -1.
         11    1    1    2    0    0 -0.10774358864E+00 -0.47812649089E-01  0.80290127896E+00  0.81150813624E+00  0.51100000000E-03 0. -1.
    9000002    1    1    2    0    0  0.51232930094E+00  0.21762605770E+00  0.21428393790E+00  0.11115772666E+01  0.93800000000E+00 0. -1.
         22    1    1    2    0    0 -0.40458571230E+00 -0.16981340861E+00  0.29828147505E+01  0.30149145972E+01  0.00000000000E+00 0. -1.
</event>
<event>
 5    1  0.6564536E+001  0.1599647E+01  0.7818608E-02  0.3353746E+00
         11   -1    0    0    0    0  0.00000000000E+00  0.00000000000E+00  0.39999999674E+01  0.40000000000E+01  0.51100000000E-03 0. -1.
    9000002   -1    0    0    0    0 -0.00000000000E+00 -0.00000000000E+00  0.00000000000E+00  0.93800000000E+00  0.93800000000E+00 0. -1.
         11    1    1    2    0    0  0.12553068190E+00  0.27041575586E-01  0.13173372161E+01  0.13235810519E+01  0.51100000000E-03 0. -1.
    9000002    1    1    2    0    0 -0.38184193561E+00 -0.64796437144E-01  0.10104202625E+00  0.10198310317E+01  0.93800000000E+00 0. -1.
         22    1    1    2    0    0  0.25631125371E+00  0.37754861558E-01  0.25816207251E+01  0.25945879165E+01  0.00000000000E+00 0. -1.
</event>
<event>
 5    1  0.6564536E+001  0.1598926E+01  0.7818608E-02  0.3354530E+00
         11   -1    0    0    0    0  0.00000000000E+00  0.00000000000E+00  0.39999999674E+01  0.40000000000E+01  0.51100000000E-03 0.  1.
    9000002   -1    0    0    0    0 -0.00000000000E+00 -0.00000000000E+00  0.00000000000E+00  0.93800000000E+00  0.93800000000E+00 0. -1.
         11    1    1    2    0    0  0.35588342716E-01  0.21374628234E+00  0.13251984020E+01  0.13427974788E+01  0.51100000000E-03 0.  1.
    9000002    1    1    2    0    0 -0.14914364471E+00 -0.66489417352E+00  0.33104548301E+00  0.12057210293E+01  0.93800000000E+00 0. -1.
         22    1    1    2    0    0  0.11355530199E+00  0.45114789118E+00  0.23437560823E+01  0.23894814918E+01  0.00000000000E+00 0.  1.
</event>
<event>
 5    1  0.6564536E+001  0.1599669E+01  0.7818608E-02  0.3353722E+00
         11   -1    0    0    0    0  0.00000000000E+00  0.00000000000E+00  0.39999999674E+01  0.40000000000E+01  0.51100000000E-03 0.  1.
    9000002   -1    0    0    0    0 -0.00000000000E+00 -0.00000000000E+00  0.00000000000E+00  0.93800000000E+00  0.93800000000E+00 0.  1.
         11    1    1    2    0    0 -0.94739931469E-01 -0.21571210978E-01  0.73642876389E+00  0.74281125272E+00  0.51100000000E-03 0.  1.
    9000002    1    1    2    0    0  0.50466839063E+00  0.11088389066E+00  0.18329779432E+00  0.10864748056E+01  0.93800000000E+00 0.  1.
         22    1    1    2    0    0 -0.40992845916E+00 -0.89312679682E-01  0.30802734091E+01  0.31087139417E+01  0.00000000000E+00 0.  1.
</event>
<event>
 5    1  0.6564536E+001  0.1599677E+01  0.7818608E-02  0.3353714E+00
         11   -1    0    0    0    0  0.00000000000E+00  0.00000000000E+00  0.39999999674E+01  0.40000000000E+01  0.51100000000E-03 0.  1.
    9000002   -1    0    0    0    0 -0.00000000000E+00 -0.00000000000E+00  0.00000000000E+00  0.93800000000E+00  0.93800000000E+00 0. -1.
         11    1    1    2    0    0 -0.49773453297E-01 -0.17997087806E+00  0.14464322472E+01  0.14584352644E+01  0.51100000000E-03 0.  1.
    9000002    1    1    2    0    0  0.13155731127E+00  0.47634102366E+00  0.16701194979E+00  0.10732870484E+01  0.93800000000E+00 0. -1.
         22    1    1    2    0    0 -0.81783857968E-01 -0.29637014560E+00  0.23865557703E+01  0.24062776871E+01  0.00000000000E+00 0.  1.
</event>
<event>
 5    1  0.6564536E+001  0.1531872E+01  0.7818608E-02  0.3430797E+00
         11   -1    0    0    0    0  0.00000000000E+00  0.00000000000E+00  0.39999999674E+01  0.40000000000E+01  0.51100000000E-03 0. -1.
    9000002   -1    0    0    0    0 -0.00000000000E+00 -0.00000000000E+00  0.00000000000E+00  0.93800000000E+00  0.93800000000E+00 0.  1.
         11    1    1    2    0    0 -0.10989337829E+00  0.81070738668E-01  0.23807808865E+00  0.27446394422E+00  0.51100000000E-03 0. -1.
    9000002    1    1    2    0    0 -0.24199935656E+00  0.14297806706E+00  0.10717368915E+00  0.98505665618E+00  0.93800000000E+00 0.  1.
         22    1    1    2    0    0  0.35189273485E+00 -0.22404880573E+00  0.36547481896E+01  0.36784793996E+01  0.00000000000E+00 0. -1.
</event>
<event>
 5    1  0.6564536E+001  0.1599668E+01  0.7818608E-02  0.3353723E+00
         11   -1    0    0    0    0  0.00000000000E+00  0.00000000000E+00  0.39999999674E+01  0.40000000000E+01  0.51100000000E-03 0.  1.
    9000002   -1    0    0    0    0 -0.00000000000E+00 -0.00000000000E+00  0.00000000000E+00  0.93800000000E+00  0.93800000000E+00 0.  1.
         11    1    1    2    0    0  0.89685132121E-01 -0.85908161665E-02  0.48080341871E+00  0.48917217174E+00  0.51100000000E-03 0.  1.
    9000002    1    1    2    0    0 -0.69089341730E+00  0.49691190062E-01  0.34224335480E+00  0.12152273213E+01  0.93800000000E+00 0.  1.
         22    1    1    2    0    0  0.60120828518E+00 -0.41100373895E-01  0.31769531939E+01  0.32336005070E+01  0.00000000000E+00 0.  1.
</event>
<event>
 5    1  0.6564536E+001  0.1592266E+01  0.7818608E-02  0.3361800E+00
         11   -1    0    0    0    0  0.00000000000E+00  0.00000000000E+00  0.39999999674E+01  0.40000000000E+01  0.51100000000E-03 0.  1.
    9000002   -1    0    0    0    0 -0.00000000000E+00 -0.00000000000E+00  0.00000000000E+00  0.93800000000E+00  0.93800000000E+00 0.  1.
         11    1    1    2    0    0  0.18134044455E-01  0.46786874878E-02  0.29546719460E-01  0.34985760485E-01  0.51100000000E-03 0.  1.
    9000002    1    1    2    0    0  0.76415193674E-01 -0.42681646620E+00  0.13373937202E+00  0.10419893460E+01  0.93800000000E+00 0.  1.
         22    1    1    2    0    0 -0.94549238129E-01  0.42213777871E+00  0.38367138759E+01  0.38610248935E+01  0.00000000000E+00 0.  1.
</event>
<event>
 5    1  0.6564536E+001  0.1593404E+01  0.7818608E-02  0.3360554E+00
         11   -1    0    0    0    0  0.00000000000E+00  0.00000000000E+00  0.39999999674E+01  0.40000000000E+01  0.51100000000E-03 0.  1.
    9000002   -1    0    0    0    0 -0.00000000000E+00 -0.00000000000E+00  0.00000000000E+00  0.93800000000E+00  0.93800000000E+00 0.  1.
         11    1    1    2    0    0 -0.55220362902E-01  0.10738970332E+00  0.40491766098E+00  0.42254042428E+00  0.51100000000E-03 0.  1.
    9000002    1    1    2    0    0  0.12842031138E+00 -0.58562136735E+00  0.25701787326E+00  0.11425175489E+01  0.93800000000E+00 0.  1.
         22    1    1    2    0    0 -0.73199948475E-01  0.47823166403E+00  0.33380644331E+01  0.33729420269E+01  0.00000000000E+00 0.  1.
</event>
<event>
 5    1  0.6564536E+001  0.1595057E+01  0.7818608E-02  0.3358746E+00
         11   -1    0    0    0    0  0.00000000000E+00  0.00000000000E+00  0.39999999674E+01  0.40000000000E+01  0.51100000000E-03 0.  1.
    9000002   -1    0    0    0    0 -0.00000000000E+00 -0.00000000000E+00  0.00000000000E+00  0.93800000000E+00  0.93800000000E+00 0.  1.
         11    1    1    2    0    0  0.42911290195E-01 -0.51504576148E-01  0.12044303220E+01  0.12062946414E+01  0.51100000000E-03 0.  1.
    9000002    1    1    2    0    0 -0.37501460831E+00  0.22317303061E+00  0.13304925032E+00  0.10430667577E+01  0.93800000000E+00 0.  1.
         22    1    1    2    0    0  0.33210331811E+00 -0.17166845447E+00  0.26625203950E+01  0.26886386009E+01  0.00000000000E+00 0.  1.
</event>
<event>
 5    1  0.6564536E+001  0.1594755E+01  0.7818608E-02  0.3359076E+00
         11   -1    0    0    0    0  0.00000000000E+00  0.00000000000E+00  0.39999999674E+01  0.40000000000E+01  0.51100000000E-03 0.  1.
    9000002   -1    0    0    0    0 -0.00000000000E+00 -0.00000000000E+00  0.00000000000E+00  0.93800000000E+00  0.93800000000E+00 0. -1.
         11    1    1    2    0    0 -0.45079782937E+00  0.51505898531E-01  0.14109128826E+01  0.14820752221E+01  0.51100000000E-03 0.  1.
    9000002    1    1    2    0    0  0.89211322305E+00 -0.22175821056E+00  0.66032135593E+00  0.14700037414E+01  0.93800000000E+00 0. -1.
         22    1    1    2    0    0 -0.44131539368E+00  0.17025231203E+00  0.19287657289E+01  0.19859210365E+01  0.00000000000E+00 0.  1.
</event>
<event>
 5    1  0.6564536E+001  0.1599517E+01  0.7818608E-02  0.3353888E+00
         11   -1    0    0    0    0  0.00000000000E+00  0.00000000000E+00  0.39999999674E+01  0.40000000000E+01  0.51100000000E-03 0.  1.
    9000002   -1    0    0    0    0 -0.00000000000E+00 -0.00000000000E+00  0.00000000000E+00  0.93800000000E+00  0.93800000000E+00 0.  1.
         11    1    1    2    0    0  0.17196907152E+00  0.10430757721E+00  0.14438819352E+01  0.14578232870E+01  0.51100000000E-03 0.  1.
    9000002    1    1    2    0    0 -0.43774759765E+00 -0.24168965571E+00  0.17130962339E+00  0.10766744336E+01  0.93800000000E+00 0.  1.
         22    1    1    2    0    0  0.26577852613E+00  0.13738207850E+00  0.23848084088E+01  0.24035022794E+01  0.00000000000E+00 0.  1.
</event>
<event>
 5    1  0.6564536E+001  0.1594136E+01  0.7818608E-02  0.3359752E+00
         11   -1    0    0    0    0  0.00000000000E+00  0.00000000000E+00  0.39999999674E+01  0.40000000000E+01  0.51100000000E-03 0.  1.
    9000002   -1    0    0    0    0 -0.00000000000E+00 -0.00000000000E+00  0.00000000000E+00  0.93800000000E+00  0.93800000000E+00 0.  1.
         11    1    1    2    0    0 -0.23141423566E+00 -0.77022962553E-01  0.11547736752E+01  0.11802489514E+01  0.51100000000E-03 0.  1.
    9000002    1    1    2    0    0  0.50724017158E+00  0.15094937414E+00  0.19785117774E+00  0.10950193577E+01  0.93800000000E+00 0.  1.
         22    1    1    2    0    0 -0.27582593591E+00 -0.73926411590E-01  0.26473751144E+01  0.26627316909E+01  0.00000000000E+00 0.  1.
</event>
<event>
 5    1  0.6564536E+001  0.1597403E+01  0.7818608E-02  0.3356187E+00
         11   -1    0    0    0    0  0.00000000000E+00  0.00000000000E+00  0.39999999674E+01  0.40000000000E+01  0.51100000000E-03 0.  1.
    9000002   -1    0    0    0    0 -0.00000000000E+00 -0.00000000000E+00  0.00000000000E+00  0.93800000000E+00  0.93800000000E+00 0.  1.
         11    1    1    2    0    0 -0.43479534693E-01  0.10560741050E+00  0.96914377101E+00  0.97585004232E+00  0.51100000000E-03 0.  1.
    9000002    1    1    2    0    0  0.29135347809E+00 -0.26258642316E+00  0.10554893748E+00  0.10221658657E+01  0.93800000000E+00 0.  1.
         22    1    1    2    0    0 -0.24787394340E+00  0.15697901266E+00  0.29253072589E+01  0.29399840920E+01  0.00000000000E+00 0.  1.
</event>
<event>
 5    1  0.6564536E+001  0.1599496E+01  0.7818608E-02  0.3353911E+00
         11   -1    0    0    0    0  0.00000000000E+00  0.00000000000E+00  0.39999999674E+01  0.40000000000E+01  0.51100000000E-03 0. -1.
    9000002   -1    0    0    0    0 -0.00000000000E+00 -0.00000000000E+00  0.00000000000E+00  0.93800000000E+00  0.93800000000E+00 0. -1.
         11    1    1    2    0    0 -0.11880221892E+00 -0.11499208716E-01  0.79585082273E+00  0.80475150959E+00  0.51100000000E-03 0. -1.
    9000002    1    1    2    0    0  0.52961937826E+00  0.10561505999E+00  0.20123743175E+00  0.11009049599E+01  0.93800000000E+00 0. -1.
         22    1    1    2    0    0 -0.41081715934E+00 -0.94115851278E-01  0.30029117129E+01  0.30323435305E+01  0.00000000000E+00 0. -1.
</event>
<event>
 5    1  0.6564536E+001  0.1597472E+01  0.7818608E-02  0.3356112E+00
         11   -1    0    0    0    0  0.00000000000E+00  0.00000000000E+00  0.39999999674E+01  0.40000000000E+01  0.51100000000E-03 0.  1.
    9000002   -1    0    0    0    0 -0.00000000000E+00 -0.00000000000E+00  0.00000000000E+00  0.93800000000E+00  0.93800000000E+00 0.  1.
         11    1    1    2    0    0  0.29855469825E-01  0.11621626567E+00  0.14256992136E+01  0.14307396962E+01  0.51100000000E-03 0.  1.
    9000002    1    1    2    0    0  0.65696545375E-01 -0.34165814656E+00  0.82919320133E-01  0.10038754598E+01  0.93800000000E+00 0.  1.
         22    1    1    2    0    0 -0.95552015200E-01  0.22544188088E+00  0.24913814337E+01  0.25033848440E+01  0.00000000000E+00 0.  1.
</event>
<event>
 5    1  0.6564536E+001  0.1530889E+01  0.7818608E-02  0.3431968E+00
         11   -1    0    0    0    0  0.00000000000E+00  0.00000000000E+00  0.39999999674E+01  0.40000000000E+01  0.51100000000E-03 0. -1.
    9000002   -1    0    0    0    0 -0.00000000000E+00 -0.00000000000E+00  0.00000000000E+00  0.93800000000E+00  0.93800000000E+00 0.  1.
         11    1    1    2    0    0  0.12125503853E+00 -0.22761286005E+00  0.11798293354E+01  0.12076870125E+01  0.51100000000E-03 0. -1.
    9000002    1    1    2    0    0 -0.32422740242E+00 -0.20445212535E+00  0.15782921926E+00  0.10255135994E+01  0.93800000000E+00 0.  1.
         22    1    1    2    0    0  0.20297236389E+00  0.43206498540E+00  0.26623414127E+01  0.27047993881E+01  0.00000000000E+00 0.  1.
</event>
<event>
 5    1  0.6564536E+001  0.1486780E+01  0.7818608E-02  0.3486228E+00
         11   -1    0    0    0    0  0.00000000000E+00  0.00000000000E+00  0.39999999674E+01  0.40000000000E+01  0.51100000000E-03 0.  1.
    9000002   -1    0    0    0    0 -0.00000000000E+00 -0.00000000000E+00  0.00000000000E+00  0.93800000000E+00  0.93800000000E+00 0.  1.
         11    1    1    2    0    0  0.11122134211E+00  0.36858171129E+00  0.97678377444E+00  0.10499187911E+01  0.51100000000E-03 0.  1.
    9000002    1    1    2    0    0 -0.32340527381E+00 -0.55319655184E-01  0.16790773514E+00  0.10078135953E+01  0.93800000000E+00 0.  1.
         22    1    1    2    0    0  0.21218393170E+00 -0.31326205610E+00  0.28553084578E+01  0.28802676136E+01  0.00000000000E+00 0.  1.
</event>
<event>
 5    1  0.6564536E+001  0.1595088E+01  0.7818608E-02  0.3358712E+00
         11   -1    0    0    0    0  0.00000000000E+00  0.00000000000E+00  0.39999999674E+01  0.40000000000E+01  0.51100000000E-03 0. -1.
    9000002   -1    0    0    0    0 -0.00000000000E+00 -0.00000000000E+00  0.00000000000E+00  0.93800000000E+00  0.93800000000E+00 0. -1.
         11    1    1    2    0    0  0.33606301010E-01  0.16132942790E+00  0.13890482046E+01  0.13987893850E+01  0.51100000000E-03 0. -1.
    9000002    1    1    2    0    0  0.11480581546E+00 -0.50312399714E+00  0.18701447772E+00  0.10867992209E+01  0.93800000000E+00 0. -1.
         22    1    1    2    0    0 -0.14841211647E+00  0.34179456923E+00  0.24239372850E+01  0.24524113940E+01  0.00000000000E+00 0. -1.
</event>
<event>
 5    1  0.6564536E+001  0.1597240E+01  0.7818608E-02  0.3356365E+00
         11   -1    0    0    0    0  0.00000000000E+00  0.00000000000E+00  0.39999999674E+01  0.40000000000E+01  0.51100000000E-03 0. -1.
    9000002   -1    0    0    0    0 -0.00000000000E+00 -0.00000000000E+00  0.00000000000E+00  0.93800000000E+00  0.93800000000E+00 0. -1.
         11    1    1    2    0    0  0.32816918201E-02 -0.17202401108E+00  0.54285190256E+00  0.56946595958E+00  0.51100000000E-03 0. -1.
    9000002    1    1    2    0    0  0.10474088479E-01  0.82241645318E+00  0.50550576947E+00  0.13460529752E+01  0.93800000000E+00 0. -1.
         22    1    1    2    0    0 -0.13755780299E-01 -0.65039244210E+00  0.29516422953E+01  0.30224810653E+01  0.00000000000E+00 0.  1.
</event>
<event>
 5    1  0.6564536E+001  0.1599646E+01  0.7818608E-02  0.3353748E+00
         11   -1    0    0    0    0  0.00000000000E+00  0.00000000000E+00  0.39999999674E+01  0.40000000000E+01  0.51100000000E-03 0. -1.
    9000002   -1    0    0    0    0 -0.00000000000E+00 -0.00000000000E+00  0.00000000000E+00  0.93800000000E+00  0.93800000000E+00 0. -1.
         11    1    1    2    0    0  0.17198234256E-01  0.72472725988E-01  0.84874132267E+00  0.85200362042E+00  0.51100000000E-03 0. -1.
    9000002    1    1    2    0    0 -0.97673033025E-01 -0.35178597288E+00  0.89552684808E-01  0.10105231692E+01  0.93800000000E+00 0. -1.
         22    1    1    2    0    0  0.80474798769E-01  0.27931324689E+00  0.30617059599E+01  0.30754732104E+01  0.00000000000E+00 0. -1.
</event>
<event>
 5    1  0.6564536E+001  0.1528958E+01  0.7818608E-02  0.3434273E+00
         11   -1    0    0    0    0  0.00000000000E+00  0.00000000000E+00  0.39999999674E+01  0.40000000000E+01  0.51100000000E-03 0. -1.
    9000002   -1    0    0    0    0 -0.00000000000E+00 -0.00000000000E+00  0.00000000000E+00  0.93800000000E+00  0.93800000000E+00 0. -1.
         11    1    1    2    0    0  0.16432026592E-01  0.16581303172E+00  0.34137222043E+00  0.37986738079E+00  0.51100000000E-03 0. -1.
    9000002    1    1    2    0    0 -0.56223975581E-01  0.19985627736E+00  0.83710245831E-01  0.96434178188E+00  0.93800000000E+00 0. -1.
         22    1    1    2    0    0  0.39791948989E-01 -0.36566930907E+00  0.35749175011E+01  0.35937908373E+01  0.00000000000E+00 0. -1.
</event>
<event>
 5    1  0.6564536E+001  0.1599453E+01  0.7818608E-02  0.3353957E+00
         11   -1    0    0    0    0  0.00000000000E+00  0.00000000000E+00  0.39999999674E+01  0.40000000000E+01  0.51100000000E-03 0.  1.
    9000002   -1    0    0    0    0 -0.00000000000E+00 -0.00000000000E+00  0.00000000000E+00  0.93800000000E+00  0.93800000000E+00 0. -1.
         11    1    1    2    0    0 -0.23640799533E-02 -0.18476080386E-01  0.14415643635E+00  0.14535574871E+00  0.51100000000E-03 0.  1.
    9000002    1    1    2    0    0 -0.11326762160E+00  0.44797696848E+00  0.14547274803E+00  0.10557079325E+01  0.93800000000E+00 0. -1.
         22    1    1    2    0    0  0.11563170155E+00 -0.42950088810E+00  0.37103707830E+01  0.37369363188E+01  0.00000000000E+00 0.  1.
</event>
<event>
 5    1  0.6564536E+001  0.1592201E+01  0.7818608E-02  0.3361872E+00
         11   -1    0    0    0    0  0.00000000000E+00  0.00000000000E+00  0.39999999674E+01  0.40000000000E+01  0.51100000000E-03 0.  1.
    9000002   -1    0    0    0    0 -0.00000000000E+00 -0.00000000000E+00  0.00000000000E+00  0.93800000000E+00  0.93800000000E+00 0.  1.
         11    1    1    2    0    0 -0.69979474418E-01 -0.20392647501E+00  0.14405806463E+01  0.14566248638E+01  0.51100000000E-03 0.  1.
    9000002    1    1    2    0    0 -0.37623640537E-01  0.39988548830E+00  0.11509303499E+00  0.10268467991E+01  0.93800000000E+00 0.  1.
         22    1    1    2    0    0  0.10760311495E+00 -0.19595901330E+00  0.24443262861E+01  0.24545283372E+01  0.00000000000E+00 0.  1.
</event>
<event>
 5    1  0.6564536E+001  0.1599582E+01  0.7818608E-02  0.3353817E+00
         11   -1    0    0    0    0  0.00000000000E+00  0.00000000000E+00  0.39999999674E+01  0.40000000000E+01  0.51100000000E-03 0. -1.
    9000002   -1    0    0    0    0 -0.00000000000E+00 -0.00000000000E+00  0.00000000000E+00  0.93800000000E+00  0.93800000000E+00 0. -1.
         11    1    1    2    0    0 -0.84670501430E-01 -0.69064205538E-01  0.10081094489E+01  0.10140137476E+01  0.51100000000E-03 0. -1.
    9000002    1    1    2    0    0  0.31386806031E+00  0.22955562442E+00  0.10192849650E+00  0.10205108340E+01  0.93800000000E+00 0. -1.
         22    1    1    2    0    0 -0.22919755888E+00 -0.16049141888E+00  0.28899620220E+01  0.29034754183E+01  0.00000000000E+00 0. -1.
</event>
<event>
 5    1  0.6564536E+001  0.1594070E+01  0.7818608E-02  0.3359825E+00
         11   -1    0    0    0    0  0.00000000000E+00  0.00000000000E+00  0.39999999674E+01  0.40000000000E+01  0.51100000000E-03 0.  1.
    9000002   -1    0    0    0    0 -0.00000000000E+00 -0.00000000000E+00  0.00000000000E+00  0.93800000000E+00  0.93800000000E+00 0. -1.
         11    1    1    2    0    0 -0.69568978573E-01 -0.84976519801E-01  0.49508845602E+00  0.50712295561E+00  0.51100000000E-03 0.  1.
    9000002    1    1    2    0    0  0.63276351544E-01  0.60917598280E+00  0.26808643451E+00  0.11518739562E+01  0.93800000000E+00 0. -1.
         22    1    1    2    0    0  0.62926270288E-02 -0.52419946300E+00  0.32368250768E+01  0.32790030882E+01  0.00000000000E+00 0.  1.
</event>
<event>
 5    1  0.6564536E+001  0.1599673E+01  0.7818608E-02  0.3353718E+00
         11   -1    0    0    0    0  0.00000000000E+00  0.00000000000E+00  0.39999999674E+01  0.40000000000E+01  0.51100000000E-03 0.  1.
    9000002   -1    0    0    0    0 -0.00000000000E+00 -0.00000000000E+00  0.00000000000E+00  0.93800000000E+00  0.93800000000E+00 0.  1.
         11    1    1    2    0    0 -0.92065585904E-01  0.55441747830E-01  0.11318531842E+01  0.11369440405E+01  0.51100000000E-03 0.  1.
    9000002    1    1    2    0    0  0.31661971258E+00 -0.18402456741E+00  0.90092701900E-01  0.10109766460E+01  0.93800000000E+00 0.  1.
         22    1    1    2    0    0 -0.22455412667E+00  0.12858281958E+00  0.27780540812E+01  0.27900793135E+01  0.00000000000E+00 0. -1.
</event>
<event>
 5    1  0.6564536E+001  0.1599233E+01  0.7818608E-02  0.3354196E+00
         11   -1    0    0    0    0  0.00000000000E+00  0.00000000000E+00  0.39999999674E+01  0.40000000000E+01  0.51100000000E-03 0.  1.
    9000002   -1    0    0    0    0 -0.00000000000E+00 -0.00000000000E+00  0.00000000000E+00  0.93800000000E+00  0.93800000000E+00 0.  1.
         11    1    1    2    0    0  0.21274346672E-01  0.72293888861E-01  0.61115181230E+00  0.61578064519E+00  0.51100000000E-03 0.  1.
    9000002    1    1    2    0    0 -0.23705570615E+00 -0.40067241604E+00  0.14793539413E+00  0.10575739566E+01  0.93800000000E+00 0.  1.
         22    1    1    2    0    0  0.21578135948E+00  0.32837852718E+00  0.32409127609E+01  0.32646453982E+01  0.00000000000E+00 0.  1.
</event>
<event>
 5    1  0.6564536E+001  0.1599657E+01  0.7818608E-02  0.3353735E+00
         11   -1    0    0    0    0  0.00000000000E+00  0.00000000000E+00  0.39999999674E+01  0.40000000000E+01  0.51100000000E-03 0. -1.
    9000002   -1    0    0    0    0 -0.00000000000E+00 -0.00000000000E+00  0.00000000000E+00  0.93800000000E+00  0.93800000000E+00 0. -1.
         11    1    1    2    0    0  0.44740812367E-01 -0.23936191192E+00  0.12069971563E+01  0.12313156629E+01  0.51100000000E-03 0. -1.
    9000002    1    1    2    0    0 -0.13173877283E+00  0.70486041403E+00  0.36922079220E+00  0.12370736845E+01  0.93800000000E+00 0. -1.
         22    1    1    2    0    0  0.86997960464E-01 -0.46549850210E+00  0.24237820189E+01  0.24696106526E+01  0.00000000000E+00 0. -1.
</event>
<event>
 5    1  0.6564536E+001  0.1599677E+01  0.7818608E-02  0.3353714E+00
         11   -1    0    0    0    0  0.00000000000E+00  0.00000000000E+00  0.39999999674E+01  0.40000000000E+01  0.51100000000E-03 0. -1.
    9000002   -1    0    0    0    0 -0.00000000000E+00 -0.00000000000E+00  0.00000000000E+00  0.93800000000E+00  0.93800000000E+00 0.  1.
         11    1    1    2    0    0 -0.77992576933E-01 -0.23650306052E-01  0.71021336581E+00  0.71487444012E+00  0.51100000000E-03 0.  1.
    9000002    1    1    2    0    0  0.42441637171E+00  0.12769983500E+00  0.13328442377E+00  0.10459661763E+01  0.93800000000E+00 0.  1.
         22    1    1    2    0    0 -0.34642379478E+00 -0.10404952895E+00  0.31565021778E+01  0.31771593835E+01  0.00000000000E+00 0. -1.
</event>
<event>
 5    1  0.6564536E+001  0.1598423E+01  0.7818608E-02  0.3355077E+00
         11   -1    0    0    0    0  0.00000000000E+00  0.00000000000E+00  0.39999999674E+01  0.40000000000E+01  0.51100000000E-03 0.  1.
    9000002   -1    0    0    0    0 -0.00000000000E+00 -0.00000000000E+00  0.00000000000E+00  0.93800000000E+00  0.93800000000E+00 0.  1.
         11    1    1    2    0    0  0.50727740256E-02 -0.97896735001E-01  0.78078539638E+00  0.78691524327E+00  0.51100000000E-03 0.  1.
    9000002    1    1    2    0    0 -0.17552005338E+00  0.40663522429E+00  0.13416834713E+00  0.10459467674E+01  0.93800000000E+00 0.  1.
         22    1    1    2    0    0  0.17044727936E+00 -0.30873848929E+00  0.30850462238E+01  0.31051379894E+01  0.00000000000E+00 0.  1.
</event>
<event>
 5    1  0.1040458E+002  0.1599267E+01  0.7818608E-02  0.3354159E+00
         11   -1    0    0    0    0  0.00000000000E+00  0.00000000000E+00  0.39999999674E+01  0.40000000000E+01  0.51100000000E-03 0.  1.
    9000002   -1    0    0    0    0 -0.00000000000E+00 -0.00000000000E+00  0.00000000000E+00  0.93800000000E+00  0.93800000000E+00 0.  1.
         11    1    1    2    0    0 -0.59408193939E-01 -0.66392609626E-01  0.13564084319E+01  0.13593312354E+01  0.51100000000E-03 0.  1.
    9000002    1    1    2    0    0  0.21914142538E+00  0.24037794635E+00  0.71082417878E-01  0.99533975684E+00  0.93800000000E+00 0.  1.
         22    1    1    2    0    0 -0.15973323144E+00 -0.17398533673E+00  0.25725091175E+01  0.25833290078E+01  0.00000000000E+00 0.  1.
</event>
<event>
 5    1  0.6564536E+001  0.1599669E+01  0.7818608E-02  0.3353723E+00
         11   -1    0    0    0    0  0.00000000000E+00  0.00000000000E+00  0.39999999674E+01  0.40000000000E+01  0.51100000000E-03 0. -1.
    9000002   -1    0    0    0    0 -0.00000000000E+00 -0.00000000000E+00  0.00000000000E+00  0.93800000000E+00  0.93800000000E+00 0. -1.
         11    1    1    2    0    0  0.25067046731E-02 -0.13745087770E+00  0.11511549838E+01  0.11593347598E+01  0.51100000000E-03 0. -1.
    9000002    1    1    2    0    0  0.10962648539E-02  0.46478570944E+00  0.14705603207E+00  0.10571170390E+01  0.93800000000E+00 0. -1.
         22    1    1    2    0    0 -0.36029695270E-02 -0.32733483174E+00  0.27017889515E+01  0.27215482013E+01  0.00000000000E+00 0.  1.
</event>
<event>
 5    1  0.6564536E+001  0.1599658E+01  0.7818608E-02  0.3353734E+00
         11   -1    0    0    0    0  0.00000000000E+00  0.00000000000E+00  0.39999999674E+01  0.40000000000E+01  0.51100000000E-03 0.  1.
    9000002   -1    0    0    0    0 -0.00000000000E+00 -0.00000000000E+00  0.00000000000E+00  0.93800000000E+00  0.93800000000E+00 0. -1.
         11    1    1    2    0    0  0.77214237359E-02 -0.50708886483E-02  0.55250327048E-01  0.56019586362E-01  0.51100000000E-03 0.  1.
    9000002    1    1    2    0    0 -0.51948124483E+00  0.26690112665E+00  0.23720556652E+00  0.11301360343E+01  0.93800000000E+00 0. -1.
         22    1    1    2    0    0  0.51175982109E+00 -0.26183023800E+00  0.37075440738E+01  0.37518443794E+01  0.00000000000E+00 0.  1.
</event>
<event>
 5    1  0.6564536E+001  0.1599644E+01  0.7818608E-02  0.3353750E+00
         11   -1    0    0    0    0  0.00000000000E+00  0.00000000000E+00  0.39999999674E+01  0.40000000000E+01  0.51100000000E-03 0. -1.
    9000002   -1    0    0    0    0 -0.00000000000E+00 -0.00000000000E+00  0.00000000000E+00  0.93800000000E+00  0.93800000000E+00 0. -1.
         11    1    1    2    0    0  0.17735043538E-02 -0.80030297358E-01  0.69199403326E+00  0.69660892688E+00  0.51100000000E-03 0. -1.
    9000002    1    1    2    0    0 -0.24461209976E-01  0.42276913209E+00  0.12136833642E+00  0.10362945348E+01  0.93800000000E+00 0. -1.
         22    1    1    2    0    0  0.22687705622E-01 -0.34273883474E+00  0.31866375977E+01  0.32050965383E+01  0.00000000000E+00 0. -1.
</event>
<event>
 5    1  0.6564536E+001  0.1541127E+01  0.7818608E-02  0.3419851E+00
         11   -1    0    0    0    0  0.00000000000E+00  0.00000000000E+00  0.39999999674E+01  0.40000000000E+01  0.51100000000E-03 0. -1.
    9000002   -1    0    0    0    0 -0.00000000000E+00 -0.00000000000E+00  0.00000000000E+00  0.93800000000E+00  0.93800000000E+00 0.  1.
         11    1    1    2    0    0 -0.16478250235E+00  0.17782527636E+00  0.13407376048E+01  0.13624803441E+01  0.51100000000E-03 0. -1.
    9000002    1    1    2    0    0  0.48374602223E-01  0.16137521795E+00  0.63522074193E-01  0.95512361348E+00  0.93800000000E+00 0.  1.
         22    1    1    2    0    0  0.11640790012E+00 -0.33920049430E+00  0.25957402884E+01  0.26203960425E+01  0.00000000000E+00 0. -1.
</event>
<event>
 5    1  0.6564536E+001  0.1598913E+01  0.7818608E-02  0.3354544E+00
         11   -1    0    0    0    0  0.00000000000E+00  0.00000000000E+00  0.39999999674E+01  0.40000000000E+01  0.51100000000E-03 0.  1.
    9000002   -1    0    0    0    0 -0.00000000000E+00 -0.00000000000E+00  0.00000000000E+00  0.93800000000E+00  0.93800000000E+00 0.  1.
         11    1    1    2    0    0 -0.19812509467E+00  0.12821927062E-01  0.13362768098E+01  0.13509455683E+01  0.51100000000E-03 0.  1.
    9000002    1    1    2    0    0  0.48397556356E+00 -0.30333331867E-02  0.16060857437E+00  0.10676519383E+01  0.93800000000E+00 0.  1.
         22    1    1    2    0    0 -0.28585046889E+00 -0.97885938752E-02  0.25031145832E+01  0.25194024934E+01  0.00000000000E+00 0.  1.
</event>
<event>
 5    1  0.6564536E+001  0.1599611E+01  0.7818608E-02  0.3353786E+00
         11   -1    0    0    0    0  0.00000000000E+00  0.00000000000E+00  0.39999999674E+01  0.40000000000E+01  0.51100000000E-03 0. -1.
    9000002   -1    0    0    0    0 -0.00000000000E+00 -0.00000000000E+00  0.00000000000E+00  0.93800000000E+00  0.93800000000E+00 0. -1.
         11    1    1    2    0    0  0.11675955740E-01 -0.14416760867E+00  0.12974986612E+01  0.13055357767E+01  0.51100000000E-03 0. -1.
    9000002    1    1    2    0    0 -0.61714697784E-01  0.43613272286E+00  0.13165002025E+00  0.10446033619E+01  0.93800000000E+00 0. -1.
         22    1    1    2    0    0  0.50038742044E-01 -0.29196511419E+00  0.25708512859E+01  0.25878608613E+01  0.00000000000E+00 0.  1.
</event>
<event>
 5    1  0.6564536E+001  0.1594695E+01  0.7818608E-02  0.3359142E+00
         11   -1    0    0    0    0  0.00000000000E+00  0.00000000000E+00  0.39999999674E+01  0.40000000000E+01  0.51100000000E-03 0. -1.
    9000002   -1    0    0    0    0 -0.00000000000E+00 -0.00000000000E+00  0.00000000000E+00  0.93800000000E+00  0.93800000000E+00 0.  1.
         11    1    1    2    0    0 -0.10082286140E-01 -0.43286372643E-01  0.97146192668E+00  0.97247822529E+00  0.51100000000E-03 0. -1.
    9000002    1    1    2    0    0 -0.25112679028E+00  0.22574214379E+00  0.80345431617E-01  0.10001617712E+01  0.93800000000E+00 0.  1.
         22    1    1    2    0    0  0.26120907642E+00 -0.18245577115E+00  0.29481926091E+01  0.29653600035E+01  0.00000000000E+00 0. -1.
</event>
<event>
 5    1  0.6564536E+001  0.1598343E+01  0.7818608E-02  0.3355164E+00
         11   -1    0    0    0    0  0.00000000000E+00  0.00000000000E+00  0.39999999674E+01  0.40000000000E+01  0.51100000000E-03 0.  1.
    9000002   -1    0    0    0    0 -0.00000000000E+00 -0.00000000000E+00  0.00000000000E+00  0.93800000000E+00  0.93800000000E+00 0.  1.
         11    1    1    2    0    0 -0.72481678194E-01 -0.68740064790E-01  0.87741002497E+00  0.88307836754E+00  0.51100000000E-03 0.  1.
    9000002    1    1    2    0    0  0.43296226001E+00  0.39853690431E+00  0.24232815699E+00  0.11335144103E+01  0.93800000000E+00 0.  1.
         22    1    1    2    0    0 -0.36048058181E+00 -0.32979683952E+00  0.28802617854E+01  0.29214072222E+01  0.00000000000E+00 0.  1.
</event>
<event>
 5    1  0.6564536E+001  0.1585207E+01  0.7818608E-02  0.3369577E+00
         11   -1    0    0    0    0  0.00000000000E+00  0.00000000000E+00  0.39999999674E+01  0.40000000000E+01  0.51100000000E-03 0.  1.
    9000002   -1    0    0    0    0 -0.00000000000E+00 -0.00000000000E+00  0.00000000000E+00  0.93800000000E+00  0.93800000000E+00 0.  1.
         11    1    1    2    0    0 -0.88216625542E-01 -0.29017633199E-01  0.21258222382E+00  0.23198202315E+00  0.51100000000E-03 0.  1.
    9000002    1    1    2    0    0  0.40718148714E+00  0.18686086266E+00  0.14886701219E+00  0.10501043438E+01  0.93800000000E+00 0.  1.
         22    1    1    2    0    0 -0.31896486159E+00 -0.15784322946E+00  0.36385507314E+01  0.36559136331E+01  0.00000000000E+00 0.  1.
</event>
<event>
 5    1  0.6564536E+001  0.1596913E+01  0.7818608E-02  0.3356721E+00
         11   -1    0    0    0    0  0.00000000000E+00  0.00000000000E+00  0.39999999674E+01  0.40000000000E+01  0.51100000000E-03 0.  1.
    9000002   -1    0    0    0    0 -0.00000000000E+00 -0.00000000000E+00  0.00000000000E+00  0.93800000000E+00  0.93800000000E+00 0.  1.
         11    1    1    2    0    0  0.90108708036E-01 -0.90373361386E-01  0.49879458690E+00  0.51486233573E+00  0.51100000000E-03 0.  1.
    9000002    1    1    2    0    0 -0.40572731241E+00  0.48204226322E+00  0.28166820473E+00  0.11645429890E+01  0.93800000000E+00 0.  1.
         22    1    1    2    0    0  0.31561860437E+00 -0.39166890183E+00  0.32195371757E+01  0.32585946753E+01  0.00000000000E+00 0.  1.
</event>
<event>
 5    1  0.6564536E+001  0.1599675E+01  0.7818608E-02  0.3353716E+00
         11   -1    0    0    0    0  0.00000000000E+00  0.00000000000E+00  0.39999999674E+01  0.40000000000E+01  0.51100000000E-03 0.  1.
    9000002   -1    0    0    0    0 -0.00000000000E+00 -0.00000000000E+00  0.00000000000E+00  0.93800000000E+00  0.93800000000E+00 0. -1.
         11    1    1    2    0    0  0.56791796515E-01 -0.13016584957E+00  0.12322936569E+01  0.12404500693E+01  0.51100000000E-03 0.  1.
    9000002    1    1    2    0    0 -0.18202443749E+00  0.41046054006E+00  0.13691241141E+00  0.10489040753E+01  0.93800000000E+00 0. -1.
         22    1    1    2    0    0  0.12523264098E+00 -0.28029469049E+00  0.26307938990E+01  0.26486458554E+01  0.00000000000E+00 0. -1.
</event>
<event>
 5    1  0.6564536E+001  0.1592332E+01  0.7818608E-02  0.3361728E+00
         11   -1    0    0    0    0  0.00000000000E+00  0.00000000000E+00  0.39999999674E+01  0.40000000000E+01  0.51100000000E-03 0. -1.
    9000002   -1    0    0    0    0 -0.00000000000E+00 -0.00000000000E+00  0.00000000000E+00  0.93800000000E+00  0.93800000000E+00 0. -1.
         11    1    1    2    0    0 -0.11640912581E+00 -0.11884664308E+00  0.10200603071E+01  0.10335370822E+01  0.51100000000E-03 0. -1.
    9000002    1    1    2    0    0  0.38777222377E+00  0.11053467026E+00  0.11586273251E+00  0.10275472659E+01  0.93800000000E+00 0. -1.
         22    1    1    2    0    0 -0.27136309796E+00  0.83119728189E-02  0.28640769278E+01  0.28769156519E+01  0.00000000000E+00 0. -1.
</event>
<event>
 5    1  0.6564536E+001  0.1598466E+01  0.7818608E-02  0.3355030E+00
         11   -1    0    0    0    0  0.00000000000E+00  0.00000000000E+00  0.39999999674E+01  0.40000000000E+01  0.51100000000E-03 0.  1.
    9000002   -1    0    0    0    0 -0.00000000000E+00 -0.00000000000E+00  0.00000000000E+00  0.93800000000E+00  0.93800000000E+00 0.  1.
         11    1    1    2    0    0  0.93817676217E-01  0.12012282157E+00  0.12822940081E+01  0.12913208094E+01  0.51100000000E-03 0.  1.
    9000002    1    1    2    0    0 -0.31006032876E+00 -0.24768950296E+00  0.10719203786E+00  0.10241199297E+01  0.93800000000E+00 0.  1.
         22    1    1    2    0    0  0.21624265254E+00  0.12756668139E+00  0.26105139214E+01  0.26225592609E+01  0.00000000000E+00 0.  1.
</event>
<event>
 5    1  0.6564536E+001  0.1599213E+01  0.7818608E-02  0.3354218E+00
         11   -1    0    0    0    0  0.00000000000E+00  0.00000000000E+00  0.39999999674E+01  0.40000000000E+01  0.51100000000E-03 0. -1.
    9000002   -1    0    0    0    0 -0.00000000000E+00 -0.00000000000E+00  0.00000000000E+00  0.93800000000E+00  0.93800000000E+00 0.  1.
         11    1    1    2    0    0 -0.34805185807E-01 -0.10599641992E+00  0.80338325531E+00  0.81109281714E+00  0.51100000000E-03 0. -1.
    9000002    1    1    2    0    0  0.69241961223E-01  0.53176232988E+00  0.19854456967E+00  0.10985579506E+01  0.93800000000E+00 0.  1.
         22    1    1    2    0    0 -0.34436775416E-01 -0.42576590996E+00  0.29980721424E+01  0.30283492323E+01  0.00000000000E+00 0. -1.
</event>
<event>
 5    1  0.6564536E+001  0.1575755E+01  0.7818608E-02  0.3380106E+00
         11   -1    0    0    0    0  0.00000000000E+00  0.00000000000E+00  0.39999999674E+01  0.40000000000E+01  0.51100000000E-03 0.  1.
    9000002   -1    0    0    0    0 -0.00000000000E+00 -0.00000000000E+00  0.00000000000E+00  0.93800000000E+00  0.93800000000E+00 0.  1.
         11    1    1    2    0    0  0.52849661565E-01  0.27659480204E+00  0.91380811922E+00  0.95621300509E+00  0.51100000000E-03 0.  1.
    9000002    1    1    2    0    0  0.74582745808E-01 -0.54046992541E+00  0.22827199756E+00  0.11088834164E+01  0.93800000000E+00 0.  1.
         22    1    1    2    0    0 -0.12743240737E+00  0.26387512338E+00  0.28579198506E+01  0.28729035785E+01  0.00000000000E+00 0.  1.
</event>
<event>
 5    1  0.6564536E+001  0.1596248E+01  0.7818608E-02  0.3357446E+00
         11   -1    0    0    0    0  0.00000000000E+00  0.00000000000E+00  0.39999999674E+01  0.40000000000E+01  0.51100000000E-03 0.  1.
    9000002   -1    0    0    0    0 -0.00000000000E+00 -0.00000000000E+00  0.00000000000E+00  0.93800000000E+00  0.93800000000E+00 0. -1.
         11    1    1    2    0    0  0.17317202550E+00 -0.72598336616E-02  0.12844940244E+01  0.12961351841E+01  0.51100000000E-03 0.  1.
    9000002    1    1    2    0    0 -0.41513473017E+00  0.19159271681E+00  0.14511723645E+00  0.10535405192E+01  0.93800000000E+00 0. -1.
         22    1    1    2    0    0  0.24196270466E+00 -0.18433288314E+00  0.25703887065E+01  0.25883242967E+01  0.00000000000E+00 0.  1.
</event>
<event>
 5    1  0.6564536E+001  0.1598936E+01  0.7818608E-02  0.3354519E+00
         11   -1    0    0    0    0  0.00000000000E+00  0.00000000000E+00  0.39999999674E+01  0.40000000000E+01  0.51100000000E-03 0.  1.
    9000002   -1    0    0    0    0 -0.00000000000E+00 -0.00000000000E+00  0.00000000000E+00  0.93800000000E+00  0.93800000000E+00 0.  1.
         11    1    1    2    0    0  0.15676991734E-01 -0.43298095824E-01  0.31338988243E+00  0.31675538307E+00  0.51100000000E-03 0.  1.
    9000002    1    1    2    0    0 -0.30250973334E-01  0.38878606180E+00  0.10305627410E+00  0.10210456987E+01  0.93800000000E+00 0.  1.
         22    1    1    2    0    0  0.14573981600E-01 -0.34548796598E+00  0.35835538108E+01  0.36001989182E+01  0.00000000000E+00 0.  1.
</event>
<event>
 5    1  0.6564536E+001  0.1517875E+01  0.7818608E-02  0.3447625E+00
         11   -1    0    0    0    0  0.00000000000E+00  0.00000000000E+00  0.39999999674E+01  0.40000000000E+01  0.51100000000E-03 0. -1.
    9000002   -1    0    0    0    0 -0.00000000000E+00 -0.00000000000E+00  0.00000000000E+00  0.93800000000E+00  0.93800000000E+00 0.  1.
         11    1    1    2    0    0  0.12708593727E-01 -0.26367625618E+00  0.36933879922E+00  0.45398027067E+00  0.51100000000E-03 0. -1.
    9000002    1    1    2    0    0 -0.25432146894E+00  0.45768084424E+00  0.26807299337E+00  0.11071848511E+01  0.93800000000E+00 0.  1.
         22    1    1    2    0    0  0.24161287522E+00 -0.19400458806E+00  0.33625881748E+01  0.33768348782E+01  0.00000000000E+00 0. -1.
</event>
<event>
 5    1  0.6564536E+001  0.1596116E+01  0.7818608E-02  0.3357590E+00
         11   -1    0    0    0    0  0.00000000000E+00  0.00000000000E+00  0.39999999674E+01  0.40000000000E+01  0.51100000000E-03 0.  1.
    9000002   -1    0    0    0    0 -0.00000000000E+00 -0.00000000000E+00  0.00000000000E+00  0.93800000000E+00  0.93800000000E+00 0. -1.
         11    1    1    2    0    0  0.68561089162E-01 -0.12107029155E+00  0.75655307538E+00  0.76924083058E+00  0.51100000000E-03 0.  1.
    9000002    1    1    2    0    0 -0.30259289164E+00  0.32862625471E+00  0.13854480265E+00  0.10481394639E+01  0.93800000000E+00 0. -1.
         22    1    1    2    0    0  0.23403180248E+00 -0.20755596316E+00  0.31049020893E+01  0.31206197056E+01  0.00000000000E+00 0.  1.
</event>
<event>
 5    1  0.6564536E+001  0.1599677E+01  0.7818608E-02  0.3353714E+00
         11   -1    0    0    0    0  0.00000000000E+00  0.00000000000E+00  0.39999999674E+01  0.40000000000E+01  0.51100000000E-03 0. -1.
    9000002   -1    0    0    0    0 -0.00000000000E+00 -0.00000000000E+00  0.00000000000E+00  0.93800000000E+00  0.93800000000E+00 0.  1.
         11    1    1    2    0    0  0.84943889380E-01  0.97495867041E-01  0.82014503893E+00  0.83027649276E+00  0.51100000000E-03 0.  1.
    9000002    1    1    2    0    0 -0.38817063662E+00 -0.44805525319E+00  0.24481940279E+00  0.11363144341E+01  0.93800000000E+00 0.  1.
         22    1    1    2    0    0  0.30322674724E+00  0.35055938615E+00  0.29350355256E+01  0.29714090732E+01  0.00000000000E+00 0. -1.
</event>
<event>
 5    1  0.8806939E+001  0.1599657E+01  0.7818608E-02  0.3353735E+00
         11   -1    0    0    0    0  0.00000000000E+00  0.00000000000E+00  0.39999999674E+01  0.40000000000E+01  0.51100000000E-03 0. -1.
    9000002   -1    0    0    0    0 -0.00000000000E+00 -0.00000000000E+00  0.00000000000E+00  0.93800000000E+00  0.93800000000E+00 0.  1.
         11    1    1    2    0    0 -0.10590653895E+00  0.78338907523E-01  0.14596731019E+01  0.14656053373E+01  0.51100000000E-03 0. -1.
    9000002    1    1    2    0    0  0.29349496290E+00 -0.21961815762E+00  0.90282556673E-01  0.10111213421E+01  0.93800000000E+00 0.  1.
         22    1    1    2    0    0 -0.18758842395E+00  0.14127925009E+00  0.24500443088E+01  0.24612733206E+01  0.00000000000E+00 0. -1.
</event>
<event>
 5    1  0.6564536E+001  0.1599617E+01  0.7818608E-02  0.3353779E+00
         11   -1    0    0    0    0  0.00000000000E+00  0.00000000000E+00  0.39999999674E+01  0.40000000000E+01  0.51100000000E-03 0. -1.
    9000002   -1    0    0    0    0 -0.00000000000E+00 -0.00000000000E+00  0.00000000000E+00  0.93800000000E+00  0.93800000000E+00 0. -1.
         11    1    1    2    0    0 -0.13923882537E+00  0.97999444699E-01  0.14022447251E+01  0.14125444672E+01  0.51100000000E-03 0. -1.
    9000002    1    1    2    0    0  0.37251292646E+00 -0.29157767805E+00  0.15257677183E+00  0.10615588038E+01  0.93800000000E+00 0. -1.
         22    1    1    2    0    0 -0.23327410109E+00  0.19357823335E+00  0.24451784705E+01  0.24638967290E+01  0.00000000000E+00 0. -1.
</event>
<event>
 5    1  0.6564536E+001  0.1599556E+01  0.7818608E-02  0.3353846E+00
         11   -1    0    0    0    0  0.00000000000E+00  0.00000000000E+00  0.39999999674E+01  0.40000000000E+01  0.51100000000E-03 0. -1.
    9000002   -1    0    0    0    0 -0.00000000000E+00 -0.00000000000E+00  0.00000000000E+00  0.93800000000E+00  0.93800000000E+00 0. -1.
         11    1    1    2    0    0  0.62840603239E-01 -0.38937375791E-01  0.65016263165E+00  0.65435217534E+00  0.51100000000E-03 0. -1.
    9000002    1    1    2    0    0 -0.39666038271E+00  0.17739215235E+00  0.12805197910E+00  0.10416567305E+01  0.93800000000E+00 0. -1.
         22    1    1    2    0    0  0.33381977947E+00 -0.13845477656E+00  0.32217853566E+01  0.32419910941E+01  0.00000000000E+00 0. -1.
</event>
<event>
 5    1  0.6621888E+001  0.1598660E+01  0.7818608E-02  0.3354819E+00
         11   -1    0    0    0    0  0.00000000000E+00  0.00000000000E+00  0.39999999674E+01  0.40000000000E+01  0.51100000000E-03 0.  1.
    9000002   -1    0    0    0    0 -0.00000000000E+00 -0.00000000000E+00  0.00000000000E+00  0.93800000000E+00  0.93800000000E+00 0.  1.
         11    1    1    2    0    0  0.33074549933E-01  0.10351707376E+00  0.14672757018E+01  0.14712946532E+01  0.51100000000E-03 0.  1.
    9000002    1    1    2    0    0 -0.32661226349E-01 -0.35830804958E+00  0.87717977060E-01  0.10084591502E+01  0.93800000000E+00 0.  1.
         22    1    1    2    0    0 -0.41332358390E-03  0.25479097582E+00  0.24450062885E+01  0.24582461966E+01  0.00000000000E+00 0.  1.
</event>
<event>
 5    1  0.6564536E+001  0.1599673E+01  0.7818608E-02  0.3353719E+00
         11   -1    0    0    0    0  0.00000000000E+00  0.00000000000E+00  0.39999999674E+01  0.40000000000E+01  0.51100000000E-03 0.  1.
    9000002   -1    0    0    0    0 -0.00000000000E+00 -0.00000000000E+00  0.00000000000E+00  0.93800000000E+00  0.93800000000E+00 0. -1.
         11    1    1    2    0    0  0.57226065084E-01 -0.12304189464E+00  0.14373506968E+01  0.14437421574E+01  0.51100000000E-03 0.  1.
    9000002    1    1    2    0    0 -0.14914837523E+00  0.33462704163E+00  0.90166507587E-01  0.10110363465E+01  0.93800000000E+00 0. -1.
         22    1    1    2    0    0  0.91922310143E-01 -0.21158514700E+00  0.24724827630E+01  0.24832214961E+01  0.00000000000E+00 0.  1.
</event>
<event>
 5    1  0.6564536E+001  0.1599370E+01  0.7818608E-02  0.3354047E+00
         11   -1    0    0    0    0  0.00000000000E+00  0.00000000000E+00  0.39999999674E+01  0.40000000000E+01  0.51100000000E-03 0.  1.
    9000002   -1    0    0    0    0 -0.00000000000E+00 -0.00000000000E+00  0.00000000000E+00  0.93800000000E+00  0.93800000000E+00 0.  1.
         11    1    1    2    0    0  0.92305008427E-01 -0.48209800842E-01  0.71520383160E+00  0.72274558548E+00  0.51100000000E-03 0.  1.
    9000002    1    1    2    0    0 -0.44202709665E+00  0.32909597531E+00  0.21009366827E+00  0.11080051735E+01  0.93800000000E+00 0.  1.
         22    1    1    2    0    0  0.34972208822E+00 -0.28088617447E+00  0.30747024675E+01  0.31072492410E+01  0.00000000000E+00 0.  1.
</event>
<event>
 5    1  0.6564536E+001  0.1599103E+01  0.7818608E-02  0.3354337E+00
         11   -1    0    0    0    0  0.00000000000E+00  0.00000000000E+00  0.39999999674E+01  0.40000000000E+01  0.51100000000E-03 0. -1.
    9000002   -1    0    0    0    0 -0.00000000000E+00 -0.00000000000E+00  0.00000000000E+00  0.93800000000E+00  0.93800000000E+00 0.  1.
         11    1    1    2    0    0 -0.23815600636E-01  0.31960761767E-01  0.43856912996E+00  0.44037690221E+00  0.51100000000E-03 0. -1.
    9000002    1    1    2    0    0  0.31946178975E+00 -0.16319284122E+00  0.86835517466E-01  0.10080040405E+01  0.93800000000E+00 0.  1.
         22    1    1    2    0    0 -0.29564618911E+00  0.13123207945E+00  0.34745953199E+01  0.34896190573E+01  0.00000000000E+00 0. -1.
</event>
<event>
 5    1  0.6564536E+001  0.1525876E+01  0.7818608E-02  0.3437966E+00
         11   -1    0    0    0    0  0.00000000000E+00  0.00000000000E+00  0.39999999674E+01  0.40000000000E+01  0.51100000000E-03 0.  1.
    9000002   -1    0    0    0    0 -0.00000000000E+00 -0.00000000000E+00  0.00000000000E+00  0.93800000000E+00  0.93800000000E+00 0. -1.
         11    1    1    2    0    0 -0.19146325933E+00 -0.36365489560E-01  0.11576696401E+01  0.11739590645E+01  0.51100000000E-03 0.  1.
    9000002    1    1    2    0    0 -0.36013162540E+00  0.13081713879E+00  0.16223743862E+00  0.10261446769E+01  0.93800000000E+00 0. -1.
         22    1    1    2    0    0  0.55159488473E+00 -0.94451649234E-01  0.26800928887E+01  0.27378962586E+01  0.00000000000E+00 0.  1.
</event>
<event>
 5    1  0.6564536E+001  0.1599596E+01  0.7818608E-02  0.3353801E+00
         11   -1    0    0    0    0  0.00000000000E+00  0.00000000000E+00  0.39999999674E+01  0.40000000000E+01  0.51100000000E-03 0. -1.
    9000002   -1    0    0    0    0 -0.00000000000E+00 -0.00000000000E+00  0.00000000000E+00  0.93800000000E+00  0.93800000000E+00 0.  1.
         11    1    1    2    0    0 -0.53378526766E-02 -0.15457285235E-02  0.50777970706E-01  0.51083709516E-01  0.51100000000E-03 0. -1.
    9000002    1    1    2    0    0  0.54641565050E+00  0.84360374005E-02  0.20621028803E+00  0.11049922682E+01  0.93800000000E+00 0.  1.
         22    1    1    2    0    0 -0.54107779782E+00 -0.68903088770E-02  0.37430117086E+01  0.37819240223E+01  0.00000000000E+00 0. -1.
</event>
<event>
 5    1  0.6564536E+001  0.1599437E+01  0.7818608E-02  0.3353975E+00
         11   -1    0    0    0    0  0.00000000000E+00  0.00000000000E+00  0.39999999674E+01  0.40000000000E+01  0.51100000000E-03 0. -1.
    9000002   -1    0    0    0    0 -0.00000000000E+00 -0.00000000000E+00  0.00000000000E+00  0.93800000000E+00  0.93800000000E+00 0.  1.
         11    1    1    2    0    0 -0.86809069939E-01  0.11468442441E+00  0.13125250770E+01  0.13203827743E+01  0.51100000000E-03 0. -1.
    9000002    1    1    2    0    0  0.30423071666E+00 -0.35308054352E+00  0.14810187676E+00  0.10578281359E+01  0.93800000000E+00 0.  1.
         22    1    1    2    0    0 -0.21742164672E+00  0.23839611911E+00  0.25393730136E+01  0.25597890898E+01  0.00000000000E+00 0. -1.
</event>
<event>
 5    1  0.6564536E+001  0.1599677E+01  0.7818608E-02  0.3353714E+00
         11   -1    0    0    0    0  0.00000000000E+00  0.00000000000E+00  0.39999999674E+01  0.40000000000E+01  0.51100000000E-03 0.  1.
    9000002   -1    0    0    0    0 -0.00000000000E+00 -0.00000000000E+00  0.00000000000E+00  0.93800000000E+00  0.93800000000E+00 0.  1.
         11    1    1    2    0    0  0.69420814438E-01  0.42402209887E-01  0.82027038671E+00  0.82429422254E+00  0.51100000000E-03 0. -1.
    9000002    1    1    2    0    0 -0.33005008712E+00 -0.20154423979E+00  0.10070814850E+00  0.10195779871E+01  0.93800000000E+00 0.  1.
         22    1    1    2    0    0  0.26062927268E+00  0.15914202990E+00  0.30790214321E+01  0.30941277904E+01  0.00000000000E+00 0.  1.
</event>
<event>
 5    1  0.6564536E+001  0.1599673E+01  0.7818608E-02  0.3353719E+00
         11   -1    0    0    0    0  0.00000000000E+00  0.00000000000E+00  0.39999999674E+01  0.40000000000E+01  0.51100000000E-03 0. -1.
    9000002   -1    0    0    0    0 -0.00000000000E+00 -0.00000000000E+00  0.00000000000E+00  0.93800000000E+00  0.93800000000E+00 0.  1.
         11    1    1    2    0    0 -0.81174532377E-01  0.95503797841E-01  0.12997852529E+01  0.13058147820E+01  0.51100000000E-03 0. -1.
    9000002    1    1    2    0    0  0.24204139974E+00 -0.28041187513E+00  0.92221729164E-01  0.10127011930E+01  0.93800000000E+00 0.  1.
         22    1    1    2    0    0 -0.16086686736E+00  0.18490807729E+00  0.26079929853E+01  0.26194840251E+01  0.00000000000E+00 0. -1.
</event>
<event>
 5    1  0.6564536E+001  0.1599625E+01  0.7818608E-02  0.3353771E+00
         11   -1    0    0    0    0  0.00000000000E+00  0.00000000000E+00  0.39999999674E+01  0.40000000000E+01  0.51100000000E-03 0.  1.
    9000002   -1    0    0    0    0 -0.00000000000E+00 -0.00000000000E+00  0.00000000000E+00  0.93800000000E+00  0.93800000000E+00 0. -1.
         11    1    1    2    0    0 -0.14212257432E-01  0.16354098959E-01  0.26229500745E+00  0.26318886160E+00  0.51100000000E-03 0.  1.
    9000002    1    1    2    0    0  0.19091958570E+00 -0.30505995202E+00  0.86977515238E-01  0.10084249852E+01  0.93800000000E+00 0. -1.
         22    1    1    2    0    0 -0.17670732827E+00  0.28870585306E+00  0.36507274447E+01  0.36663861532E+01  0.00000000000E+00 0.  1.
</event>
<event>
 5    1  0.6564536E+001  0.1599629E+01  0.7818608E-02  0.3353766E+00
         11   -1    0    0    0    0  0.00000000000E+00  0.00000000000E+00  0.39999999674E+01  0.40000000000E+01  0.51100000000E-03 0.  1.
    9000002   -1    0    0    0    0 -0.00000000000E+00 -0.00000000000E+00  0.00000000000E+00  0.93800000000E+00  0.93800000000E+00 0.  1.
         11    1    1    2    0    0 -0.98406455181E-01  0.77398571352E-01  0.13853999466E+01  0.13910455213E+01  0.51100000000E-03 0.  1.
    9000002    1    1    2    0    0  0.29750871809E+00 -0.20751797929E+00  0.88387991211E-01  0.10095700006E+01  0.93800000000E+00 0.  1.
         22    1    1    2    0    0 -0.19910226291E+00  0.13011940794E+00  0.25262120295E+01  0.25373844781E+01  0.00000000000E+00 0.  1.
</event>
<event>
 5    1  0.6564536E+001  0.1591758E+01  0.7818608E-02  0.3362358E+00
         11   -1    0    0    0    0  0.00000000000E+00  0.00000000000E+00  0.39999999674E+01  0.40000000000E+01  0.51100000000E-03 0. -1.
    9000002   -1    0    0    0    0 -0.00000000000E+00 -0.00000000000E+00  0.00000000000E+00  0.93800000000E+00  0.93800000000E+00 0.  1.
         11    1    1    2    0    0 -0.14139293607E-01 -0.30408778533E-01  0.50851756283E-01  0.60916136398E-01  0.51100000000E-03 0. -1.
    9000002    1    1    2    0    0  0.86417770506E+00  0.20771480687E+00  0.61383302609E+00  0.14305885260E+01  0.93800000000E+00 0.  1.
         22    1    1    2    0    0 -0.85003841145E+00 -0.17730602834E+00  0.33353151850E+01  0.34464953376E+01  0.00000000000E+00 0. -1.
</event>
<event>
 5    1  0.6564536E+001  0.1466216E+01  0.7818608E-02  0.3512730E+00
         11   -1    0    0    0    0  0.00000000000E+00  0.00000000000E+00  0.39999999674E+01  0.40000000000E+01  0.51100000000E-03 0. -1.
    9000002   -1    0    0    0    0 -0.00000000000E+00 -0.00000000000E+00  0.00000000000E+00  0.93800000000E+00  0.93800000000E+00 0.  1.
         11    1    1    2    0    0  0.24241364572E+00 -0.27793796352E+00  0.65237306995E+00  0.74940294282E+00  0.51100000000E-03 0. -1.
    9000002    1    1    2    0    0 -0.36329119229E+00 -0.65596687481E-01  0.20970561404E+00  0.10296134519E+01  0.93800000000E+00 0.  1.
         22    1    1    2    0    0  0.12087754658E+00  0.34353465100E+00  0.31379212834E+01  0.31589836053E+01  0.00000000000E+00 0. -1.
</event>
<event>
 5    1  0.6564536E+001  0.1599669E+01  0.7818608E-02  0.3353723E+00
         11   -1    0    0    0    0  0.00000000000E+00  0.00000000000E+00  0.39999999674E+01  0.40000000000E+01  0.51100000000E-03 0.  1.
    9000002   -1    0    0    0    0 -0.00000000000E+00 -0.00000000000E+00  0.00000000000E+00  0.93800000000E+00  0.93800000000E+00 0. -1.
         11    1    1    2    0    0 -0.46789891000E-02  0.56553643039E-01  0.50374102088E+00  0.50692749453E+00  0.51100000000E-03 0.  1.
    9000002    1    1    2    0    0  0.52293166243E-01 -0.42898018772E+00  0.12652479337E+00  0.10404859922E+01  0.93800000000E+00 0. -1.
         22    1    1    2    0    0 -0.47614177143E-01  0.37242654468E+00  0.33697341531E+01  0.33905865132E+01  0.00000000000E+00 0.  1.
</event>
<event>
 5    1  0.6564536E+001  0.1599612E+01  0.7818608E-02  0.3353785E+00
         11   -1    0    0    0    0  0.00000000000E+00  0.00000000000E+00  0.39999999674E+01  0.40000000000E+01  0.51100000000E-03 0.  1.
    9000002   -1    0    0    0    0 -0.00000000000E+00 -0.00000000000E+00  0.00000000000E+00  0.93800000000E+00  0.93800000000E+00 0.  1.
         11    1    1    2    0    0 -0.33351104962E-01  0.17782670519E-01  0.45599618541E+00  0.45756016194E+00  0.51100000000E-03 0.  1.
    9000002    1    1    2    0    0  0.33318692122E+00 -0.12680831890E+00  0.85332333031E-01  0.10070846445E+01  0.93800000000E+00 0.  1.
         22    1    1    2    0    0 -0.29983581626E+00  0.10902564838E+00  0.34586714489E+01  0.34733551935E+01  0.00000000000E+00 0.  1.
</event>
<event>
 5    1  0.6564536E+001  0.1598567E+01  0.7818608E-02  0.3354921E+00
         11   -1    0    0    0    0  0.00000000000E+00  0.00000000000E+00  0.39999999674E+01  0.40000000000E+01  0.51100000000E-03 0.  1.
    9000002   -1    0    0    0    0 -0.00000000000E+00 -0.00000000000E+00  0.00000000000E+00  0.93800000000E+00  0.93800000000E+00 0. -1.
         11    1    1    2    0    0 -0.20174233413E-02  0.17328970557E-01  0.51090663502E+00  0.51120466943E+00  0.51100000000E-03 0.  1.
    9000002    1    1    2    0    0  0.35620544015E-01 -0.33959020012E+00  0.78992301509E-01  0.10013361628E+01  0.93800000000E+00 0. -1.
         22    1    1    2    0    0 -0.33603120674E-01  0.32226122956E+00  0.34101010308E+01  0.34254591678E+01  0.00000000000E+00 0.  1.
</event>
<event>
 5    1  0.7536706E+001  0.1599673E+01  0.7818608E-02  0.3353718E+00
         11   -1    0    0    0    0  0.00000000000E+00  0.00000000000E+00  0.39999999674E+01  0.40000000000E+01  0.51100000000E-03 0.  1.
    9000002   -1    0    0    0    0 -0.00000000000E+00 -0.00000000000E+00  0.00000000000E+00  0.93800000000E+00  0.93800000000E+00 0.  1.
         11    1    1    2    0    0 -0.11419722065E+00 -0.52448173076E-01  0.13762401367E+01  0.13819656258E+01  0.51100000000E-03 0.  1.
    9000002    1    1    2    0    0  0.32018004259E+00  0.15351384837E+00  0.84589964276E-01  0.10065193607E+01  0.93800000000E+00 0.  1.
         22    1    1    2    0    0 -0.20598282194E+00 -0.10106567530E+00  0.25391698664E+01  0.25495150135E+01  0.00000000000E+00 0.  1.
</event>
<event>
 5    1  0.9011024E+001  0.1599664E+01  0.7818608E-02  0.3353728E+00
         11   -1    0    0    0    0  0.00000000000E+00  0.00000000000E+00  0.39999999674E+01  0.40000000000E+01  0.51100000000E-03 0.  1.
    9000002   -1    0    0    0    0 -0.00000000000E+00 -0.00000000000E+00  0.00000000000E+00  0.93800000000E+00  0.93800000000E+00 0.  1.
         11    1    1    2    0    0  0.46424953587E-01 -0.12091036421E+00  0.14856191003E+01  0.14912541583E+01  0.51100000000E-03 0.  1.
    9000002    1    1    2    0    0 -0.12861541707E+00  0.32813438277E+00  0.83320018200E-01  0.10054851188E+01  0.93800000000E+00 0.  1.
         22    1    1    2    0    0  0.82190463479E-01 -0.20722401856E+00  0.24310608489E+01  0.24412607229E+01  0.00000000000E+00 0.  1.
</event>
<event>
 5    1  0.7205406E+001  0.1583347E+01  0.7818608E-02  0.3371638E+00
         11   -1    0    0    0    0  0.00000000000E+00  0.00000000000E+00  0.39999999674E+01  0.40000000000E+01  0.51100000000E-03 0. -1.
    9000002   -1    0    0    0    0 -0.00000000000E+00 -0.00000000000E+00  0.00000000000E+00  0.93800000000E+00  0.93800000000E+00 0.  1.
         11    1    1    2    0    0 -0.80943543658E-01 -0.60801925524E-01  0.11991626926E+01  0.12034285006E+01  0.51100000000E-03 0. -1.
    9000002    1    1    2    0    0  0.47669991550E-01 -0.21087602190E+00  0.43386986251E-01  0.96357021295E+00  0.93800000000E+00 0.  1.
         22    1    1    2    0    0  0.33273552108E-01  0.27167794742E+00  0.27574502885E+01  0.27710012865E+01  0.00000000000E+00 0. -1.
</event>
<event>
 5    1  0.6564536E+001  0.1585081E+01  0.7818608E-02  0.3369717E+00
         11   -1    0    0    0    0  0.00000000000E+00  0.00000000000E+00  0.39999999674E+01  0.40000000000E+01  0.51100000000E-03 0.  1.
    9000002   -1    0    0    0    0 -0.00000000000E+00 -0.00000000000E+00  0.00000000000E+00  0.93800000000E+00  0.93800000000E+00 0. -1.
         11    1    1    2    0    0 -0.59262424721E-01  0.48407903253E-01  0.49092967712E+00  0.49685769500E+00  0.51100000000E-03 0.  1.
    9000002    1    1    2    0    0 -0.27100441508E+00 -0.19336753300E+00  0.85905488367E-01  0.99902860256E+00  0.93800000000E+00 0. -1.
         22    1    1    2    0    0  0.33026683980E+00  0.14495962974E+00  0.34231648019E+01  0.34421137024E+01  0.00000000000E+00 0.  1.
</event>
<event>
 5    1  0.6564536E+001  0.1569610E+01  0.7818608E-02  0.3387023E+00
         11   -1    0    0    0    0  0.00000000000E+00  0.00000000000E+00  0.39999999674E+01  0.40000000000E+01  0.51100000000E-03 0.  1.
    9000002   -1    0    0    0    0 -0.00000000000E+00 -0.00000000000E+00  0.00000000000E+00  0.93800000000E+00  0.93800000000E+00 0.  1.
         11    1    1    2    0    0  0.15953662219E+00 -0.15674818431E+00  0.14474347535E+01  0.14646124245E+01  0.51100000000E-03 0.  1.
    9000002    1    1    2    0    0  0.83805104452E-01  0.24782774250E+00  0.68971142590E-01  0.97623916332E+00  0.93800000000E+00 0.  1.
         22    1    1    2    0    0 -0.24334172664E+00 -0.91079558192E-01  0.24835940713E+01  0.24971484122E+01  0.00000000000E+00 0.  1.
</event>
<event>
 5    1  0.6564536E+001  0.1574375E+01  0.7818608E-02  0.3381654E+00
         11   -1    0    0    0    0  0.00000000000E+00  0.00000000000E+00  0.39999999674E+01  0.40000000000E+01  0.51100000000E-03 0. -1.
    9000002   -1    0    0    0    0 -0.00000000000E+00 -0.00000000000E+00  0.00000000000E+00  0.93800000000E+00  0.93800000000E+00 0. -1.
         11    1    1    2    0    0 -0.23240614792E+00  0.34007381159E-01  0.10067011447E+01  0.10337391234E+01  0.51100000000E-03 0. -1.
    9000002    1    1    2    0    0  0.28575138787E+00 -0.36561374577E+00  0.16900153829E+00  0.10600626334E+01  0.93800000000E+00 0. -1.
         22    1    1    2    0    0 -0.53345239944E-01  0.33160636461E+00  0.28242972844E+01  0.28441982432E+01  0.00000000000E+00 0. -1.
</event>
<event>
 5    1  0.6564536E+001  0.1599614E+01  0.7818608E-02  0.3353782E+00
         11   -1    0    0    0    0  0.00000000000E+00  0.00000000000E+00  0.39999999674E+01  0.40000000000E+01  0.51100000000E-03 0.  1.
    9000002   -1    0    0    0    0 -0.00000000000E+00 -0.00000000000E+00  0.00000000000E+00  0.93800000000E+00  0.93800000000E+00 0. -1.
         11    1    1    2    0    0  0.11531033236E+00 -0.56343450146E-01  0.11002720959E+01  0.11077319185E+01  0.51100000000E-03 0.  1.
    9000002    1    1    2    0    0 -0.37673076904E+00  0.20602454457E+00  0.12490620137E+00  0.10391427931E+01  0.93800000000E+00 0. -1.
         22    1    1    2    0    0  0.26142043669E+00 -0.14968109442E+00  0.27748216701E+01  0.27911252884E+01  0.00000000000E+00 0.  1.
</event>
<event>
 5    1  0.7465098E+001  0.1455556E+01  0.7818608E-02  0.3526788E+00
         11   -1    0    0    0    0  0.00000000000E+00  0.00000000000E+00  0.39999999674E+01  0.40000000000E+01  0.51100000000E-03 0. -1.
    9000002   -1    0    0    0    0 -0.00000000000E+00 -0.00000000000E+00  0.00000000000E+00  0.93800000000E+00  0.93800000000E+00 0. -1.
         11    1    1    2    0    0 -0.64247202054E-01  0.14590630116E+00  0.81987792677E-01  0.17927244897E+00  0.51100000000E-03 0. -1.
    9000002    1    1    2    0    0  0.92949898551E-01  0.19449618975E+00  0.14858573285E+00  0.97385325972E+00  0.93800000000E+00 0. -1.
         22    1    1    2    0    0 -0.28702696498E-01 -0.34040249091E+00  0.37694264418E+01  0.37848742913E+01  0.00000000000E+00 0. -1.
</event>
<event>
 5    1  0.6564536E+001  0.1598053E+01  0.7818608E-02  0.3355479E+00
         11   -1    0    0    0    0  0.00000000000E+00  0.00000000000E+00  0.39999999674E+01  0.40000000000E+01  0.51100000000E-03 0. -1.
    9000002   -1    0    0    0    0 -0.00000000000E+00 -0.00000000000E+00  0.00000000000E+00  0.93800000000E+00  0.93800000000E+00 0.  1.
         11    1    1    2    0    0 -0.50096362207E-02 -0.90754496042E-03  0.47387233494E-01  0.47662680496E-01  0.51100000000E-03 0. -1.
    9000002    1    1    2    0    0 -0.35411324722E+00 -0.34281108018E+00  0.16754706569E+00  0.10727682172E+01  0.93800000000E+00 0.  1.
         22    1    1    2    0    0  0.35912288344E+00  0.34371862514E+00  0.37850656682E+01  0.38175691023E+01  0.00000000000E+00 0. -1.
</event>
<event>
 5    1  0.6564536E+001  0.1599668E+01  0.7818608E-02  0.3353724E+00
         11   -1    0    0    0    0  0.00000000000E+00  0.00000000000E+00  0.39999999674E+01  0.40000000000E+01  0.51100000000E-03 0.  1.
    9000002   -1    0    0    0    0 -0.00000000000E+00 -0.00000000000E+00  0.00000000000E+00  0.93800000000E+00  0.93800000000E+00 0. -1.
         11    1    1    2    0    0  0.17868707435E+00 -0.62926982643E-01  0.12712509862E+01  0.12852891530E+01  0.51100000000E-03 0.  1.
    9000002    1    1    2    0    0 -0.52812260306E+00  0.19690039262E+00  0.22001110422E+00  0.11162133015E+01  0.93800000000E+00 0. -1.
         22    1    1    2    0    0  0.34943552871E+00 -0.13397340997E+00  0.25087378769E+01  0.25364975455E+01  0.00000000000E+00 0.  1.
</event>
<event>
 5    1  0.6564536E+001  0.1579096E+01  0.7818608E-02  0.3376369E+00
         11   -1    0    0    0    0  0.00000000000E+00  0.00000000000E+00  0.39999999674E+01  0.40000000000E+01  0.51100000000E-03 0.  1.
    9000002   -1    0    0    0    0 -0.00000000000E+00 -0.00000000000E+00  0.00000000000E+00  0.93800000000E+00  0.93800000000E+00 0.  1.
         11    1    1    2    0    0  0.20801484502E+00 -0.47423961063E-01  0.90840126191E+00  0.93311967163E+00  0.51100000000E-03 0.  1.
    9000002    1    1    2    0    0 -0.37365773928E+00  0.57363167284E+00  0.35656566117E+00  0.12147660157E+01  0.93800000000E+00 0.  1.
         22    1    1    2    0    0  0.16564289426E+00 -0.52620771177E+00  0.27350330443E+01  0.27901143127E+01  0.00000000000E+00 0.  1.
</event>
<event>
 5    1  0.6564536E+001  0.1524265E+01  0.7818608E-02  0.3439901E+00
         11   -1    0    0    0    0  0.00000000000E+00  0.00000000000E+00  0.39999999674E+01  0.40000000000E+01  0.51100000000E-03 0. -1.
    9000002   -1    0    0    0    0 -0.00000000000E+00 -0.00000000000E+00  0.00000000000E+00  0.93800000000E+00  0.93800000000E+00 0. -1.
         11    1    1    2    0    0  0.10147257162E+00  0.40447813529E-01  0.10388621497E+00  0.15074917974E+00  0.51100000000E-03 0. -1.
    9000002    1    1    2    0    0  0.31714868785E+00 -0.13230234404E+00  0.14229875440E+00  0.10090491246E+01  0.93800000000E+00 0. -1.
         22    1    1    2    0    0 -0.41862125947E+00  0.91854530509E-01  0.37538149980E+01  0.37782016956E+01  0.00000000000E+00 0. -1.
</event>
<event>
 5    1  0.6564536E+001  0.1510566E+01  0.7818608E-02  0.3456545E+00
         11   -1    0    0    0    0  0.00000000000E+00  0.00000000000E+00  0.39999999674E+01  0.40000000000E+01  0.51100000000E-03 0.  1.
    9000002   -1    0    0    0    0 -0.00000000000E+00 -0.00000000000E+00  0.00000000000E+00  0.93800000000E+00  0.93800000000E+00 0. -1.
         11    1    1    2    0    0 -0.15972018423E+00 -0.13600891302E+00  0.40056266855E+00  0.45217217321E+00  0.51100000000E-03 0.  1.
    9000002    1    1    2    0    0 -0.21428752142E+00  0.72492048430E-01  0.10469581531E+00  0.97055625940E+00  0.93800000000E+00 0. -1.
         22    1    1    2    0    0  0.37400770565E+00  0.63516864586E-01  0.34947414835E+01  0.35152715674E+01  0.00000000000E+00 0.  1.
</event>
<event>
 5    1  0.6564536E+001  0.1599513E+01  0.7818608E-02  0.3353892E+00
         11   -1    0    0    0    0  0.00000000000E+00  0.00000000000E+00  0.39999999674E+01  0.40000000000E+01  0.51100000000E-03 0. -1.
    9000002   -1    0    0    0    0 -0.00000000000E+00 -0.00000000000E+00  0.00000000000E+00  0.93800000000E+00  0.93800000000E+00 0.  1.
         11    1    1    2    0    0  0.19423465173E+00 -0.44204811769E-01  0.14715820167E+01  0.14850033866E+01  0.51100000000E-03 0. -1.
    9000002    1    1    2    0    0 -0.46888098411E+00  0.12589354677E+00  0.16110880217E+00  0.10684093825E+01  0.93800000000E+00 0.  1.
         22    1    1    2    0    0  0.27464633237E+00 -0.81688735004E-01  0.23673091485E+01  0.23845872309E+01  0.00000000000E+00 0. -1.
</event>
<event>
 5    1  0.6564536E+001  0.1599586E+01  0.7818608E-02  0.3353812E+00
         11   -1    0    0    0    0  0.00000000000E+00  0.00000000000E+00  0.39999999674E+01  0.40000000000E+01  0.51100000000E-03 0. -1.
    9000002   -1    0    0    0    0 -0.00000000000E+00 -0.00000000000E+00  0.00000000000E+00  0.93800000000E+00  0.93800000000E+00 0.  1.
         11    1    1    2    0    0 -0.25728232670E-01  0.14709435994E+00  0.87805529941E+00  0.89066270980E+00  0.51100000000E-03 0. -1.
    9000002    1    1    2    0    0  0.10251943669E+00 -0.65850272776E+00  0.31476318200E+00  0.11929190828E+01  0.93800000000E+00 0.  1.
         22    1    1    2    0    0 -0.76791204017E-01  0.51140836781E+00  0.28071814859E+01  0.28544182074E+01  0.00000000000E+00 0. -1.
</event>
<event>
 5    1  0.6564536E+001  0.1592748E+01  0.7818608E-02  0.3361272E+00
         11   -1    0    0    0    0  0.00000000000E+00  0.00000000000E+00  0.39999999674E+01  0.40000000000E+01  0.51100000000E-03 0. -1.
    9000002   -1    0    0    0    0 -0.00000000000E+00 -0.00000000000E+00  0.00000000000E+00  0.93800000000E+00  0.93800000000E+00 0.  1.
         11    1    1    2    0    0 -0.24239418987E-01  0.52400950973E-01  0.50379067472E+00  0.50708846778E+00  0.51100000000E-03 0. -1.
    9000002    1    1    2    0    0  0.52937213242E+00 -0.17423280992E-01  0.19948040915E+00  0.10955249239E+01  0.93800000000E+00 0.  1.
         22    1    1    2    0    0 -0.50513271343E+00 -0.34977669981E-01  0.32967288835E+01  0.33353866083E+01  0.00000000000E+00 0. -1.
</event>
<event>
 5    1  0.6564536E+001  0.1515819E+01  0.7818608E-02  0.3450125E+00
         11   -1    0    0    0    0  0.00000000000E+00  0.00000000000E+00  0.39999999674E+01  0.40000000000E+01  0.51100000000E-03 0.  1.
    9000002   -1    0    0    0    0 -0.00000000000E+00 -0.00000000000E+00  0.00000000000E+00  0.93800000000E+00  0.93800000000E+00 0.  1.
         11    1    1    2    0    0 -0.96860800962E-01 -0.25111917086E+00  0.81698084380E+00  0.86017487350E+00  0.51100000000E-03 0.  1.
    9000002    1    1    2    0    0  0.61677697057E-01 -0.99236679907E-01  0.73139495724E-01  0.94807459769E+00  0.93800000000E+00 0.  1.
         22    1    1    2    0    0  0.35183103905E-01  0.35035585077E+00  0.31098796278E+01  0.31297505288E+01  0.00000000000E+00 0.  1.
</event>
<event>
 5    1  0.6564536E+001  0.1599672E+01  0.7818608E-02  0.3353719E+00
         11   -1    0    0    0    0  0.00000000000E+00  0.00000000000E+00  0.39999999674E+01  0.40000000000E+01  0.51100000000E-03 0.  1.
    9000002   -1    0    0    0    0 -0.00000000000E+00 -0.00000000000E+00  0.00000000000E+00  0.93800000000E+00  0.93800000000E+00 0. -1.
         11    1    1    2    0    0 -0.29828248055E-02 -0.33629915657E-02  0.40741502040E-01  0.40991926834E-01  0.51100000000E-03 0. -1.
    9000002    1    1    2    0    0  0.29894416202E+00  0.33207134741E+00  0.13553239567E+00  0.10477843395E+01  0.93800000000E+00 0. -1.
         22    1    1    2    0    0 -0.29596133721E+00 -0.32870835584E+00  0.38237260696E+01  0.38492237337E+01  0.00000000000E+00 0.  1.
</event>
<event>
 5    1  0.6564536E+001  0.1599332E+01  0.7818608E-02  0.3354088E+00
         11   -1    0    0    0    0  0.00000000000E+00  0.00000000000E+00  0.39999999674E+01  0.40000000000E+01  0.51100000000E-03 0.  1.
    9000002   -1    0    0    0    0 -0.00000000000E+00 -0.00000000000E+00  0.00000000000E+00  0.93800000000E+00  0.93800000000E+00 0.  1.
         11    1    1    2    0    0 -0.10210433291E+00  0.85234742200E-01  0.14138901510E+01  0.14201323447E+01  0.51100000000E-03 0.  1.
    9000002    1    1    2    0    0  0.30823880150E+00 -0.18232233772E+00  0.86351776103E-01  0.10077466065E+01  0.93800000000E+00 0.  1.
         22    1    1    2    0    0 -0.20613446859E+00  0.97087595517E-01  0.24997580402E+01  0.25101210489E+01  0.00000000000E+00 0.  1.
</event>
<event>
 5    1  0.6564536E+001  0.1599530E+01  0.7818608E-02  0.3353874E+00
         11   -1    0    0    0    0  0.00000000000E+00  0.00000000000E+00  0.39999999674E+01  0.40000000000E+01  0.51100000000E-03 0. -1.
    9000002   -1    0    0    0    0 -0.00000000000E+00 -0.00000000000E+00  0.00000000000E+00  0.93800000000E+00  0.93800000000E+00 0. -1.
         11    1    1    2    0    0 -0.57721667026E-01  0.51848651914E-01  0.63881533524E+00  0.64351019200E+00  0.51100000000E-03 0. -1.
    9000002    1    1    2    0    0  0.29289136193E+00 -0.28444418555E+00  0.11268227137E+00  0.10291914977E+01  0.93800000000E+00 0. -1.
         22    1    1    2    0    0 -0.23516969490E+00  0.23259553363E+00  0.32485023607E+01  0.32652983103E+01  0.00000000000E+00 0. -1.
</event>
<event>
 5    1  0.6564536E+001  0.1598775E+01  0.7818608E-02  0.3354694E+00
         11   -1    0    0    0    0  0.00000000000E+00  0.00000000000E+00  0.39999999674E+01  0.40000000000E+01  0.51100000000E-03 0.  1.
    9000002   -1    0    0    0    0 -0.00000000000E+00 -0.00000000000E+00  0.00000000000E+00  0.93800000000E+00  0.93800000000E+00 0.  1.
         11    1    1    2    0    0 -0.10784787988E+00  0.19432465830E-01  0.99099098392E+00  0.99703168317E+00  0.51100000000E-03 0.  1.
    9000002    1    1    2    0    0  0.36630716336E+00  0.32565824972E-01  0.91598324709E-01  0.10116697702E+01  0.93800000000E+00 0.  1.
         22    1    1    2    0    0 -0.25845928349E+00 -0.51998290802E-01  0.29174106587E+01  0.29292985466E+01  0.00000000000E+00 0.  1.
</event>
<event>
 5    1  0.6564536E+001  0.1598856E+01  0.7818608E-02  0.3354606E+00
         11   -1    0    0    0    0  0.00000000000E+00  0.00000000000E+00  0.39999999674E+01  0.40000000000E+01  0.51100000000E-03 0. -1.
    9000002   -1    0    0    0    0 -0.00000000000E+00 -0.00000000000E+00  0.00000000000E+00  0.93800000000E+00  0.93800000000E+00 0. -1.
         11    1    1    2    0    0 -0.61164651775E-01 -0.13853353976E+00  0.92619887178E+00  0.93849734548E+00  0.51100000000E-03 0. -1.
    9000002    1    1    2    0    0  0.22133162417E+00  0.45298903861E+00  0.17487017677E+00  0.10791711336E+01  0.93800000000E+00 0. -1.
         22    1    1    2    0    0 -0.16016697240E+00 -0.31445549885E+00  0.28989309188E+01  0.29203315209E+01  0.00000000000E+00 0. -1.
</event>
<event>
 5    1  0.6564536E+001  0.1596515E+01  0.7818608E-02  0.3357154E+00
         11   -1    0    0    0    0  0.00000000000E+00  0.00000000000E+00  0.39999999674E+01  0.40000000000E+01  0.51100000000E-03 0. -1.
    9000002   -1    0    0    0    0 -0.00000000000E+00 -0.00000000000E+00  0.00000000000E+00  0.93800000000E+00  0.93800000000E+00 0. -1.
         11    1    1    2    0    0 -0.10905886966E+00  0.11708041335E+00  0.12502176899E+01  0.12604150877E+01  0.51100000000E-03 0. -1.
    9000002    1    1    2    0    0  0.35500061988E+00 -0.16822636928E+00  0.10662317152E+00  0.10225155511E+01  0.93800000000E+00 0. -1.
         22    1    1    2    0    0 -0.24594175022E+00  0.51145955935E-01  0.26431591060E+01  0.26550693612E+01  0.00000000000E+00 0. -1.
</event>
<event>
 5    1  0.6564536E+001  0.1596286E+01  0.7818608E-02  0.3357404E+00
         11   -1    0    0    0    0  0.00000000000E+00  0.00000000000E+00  0.39999999674E+01  0.40000000000E+01  0.51100000000E-03 0. -1.
    9000002   -1    0    0    0    0 -0.00000000000E+00 -0.00000000000E+00  0.00000000000E+00  0.93800000000E+00  0.93800000000E+00 0.  1.
         11    1    1    2    0    0 -0.31421128560E-02  0.58219480910E-01  0.12183955407E+01  0.12197898736E+01  0.51100000000E-03 0. -1.
    9000002    1    1    2    0    0 -0.11515712886E-01 -0.39328333111E+00  0.10714558053E+00  0.10228042655E+01  0.93800000000E+00 0.  1.
         22    1    1    2    0    0  0.14657825742E-01  0.33506385020E+00  0.26744588461E+01  0.26954058609E+01  0.00000000000E+00 0. -1.
</event>
<event>
 5    1  0.6564536E+001  0.1584329E+01  0.7818608E-02  0.3370549E+00
         11   -1    0    0    0    0  0.00000000000E+00  0.00000000000E+00  0.39999999674E+01  0.40000000000E+01  0.51100000000E-03 0.  1.
    9000002   -1    0    0    0    0 -0.00000000000E+00 -0.00000000000E+00  0.00000000000E+00  0.93800000000E+00  0.93800000000E+00 0. -1.
         11    1    1    2    0    0 -0.49517188584E-01  0.21329699750E+00  0.13200448393E+01  0.13380830318E+01  0.51100000000E-03 0.  1.
    9000002    1    1    2    0    0 -0.18179545784E+00 -0.37021413795E+00  0.12792600667E+00  0.10326263408E+01  0.93800000000E+00 0. -1.
         22    1    1    2    0    0  0.23131264642E+00  0.15691714045E+00  0.25520291214E+01  0.25672906275E+01  0.00000000000E+00 0.  1.
</event>
<event>
 5    1  0.6564536E+001  0.1599670E+01  0.7818608E-02  0.3353722E+00
         11   -1    0    0    0    0  0.00000000000E+00  0.00000000000E+00  0.39999999674E+01  0.40000000000E+01  0.51100000000E-03 0.  1.
    9000002   -1    0    0    0    0 -0.00000000000E+00 -0.00000000000E+00  0.00000000000E+00  0.93800000000E+00  0.93800000000E+00 0.  1.
         11    1    1    2    0    0  0.79074849926E-01 -0.28333940208E-01  0.79823973403E+00  0.80264723146E+00  0.51100000000E-03 0.  1.
    9000002    1    1    2    0    0 -0.38093957842E+00  0.12659657900E+00  0.10871893928E+00  0.10260630897E+01  0.93800000000E+00 0.  1.
         22    1    1    2    0    0  0.30186472849E+00 -0.98262638795E-01  0.30930412940E+01  0.31092896789E+01  0.00000000000E+00 0.  1.
</event>
<event>
 5    1  0.6564536E+001  0.1599659E+01  0.7818608E-02  0.3353734E+00
         11   -1    0    0    0    0  0.00000000000E+00  0.00000000000E+00  0.39999999674E+01  0.40000000000E+01  0.51100000000E-03 0. -1.
    9000002   -1    0    0    0    0 -0.00000000000E+00 -0.00000000000E+00  0.00000000000E+00  0.93800000000E+00  0.93800000000E+00 0. -1.
         11    1    1    2    0    0 -0.50404984682E-01  0.70923117989E-02  0.51584602533E+00  0.51835156635E+00  0.51100000000E-03 0. -1.
    9000002    1    1    2    0    0  0.35635245699E+00 -0.49465058803E-01  0.86896583098E-01  0.10083793343E+01  0.93800000000E+00 0. -1.
         22    1    1    2    0    0 -0.30594747231E+00  0.42372747004E-01  0.33972573589E+01  0.34112690994E+01  0.00000000000E+00 0. -1.
</event>
<event>
 5    1  0.6564536E+001  0.1598975E+01  0.7818608E-02  0.3354476E+00
         11   -1    0    0    0    0  0.00000000000E+00  0.00000000000E+00  0.39999999674E+01  0.40000000000E+01  0.51100000000E-03 0. -1.
    9000002   -1    0    0    0    0 -0.00000000000E+00 -0.00000000000E+00  0.00000000000E+00  0.93800000000E+00  0.93800000000E+00 0.  1.
         11    1    1    2    0    0  0.33630570101E-01  0.90772931573E-01  0.11887424459E+01  0.11926774937E+01  0.51100000000E-03 0. -1.
    9000002    1    1    2    0    0 -0.19850139627E+00 -0.33647845158E+00  0.10340421609E+00  0.10213505689E+01  0.93800000000E+00 0.  1.
         22    1    1    2    0    0  0.16487082617E+00  0.24570552001E+00  0.27078533054E+01  0.27239719374E+01  0.00000000000E+00 0. -1.
</event>
<event>
 5    1  0.8290755E+001  0.1590479E+01  0.7818608E-02  0.3363762E+00
         11   -1    0    0    0    0  0.00000000000E+00  0.00000000000E+00  0.39999999674E+01  0.40000000000E+01  0.51100000000E-03 0.  1.
    9000002   -1    0    0    0    0 -0.00000000000E+00 -0.00000000000E+00  0.00000000000E+00  0.93800000000E+00  0.93800000000E+00 0. -1.
         11    1    1    2    0    0  0.68319858752E-01  0.24757460794E-01  0.14719742295E+01  0.14737669179E+01  0.51100000000E-03 0.  1.
    9000002    1    1    2    0    0  0.73610564009E-01 -0.22085509698E+00  0.42966810899E-01  0.96741182329E+00  0.93800000000E+00 0. -1.
         22    1    1    2    0    0 -0.14193042276E+00  0.19609763618E+00  0.24850589270E+01  0.24968212588E+01  0.00000000000E+00 0.  1.
</event>
<event>
 5    1  0.6564536E+001  0.1517236E+01  0.7818608E-02  0.3448401E+00
         11   -1    0    0    0    0  0.00000000000E+00  0.00000000000E+00  0.39999999674E+01  0.40000000000E+01  0.51100000000E-03 0. -1.
    9000002   -1    0    0    0    0 -0.00000000000E+00 -0.00000000000E+00  0.00000000000E+00  0.93800000000E+00  0.93800000000E+00 0. -1.
         11    1    1    2    0    0  0.16073066016E+00 -0.21016692905E+00  0.10398051078E+01  0.10729396100E+01  0.51100000000E-03 0. -1.
    9000002    1    1    2    0    0 -0.32661249740E+00 -0.32810213535E+00  0.22172706945E+00  0.10692677999E+01  0.93800000000E+00 0. -1.
         22    1    1    2    0    0  0.16588183724E+00  0.53826906440E+00  0.27384677901E+01  0.27957925901E+01  0.00000000000E+00 0. -1.
</event>
<event>
 5    1  0.6564536E+001  0.1599677E+01  0.7818608E-02  0.3353714E+00
         11   -1    0    0    0    0  0.00000000000E+00  0.00000000000E+00  0.39999999674E+01  0.40000000000E+01  0.51100000000E-03 0.  1.
    9000002   -1    0    0    0    0 -0.00000000000E+00 -0.00000000000E+00  0.00000000000E+00  0.93800000000E+00  0.93800000000E+00 0. -1.
         11    1    1    2    0    0 -0.14759146122E+00 -0.17526063437E-01  0.13810093296E+01  0.13889843166E+01  0.51100000000E-03 0.  1.
    9000002    1    1    2    0    0  0.41578646373E+00  0.49171344237E-01  0.11853251733E+00  0.10340165193E+01  0.93800000000E+00 0. -1.
         22    1    1    2    0    0 -0.26819500251E+00 -0.31645280800E-01  0.25004581205E+01  0.25149991641E+01  0.00000000000E+00 0.  1.
</event>
<event>
 5    1  0.6564536E+001  0.1599635E+01  0.7818608E-02  0.3353760E+00
         11   -1    0    0    0    0  0.00000000000E+00  0.00000000000E+00  0.39999999674E+01  0.40000000000E+01  0.51100000000E-03 0.  1.
    9000002   -1    0    0    0    0 -0.00000000000E+00 -0.00000000000E+00  0.00000000000E+00  0.93800000000E+00  0.93800000000E+00 0. -1.
         11    1    1    2    0    0  0.10755567919E+00 -0.27661240357E-01  0.11914628290E+01  0.11966274701E+01  0.51100000000E-03 0.  1.
    9000002    1    1    2    0    0 -0.36292614112E+00  0.11178598858E+00  0.97063165449E-01  0.10166005849E+01  0.93800000000E+00 0. -1.
         22    1    1    2    0    0  0.25537046192E+00 -0.84124748228E-01  0.27114739730E+01  0.27247719450E+01  0.00000000000E+00 0.  1.
</event>
<event>
 5    1  0.6564536E+001  0.1575773E+01  0.7818608E-02  0.3380086E+00
         11   -1    0    0    0    0  0.00000000000E+00  0.00000000000E+00  0.39999999674E+01  0.40000000000E+01  0.51100000000E-03 0.  1.
    9000002   -1    0    0    0    0 -0.00000000000E+00 -0.00000000000E+00  0.00000000000E+00  0.93800000000E+00  0.93800000000E+00 0.  1.
         11    1    1    2    0    0  0.11407973773E+00 -0.41949121686E-01  0.99913439152E+00  0.10065007247E+01  0.51100000000E-03 0.  1.
    9000002    1    1    2    0    0 -0.20226943847E-01 -0.30662950685E+00  0.82064167659E-01  0.99045914168E+00  0.93800000000E+00 0.  1.
         22    1    1    2    0    0 -0.93852793878E-01  0.34857862853E+00  0.29188014082E+01  0.29410401336E+01  0.00000000000E+00 0.  1.
</event>
<event>
 5    1  0.6564536E+001  0.1588283E+01  0.7818608E-02  0.3366180E+00
         11   -1    0    0    0    0  0.00000000000E+00  0.00000000000E+00  0.39999999674E+01  0.40000000000E+01  0.51100000000E-03 0.  1.
    9000002   -1    0    0    0    0 -0.00000000000E+00 -0.00000000000E+00  0.00000000000E+00  0.93800000000E+00  0.93800000000E+00 0.  1.
         11    1    1    2    0    0  0.56320940708E-01  0.12107252335E+00  0.14316778396E+01  0.14378916168E+01  0.51100000000E-03 0.  1.
    9000002    1    1    2    0    0  0.18369373597E+00 -0.33671428865E+00  0.10846534820E+00  0.10191803729E+01  0.93800000000E+00 0.  1.
         22    1    1    2    0    0 -0.24001467668E+00  0.21564176529E+00  0.24598567796E+01  0.24809280102E+01  0.00000000000E+00 0.  1.
</event>
<event>
 5    1  0.6564536E+001  0.1599677E+01  0.7818608E-02  0.3353714E+00
         11   -1    0    0    0    0  0.00000000000E+00  0.00000000000E+00  0.39999999674E+01  0.40000000000E+01  0.51100000000E-03 0.  1.
    9000002   -1    0    0    0    0 -0.00000000000E+00 -0.00000000000E+00  0.00000000000E+00  0.93800000000E+00  0.93800000000E+00 0.  1.
         11    1    1    2    0    0  0.18444178760E-01  0.67966390481E-01  0.76642592035E+00  0.76965483852E+00  0.51100000000E-03 0. -1.
    9000002    1    1    2    0    0 -0.94796641047E-01 -0.34482057531E+00  0.85823172010E-01  0.10075203468E+01  0.93800000000E+00 0.  1.
         22    1    1    2    0    0  0.76352462288E-01  0.27685418483E+00  0.31477508750E+01  0.31608248147E+01  0.00000000000E+00 0.  1.
</event>
<event>
 5    1  0.6564536E+001  0.1599660E+01  0.7818608E-02  0.3353732E+00
         11   -1    0    0    0    0  0.00000000000E+00  0.00000000000E+00  0.39999999674E+01  0.40000000000E+01  0.51100000000E-03 0. -1.
    9000002   -1    0    0    0    0 -0.00000000000E+00 -0.00000000000E+00  0.00000000000E+00  0.93800000000E+00  0.93800000000E+00 0.  1.
         11    1    1    2    0    0 -0.63254465836E-01  0.27785121880E-01  0.50789368573E+00  0.51257135851E+00  0.51100000000E-03 0. -1.
    9000002    1    1    2    0    0  0.45292674954E+00 -0.21733014673E+00  0.17284879681E+00  0.10780054451E+01  0.93800000000E+00 0.  1.
         22    1    1    2    0    0 -0.38967228370E+00  0.18954502485E+00  0.33192574848E+01  0.33474231964E+01  0.00000000000E+00 0. -1.
</event>
<event>
 5    1  0.6564536E+001  0.1599676E+01  0.7818608E-02  0.3353715E+00
         11   -1    0    0    0    0  0.00000000000E+00  0.00000000000E+00  0.39999999674E+01  0.40000000000E+01  0.51100000000E-03 0. -1.
    9000002   -1    0    0    0    0 -0.00000000000E+00 -0.00000000000E+00  0.00000000000E+00  0.93800000000E+00  0.93800000000E+00 0. -1.
         11    1    1    2    0    0 -0.94144194678E-01  0.26977129608E-01  0.10734154539E+01  0.10778737833E+01  0.51100000000E-03 0. -1.
    9000002    1    1    2    0    0  0.34323190889E+00 -0.94955745652E-01  0.85095978200E-01  0.10069310117E+01  0.93800000000E+00 0. -1.
         22    1    1    2    0    0 -0.24908771421E+00  0.67978616045E-01  0.28414885353E+01  0.28531952050E+01  0.00000000000E+00 0. -1.
</event>
<event>
 5    1  0.6564536E+001  0.1599677E+01  0.7818608E-02  0.3353714E+00
         11   -1    0    0    0    0  0.00000000000E+00  0.00000000000E+00  0.39999999674E+01  0.40000000000E+01  0.51100000000E-03 0. -1.
    9000002   -1    0    0    0    0 -0.00000000000E+00 -0.00000000000E+00  0.00000000000E+00  0.93800000000E+00  0.93800000000E+00 0. -1.
         11    1    1    2    0    0 -0.13707293308E+00  0.28779901554E-01  0.14145043074E+01  0.14214218123E+01  0.51100000000E-03 0. -1.
    9000002    1    1    2    0    0  0.37703888571E+00 -0.81173004169E-01  0.10015293068E+00  0.10191280525E+01  0.93800000000E+00 0. -1.
         22    1    1    2    0    0 -0.23996595263E+00  0.52393102615E-01  0.24853427293E+01  0.24974501351E+01  0.00000000000E+00 0.  1.
</event>
<event>
 5    1  0.6564536E+001  0.1599604E+01  0.7818608E-02  0.3353793E+00
         11   -1    0    0    0    0  0.00000000000E+00  0.00000000000E+00  0.39999999674E+01  0.40000000000E+01  0.51100000000E-03 0.  1.
    9000002   -1    0    0    0    0 -0.00000000000E+00 -0.00000000000E+00  0.00000000000E+00  0.93800000000E+00  0.93800000000E+00 0. -1.
         11    1    1    2    0    0 -0.19131633240E+00  0.30437474027E-01  0.12745221940E+01  0.12891607592E+01  0.51100000000E-03 0.  1.
    9000002    1    1    2    0    0  0.54393100654E+00 -0.76093793065E-01  0.20838866495E+00  0.11067615104E+01  0.93800000000E+00 0. -1.
         22    1    1    2    0    0 -0.35261467414E+00  0.45656319037E-01  0.25170891084E+01  0.25420777304E+01  0.00000000000E+00 0.  1.
</event>
<event>
 5    1  0.6564536E+001  0.1595976E+01  0.7818608E-02  0.3357742E+00
         11   -1    0    0    0    0  0.00000000000E+00  0.00000000000E+00  0.39999999674E+01  0.40000000000E+01  0.51100000000E-03 0.  1.
    9000002   -1    0    0    0    0 -0.00000000000E+00 -0.00000000000E+00  0.00000000000E+00  0.93800000000E+00  0.93800000000E+00 0.  1.
         11    1    1    2    0    0 -0.10564038760E-01 -0.32008717866E-02  0.16802931037E+00  0.16839226455E+00  0.51100000000E-03 0.  1.
    9000002    1    1    2    0    0 -0.43853797867E+00 -0.12145650301E-01  0.13367850737E+00  0.10441154241E+01  0.93800000000E+00 0.  1.
         22    1    1    2    0    0  0.44910201743E+00  0.15346522088E-01  0.36982921496E+01  0.37254923113E+01  0.00000000000E+00 0.  1.
</event>
<event>
 5    1  0.6564536E+001  0.1598649E+01  0.7818608E-02  0.3354831E+00
         11   -1    0    0    0    0  0.00000000000E+00  0.00000000000E+00  0.39999999674E+01  0.40000000000E+01  0.51100000000E-03 0. -1.
    9000002   -1    0    0    0    0 -0.00000000000E+00 -0.00000000000E+00  0.00000000000E+00  0.93800000000E+00  0.93800000000E+00 0.  1.
         11    1    1    2    0    0 -0.10779465899E+00  0.15144013503E+00  0.12767065009E+01  0.12901680331E+01  0.51100000000E-03 0. -1.
    9000002    1    1    2    0    0  0.40087686177E+00 -0.37763092763E+00  0.21049510249E+00  0.11079077416E+01  0.93800000000E+00 0.  1.
         22    1    1    2    0    0 -0.29308220278E+00  0.22619079260E+00  0.25127983639E+01  0.25399242253E+01  0.00000000000E+00 0. -1.
</event>
<event>
 5    1  0.6564536E+001  0.1599537E+01  0.7818608E-02  0.3353866E+00
         11   -1    0    0    0    0  0.00000000000E+00  0.00000000000E+00  0.39999999674E+01  0.40000000000E+01  0.51100000000E-03 0.  1.
    9000002   -1    0    0    0    0 -0.00000000000E+00 -0.00000000000E+00  0.00000000000E+00  0.93800000000E+00  0.93800000000E+00 0. -1.
         11    1    1    2    0    0 -0.53011615236E-02 -0.14332844228E-01  0.17465675822E+00  0.17532477592E+00  0.51100000000E-03 0.  1.
    9000002    1    1    2    0    0  0.18480727789E+00  0.42803753526E+00  0.14811818567E+00  0.10579002120E+01  0.93800000000E+00 0. -1.
         22    1    1    2    0    0 -0.17950611637E+00 -0.41370469103E+00  0.36772250235E+01  0.37047750121E+01  0.00000000000E+00 0.  1.
</event>
<event>
 5    1  0.6564536E+001  0.1599676E+01  0.7818608E-02  0.3353715E+00
         11   -1    0    0    0    0  0.00000000000E+00  0.00000000000E+00  0.39999999674E+01  0.40000000000E+01  0.51100000000E-03 0.  1.
    9000002   -1    0    0    0    0 -0.00000000000E+00 -0.00000000000E+00  0.00000000000E+00  0.93800000000E+00  0.93800000000E+00 0.  1.
         11    1    1    2    0    0 -0.44242192216E-01  0.53440308251E-01  0.56670881107E+00  0.57093990558E+00  0.51100000000E-03 0.  1.
    9000002    1    1    2    0    0  0.30091137372E+00 -0.36800315292E+00  0.15407390123E+00  0.10628060700E+01  0.93800000000E+00 0.  1.
         22    1    1    2    0    0 -0.25666918151E+00  0.31456284467E+00  0.32792172551E+01  0.33042540244E+01  0.00000000000E+00 0.  1.
</event>
<event>
 5    1  0.6564536E+001  0.1585523E+01  0.7818608E-02  0.3369228E+00
         11   -1    0    0    0    0  0.00000000000E+00  0.00000000000E+00  0.39999999674E+01  0.40000000000E+01  0.51100000000E-03 0. -1.
    9000002   -1    0    0    0    0 -0.00000000000E+00 -0.00000000000E+00  0.00000000000E+00  0.93800000000E+00  0.93800000000E+00 0.  1.
         11    1    1    2    0    0 -0.15725603059E+00 -0.56444976673E-01  0.11968601253E+01  0.12084659346E+01  0.51100000000E-03 0. -1.
    9000002    1    1    2    0    0  0.28118359064E+00 -0.17862629932E+00  0.85642472075E-01  0.99907467162E+00  0.93800000000E+00 0.  1.
         22    1    1    2    0    0 -0.12392756005E+00  0.23507127599E+00  0.27174973700E+01  0.27304593938E+01  0.00000000000E+00 0. -1.
</event>
<event>
 5    1  0.6564536E+001  0.1479520E+01  0.7818608E-02  0.3495493E+00
         11   -1    0    0    0    0  0.00000000000E+00  0.00000000000E+00  0.39999999674E+01  0.40000000000E+01  0.51100000000E-03 0. -1.
    9000002   -1    0    0    0    0 -0.00000000000E+00 -0.00000000000E+00  0.00000000000E+00  0.93800000000E+00  0.93800000000E+00 0.  1.
         11    1    1    2    0    0  0.22759390657E+00 -0.51401593104E-02  0.34397762976E+00  0.41248791308E+00  0.51100000000E-03 0. -1.
    9000002    1    1    2    0    0  0.19046502024E+00 -0.50857732136E-01  0.12178944881E+00  0.96619879046E+00  0.93800000000E+00 0.  1.
         22    1    1    2    0    0 -0.41805892681E+00  0.55997891446E-01  0.35342328888E+01  0.35593132965E+01  0.00000000000E+00 0. -1.
</event>
<event>
 5    1  0.6564536E+001  0.1598735E+01  0.7818608E-02  0.3354737E+00
         11   -1    0    0    0    0  0.00000000000E+00  0.00000000000E+00  0.39999999674E+01  0.40000000000E+01  0.51100000000E-03 0.  1.
    9000002   -1    0    0    0    0 -0.00000000000E+00 -0.00000000000E+00  0.00000000000E+00  0.93800000000E+00  0.93800000000E+00 0.  1.
         11    1    1    2    0    0 -0.13468016942E+00  0.10418528181E-01  0.85226635258E+00  0.86290526167E+00  0.51100000000E-03 0.  1.
    9000002    1    1    2    0    0  0.50069168831E+00 -0.13982084618E+00  0.18649278540E+00  0.10885153167E+01  0.93800000000E+00 0.  1.
         22    1    1    2    0    0 -0.36601151888E+00  0.12940231800E+00  0.29612408294E+01  0.29865794216E+01  0.00000000000E+00 0.  1.
</event>
<event>
 5    1  0.6564536E+001  0.1596904E+01  0.7818608E-02  0.3356731E+00
         11   -1    0    0    0    0  0.00000000000E+00  0.00000000000E+00  0.39999999674E+01  0.40000000000E+01  0.51100000000E-03 0.  1.
    9000002   -1    0    0    0    0 -0.00000000000E+00 -0.00000000000E+00  0.00000000000E+00  0.93800000000E+00  0.93800000000E+00 0. -1.
         11    1    1    2    0    0  0.12334164293E+00  0.88121192502E-01  0.10017417096E+01  0.10131461984E+01  0.51100000000E-03 0.  1.
    9000002    1    1    2    0    0 -0.27332722553E+00 -0.41540157792E+00  0.17168598612E+00  0.10754470331E+01  0.93800000000E+00 0. -1.
         22    1    1    2    0    0  0.14998558261E+00  0.32728038542E+00  0.28265722716E+01  0.28494067685E+01  0.00000000000E+00 0.  1.
</event>
<event>
 5    1  0.6564536E+001  0.1592910E+01  0.7818608E-02  0.3361094E+00
         11   -1    0    0    0    0  0.00000000000E+00  0.00000000000E+00  0.39999999674E+01  0.40000000000E+01  0.51100000000E-03 0.  1.
    9000002   -1    0    0    0    0 -0.00000000000E+00 -0.00000000000E+00  0.00000000000E+00  0.93800000000E+00  0.93800000000E+00 0.  1.
         11    1    1    2    0    0  0.12180862308E+00 -0.11125990849E+00  0.12986199638E+01  0.13090569810E+01  0.51100000000E-03 0.  1.
    9000002    1    1    2    0    0 -0.87691668383E-01  0.36944862451E+00  0.10258162953E+00  0.10171278708E+01  0.93800000000E+00 0.  1.
         22    1    1    2    0    0 -0.34116954696E-01 -0.25818871603E+00  0.25987983740E+01  0.26118151482E+01  0.00000000000E+00 0. -1.
</event>
<event>
 5    1  0.6564536E+001  0.1597735E+01  0.7818608E-02  0.3355825E+00
         11   -1    0    0    0    0  0.00000000000E+00  0.00000000000E+00  0.39999999674E+01  0.40000000000E+01  0.51100000000E-03 0.  1.
    9000002   -1    0    0    0    0 -0.00000000000E+00 -0.00000000000E+00  0.00000000000E+00  0.93800000000E+00  0.93800000000E+00 0. -1.
         11    1    1    2    0    0 -0.13251142211E-01  0.18408848344E+00  0.11896179667E+01  0.12038502110E+01  0.51100000000E-03 0.  1.
    9000002    1    1    2    0    0 -0.80825630626E-01 -0.66447650209E+00  0.31977571366E+00  0.11958939382E+01  0.93800000000E+00 0. -1.
         22    1    1    2    0    0  0.94076772837E-01  0.48038801865E+00  0.24906062870E+01  0.25382558508E+01  0.00000000000E+00 0.  1.
</event>
<event>
 5    1  0.6564536E+001  0.1499685E+01  0.7818608E-02  0.3469997E+00
         11   -1    0    0    0    0  0.00000000000E+00  0.00000000000E+00  0.39999999674E+01  0.40000000000E+01  0.51100000000E-03 0. -1.
    9000002   -1    0    0    0    0 -0.00000000000E+00 -0.00000000000E+00  0.00000000000E+00  0.93800000000E+00  0.93800000000E+00 0. -1.
         11    1    1    2    0    0 -0.24440348300E-01 -0.33500569370E+00  0.12839308795E+01  0.13271416314E+01  0.51100000000E-03 0. -1.
    9000002    1    1    2    0    0  0.94241032769E-01 -0.69165448585E-01  0.86178585104E-01  0.94917647467E+00  0.93800000000E+00 0. -1.
         22    1    1    2    0    0 -0.69800684468E-01  0.40417114228E+00  0.26298905028E+01  0.26616818939E+01  0.00000000000E+00 0. -1.
</event>
<event>
 5    1  0.6564536E+001  0.1576766E+01  0.7818608E-02  0.3378974E+00
         11   -1    0    0    0    0  0.00000000000E+00  0.00000000000E+00  0.39999999674E+01  0.40000000000E+01  0.51100000000E-03 0.  1.
    9000002   -1    0    0    0    0 -0.00000000000E+00 -0.00000000000E+00  0.00000000000E+00  0.93800000000E+00  0.93800000000E+00 0.  1.
         11    1    1    2    0    0  0.11767082031E+00 -0.76834546694E-01  0.14929181711E+01  0.14995182213E+01  0.51100000000E-03 0.  1.
    9000002    1    1    2    0    0  0.64518474216E-01 -0.74415373865E-01  0.23306096470E-01  0.94344446340E+00  0.93800000000E+00 0.  1.
         22    1    1    2    0    0 -0.18218929452E+00  0.15124992056E+00  0.24837756998E+01  0.24950373153E+01  0.00000000000E+00 0.  1.
</event>
<event>
 5    1  0.6564536E+001  0.1583327E+01  0.7818608E-02  0.3371661E+00
         11   -1    0    0    0    0  0.00000000000E+00  0.00000000000E+00  0.39999999674E+01  0.40000000000E+01  0.51100000000E-03 0.  1.
    9000002   -1    0    0    0    0 -0.00000000000E+00 -0.00000000000E+00  0.00000000000E+00  0.93800000000E+00  0.93800000000E+00 0.  1.
         11    1    1    2    0    0  0.46157526974E-01  0.60047152117E-02  0.12599399965E+00  0.13431799198E+00  0.51100000000E-03 0.  1.
    9000002    1    1    2    0    0  0.21660368526E+00  0.23077181562E+00  0.79957233543E-01  0.99318172886E+00  0.93800000000E+00 0.  1.
         22    1    1    2    0    0 -0.26276121223E+00 -0.23677653083E+00  0.37940487342E+01  0.38105002792E+01  0.00000000000E+00 0.  1.
</event>
<event>
 5    1  0.6564536E+001  0.1599676E+01  0.7818608E-02  0.3353715E+00
         11   -1    0    0    0    0  0.00000000000E+00  0.00000000000E+00  0.39999999674E+01  0.40000000000E+01  0.51100000000E-03 0. -1.
    9000002   -1    0    0    0    0 -0.00000000000E+00 -0.00000000000E+00  0.00000000000E+00  0.93800000000E+00  0.93800000000E+00 0.  1.
         11    1    1    2    0    0 -0.61437842238E-01  0.53725425322E-01  0.70643104613E+00  0.71113016660E+00  0.51100000000E-03 0. -1.
    9000002    1    1    2    0    0  0.34005390953E+00 -0.29222665202E+00  0.13650642614E+00  0.10485757397E+01  0.93800000000E+00 0.  1.
         22    1    1    2    0    0 -0.27861606729E+00  0.23850122670E+00  0.31570624951E+01  0.31782940937E+01  0.00000000000E+00 0. -1.
</event>
<event>
 5    1  0.6564536E+001  0.1599483E+01  0.7818608E-02  0.3353924E+00
         11   -1    0    0    0    0  0.00000000000E+00  0.00000000000E+00  0.39999999674E+01  0.40000000000E+01  0.51100000000E-03 0.  1.
    9000002   -1    0    0    0    0 -0.00000000000E+00 -0.00000000000E+00  0.00000000000E+00  0.93800000000E+00  0.93800000000E+00 0.  1.
         11    1    1    2    0    0  0.68895227713E-01 -0.14753598646E+00  0.14442630310E+01  0.14534130121E+01  0.51100000000E-03 0.  1.
    9000002    1    1    2    0    0 -0.22699721749E+00  0.38723523318E+00  0.13698536767E+00  0.10488507299E+01  0.93800000000E+00 0.  1.
         22    1    1    2    0    0  0.15810198978E+00 -0.23969924673E+00  0.24187515687E+01  0.24357362581E+01  0.00000000000E+00 0.  1.
</event>
<event>
 5    1  0.7457436E+001  0.1599450E+01  0.7818608E-02  0.3353960E+00
         11   -1    0    0    0    0  0.00000000000E+00  0.00000000000E+00  0.39999999674E+01  0.40000000000E+01  0.51100000000E-03 0. -1.
    9000002   -1    0    0    0    0 -0.00000000000E+00 -0.00000000000E+00  0.00000000000E+00  0.93800000000E+00  0.93800000000E+00 0. -1.
         11    1    1    2    0    0  0.11641086800E+00 -0.45026432186E-01  0.14838901381E+01  0.14891303076E+01  0.51100000000E-03 0. -1.
    9000002    1    1    2    0    0 -0.33966400139E+00  0.85531486435E-01  0.82448094518E-01  0.10046536504E+01  0.93800000000E+00 0. -1.
         22    1    1    2    0    0  0.22325313339E+00 -0.40505054249E-01  0.24336617347E+01  0.24442160420E+01  0.00000000000E+00 0. -1.
</event>
<event>
 5    1  0.6564536E+001  0.1599102E+01  0.7818608E-02  0.3354338E+00
         11   -1    0    0    0    0  0.00000000000E+00  0.00000000000E+00  0.39999999674E+01  0.40000000000E+01  0.51100000000E-03 0. -1.
    9000002   -1    0    0    0    0 -0.00000000000E+00 -0.00000000000E+00  0.00000000000E+00  0.93800000000E+00  0.93800000000E+00 0.  1.
         11    1    1    2    0    0 -0.39050752510E-01 -0.72995963210E-01  0.12766222361E+01  0.12793037039E+01  0.51100000000E-03 0. -1.
    9000002    1    1    2    0    0  0.18797065276E+00  0.27282342528E+00  0.73909557082E-01  0.99753306226E+00  0.93800000000E+00 0.  1.
         22    1    1    2    0    0 -0.14891990025E+00 -0.19982746207E+00  0.26494681742E+01  0.26611632339E+01  0.00000000000E+00 0. -1.
</event>
<event>
 5    1  0.6564536E+001  0.1590724E+01  0.7818608E-02  0.3363493E+00
         11   -1    0    0    0    0  0.00000000000E+00  0.00000000000E+00  0.39999999674E+01  0.40000000000E+01  0.51100000000E-03 0. -1.
    9000002   -1    0    0    0    0 -0.00000000000E+00 -0.00000000000E+00  0.00000000000E+00  0.93800000000E+00  0.93800000000E+00 0.  1.
         11    1    1    2    0    0 -0.25143487209E-01 -0.21864728641E-01  0.12002597059E+01  0.12007222343E+01  0.51100000000E-03 0. -1.
    9000002    1    1    2    0    0 -0.22522971865E+00  0.22478450738E+00  0.74777872248E-01  0.99332382993E+00  0.93800000000E+00 0.  1.
         22    1    1    2    0    0  0.25037320586E+00 -0.20291977874E+00  0.27249623892E+01  0.27439539357E+01  0.00000000000E+00 0. -1.
</event>
<event>
 5    1  0.6564536E+001  0.1571914E+01  0.7818608E-02  0.3384423E+00
         11   -1    0    0    0    0  0.00000000000E+00  0.00000000000E+00  0.39999999674E+01  0.40000000000E+01  0.51100000000E-03 0.  1.
    9000002   -1    0    0    0    0 -0.00000000000E+00 -0.00000000000E+00  0.00000000000E+00  0.93800000000E+00  0.93800000000E+00 0.  1.
         11    1    1    2    0    0 -0.86337292755E-01  0.15552079709E+00  0.68731857628E+00  0.70996333206E+00  0.51100000000E-03 0.  1.
    9000002    1    1    2    0    0 -0.17597598730E+00 -0.31809781995E+00  0.11164383021E+00  0.10121571597E+01  0.93800000000E+00 0.  1.
         22    1    1    2    0    0  0.26231328006E+00  0.16257702286E+00  0.32010375609E+01  0.32158795082E+01  0.00000000000E+00 0.  1.
</event>
<event>
 5    1  0.6564536E+001  0.1591903E+01  0.7818608E-02  0.3362198E+00
         11   -1    0    0    0    0  0.00000000000E+00  0.00000000000E+00  0.39999999674E+01  0.40000000000E+01  0.51100000000E-03 0.  1.
    9000002   -1    0    0    0    0 -0.00000000000E+00 -0.00000000000E+00  0.00000000000E+00  0.93800000000E+00  0.93800000000E+00 0.  1.
         11    1    1    2    0    0 -0.12101713111E-01  0.18222212556E-02  0.94601534977E-02  0.15476678447E-01  0.51100000000E-03 0.  1.
    9000002    1    1    2    0    0  0.16022204643E+00  0.34956564836E+00  0.10597321839E+00  0.10192848325E+01  0.93800000000E+00 0.  1.
         22    1    1    2    0    0 -0.14812033332E+00 -0.35138786962E+00  0.38845665955E+01  0.39032384891E+01  0.00000000000E+00 0.  1.
</event>
<event>
 5    1  0.6564536E+001  0.1599676E+01  0.7818608E-02  0.3353715E+00
         11   -1    0    0    0    0  0.00000000000E+00  0.00000000000E+00  0.39999999674E+01  0.40000000000E+01  0.51100000000E-03 0.  1.
    9000002   -1    0    0    0    0 -0.00000000000E+00 -0.00000000000E+00  0.00000000000E+00  0.93800000000E+00  0.93800000000E+00 0. -1.
         11    1    1    2    0    0 -0.32987993000E-02  0.13564923318E+00  0.90974390189E+00  0.91980749328E+00  0.51100000000E-03 0.  1.
    9000002    1    1    2    0    0  0.11547633448E-01 -0.56179751367E+00  0.21859026140E+00  0.11150674852E+01  0.93800000000E+00 0. -1.
         22    1    1    2    0    0 -0.82488341480E-02  0.42614828049E+00  0.28716658041E+01  0.29031250215E+01  0.00000000000E+00 0.  1.
</event>
<event>
 5    1  0.6564536E+001  0.1599676E+01  0.7818608E-02  0.3353715E+00
         11   -1    0    0    0    0  0.00000000000E+00  0.00000000000E+00  0.39999999674E+01  0.40000000000E+01  0.51100000000E-03 0.  1.
    9000002   -1    0    0    0    0 -0.00000000000E+00 -0.00000000000E+00  0.00000000000E+00  0.93800000000E+00  0.93800000000E+00 0. -1.
         11    1    1    2    0    0  0.12909011870E+00  0.20952760266E-01  0.13841833869E+01  0.13903478653E+01  0.51100000000E-03 0.  1.
    9000002    1    1    2    0    0 -0.36716844634E+00 -0.58979355846E-01  0.92958178228E-01  0.10132997855E+01  0.93800000000E+00 0. -1.
         22    1    1    2    0    0  0.23807832764E+00  0.38026595581E-01  0.25228584022E+01  0.25343523492E+01  0.00000000000E+00 0.  1.
</event>
<event>
 5    1  0.6564536E+001  0.1599598E+01  0.7818608E-02  0.3353800E+00
         11   -1    0    0    0    0  0.00000000000E+00  0.00000000000E+00  0.39999999674E+01  0.40000000000E+01  0.51100000000E-03 0. -1.
    9000002   -1    0    0    0    0 -0.00000000000E+00 -0.00000000000E+00  0.00000000000E+00  0.93800000000E+00  0.93800000000E+00 0. -1.
         11    1    1    2    0    0 -0.13446079765E+00 -0.99011577135E-01  0.11038534675E+01  0.11164119927E+01  0.51100000000E-03 0. -1.
    9000002    1    1    2    0    0  0.43942243511E+00  0.31608577983E+00  0.20212044328E+00  0.11016800671E+01  0.93800000000E+00 0. -1.
         22    1    1    2    0    0 -0.30496163746E+00 -0.21707420269E+00  0.26940260566E+01  0.27199079402E+01  0.00000000000E+00 0. -1.
</event>
<event>
 5    1  0.6564536E+001  0.1489673E+01  0.7818608E-02  0.3482563E+00
         11   -1    0    0    0    0  0.00000000000E+00  0.00000000000E+00  0.39999999674E+01  0.40000000000E+01  0.51100000000E-03 0. -1.
    9000002   -1    0    0    0    0 -0.00000000000E+00 -0.00000000000E+00  0.00000000000E+00  0.93800000000E+00  0.93800000000E+00 0. -1.
         11    1    1    2    0    0 -0.10233067913E-01 -0.23980154548E+00  0.19439156432E+00  0.30886540482E+00  0.51100000000E-03 0. -1.
    9000002    1    1    2    0    0 -0.41222472121E+00  0.56815540733E+00  0.48880332678E+00  0.12694496760E+01  0.93800000000E+00 0. -1.
         22    1    1    2    0    0  0.42245778913E+00 -0.32835386185E+00  0.33168050763E+01  0.33596849192E+01  0.00000000000E+00 0. -1.
</event>
<event>
 5    1  0.6564536E+001  0.1598770E+01  0.7818608E-02  0.3354699E+00
         11   -1    0    0    0    0  0.00000000000E+00  0.00000000000E+00  0.39999999674E+01  0.40000000000E+01  0.51100000000E-03 0.  1.
    9000002   -1    0    0    0    0 -0.00000000000E+00 -0.00000000000E+00  0.00000000000E+00  0.93800000000E+00  0.93800000000E+00 0.  1.
         11    1    1    2    0    0  0.20723629160E+00  0.20327095933E+00  0.13253012642E+01  0.13567201868E+01  0.51100000000E-03 0.  1.
    9000002    1    1    2    0    0 -0.47381854506E+00 -0.58806775563E+00  0.41519975762E+00  0.12737984682E+01  0.93800000000E+00 0.  1.
         22    1    1    2    0    0  0.26658225346E+00  0.38479679630E+00  0.22594989456E+01  0.23074813450E+01  0.00000000000E+00 0.  1.
</event>
<event>
 5    1  0.6564536E+001  0.1599655E+01  0.7818608E-02  0.3353737E+00
         11   -1    0    0    0    0  0.00000000000E+00  0.00000000000E+00  0.39999999674E+01  0.40000000000E+01  0.51100000000E-03 0. -1.
    9000002   -1    0    0    0    0 -0.00000000000E+00 -0.00000000000E+00  0.00000000000E+00  0.93800000000E+00  0.93800000000E+00 0. -1.
         11    1    1    2    0    0  0.11256607866E-01 -0.20356848976E-01  0.20011358023E+00  0.20146170514E+00  0.51100000000E-03 0.  1.
    9000002    1    1    2    0    0 -0.19058879916E+00  0.43069837039E+00  0.15115929710E+00  0.10604330765E+01  0.93800000000E+00 0. -1.
         22    1    1    2    0    0  0.17933219130E+00 -0.41034152141E+00  0.36487270900E+01  0.36761052184E+01  0.00000000000E+00 0. -1.
</event>
<event>
 5    1  0.6564536E+001  0.1599301E+01  0.7818608E-02  0.3354123E+00
         11   -1    0    0    0    0  0.00000000000E+00  0.00000000000E+00  0.39999999674E+01  0.40000000000E+01  0.51100000000E-03 0. -1.
    9000002   -1    0    0    0    0 -0.00000000000E+00 -0.00000000000E+00  0.00000000000E+00  0.93800000000E+00  0.93800000000E+00 0.  1.
         11    1    1    2    0    0  0.39548492759E-01 -0.96045599550E-01  0.11031945484E+01  0.11080736949E+01  0.51100000000E-03 0. -1.
    9000002    1    1    2    0    0 -0.21345170236E+00  0.33054432806E+00  0.10465497794E+00  0.10225545689E+01  0.93800000000E+00 0.  1.
         22    1    1    2    0    0  0.17390320960E+00 -0.23449872851E+00  0.27921504410E+01  0.28073717362E+01  0.00000000000E+00 0. -1.
</event>
<event>
 5    1  0.6564536E+001  0.1599676E+01  0.7818608E-02  0.3353715E+00
         11   -1    0    0    0    0  0.00000000000E+00  0.00000000000E+00  0.39999999674E+01  0.40000000000E+01  0.51100000000E-03 0.  1.
    9000002   -1    0    0    0    0 -0.00000000000E+00 -0.00000000000E+00  0.00000000000E+00  0.93800000000E+00  0.93800000000E+00 0.  1.
         11    1    1    2    0    0 -0.45757872697E-01 -0.11414515071E+00  0.10347410567E+01  0.10420231350E+01  0.51100000000E-03 0.  1.
    9000002    1    1    2    0    0  0.16783031158E+00  0.42823753119E+00  0.14389912717E+00  0.10545640594E+01  0.93800000000E+00 0.  1.
         22    1    1    2    0    0 -0.12207243889E+00 -0.31409238048E+00  0.28213597835E+01  0.28414128056E+01  0.00000000000E+00 0.  1.
</event>
<event>
 5    1  0.6564536E+001  0.1599677E+01  0.7818608E-02  0.3353714E+00
         11   -1    0    0    0    0  0.00000000000E+00  0.00000000000E+00  0.39999999674E+01  0.40000000000E+01  0.51100000000E-03 0.  1.
    9000002   -1    0    0    0    0 -0.00000000000E+00 -0.00000000000E+00  0.00000000000E+00  0.93800000000E+00  0.93800000000E+00 0.  1.
         11    1    1    2    0    0 -0.45986630614E-01 -0.92464330137E-01  0.10007514453E+01  0.10060656733E+01  0.51100000000E-03 0.  1.
    9000002    1    1    2    0    0  0.17697105597E+00  0.36015041018E+00  0.10863411950E+00  0.10259982673E+01  0.93800000000E+00 0.  1.
         22    1    1    2    0    0 -0.13098442535E+00 -0.26768608005E+00  0.28906144025E+01  0.29059360594E+01  0.00000000000E+00 0.  1.
</event>
<event>
 5    1  0.6564536E+001  0.1535193E+01  0.7818608E-02  0.3426853E+00
         11   -1    0    0    0    0  0.00000000000E+00  0.00000000000E+00  0.39999999674E+01  0.40000000000E+01  0.51100000000E-03 0.  1.
    9000002   -1    0    0    0    0 -0.00000000000E+00 -0.00000000000E+00  0.00000000000E+00  0.93800000000E+00  0.93800000000E+00 0.  1.
         11    1    1    2    0    0 -0.18886829485E+00 -0.22913192778E+00  0.48827435935E+00  0.57147596996E+00  0.51100000000E-03 0.  1.
    9000002    1    1    2    0    0  0.52407040167E+00  0.33773482454E+00  0.34172733091E+00  0.11770030443E+01  0.93800000000E+00 0. -1.
         22    1    1    2    0    0 -0.33520210682E+00 -0.10860289676E+00  0.31699982771E+01  0.31895209857E+01  0.00000000000E+00 0.  1.
</event>
<event>
 5    1  0.6564536E+001  0.1596794E+01  0.7818608E-02  0.3356850E+00
         11   -1    0    0    0    0  0.00000000000E+00  0.00000000000E+00  0.39999999674E+01  0.40000000000E+01  0.51100000000E-03 0. -1.
    9000002   -1    0    0    0    0 -0.00000000000E+00 -0.00000000000E+00  0.00000000000E+00  0.93800000000E+00  0.93800000000E+00 0.  1.
         11    1    1    2    0    0  0.11676974795E+00 -0.85531223012E-01  0.75703719172E+00  0.77075050108E+00  0.51100000000E-03 0. -1.
    9000002    1    1    2    0    0 -0.38338965972E+00  0.27456965573E+00  0.15406758167E+00  0.10611111849E+01  0.93800000000E+00 0.  1.
         22    1    1    2    0    0  0.26661991176E+00 -0.18903843272E+00  0.30888951940E+01  0.31061383140E+01  0.00000000000E+00 0. -1.
</event>
<event>
 5    1  0.6564536E+001  0.1599488E+01  0.7818608E-02  0.3353920E+00
         11   -1    0    0    0    0  0.00000000000E+00  0.00000000000E+00  0.39999999674E+01  0.40000000000E+01  0.51100000000E-03 0. -1.
    9000002   -1    0    0    0    0 -0.00000000000E+00 -0.00000000000E+00  0.00000000000E+00  0.93800000000E+00  0.93800000000E+00 0.  1.
         11    1    1    2    0    0  0.47428554367E-01  0.75066712166E-01  0.10167512737E+01  0.10206213268E+01  0.51100000000E-03 0. -1.
    9000002    1    1    2    0    0 -0.23719295869E+00 -0.27763647373E+00  0.89714685926E-01  0.10105618418E+01  0.93800000000E+00 0.  1.
         22    1    1    2    0    0  0.18976440432E+00  0.20256976156E+00  0.28935340077E+01  0.29068168314E+01  0.00000000000E+00 0. -1.
</event>
<event>
 5    1  0.6564536E+001  0.1569421E+01  0.7818608E-02  0.3387236E+00
         11   -1    0    0    0    0  0.00000000000E+00  0.00000000000E+00  0.39999999674E+01  0.40000000000E+01  0.51100000000E-03 0.  1.
    9000002   -1    0    0    0    0 -0.00000000000E+00 -0.00000000000E+00  0.00000000000E+00  0.93800000000E+00  0.93800000000E+00 0.  1.
         11    1    1    2    0    0 -0.19471345564E+00 -0.10289965160E+00  0.80297629701E+00  0.83263008760E+00  0.51100000000E-03 0.  1.
    9000002    1    1    2    0    0  0.10834893076E+00  0.49014775825E+00  0.20038762423E+00  0.10825818748E+01  0.93800000000E+00 0.  1.
         22    1    1    2    0    0  0.86364524880E-01 -0.38724810665E+00  0.29966360461E+01  0.30227880376E+01  0.00000000000E+00 0.  1.
</event>
<event>
 5    1  0.6564536E+001  0.1561597E+01  0.7818608E-02  0.3396130E+00
         11   -1    0    0    0    0  0.00000000000E+00  0.00000000000E+00  0.39999999674E+01  0.40000000000E+01  0.51100000000E-03 0. -1.
    9000002   -1    0    0    0    0 -0.00000000000E+00 -0.00000000000E+00  0.00000000000E+00  0.93800000000E+00  0.93800000000E+00 0. -1.
         11    1    1    2    0    0  0.37623685883E+00 -0.19116329243E+00  0.14112349093E+01  0.14729839812E+01  0.51100000000E-03 0. -1.
    9000002    1    1    2    0    0 -0.38365872403E+00  0.47200328473E+00  0.29786829538E+00  0.11569574922E+01  0.93800000000E+00 0. -1.
         22    1    1    2    0    0  0.74218652041E-02 -0.28083999231E+00  0.22908967626E+01  0.23080585267E+01  0.00000000000E+00 0.  1.
</event>
<event>
 5    1  0.6564536E+001  0.1599528E+01  0.7818608E-02  0.3353876E+00
         11   -1    0    0    0    0  0.00000000000E+00  0.00000000000E+00  0.39999999674E+01  0.40000000000E+01  0.51100000000E-03 0.  1.
    9000002   -1    0    0    0    0 -0.00000000000E+00 -0.00000000000E+00  0.00000000000E+00  0.93800000000E+00  0.93800000000E+00 0.  1.
         11    1    1    2    0    0  0.30581113019E-02  0.15793633294E-01  0.22200630112E+00  0.22258897042E+00  0.51100000000E-03 0.  1.
    9000002    1    1    2    0    0 -0.15943328139E+00 -0.33417296402E+00  0.92254381704E-01  0.10126427860E+01  0.93800000000E+00 0.  1.
         22    1    1    2    0    0  0.15637517009E+00  0.31837933072E+00  0.36857392845E+01  0.37027682436E+01  0.00000000000E+00 0.  1.
</event>
<event>
 5    1  0.8388554E+001  0.1557485E+01  0.7818608E-02  0.3400842E+00
         11   -1    0    0    0    0  0.00000000000E+00  0.00000000000E+00  0.39999999674E+01  0.40000000000E+01  0.51100000000E-03 0. -1.
    9000002   -1    0    0    0    0 -0.00000000000E+00 -0.00000000000E+00  0.00000000000E+00  0.93800000000E+00  0.93800000000E+00 0. -1.
         11    1    1    2    0    0  0.20948119406E+00 -0.38901539813E-02  0.11833953594E+01  0.12017996263E+01  0.51100000000E-03 0. -1.
    9000002    1    1    2    0    0  0.52663283438E-01 -0.64125011626E-01  0.35909041735E-01  0.94234754619E+00  0.93800000000E+00 0. -1.
         22    1    1    2    0    0 -0.26214447750E+00  0.68015165608E-01  0.27806955662E+01  0.27938528275E+01  0.00000000000E+00 0. -1.
</event>
<event>
 5    1  0.6564536E+001  0.1592324E+01  0.7818608E-02  0.3361737E+00
         11   -1    0    0    0    0  0.00000000000E+00  0.00000000000E+00  0.39999999674E+01  0.40000000000E+01  0.51100000000E-03 0. -1.
    9000002   -1    0    0    0    0 -0.00000000000E+00 -0.00000000000E+00  0.00000000000E+00  0.93800000000E+00  0.93800000000E+00 0. -1.
         11    1    1    2    0    0 -0.65807673750E-01  0.29138262229E-01  0.22309850790E+00  0.23442033529E+00  0.51100000000E-03 0. -1.
    9000002    1    1    2    0    0  0.31500729059E+00 -0.30032243903E+00  0.13468307927E+00  0.10427879422E+01  0.93800000000E+00 0. -1.
         22    1    1    2    0    0 -0.24919961684E+00  0.27118417680E+00  0.36422183802E+01  0.36607917225E+01  0.00000000000E+00 0. -1.
</event>
<event>
 5    1  0.6564536E+001  0.1595638E+01  0.7818608E-02  0.3358111E+00
         11   -1    0    0    0    0  0.00000000000E+00  0.00000000000E+00  0.39999999674E+01  0.40000000000E+01  0.51100000000E-03 0. -1.
    9000002   -1    0    0    0    0 -0.00000000000E+00 -0.00000000000E+00  0.00000000000E+00  0.93800000000E+00  0.93800000000E+00 0. -1.
         11    1    1    2    0    0 -0.46391790849E-01 -0.23570687040E-02  0.14882357103E+00  0.15590532527E+00  0.51100000000E-03 0. -1.
    9000002    1    1    2    0    0  0.42643640477E+00  0.39617061520E-01  0.12762541675E+00  0.10390138430E+01  0.93800000000E+00 0. -1.
         22    1    1    2    0    0 -0.38004461392E+00 -0.37259992816E-01  0.37235509796E+01  0.37430808318E+01  0.00000000000E+00 0. -1.
</event>
<event>
 5    1  0.6564536E+001  0.1599676E+01  0.7818608E-02  0.3353715E+00
         11   -1    0    0    0    0  0.00000000000E+00  0.00000000000E+00  0.39999999674E+01  0.40000000000E+01  0.51100000000E-03 0. -1.
    9000002   -1    0    0    0    0 -0.00000000000E+00 -0.00000000000E+00  0.00000000000E+00  0.93800000000E+00  0.93800000000E+00 0. -1.
         11    1    1    2    0    0  0.47848853340E-01  0.41096750416E-01  0.69931040908E+00  0.70214938939E+00  0.51100000000E-03 0. -1.
    9000002    1    1    2    0    0 -0.26818918032E+00 -0.23405306831E+00  0.85014834791E-01  0.10068653323E+01  0.93800000000E+00 0. -1.
         22    1    1    2    0    0  0.22034032698E+00  0.19295631790E+00  0.32156747235E+01  0.32289852783E+01  0.00000000000E+00 0. -1.
</event>
<event>
 5    1  0.6564536E+001  0.1599139E+01  0.7818608E-02  0.3354298E+00
         11   -1    0    0    0    0  0.00000000000E+00  0.00000000000E+00  0.39999999674E+01  0.40000000000E+01  0.51100000000E-03 0.  1.
    9000002   -1    0    0    0    0 -0.00000000000E+00 -0.00000000000E+00  0.00000000000E+00  0.93800000000E+00  0.93800000000E+00 0.  1.
         11    1    1    2    0    0  0.12300175095E+00  0.11306035519E+00  0.10720660515E+01  0.10850059699E+01  0.51100000000E-03 0.  1.
    9000002    1    1    2    0    0 -0.35726216676E+00 -0.36377805851E+00  0.17875219904E+00  0.10824819076E+01  0.93800000000E+00 0.  1.
         22    1    1    2    0    0  0.23426041581E+00  0.25071770332E+00  0.27491817168E+01  0.27705121225E+01  0.00000000000E+00 0.  1.
</event>
<event>
 5    1  0.6564536E+001  0.1599656E+01  0.7818608E-02  0.3353737E+00
         11   -1    0    0    0    0  0.00000000000E+00  0.00000000000E+00  0.39999999674E+01  0.40000000000E+01  0.51100000000E-03 0. -1.
    9000002   -1    0    0    0    0 -0.00000000000E+00 -0.00000000000E+00  0.00000000000E+00  0.93800000000E+00  0.93800000000E+00 0. -1.
         11    1    1    2    0    0  0.20635912024E-01 -0.73400739283E-01  0.69482689028E+00  0.69899798138E+00  0.51100000000E-03 0. -1.
    9000002    1    1    2    0    0 -0.93489955859E-01  0.40101280744E+00  0.11455977536E+00  0.10307859068E+01  0.93800000000E+00 0. -1.
         22    1    1    2    0    0  0.72854043835E-01 -0.32761206815E+00  0.31906133017E+01  0.32082161118E+01  0.00000000000E+00 0. -1.
</event>
<event>
 5    1  0.6593193E+001  0.1516490E+01  0.7818608E-02  0.3449307E+00
         11   -1    0    0    0    0  0.00000000000E+00  0.00000000000E+00  0.39999999674E+01  0.40000000000E+01  0.51100000000E-03 0. -1.
    9000002   -1    0    0    0    0 -0.00000000000E+00 -0.00000000000E+00  0.00000000000E+00  0.93800000000E+00  0.93800000000E+00 0. -1.
         11    1    1    2    0    0 -0.27956470758E+00 -0.18783716415E+00  0.13093515676E+01  0.13519767064E+01  0.51100000000E-03 0. -1.
    9000002    1    1    2    0    0 -0.50090442510E-03  0.50963236798E-01  0.64669213237E-01  0.94160692943E+00  0.93800000000E+00 0. -1.
         22    1    1    2    0    0  0.28006561200E+00  0.13687392736E+00  0.26259791866E+01  0.26444163642E+01  0.00000000000E+00 0. -1.
</event>
<event>
 5    1  0.6564536E+001  0.1599653E+01  0.7818608E-02  0.3353740E+00
         11   -1    0    0    0    0  0.00000000000E+00  0.00000000000E+00  0.39999999674E+01  0.40000000000E+01  0.51100000000E-03 0.  1.
    9000002   -1    0    0    0    0 -0.00000000000E+00 -0.00000000000E+00  0.00000000000E+00  0.93800000000E+00  0.93800000000E+00 0.  1.
         11    1    1    2    0    0  0.80918314854E-02  0.57008407633E-01  0.42122559353E+00  0.42514315006E+00  0.51100000000E-03 0.  1.
    9000002    1    1    2    0    0 -0.85994159953E-01 -0.48762635310E+00  0.16772125664E+00  0.10738476967E+01  0.93800000000E+00 0.  1.
         22    1    1    2    0    0  0.77902328467E-01  0.43061794547E+00  0.34110531172E+01  0.34390091532E+01  0.00000000000E+00 0.  1.
</event>
<event>
 5    1  0.6564536E+001  0.1565653E+01  0.7818608E-02  0.3391508E+00
         11   -1    0    0    0    0  0.00000000000E+00  0.00000000000E+00  0.39999999674E+01  0.40000000000E+01  0.51100000000E-03 0. -1.
    9000002   -1    0    0    0    0 -0.00000000000E+00 -0.00000000000E+00  0.00000000000E+00  0.93800000000E+00  0.93800000000E+00 0.  1.
         11    1    1    2    0    0 -0.12863408918E+00 -0.24694953687E+00  0.12149697715E+01  0.12464680540E+01  0.51100000000E-03 0. -1.
    9000002    1    1    2    0    0  0.44401323554E+00  0.12638996225E+00  0.17529285130E+00  0.10600442253E+01  0.93800000000E+00 0.  1.
         22    1    1    2    0    0 -0.31537914636E+00  0.12055957462E+00  0.26097373445E+01  0.26314877207E+01  0.00000000000E+00 0. -1.
</event>
<event>
 5    1  0.6564536E+001  0.1599677E+01  0.7818608E-02  0.3353714E+00
         11   -1    0    0    0    0  0.00000000000E+00  0.00000000000E+00  0.39999999674E+01  0.40000000000E+01  0.51100000000E-03 0.  1.
    9000002   -1    0    0    0    0 -0.00000000000E+00 -0.00000000000E+00  0.00000000000E+00  0.93800000000E+00  0.93800000000E+00 0.  1.
         11    1    1    2    0    0  0.59624016132E-01  0.67692375285E-01  0.86749110463E+00  0.87216876733E+00  0.51100000000E-03 0.  1.
    9000002    1    1    2    0    0 -0.26841756002E+00 -0.30318708052E+00  0.11067197901E+00  0.10276491032E+01  0.93800000000E+00 0. -1.
         22    1    1    2    0    0  0.20879354388E+00  0.23549470524E+00  0.30218368837E+01  0.30381821295E+01  0.00000000000E+00 0. -1.
</event>
<event>
 5    1  0.6564536E+001  0.1598648E+01  0.7818608E-02  0.3354833E+00
         11   -1    0    0    0    0  0.00000000000E+00  0.00000000000E+00  0.39999999674E+01  0.40000000000E+01  0.51100000000E-03 0. -1.
    9000002   -1    0    0    0    0 -0.00000000000E+00 -0.00000000000E+00  0.00000000000E+00  0.93800000000E+00  0.93800000000E+00 0.  1.
         11    1    1    2    0    0 -0.52122082741E-01  0.62096068063E-02  0.64860768996E+00  0.65072841288E+00  0.51100000000E-03 0. -1.
    9000002    1    1    2    0    0  0.33666881620E+00  0.13431310348E+00  0.89055022362E-01  0.10095348922E+01  0.93800000000E+00 0.  1.
         22    1    1    2    0    0 -0.28454673346E+00 -0.14052271029E+00  0.32623372550E+01  0.32777366949E+01  0.00000000000E+00 0. -1.
</event>
<event>
 5    1  0.6564536E+001  0.1592372E+01  0.7818608E-02  0.3361685E+00
         11   -1    0    0    0    0  0.00000000000E+00  0.00000000000E+00  0.39999999674E+01  0.40000000000E+01  0.51100000000E-03 0.  1.
    9000002   -1    0    0    0    0 -0.00000000000E+00 -0.00000000000E+00  0.00000000000E+00  0.93800000000E+00  0.93800000000E+00 0. -1.
         11    1    1    2    0    0  0.19041246042E-01  0.15746246927E-01  0.83962168011E+00  0.83998532140E+00  0.51100000000E-03 0.  1.
    9000002    1    1    2    0    0  0.27720948468E+00 -0.21904137015E+00  0.89644216623E-01  0.10063321051E+01  0.93800000000E+00 0. -1.
         22    1    1    2    0    0 -0.29625073073E+00  0.20329512322E+00  0.30707340706E+01  0.30916825735E+01  0.00000000000E+00 0.  1.
</event>
<event>
 5    1  0.6564536E+001  0.1599677E+01  0.7818608E-02  0.3353714E+00
         11   -1    0    0    0    0  0.00000000000E+00  0.00000000000E+00  0.39999999674E+01  0.40000000000E+01  0.51100000000E-03 0.  1.
    9000002   -1    0    0    0    0 -0.00000000000E+00 -0.00000000000E+00  0.00000000000E+00  0.93800000000E+00  0.93800000000E+00 0. -1.
         11    1    1    2    0    0  0.76194619390E-01  0.82405879631E-01  0.10085383850E+01  0.10147641520E+01  0.51100000000E-03 0.  1.
    9000002    1    1    2    0    0 -0.29062224785E+00 -0.31775155315E+00  0.12558932402E+00  0.10397326670E+01  0.93800000000E+00 0. -1.
         22    1    1    2    0    0  0.21442762846E+00  0.23534567352E+00  0.28658722584E+01  0.28835031811E+01  0.00000000000E+00 0.  1.
</event>
<event>
 5    1  0.6564536E+001  0.1599677E+01  0.7818608E-02  0.3353714E+00
         11   -1    0    0    0    0  0.00000000000E+00  0.00000000000E+00  0.39999999674E+01  0.40000000000E+01  0.51100000000E-03 0. -1.
    9000002   -1    0    0    0    0 -0.00000000000E+00 -0.00000000000E+00  0.00000000000E+00  0.93800000000E+00  0.93800000000E+00 0. -1.
         11    1    1    2    0    0 -0.49400577318E-02 -0.11976433680E+00  0.12921440354E+01  0.12976919395E+01  0.51100000000E-03 0. -1.
    9000002    1    1    2    0    0  0.15814330909E-01  0.36231702224E+00  0.88313823289E-01  0.10095380374E+01  0.93800000000E+00 0. -1.
         22    1    1    2    0    0 -0.10874273177E-01 -0.24255268544E+00  0.26195421087E+01  0.26307700231E+01  0.00000000000E+00 0. -1.
</event>
<event>
 5    1  0.6564536E+001  0.1599462E+01  0.7818608E-02  0.3353947E+00
         11   -1    0    0    0    0  0.00000000000E+00  0.00000000000E+00  0.39999999674E+01  0.40000000000E+01  0.51100000000E-03 0. -1.
    9000002   -1    0    0    0    0 -0.00000000000E+00 -0.00000000000E+00  0.00000000000E+00  0.93800000000E+00  0.93800000000E+00 0. -1.
         11    1    1    2    0    0  0.80233177227E-01 -0.96749346429E-01  0.11150936681E+01  0.11221550465E+01  0.51100000000E-03 0. -1.
    9000002    1    1    2    0    0 -0.31451609113E+00  0.29371936074E+00  0.12560716522E+00  0.10396213707E+01  0.93800000000E+00 0. -1.
         22    1    1    2    0    0  0.23428291390E+00 -0.19697001431E+00  0.27592991341E+01  0.27762235828E+01  0.00000000000E+00 0. -1.
</event>
<event>
 5    1  0.6564536E+001  0.1599652E+01  0.7818608E-02  0.3353741E+00
         11   -1    0    0    0    0  0.00000000000E+00  0.00000000000E+00  0.39999999674E+01  0.40000000000E+01  0.51100000000E-03 0. -1.
    9000002   -1    0    0    0    0 -0.00000000000E+00 -0.00000000000E+00  0.00000000000E+00  0.93800000000E+00  0.93800000000E+00 0. -1.
         11    1    1    2    0    0 -0.55725665258E-02  0.48867440026E-01  0.39723163661E+00  0.40026530507E+00  0.51100000000E-03 0. -1.
    9000002    1    1    2    0    0  0.18694125910E-01 -0.47124944657E+00  0.15158656636E+00  0.10607770729E+01  0.93800000000E+00 0. -1.
         22    1    1    2    0    0 -0.13121559384E-01  0.42238200655E+00  0.34511817644E+01  0.34769576221E+01  0.00000000000E+00 0. -1.
</event>
<event>
 5    1  0.6564536E+001  0.1599561E+01  0.7818608E-02  0.3353840E+00
         11   -1    0    0    0    0  0.00000000000E+00  0.00000000000E+00  0.39999999674E+01  0.40000000000E+01  0.51100000000E-03 0.  1.
    9000002   -1    0    0    0    0 -0.00000000000E+00 -0.00000000000E+00  0.00000000000E+00  0.93800000000E+00  0.93800000000E+00 0.  1.
         11    1    1    2    0    0  0.11155720066E+00  0.68527730139E-01  0.13821539004E+01  0.13883409972E+01  0.51100000000E-03 0.  1.
    9000002    1    1    2    0    0 -0.34389358607E+00 -0.21128694855E+00  0.11003095348E+00  0.10270617235E+01  0.93800000000E+00 0.  1.
         22    1    1    2    0    0  0.23233638542E+00  0.14275921841E+00  0.25078151135E+01  0.25225972793E+01  0.00000000000E+00 0.  1.
</event>
<event>
 5    1  0.6564536E+001  0.1599223E+01  0.7818608E-02  0.3354207E+00
         11   -1    0    0    0    0  0.00000000000E+00  0.00000000000E+00  0.39999999674E+01  0.40000000000E+01  0.51100000000E-03 0.  1.
    9000002   -1    0    0    0    0 -0.00000000000E+00 -0.00000000000E+00  0.00000000000E+00  0.93800000000E+00  0.93800000000E+00 0.  1.
         11    1    1    2    0    0  0.11077504890E+00 -0.12489812352E-01  0.94116167122E+00  0.94774081866E+00  0.51100000000E-03 0.  1.
    9000002    1    1    2    0    0 -0.37853879928E+00  0.95093662744E-01  0.10300153066E+00  0.10211697913E+01  0.93800000000E+00 0.  1.
         22    1    1    2    0    0  0.26776375038E+00 -0.82603850392E-01  0.29558367655E+01  0.29690893901E+01  0.00000000000E+00 0.  1.
</event>
<event>
 5    1  0.6564536E+001  0.1593014E+01  0.7818608E-02  0.3360981E+00
         11   -1    0    0    0    0  0.00000000000E+00  0.00000000000E+00  0.39999999674E+01  0.40000000000E+01  0.51100000000E-03 0.  1.
    9000002   -1    0    0    0    0 -0.00000000000E+00 -0.00000000000E+00  0.00000000000E+00  0.93800000000E+00  0.93800000000E+00 0. -1.
         11    1    1    2    0    0  0.12616542573E+00 -0.36533867454E-01  0.54953029947E+00  0.56500995502E+00  0.51100000000E-03 0.  1.
    9000002    1    1    2    0    0 -0.41542520983E+00  0.12949393019E+00  0.13403595564E+00  0.10426679339E+01  0.93800000000E+00 0. -1.
         22    1    1    2    0    0  0.28925978409E+00 -0.92960062734E-01  0.33164337123E+01  0.33303221111E+01  0.00000000000E+00 0.  1.
</event>
<event>
 5    1  0.6564536E+001  0.1586227E+01  0.7818608E-02  0.3368449E+00
         11   -1    0    0    0    0  0.00000000000E+00  0.00000000000E+00  0.39999999674E+01  0.40000000000E+01  0.51100000000E-03 0.  1.
    9000002   -1    0    0    0    0 -0.00000000000E+00 -0.00000000000E+00  0.00000000000E+00  0.93800000000E+00  0.93800000000E+00 0.  1.
         11    1    1    2    0    0 -0.11249940743E+00  0.76506262797E-01  0.44599794281E+00  0.46628719802E+00  0.51100000000E-03 0.  1.
    9000002    1    1    2    0    0  0.23085717762E+00 -0.40091229174E+00  0.15746853707E+00  0.10576701009E+01  0.93800000000E+00 0.  1.
         22    1    1    2    0    0 -0.11835777019E+00  0.32440602895E+00  0.33965334875E+01  0.34140427011E+01  0.00000000000E+00 0.  1.
</event>
<event>
 5    1  0.6564536E+001  0.1599586E+01  0.7818608E-02  0.3353813E+00
         11   -1    0    0    0    0  0.00000000000E+00  0.00000000000E+00  0.39999999674E+01  0.40000000000E+01  0.51100000000E-03 0. -1.
    9000002   -1    0    0    0    0 -0.00000000000E+00 -0.00000000000E+00  0.00000000000E+00  0.93800000000E+00  0.93800000000E+00 0.  1.
         11    1    1    2    0    0 -0.49353896269E-01 -0.13110266636E+00  0.78516248291E+00  0.79756134679E+00  0.51100000000E-03 0. -1.
    9000002    1    1    2    0    0  0.26661513827E+00  0.63640270357E+00  0.33944705903E+00  0.12129139866E+01  0.93800000000E+00 0.  1.
         22    1    1    2    0    0 -0.21726124200E+00 -0.50530003721E+00  0.28753904254E+01  0.29275246666E+01  0.00000000000E+00 0. -1.
</event>
<event>
 5    1  0.6564536E+001  0.1591782E+01  0.7818608E-02  0.3362332E+00
         11   -1    0    0    0    0  0.00000000000E+00  0.00000000000E+00  0.39999999674E+01  0.40000000000E+01  0.51100000000E-03 0. -1.
    9000002   -1    0    0    0    0 -0.00000000000E+00 -0.00000000000E+00  0.00000000000E+00  0.93800000000E+00  0.93800000000E+00 0. -1.
         11    1    1    2    0    0 -0.10043267919E+00 -0.32582625974E-01  0.34188536726E+00  0.35781869157E+00  0.51100000000E-03 0. -1.
    9000002    1    1    2    0    0  0.45660737404E+00  0.16686187734E+00  0.16847344363E+00  0.10698413347E+01  0.93800000000E+00 0. -1.
         22    1    1    2    0    0 -0.35617469485E+00 -0.13427925136E+00  0.34896411565E+01  0.35103399738E+01  0.00000000000E+00 0. -1.
</event>
<event>
 5    1  0.6564536E+001  0.1599668E+01  0.7818608E-02  0.3353723E+00
         11   -1    0    0    0    0  0.00000000000E+00  0.00000000000E+00  0.39999999674E+01  0.40000000000E+01  0.51100000000E-03 0. -1.
    9000002   -1    0    0    0    0 -0.00000000000E+00 -0.00000000000E+00  0.00000000000E+00  0.93800000000E+00  0.93800000000E+00 0.  1.
         11    1    1    2    0    0 -0.16714807620E-01  0.15360123668E+00  0.85629851101E+00  0.87012649987E+00  0.51100000000E-03 0. -1.
    9000002    1    1    2    0    0  0.70235131359E-01 -0.67219454249E+00  0.32440091323E+00  0.12007740958E+01  0.93800000000E+00 0.  1.
         22    1    1    2    0    0 -0.53520323740E-01  0.51859330581E+00  0.28193005431E+01  0.28670994043E+01  0.00000000000E+00 0. -1.
</event>
<event>
 5    1  0.6564536E+001  0.1599671E+01  0.7818608E-02  0.3353720E+00
         11   -1    0    0    0    0  0.00000000000E+00  0.00000000000E+00  0.39999999674E+01  0.40000000000E+01  0.51100000000E-03 0. -1.
    9000002   -1    0    0    0    0 -0.00000000000E+00 -0.00000000000E+00  0.00000000000E+00  0.93800000000E+00  0.93800000000E+00 0. -1.
         11    1    1    2    0    0  0.96777988994E-01  0.40566028659E-01  0.96205899895E+00  0.96776513701E+00  0.51100000000E-03 0. -1.
    9000002    1    1    2    0    0 -0.38943395292E+00 -0.15377501044E+00  0.11854372379E+00  0.10340223266E+01  0.93800000000E+00 0. -1.
         22    1    1    2    0    0  0.29265596393E+00  0.11320898178E+00  0.29193972446E+01  0.29362125364E+01  0.00000000000E+00 0. -1.
</event>
<event>
 5    1  0.6564536E+001  0.1587276E+01  0.7818608E-02  0.3367290E+00
         11   -1    0    0    0    0  0.00000000000E+00  0.00000000000E+00  0.39999999674E+01  0.40000000000E+01  0.51100000000E-03 0.  1.
    9000002   -1    0    0    0    0 -0.00000000000E+00 -0.00000000000E+00  0.00000000000E+00  0.93800000000E+00  0.93800000000E+00 0.  1.
         11    1    1    2    0    0 -0.61235228825E-01  0.37662841883E-01  0.24555355954E+00  0.25586139731E+00  0.51100000000E-03 0.  1.
    9000002    1    1    2    0    0 -0.54351559529E-01 -0.40366488607E+00  0.12245357884E+00  0.10299215073E+01  0.93800000000E+00 0.  1.
         22    1    1    2    0    0  0.11558678835E+00  0.36600204419E+00  0.36319928290E+01  0.36522170954E+01  0.00000000000E+00 0.  1.
</event>
<event>
 5    1  0.6564536E+001  0.1598644E+01  0.7818608E-02  0.3354837E+00
         11   -1    0    0    0    0  0.00000000000E+00  0.00000000000E+00  0.39999999674E+01  0.40000000000E+01  0.51100000000E-03 0.  1.
    9000002   -1    0    0    0    0 -0.00000000000E+00 -0.00000000000E+00  0.00000000000E+00  0.93800000000E+00  0.93800000000E+00 0. -1.
         11    1    1    2    0    0  0.11477302427E-01 -0.16057936726E-01  0.86833555680E-01  0.89050060730E-01  0.51100000000E-03 0.  1.
    9000002    1    1    2    0    0 -0.17082661157E+00  0.33483450293E+00  0.95868637417E-01  0.10150520535E+01  0.93800000000E+00 0. -1.
         22    1    1    2    0    0  0.15934930915E+00 -0.31877656621E+00  0.38172977743E+01  0.38338978858E+01  0.00000000000E+00 0.  1.
</event>
<event>
 5    1  0.7174996E+001  0.1597704E+01  0.7818608E-02  0.3355859E+00
         11   -1    0    0    0    0  0.00000000000E+00  0.00000000000E+00  0.39999999674E+01  0.40000000000E+01  0.51100000000E-03 0.  1.
    9000002   -1    0    0    0    0 -0.00000000000E+00 -0.00000000000E+00  0.00000000000E+00  0.93800000000E+00  0.93800000000E+00 0. -1.
         11    1    1    2    0    0 -0.59679602156E-01 -0.14399370993E-02  0.10614169536E+01  0.10630945108E+01  0.51100000000E-03 0.  1.
    9000002    1    1    2    0    0  0.27466136892E+00  0.17277882191E+00  0.71975305192E-01  0.99514613672E+00  0.93800000000E+00 0. -1.
         22    1    1    2    0    0 -0.21498176677E+00 -0.17133888481E+00  0.28666077086E+01  0.28797593525E+01  0.00000000000E+00 0.  1.
</event>
<event>
 5    1  0.6564536E+001  0.1589230E+01  0.7818608E-02  0.3365137E+00
         11   -1    0    0    0    0  0.00000000000E+00  0.00000000000E+00  0.39999999674E+01  0.40000000000E+01  0.51100000000E-03 0. -1.
    9000002   -1    0    0    0    0 -0.00000000000E+00 -0.00000000000E+00  0.00000000000E+00  0.93800000000E+00  0.93800000000E+00 0.  1.
         11    1    1    2    0    0  0.33149042318E-01  0.57619111399E-01  0.12967096155E+01  0.12984124573E+01  0.51100000000E-03 0. -1.
    9000002    1    1    2    0    0 -0.43105915665E+00 -0.71773602666E-01  0.13844171825E+00  0.10440179864E+01  0.93800000000E+00 0.  1.
         22    1    1    2    0    0  0.39791011433E+00  0.14154491266E-01  0.25648486336E+01  0.25955695563E+01  0.00000000000E+00 0. -1.
</event>
<event>
 5    1  0.6564536E+001  0.1599675E+01  0.7818608E-02  0.3353717E+00
         11   -1    0    0    0    0  0.00000000000E+00  0.00000000000E+00  0.39999999674E+01  0.40000000000E+01  0.51100000000E-03 0. -1.
    9000002   -1    0    0    0    0 -0.00000000000E+00 -0.00000000000E+00  0.00000000000E+00  0.93800000000E+00  0.93800000000E+00 0. -1.
         11    1    1    2    0    0 -0.14504737137E+00 -0.35856671314E-01  0.13615821193E+01  0.13697556606E+01  0.51100000000E-03 0. -1.
    9000002    1    1    2    0    0  0.40919718286E+00  0.10535033511E+00  0.12079202641E+00  0.10358454234E+01  0.93800000000E+00 0. -1.
         22    1    1    2    0    0 -0.26414981149E+00 -0.69493663794E-01  0.25176258216E+01  0.25323989160E+01  0.00000000000E+00 0.  1.
</event>
<event>
 5    1  0.6564536E+001  0.1565982E+01  0.7818608E-02  0.3391134E+00
         11   -1    0    0    0    0  0.00000000000E+00  0.00000000000E+00  0.39999999674E+01  0.40000000000E+01  0.51100000000E-03 0. -1.
    9000002   -1    0    0    0    0 -0.00000000000E+00 -0.00000000000E+00  0.00000000000E+00  0.93800000000E+00  0.93800000000E+00 0. -1.
         11    1    1    2    0    0  0.22824123036E+00 -0.10654847765E+00  0.81764231994E+00  0.85556172296E+00  0.51100000000E-03 0. -1.
    9000002    1    1    2    0    0 -0.43767531102E+00 -0.79412112867E-01  0.16386705315E+00  0.10509816234E+01  0.93800000000E+00 0. -1.
         22    1    1    2    0    0  0.20943408066E+00  0.18596059051E+00  0.30184905943E+01  0.30314566537E+01  0.00000000000E+00 0. -1.
</event>
<event>
 5    1  0.6564536E+001  0.1598763E+01  0.7818608E-02  0.3354708E+00
         11   -1    0    0    0    0  0.00000000000E+00  0.00000000000E+00  0.39999999674E+01  0.40000000000E+01  0.51100000000E-03 0. -1.
    9000002   -1    0    0    0    0 -0.00000000000E+00 -0.00000000000E+00  0.00000000000E+00  0.93800000000E+00  0.93800000000E+00 0.  1.
         11    1    1    2    0    0  0.89901878670E-01  0.51042257861E-01  0.10078370135E+01  0.10131255434E+01  0.51100000000E-03 0. -1.
    9000002    1    1    2    0    0 -0.28795701591E+00 -0.30475961425E+00  0.11965294755E+00  0.10343879801E+01  0.93800000000E+00 0.  1.
         22    1    1    2    0    0  0.19805513724E+00  0.25371735639E+00  0.28725100063E+01  0.28904864765E+01  0.00000000000E+00 0. -1.
</event>
<event>
 5    1  0.6564536E+001  0.1599484E+01  0.7818608E-02  0.3353923E+00
         11   -1    0    0    0    0  0.00000000000E+00  0.00000000000E+00  0.39999999674E+01  0.40000000000E+01  0.51100000000E-03 0. -1.
    9000002   -1    0    0    0    0 -0.00000000000E+00 -0.00000000000E+00  0.00000000000E+00  0.93800000000E+00  0.93800000000E+00 0.  1.
         11    1    1    2    0    0  0.13757888043E+00  0.78537809264E-03  0.11875296286E+01  0.11954728961E+01  0.51100000000E-03 0. -1.
    9000002    1    1    2    0    0 -0.46004062545E+00  0.45716210836E-01  0.14559653146E+00  0.10558265478E+01  0.93800000000E+00 0.  1.
         22    1    1    2    0    0  0.32246174503E+00 -0.46501588929E-01  0.26668738072E+01  0.26867005562E+01  0.00000000000E+00 0. -1.
</event>
<event>
 5    1  0.6564536E+001  0.1599540E+01  0.7818608E-02  0.3353862E+00
         11   -1    0    0    0    0  0.00000000000E+00  0.00000000000E+00  0.39999999674E+01  0.40000000000E+01  0.51100000000E-03 0. -1.
    9000002   -1    0    0    0    0 -0.00000000000E+00 -0.00000000000E+00  0.00000000000E+00  0.93800000000E+00  0.93800000000E+00 0.  1.
         11    1    1    2    0    0 -0.52504791171E-01 -0.27052510530E-01  0.65846705162E+00  0.66111096695E+00  0.51100000000E-03 0. -1.
    9000002    1    1    2    0    0  0.32830929641E+00  0.21992759838E+00  0.10537821565E+00  0.10232808563E+01  0.93800000000E+00 0.  1.
         22    1    1    2    0    0 -0.27580450524E+00 -0.19287508785E+00  0.32361547001E+01  0.32536081767E+01  0.00000000000E+00 0. -1.
</event>
<event>
 5    1  0.6564536E+001  0.1598460E+01  0.7818608E-02  0.3355037E+00
         11   -1    0    0    0    0  0.00000000000E+00  0.00000000000E+00  0.39999999674E+01  0.40000000000E+01  0.51100000000E-03 0.  1.
    9000002   -1    0    0    0    0 -0.00000000000E+00 -0.00000000000E+00  0.00000000000E+00  0.93800000000E+00  0.93800000000E+00 0. -1.
         11    1    1    2    0    0  0.67458584095E-01 -0.42880889745E-01  0.71297779135E+00  0.71744478767E+00  0.51100000000E-03 0.  1.
    9000002    1    1    2    0    0 -0.22098253351E+00  0.33283725227E+00  0.10866913836E+00  0.10253130733E+01  0.93800000000E+00 0. -1.
         22    1    1    2    0    0  0.15352394942E+00 -0.28995636253E+00  0.31783530376E+01  0.31952421390E+01  0.00000000000E+00 0.  1.
</event>
<event>
 5    1  0.6564536E+001  0.1599676E+01  0.7818608E-02  0.3353715E+00
         11   -1    0    0    0    0  0.00000000000E+00  0.00000000000E+00  0.39999999674E+01  0.40000000000E+01  0.51100000000E-03 0. -1.
    9000002   -1    0    0    0    0 -0.00000000000E+00 -0.00000000000E+00  0.00000000000E+00  0.93800000000E+00  0.93800000000E+00 0. -1.
         11    1    1    2    0    0 -0.13298695891E+00  0.30856597812E-01  0.13437236567E+01  0.13506410284E+01  0.51100000000E-03 0. -1.
    9000002    1    1    2    0    0  0.38664429947E+00 -0.91670139602E-01  0.10646945171E+00  0.10242445865E+01  0.93800000000E+00 0. -1.
         22    1    1    2    0    0 -0.25365734055E+00  0.60813541791E-01  0.25498068590E+01  0.25631143852E+01  0.00000000000E+00 0. -1.
</event>
<event>
 5    1  0.6564536E+001  0.1599676E+01  0.7818608E-02  0.3353715E+00
         11   -1    0    0    0    0  0.00000000000E+00  0.00000000000E+00  0.39999999674E+01  0.40000000000E+01  0.51100000000E-03 0.  1.
    9000002   -1    0    0    0    0 -0.00000000000E+00 -0.00000000000E+00  0.00000000000E+00  0.93800000000E+00  0.93800000000E+00 0.  1.
         11    1    1    2    0    0  0.13216482538E-01 -0.12205332751E-01  0.19353970796E+00  0.19437470319E+00  0.51100000000E-03 0. -1.
    9000002    1    1    2    0    0 -0.26967917728E+00  0.24660565005E+00  0.89697769423E-01  0.10106586442E+01  0.93800000000E+00 0.  1.
         22    1    1    2    0    0  0.25646269474E+00 -0.23440031730E+00  0.37167624900E+01  0.37329666526E+01  0.00000000000E+00 0.  1.
</event>
<event>
 5    1  0.6564536E+001  0.1599122E+01  0.7818608E-02  0.3354317E+00
         11   -1    0    0    0    0  0.00000000000E+00  0.00000000000E+00  0.39999999674E+01  0.40000000000E+01  0.51100000000E-03 0. -1.
    9000002   -1    0    0    0    0 -0.00000000000E+00 -0.00000000000E+00  0.00000000000E+00  0.93800000000E+00  0.93800000000E+00 0. -1.
         11    1    1    2    0    0 -0.12014762696E+00 -0.65285010468E-01  0.14016601239E+01  0.14083142223E+01  0.51100000000E-03 0. -1.
    9000002    1    1    2    0    0  0.34751909560E+00  0.10729958350E+00  0.89284812009E-01  0.10099992575E+01  0.93800000000E+00 0. -1.
         22    1    1    2    0    0 -0.22737146864E+00 -0.42014573028E-01  0.25090550315E+01  0.25196865202E+01  0.00000000000E+00 0. -1.
</event>
<event>
 5    1  0.6564536E+001  0.1599675E+01  0.7818608E-02  0.3353716E+00
         11   -1    0    0    0    0  0.00000000000E+00  0.00000000000E+00  0.39999999674E+01  0.40000000000E+01  0.51100000000E-03 0.  1.
    9000002   -1    0    0    0    0 -0.00000000000E+00 -0.00000000000E+00  0.00000000000E+00  0.93800000000E+00  0.93800000000E+00 0.  1.
         11    1    1    2    0    0 -0.12291853124E-01  0.12158693202E-01  0.11919432611E+00  0.12044281619E+00  0.51100000000E-03 0. -1.
    9000002    1    1    2    0    0  0.37923662612E+00 -0.38520856837E+00  0.20147176767E+00  0.11011997698E+01  0.93800000000E+00 0.  1.
         22    1    1    2    0    0 -0.36694477299E+00  0.37304987516E+00  0.36793338736E+01  0.37163574141E+01  0.00000000000E+00 0.  1.
</event>
<event>
 5    1  0.6564536E+001  0.1599663E+01  0.7818608E-02  0.3353729E+00
         11   -1    0    0    0    0  0.00000000000E+00  0.00000000000E+00  0.39999999674E+01  0.40000000000E+01  0.51100000000E-03 0.  1.
    9000002   -1    0    0    0    0 -0.00000000000E+00 -0.00000000000E+00  0.00000000000E+00  0.93800000000E+00  0.93800000000E+00 0.  1.
         11    1    1    2    0    0  0.87672155572E-01 -0.94318086505E-01  0.99692297041E+00  0.10052054409E+01  0.51100000000E-03 0.  1.
    9000002    1    1    2    0    0 -0.35151124386E+00  0.36315929995E+00  0.17503909763E+00  0.10797812359E+01  0.93800000000E+00 0.  1.
         22    1    1    2    0    0  0.26383908829E+00 -0.26884121344E+00  0.28280378993E+01  0.28530133232E+01  0.00000000000E+00 0.  1.
</event>
<event>
 5    1  0.6564536E+001  0.1598834E+01  0.7818608E-02  0.3354630E+00
         11   -1    0    0    0    0  0.00000000000E+00  0.00000000000E+00  0.39999999674E+01  0.40000000000E+01  0.51100000000E-03 0.  1.
    9000002   -1    0    0    0    0 -0.00000000000E+00 -0.00000000000E+00  0.00000000000E+00  0.93800000000E+00  0.93800000000E+00 0. -1.
         11    1    1    2    0    0 -0.33687556251E-01 -0.25037499035E-01  0.57348352567E+00  0.57501768942E+00  0.51100000000E-03 0.  1.
    9000002    1    1    2    0    0  0.37549736396E+00  0.24712436848E+00  0.13796030108E+00  0.10492596287E+01  0.93800000000E+00 0. -1.
         22    1    1    2    0    0 -0.34180980771E+00 -0.22208686944E+00  0.32885561406E+01  0.33137226818E+01  0.00000000000E+00 0.  1.
</event>
<event>
 5    1  0.6564536E+001  0.1599677E+01  0.7818608E-02  0.3353714E+00
         11   -1    0    0    0    0  0.00000000000E+00  0.00000000000E+00  0.39999999674E+01  0.40000000000E+01  0.51100000000E-03 0.  1.
    9000002   -1    0    0    0    0 -0.00000000000E+00 -0.00000000000E+00  0.00000000000E+00  0.93800000000E+00  0.93800000000E+00 0. -1.
         11    1    1    2    0    0 -0.12494232711E+00  0.66712298334E-01  0.13862338355E+01  0.13934509764E+01  0.51100000000E-03 0. -1.
    9000002    1    1    2    0    0  0.35152854427E+00 -0.18726156468E+00  0.10698200701E+00  0.10246601197E+01  0.93800000000E+00 0. -1.
         22    1    1    2    0    0 -0.22658621716E+00  0.12054926634E+00  0.25067841248E+01  0.25198889039E+01  0.00000000000E+00 0.  1.
</event>
<event>
 5    1  0.6564536E+001  0.1599677E+01  0.7818608E-02  0.3353714E+00
         11   -1    0    0    0    0  0.00000000000E+00  0.00000000000E+00  0.39999999674E+01  0.40000000000E+01  0.51100000000E-03 0.  1.
    9000002   -1    0    0    0    0 -0.00000000000E+00 -0.00000000000E+00  0.00000000000E+00  0.93800000000E+00  0.93800000000E+00 0. -1.
         11    1    1    2    0    0  0.67839248509E-01 -0.34872924858E-01  0.81400226914E+00  0.81756849243E+00  0.51100000000E-03 0.  1.
    9000002    1    1    2    0    0 -0.32408610364E+00  0.16906861917E+00  0.89748662796E-01  0.10107001648E+01  0.93800000000E+00 0. -1.
         22    1    1    2    0    0  0.25624685513E+00 -0.13419569431E+00  0.30962490354E+01  0.31097313428E+01  0.00000000000E+00 0.  1.
</event>
<event>
 5    1  0.6564536E+001  0.1558119E+01  0.7818608E-02  0.3400112E+00
         11   -1    0    0    0    0  0.00000000000E+00  0.00000000000E+00  0.39999999674E+01  0.40000000000E+01  0.51100000000E-03 0. -1.
    9000002   -1    0    0    0    0 -0.00000000000E+00 -0.00000000000E+00  0.00000000000E+00  0.93800000000E+00  0.93800000000E+00 0.  1.
         11    1    1    2    0    0  0.14746287164E-01 -0.21203059741E+00  0.12590152747E+01  0.12768297264E+01  0.51100000000E-03 0. -1.
    9000002    1    1    2    0    0  0.86554213648E-01 -0.39548482266E-01  0.36918302539E-01  0.94353732062E+00  0.93800000000E+00 0.  1.
         22    1    1    2    0    0 -0.10130050081E+00  0.25157907968E+00  0.27040663902E+01  0.27176329530E+01  0.00000000000E+00 0. -1.
</event>
<event>
 5    1  0.6564536E+001  0.1599677E+01  0.7818608E-02  0.3353714E+00
         11   -1    0    0    0    0  0.00000000000E+00  0.00000000000E+00  0.39999999674E+01  0.40000000000E+01  0.51100000000E-03 0. -1.
    9000002   -1    0    0    0    0 -0.00000000000E+00 -0.00000000000E+00  0.00000000000E+00  0.93800000000E+00  0.93800000000E+00 0.  1.
         11    1    1    2    0    0 -0.50666472656E-02 -0.30168865954E+00  0.10365024240E+01  0.10795273291E+01  0.51100000000E-03 0. -1.
    9000002    1    1    2    0    0  0.15295922151E-01  0.95583928031E+00  0.71801014659E+00  0.15196201057E+01  0.93800000000E+00 0.  1.
         22    1    1    2    0    0 -0.10229274885E-01 -0.65415062077E+00  0.22454873968E+01  0.23388525652E+01  0.00000000000E+00 0. -1.
</event>
<event>
 5    1  0.6564536E+001  0.1599647E+01  0.7818608E-02  0.3353747E+00
         11   -1    0    0    0    0  0.00000000000E+00  0.00000000000E+00  0.39999999674E+01  0.40000000000E+01  0.51100000000E-03 0. -1.
    9000002   -1    0    0    0    0 -0.00000000000E+00 -0.00000000000E+00  0.00000000000E+00  0.93800000000E+00  0.93800000000E+00 0. -1.
         11    1    1    2    0    0 -0.43939889653E-01 -0.16696601216E-01  0.48969351287E+00  0.49194459857E+00  0.51100000000E-03 0. -1.
    9000002    1    1    2    0    0  0.37736144706E+00  0.15279513723E+00  0.11192900780E+00  0.10286496578E+01  0.93800000000E+00 0. -1.
         22    1    1    2    0    0 -0.33342155741E+00 -0.13609853602E+00  0.33983774467E+01  0.34174057436E+01  0.00000000000E+00 0. -1.
</event>
<event>
 5    1  0.6564536E+001  0.1598963E+01  0.7818608E-02  0.3354489E+00
         11   -1    0    0    0    0  0.00000000000E+00  0.00000000000E+00  0.39999999674E+01  0.40000000000E+01  0.51100000000E-03 0.  1.
    9000002   -1    0    0    0    0 -0.00000000000E+00 -0.00000000000E+00  0.00000000000E+00  0.93800000000E+00  0.93800000000E+00 0.  1.
         11    1    1    2    0    0 -0.21584254944E-01 -0.14011310288E+00  0.75391828684E+00  0.76713141378E+00  0.51100000000E-03 0.  1.
    9000002    1    1    2    0    0  0.11458400311E+00  0.78324107046E+00  0.46117361917E+00  0.13111526133E+01  0.93800000000E+00 0.  1.
         22    1    1    2    0    0 -0.92999748162E-01 -0.64312796758E+00  0.27849080614E+01  0.28597159730E+01  0.00000000000E+00 0.  1.
</event>
<event>
 5    1  0.6564536E+001  0.1599659E+01  0.7818608E-02  0.3353734E+00
         11   -1    0    0    0    0  0.00000000000E+00  0.00000000000E+00  0.39999999674E+01  0.40000000000E+01  0.51100000000E-03 0.  1.
    9000002   -1    0    0    0    0 -0.00000000000E+00 -0.00000000000E+00  0.00000000000E+00  0.93800000000E+00  0.93800000000E+00 0. -1.
         11    1    1    2    0    0 -0.10627231709E+00 -0.91307113313E-01  0.96066347954E+00  0.97082716091E+00  0.51100000000E-03 0.  1.
    9000002    1    1    2    0    0  0.40253567921E+00  0.35911785251E+00  0.20061434200E+00  0.11004956698E+01  0.93800000000E+00 0. -1.
         22    1    1    2    0    0 -0.29626336212E+00 -0.26781073920E+00  0.28387221458E+01  0.28666771693E+01  0.00000000000E+00 0.  1.
</event>
<event>
 5    1  0.6564536E+001  0.1599102E+01  0.7818608E-02  0.3354339E+00
         11   -1    0    0    0    0  0.00000000000E+00  0.00000000000E+00  0.39999999674E+01  0.40000000000E+01  0.51100000000E-03 0.  1.
    9000002   -1    0    0    0    0 -0.00000000000E+00 -0.00000000000E+00  0.00000000000E+00  0.93800000000E+00  0.93800000000E+00 0.  1.
         11    1    1    2    0    0 -0.31397923835E-01 -0.15218048104E-01  0.98355612674E-01  0.10436237960E+00  0.51100000000E-03 0.  1.
    9000002    1    1    2    0    0  0.84717470707E+00  0.27274944098E+00  0.60456999161E+00  0.14273913677E+01  0.93800000000E+00 0.  1.
         22    1    1    2    0    0 -0.81577678323E+00 -0.25753139287E+00  0.32970743631E+01  0.34062462527E+01  0.00000000000E+00 0.  1.
</event>
<event>
 5    1  0.6564536E+001  0.1599449E+01  0.7818608E-02  0.3353962E+00
         11   -1    0    0    0    0  0.00000000000E+00  0.00000000000E+00  0.39999999674E+01  0.40000000000E+01  0.51100000000E-03 0. -1.
    9000002   -1    0    0    0    0 -0.00000000000E+00 -0.00000000000E+00  0.00000000000E+00  0.93800000000E+00  0.93800000000E+00 0. -1.
         11    1    1    2    0    0  0.59059643556E+00  0.74452346738E-01  0.11458257814E+01  0.12912258842E+01  0.51100000000E-03 0. -1.
    9000002    1    1    2    0    0 -0.12400731249E+01 -0.11800899040E+00  0.16025718615E+01  0.22360205832E+01  0.93800000000E+00 0. -1.
         22    1    1    2    0    0  0.64947668937E+00  0.43556643663E-01  0.12516023245E+01  0.14107535326E+01  0.00000000000E+00 0.  1.
</event>
<event>
 5    1  0.6564536E+001  0.1599673E+01  0.7818608E-02  0.3353718E+00
         11   -1    0    0    0    0  0.00000000000E+00  0.00000000000E+00  0.39999999674E+01  0.40000000000E+01  0.51100000000E-03 0.  1.
    9000002   -1    0    0    0    0 -0.00000000000E+00 -0.00000000000E+00  0.00000000000E+00  0.93800000000E+00  0.93800000000E+00 0.  1.
         11    1    1    2    0    0 -0.13164704826E+00  0.93470444099E-01  0.13379707291E+01  0.13476771135E+01  0.51100000000E-03 0.  1.
    9000002    1    1    2    0    0  0.38209565134E+00 -0.27446387530E+00  0.15079222591E+00  0.10601461225E+01  0.93800000000E+00 0.  1.
         22    1    1    2    0    0 -0.25044860309E+00  0.18099343120E+00  0.25112370124E+01  0.25301767640E+01  0.00000000000E+00 0.  1.
</event>
<event>
 5    1  0.6564536E+001  0.1525600E+01  0.7818608E-02  0.3438297E+00
         11   -1    0    0    0    0  0.00000000000E+00  0.00000000000E+00  0.39999999674E+01  0.40000000000E+01  0.51100000000E-03 0. -1.
    9000002   -1    0    0    0    0 -0.00000000000E+00 -0.00000000000E+00  0.00000000000E+00  0.93800000000E+00  0.93800000000E+00 0.  1.
         11    1    1    2    0    0 -0.15410872935E-01  0.24662399239E-01 -0.18268543302E-01  0.34347194008E-01  0.51100000000E-03 0. -1.
    9000002    1    1    2    0    0 -0.97804266649E-01  0.48510993778E+00  0.23725867341E+00  0.10867534239E+01  0.93800000000E+00 0.  1.
         22    1    1    2    0    0  0.11321513958E+00 -0.50977233701E+00  0.37810098373E+01  0.38168993821E+01  0.00000000000E+00 0. -1.
</event>
<event>
 5    1  0.6564536E+001  0.1599675E+01  0.7818608E-02  0.3353716E+00
         11   -1    0    0    0    0  0.00000000000E+00  0.00000000000E+00  0.39999999674E+01  0.40000000000E+01  0.51100000000E-03 0. -1.
    9000002   -1    0    0    0    0 -0.00000000000E+00 -0.00000000000E+00  0.00000000000E+00  0.93800000000E+00  0.93800000000E+00 0.  1.
         11    1    1    2    0    0 -0.29009050865E-01 -0.46299035113E-01  0.55933569058E+00  0.56199804409E+00  0.51100000000E-03 0. -1.
    9000002    1    1    2    0    0  0.19467436269E+00  0.32343950459E+00  0.95860059021E-01  0.10156497288E+01  0.93800000000E+00 0.  1.
         22    1    1    2    0    0 -0.16566531183E+00 -0.27714046947E+00  0.33448042178E+01  0.33603522271E+01  0.00000000000E+00 0. -1.
</event>
<event>
 5    1  0.6564536E+001  0.1599460E+01  0.7818608E-02  0.3353950E+00
         11   -1    0    0    0    0  0.00000000000E+00  0.00000000000E+00  0.39999999674E+01  0.40000000000E+01  0.51100000000E-03 0. -1.
    9000002   -1    0    0    0    0 -0.00000000000E+00 -0.00000000000E+00  0.00000000000E+00  0.93800000000E+00  0.93800000000E+00 0.  1.
         11    1    1    2    0    0 -0.17993489449E-01  0.35502395239E-01  0.30592700439E+00  0.30850571934E+00  0.51100000000E-03 0. -1.
    9000002    1    1    2    0    0  0.22397425412E+00 -0.32984036549E+00  0.10738396952E+00  0.10248582586E+01  0.93800000000E+00 0.  1.
         22    1    1    2    0    0 -0.20598076467E+00  0.29433797025E+00  0.35866889934E+01  0.36046360221E+01  0.00000000000E+00 0. -1.
</event>
<event>
 5    1  0.6564536E+001  0.1599429E+01  0.7818608E-02  0.3353983E+00
         11   -1    0    0    0    0  0.00000000000E+00  0.00000000000E+00  0.39999999674E+01  0.40000000000E+01  0.51100000000E-03 0. -1.
    9000002   -1    0    0    0    0 -0.00000000000E+00 -0.00000000000E+00  0.00000000000E+00  0.93800000000E+00  0.93800000000E+00 0. -1.
         11    1    1    2    0    0  0.21712882337E-01  0.24140871263E-01  0.20195412165E+00  0.20454818331E+00  0.51100000000E-03 0. -1.
    9000002    1    1    2    0    0 -0.45768699377E+00 -0.30152028462E+00  0.20763911978E+00  0.11060514773E+01  0.93800000000E+00 0. -1.
         22    1    1    2    0    0  0.43597411143E+00  0.27737941336E+00  0.35904067259E+01  0.36274003394E+01  0.00000000000E+00 0. -1.
</event>
<event>
 5    1  0.6564536E+001  0.1599663E+01  0.7818608E-02  0.3353729E+00
         11   -1    0    0    0    0  0.00000000000E+00  0.00000000000E+00  0.39999999674E+01  0.40000000000E+01  0.51100000000E-03 0. -1.
    9000002   -1    0    0    0    0 -0.00000000000E+00 -0.00000000000E+00  0.00000000000E+00  0.93800000000E+00  0.93800000000E+00 0.  1.
         11    1    1    2    0    0 -0.11302787054E-01 -0.27745885256E-01  0.35628584654E+00  0.35754363749E+00  0.51100000000E-03 0. -1.
    9000002    1    1    2    0    0  0.12302786004E+00  0.33316272876E+00  0.84633518823E-01  0.10065486032E+01  0.93800000000E+00 0.  1.
         22    1    1    2    0    0 -0.11172507298E+00 -0.30541684351E+00  0.35590806020E+01  0.35739077593E+01  0.00000000000E+00 0. -1.
</event>
<event>
 5    1  0.6564536E+001  0.1599221E+01  0.7818608E-02  0.3354209E+00
         11   -1    0    0    0    0  0.00000000000E+00  0.00000000000E+00  0.39999999674E+01  0.40000000000E+01  0.51100000000E-03 0. -1.
    9000002   -1    0    0    0    0 -0.00000000000E+00 -0.00000000000E+00  0.00000000000E+00  0.93800000000E+00  0.93800000000E+00 0. -1.
         11    1    1    2    0    0 -0.16063596517E-02  0.67788716986E-02  0.10353455675E+00  0.10376993329E+00  0.51100000000E-03 0. -1.
    9000002    1    1    2    0    0 -0.24902046670E+00 -0.28496593390E+00  0.96717920582E-01  0.10160783102E+01  0.93800000000E+00 0. -1.
         22    1    1    2    0    0  0.25062682635E+00  0.27818706220E+00  0.37997474900E+01  0.38181517565E+01  0.00000000000E+00 0. -1.
</event>
<event>
 5    1  0.6564536E+001  0.1589963E+01  0.7818608E-02  0.3364330E+00
         11   -1    0    0    0    0  0.00000000000E+00  0.00000000000E+00  0.39999999674E+01  0.40000000000E+01  0.51100000000E-03 0.  1.
    9000002   -1    0    0    0    0 -0.00000000000E+00 -0.00000000000E+00  0.00000000000E+00  0.93800000000E+00  0.93800000000E+00 0. -1.
         11    1    1    2    0    0  0.26189739059E-01  0.23529414023E-01  0.96795751809E+00  0.96859772543E+00  0.51100000000E-03 0.  1.
    9000002    1    1    2    0    0  0.10746389094E+00  0.26073126090E+00  0.60541624002E-01  0.98134528404E+00  0.93800000000E+00 0. -1.
         22    1    1    2    0    0 -0.13365363000E+00 -0.28426067492E+00  0.29715008253E+01  0.29880569905E+01  0.00000000000E+00 0.  1.
</event>
<event>
 5    1  0.6772968E+001  0.1575836E+01  0.7818608E-02  0.3380015E+00
         11   -1    0    0    0    0  0.00000000000E+00  0.00000000000E+00  0.39999999674E+01  0.40000000000E+01  0.51100000000E-03 0. -1.
    9000002   -1    0    0    0    0 -0.00000000000E+00 -0.00000000000E+00  0.00000000000E+00  0.93800000000E+00  0.93800000000E+00 0.  1.
         11    1    1    2    0    0 -0.12216328486E+00 -0.55700661142E-01  0.14419919082E+01  0.14482290414E+01  0.51100000000E-03 0. -1.
    9000002    1    1    2    0    0 -0.91130339751E-01 -0.90225758986E-01  0.28561424615E-01  0.94715636586E+00  0.93800000000E+00 0.  1.
         22    1    1    2    0    0  0.21329362461E+00  0.14592642013E+00  0.25294466345E+01  0.25426145927E+01  0.00000000000E+00 0. -1.
</event>
<event>
 5    1  0.6564536E+001  0.1599677E+01  0.7818608E-02  0.3353714E+00
         11   -1    0    0    0    0  0.00000000000E+00  0.00000000000E+00  0.39999999674E+01  0.40000000000E+01  0.51100000000E-03 0.  1.
    9000002   -1    0    0    0    0 -0.00000000000E+00 -0.00000000000E+00  0.00000000000E+00  0.93800000000E+00  0.93800000000E+00 0.  1.
         11    1    1    2    0    0 -0.12780609171E+00 -0.15601331897E+00  0.14319235253E+01  0.14460566365E+01  0.51100000000E-03 0.  1.
    9000002    1    1    2    0    0  0.33934607559E+00  0.41568132941E+00  0.19838826967E+00  0.10987031593E+01  0.93800000000E+00 0.  1.
         22    1    1    2    0    0 -0.21153998387E+00 -0.25966801044E+00  0.23696881724E+01  0.23932402042E+01  0.00000000000E+00 0. -1.
</event>
<event>
 5    1  0.6564536E+001  0.1580577E+01  0.7818608E-02  0.3374718E+00
         11   -1    0    0    0    0  0.00000000000E+00  0.00000000000E+00  0.39999999674E+01  0.40000000000E+01  0.51100000000E-03 0. -1.
    9000002   -1    0    0    0    0 -0.00000000000E+00 -0.00000000000E+00  0.00000000000E+00  0.93800000000E+00  0.93800000000E+00 0.  1.
         11    1    1    2    0    0  0.11874306809E+00 -0.11289710233E-01  0.24654238501E+00  0.27388096411E+00  0.51100000000E-03 0. -1.
    9000002    1    1    2    0    0 -0.51259078630E+00  0.46984328083E+00  0.36671706425E+00  0.12238576012E+01  0.93800000000E+00 0.  1.
         22    1    1    2    0    0  0.39384771821E+00 -0.45855357060E+00  0.33867405181E+01  0.34402614347E+01  0.00000000000E+00 0. -1.
</event>
<event>
 5    1  0.6564536E+001  0.1599673E+01  0.7818608E-02  0.3353718E+00
         11   -1    0    0    0    0  0.00000000000E+00  0.00000000000E+00  0.39999999674E+01  0.40000000000E+01  0.51100000000E-03 0.  1.
    9000002   -1    0    0    0    0 -0.00000000000E+00 -0.00000000000E+00  0.00000000000E+00  0.93800000000E+00  0.93800000000E+00 0. -1.
         11    1    1    2    0    0 -0.51611579994E-01 -0.75094228202E-02  0.48104687965E+00  0.48386620895E+00  0.51100000000E-03 0.  1.
    9000002    1    1    2    0    0  0.40579587125E+00  0.55902246619E-01  0.11332644274E+00  0.10297971805E+01  0.93800000000E+00 0. -1.
         22    1    1    2    0    0 -0.35418429126E+00 -0.48392823799E-01  0.34056266450E+01  0.34243366106E+01  0.00000000000E+00 0.  1.
</event>
<event>
 5    1  0.6564536E+001  0.1599675E+01  0.7818608E-02  0.3353716E+00
         11   -1    0    0    0    0  0.00000000000E+00  0.00000000000E+00  0.39999999674E+01  0.40000000000E+01  0.51100000000E-03 0. -1.
    9000002   -1    0    0    0    0 -0.00000000000E+00 -0.00000000000E+00  0.00000000000E+00  0.93800000000E+00  0.93800000000E+00 0. -1.
         11    1    1    2    0    0 -0.43663384296E-01 -0.37987824918E-01  0.51734752640E+00  0.52057496114E+00  0.51100000000E-03 0. -1.
    9000002    1    1    2    0    0  0.32427640527E+00  0.29174622908E+00  0.12897277877E+00  0.10424725545E+01  0.93800000000E+00 0. -1.
         22    1    1    2    0    0 -0.28061302097E+00 -0.25375840416E+00  0.33536796622E+01  0.33749524844E+01  0.00000000000E+00 0. -1.
</event>
<event>
 5    1  0.6564536E+001  0.1599667E+01  0.7818608E-02  0.3353724E+00
         11   -1    0    0    0    0  0.00000000000E+00  0.00000000000E+00  0.39999999674E+01  0.40000000000E+01  0.51100000000E-03 0. -1.
    9000002   -1    0    0    0    0 -0.00000000000E+00 -0.00000000000E+00  0.00000000000E+00  0.93800000000E+00  0.93800000000E+00 0.  1.
         11    1    1    2    0    0  0.12214252705E-01 -0.59593527481E-01  0.50596356762E+00  0.50960766220E+00  0.51100000000E-03 0.  1.
    9000002    1    1    2    0    0 -0.82072002559E-01  0.46862874368E+00  0.15434655977E+00  0.10630219064E+01  0.93800000000E+00 0.  1.
         22    1    1    2    0    0  0.69857749854E-01 -0.40903521620E+00  0.33396898400E+01  0.33653704314E+01  0.00000000000E+00 0. -1.
</event>
<event>
 5    1  0.6564536E+001  0.1599581E+01  0.7818608E-02  0.3353819E+00
         11   -1    0    0    0    0  0.00000000000E+00  0.00000000000E+00  0.39999999674E+01  0.40000000000E+01  0.51100000000E-03 0.  1.
    9000002   -1    0    0    0    0 -0.00000000000E+00 -0.00000000000E+00  0.00000000000E+00  0.93800000000E+00  0.93800000000E+00 0. -1.
         11    1    1    2    0    0  0.93835112118E-02 -0.20519729857E-01  0.18475971877E+00  0.18613308249E+00  0.51100000000E-03 0. -1.
    9000002    1    1    2    0    0 -0.13662057098E+00  0.34754395163E+00  0.93833783217E-01  0.10139530352E+01  0.93800000000E+00 0. -1.
         22    1    1    2    0    0  0.12723705977E+00 -0.32702422177E+00  0.37214064654E+01  0.37379138823E+01  0.00000000000E+00 0.  1.
</event>
<event>
 5    1  0.6564536E+001  0.1555600E+01  0.7818608E-02  0.3403010E+00
         11   -1    0    0    0    0  0.00000000000E+00  0.00000000000E+00  0.39999999674E+01  0.40000000000E+01  0.51100000000E-03 0. -1.
    9000002   -1    0    0    0    0 -0.00000000000E+00 -0.00000000000E+00  0.00000000000E+00  0.93800000000E+00  0.93800000000E+00 0.  1.
         11    1    1    2    0    0  0.29986236189E+00 -0.44189312910E-02  0.13204656312E+01  0.13540925771E+01  0.51100000000E-03 0. -1.
    9000002    1    1    2    0    0 -0.22812443578E+00 -0.25229159779E+00  0.11365159813E+00  0.10042173541E+01  0.93800000000E+00 0.  1.
         22    1    1    2    0    0 -0.71737926112E-01  0.25671052908E+00  0.25658827380E+01  0.25796900688E+01  0.00000000000E+00 0. -1.
</event>
<event>
 5    1  0.6564536E+001  0.1599252E+01  0.7818608E-02  0.3354175E+00
         11   -1    0    0    0    0  0.00000000000E+00  0.00000000000E+00  0.39999999674E+01  0.40000000000E+01  0.51100000000E-03 0.  1.
    9000002   -1    0    0    0    0 -0.00000000000E+00 -0.00000000000E+00  0.00000000000E+00  0.93800000000E+00  0.93800000000E+00 0. -1.
         11    1    1    2    0    0 -0.40629429576E-02  0.10009742972E-01  0.44907879935E-01  0.46191787810E-01  0.51100000000E-03 0.  1.
    9000002    1    1    2    0    0  0.11208739396E+00 -0.46074628132E+00  0.15365291054E+00  0.10622165206E+01  0.93800000000E+00 0. -1.
         22    1    1    2    0    0 -0.10802445100E+00  0.45073653835E+00  0.38014391769E+01  0.38295916916E+01  0.00000000000E+00 0.  1.
</event>
<event>
 5    1  0.6564536E+001  0.1517304E+01  0.7818608E-02  0.3448318E+00
         11   -1    0    0    0    0  0.00000000000E+00  0.00000000000E+00  0.39999999674E+01  0.40000000000E+01  0.51100000000E-03 0. -1.
    9000002   -1    0    0    0    0 -0.00000000000E+00 -0.00000000000E+00  0.00000000000E+00  0.93800000000E+00  0.93800000000E+00 0. -1.
         11    1    1    2    0    0  0.23578707856E+00 -0.15942105758E+00  0.90365688363E+00  0.94742104920E+00  0.51100000000E-03 0. -1.
    9000002    1    1    2    0    0 -0.36580089757E-02 -0.60991812098E-01  0.64838999633E-01  0.94222156526E+00  0.93800000000E+00 0. -1.
         22    1    1    2    0    0 -0.23212906958E+00  0.22041286968E+00  0.30315040841E+01  0.30483573855E+01  0.00000000000E+00 0. -1.
</event>
<event>
 5    1  0.6564536E+001  0.1599473E+01  0.7818608E-02  0.3353935E+00
         11   -1    0    0    0    0  0.00000000000E+00  0.00000000000E+00  0.39999999674E+01  0.40000000000E+01  0.51100000000E-03 0.  1.
    9000002   -1    0    0    0    0 -0.00000000000E+00 -0.00000000000E+00  0.00000000000E+00  0.93800000000E+00  0.93800000000E+00 0.  1.
         11    1    1    2    0    0  0.52738221239E-01  0.16726747878E+00  0.13371104286E+01  0.13485637875E+01  0.51100000000E-03 0.  1.
    9000002    1    1    2    0    0 -0.12965200940E+00 -0.51803783894E+00  0.19657294895E+00  0.10971133808E+01  0.93800000000E+00 0.  1.
         22    1    1    2    0    0  0.76913788163E-01  0.35077036016E+00  0.24663165898E+01  0.24923228317E+01  0.00000000000E+00 0.  1.
</event>
<event>
 5    1  0.6564536E+001  0.1598449E+01  0.7818608E-02  0.3355049E+00
         11   -1    0    0    0    0  0.00000000000E+00  0.00000000000E+00  0.39999999674E+01  0.40000000000E+01  0.51100000000E-03 0. -1.
    9000002   -1    0    0    0    0 -0.00000000000E+00 -0.00000000000E+00  0.00000000000E+00  0.93800000000E+00  0.93800000000E+00 0. -1.
         11    1    1    2    0    0  0.96480645038E-01 -0.15016883160E-01  0.69717315799E+00  0.70397776597E+00  0.51100000000E-03 0. -1.
    9000002    1    1    2    0    0 -0.40268505703E+00  0.20593189982E+00  0.14004635483E+00  0.10507236478E+01  0.93800000000E+00 0. -1.
         22    1    1    2    0    0  0.30620441199E+00 -0.19091501666E+00  0.31627804545E+01  0.31832985862E+01  0.00000000000E+00 0. -1.
</event>
<event>
 5    1  0.6564536E+001  0.1599630E+01  0.7818608E-02  0.3353765E+00
         11   -1    0    0    0    0  0.00000000000E+00  0.00000000000E+00  0.39999999674E+01  0.40000000000E+01  0.51100000000E-03 0. -1.
    9000002   -1    0    0    0    0 -0.00000000000E+00 -0.00000000000E+00  0.00000000000E+00  0.93800000000E+00  0.93800000000E+00 0.  1.
         11    1    1    2    0    0 -0.16050943729E-01 -0.79999846298E-02  0.14981568056E+00  0.15088615514E+00  0.51100000000E-03 0. -1.
    9000002    1    1    2    0    0  0.34050052137E+00  0.18052810207E+00  0.10004222832E+00  0.10190110147E+01  0.93800000000E+00 0.  1.
         22    1    1    2    0    0 -0.32444957764E+00 -0.17252811744E+00  0.37501420585E+01  0.37681028301E+01  0.00000000000E+00 0. -1.
</event>
<event>
 5    1  0.6564536E+001  0.1599671E+01  0.7818608E-02  0.3353720E+00
         11   -1    0    0    0    0  0.00000000000E+00  0.00000000000E+00  0.39999999674E+01  0.40000000000E+01  0.51100000000E-03 0.  1.
    9000002   -1    0    0    0    0 -0.00000000000E+00 -0.00000000000E+00  0.00000000000E+00  0.93800000000E+00  0.93800000000E+00 0. -1.
         11    1    1    2    0    0  0.39109174910E-01  0.35331001908E-01  0.54690364592E+00  0.54943759090E+00  0.51100000000E-03 0.  1.
    9000002    1    1    2    0    0 -0.26536071520E+00 -0.25121787705E+00  0.89691975556E-01  0.10106509691E+01  0.93800000000E+00 0. -1.
         22    1    1    2    0    0  0.22625154029E+00  0.21588687514E+00  0.33634043459E+01  0.33779114400E+01  0.00000000000E+00 0.  1.
</event>
<event>
 5    1  0.6564536E+001  0.1598531E+01  0.7818608E-02  0.3354960E+00
         11   -1    0    0    0    0  0.00000000000E+00  0.00000000000E+00  0.39999999674E+01  0.40000000000E+01  0.51100000000E-03 0. -1.
    9000002   -1    0    0    0    0 -0.00000000000E+00 -0.00000000000E+00  0.00000000000E+00  0.93800000000E+00  0.93800000000E+00 0.  1.
         11    1    1    2    0    0 -0.17301920652E-01 -0.31398068255E-01  0.18837281297E+00  0.19175446002E+00  0.51100000000E-03 0. -1.
    9000002    1    1    2    0    0  0.33692926579E+00  0.28257402523E+00  0.13212016273E+00  0.10443510651E+01  0.93800000000E+00 0.  1.
         22    1    1    2    0    0 -0.31962734513E+00 -0.25117595698E+00  0.36795069917E+01  0.37018944748E+01  0.00000000000E+00 0. -1.
</event>
<event>
 5    1  0.6564536E+001  0.1599676E+01  0.7818608E-02  0.3353715E+00
         11   -1    0    0    0    0  0.00000000000E+00  0.00000000000E+00  0.39999999674E+01  0.40000000000E+01  0.51100000000E-03 0.  1.
    9000002   -1    0    0    0    0 -0.00000000000E+00 -0.00000000000E+00  0.00000000000E+00  0.93800000000E+00  0.93800000000E+00 0.  1.
         11    1    1    2    0    0  0.30455568557E-01 -0.88130217867E-01  0.92889993869E+00  0.93356833396E+00  0.51100000000E-03 0.  1.
    9000002    1    1    2    0    0 -0.12524751782E+00  0.37209352017E+00  0.10387391042E+00  0.10221420242E+01  0.93800000000E+00 0.  1.
         22    1    1    2    0    0  0.94791949259E-01 -0.28396330230E+00  0.29672261183E+01  0.29822896418E+01  0.00000000000E+00 0.  1.
</event>
<event>
 5    1  0.6564536E+001  0.1457365E+01  0.7818608E-02  0.3524386E+00
         11   -1    0    0    0    0  0.00000000000E+00  0.00000000000E+00  0.39999999674E+01  0.40000000000E+01  0.51100000000E-03 0. -1.
    9000002   -1    0    0    0    0 -0.00000000000E+00 -0.00000000000E+00  0.00000000000E+00  0.93800000000E+00  0.93800000000E+00 0.  1.
         11    1    1    2    0    0 -0.23919010570E+00 -0.27038215658E+00  0.12360879748E+01  0.12877236349E+01  0.51100000000E-03 0. -1.
    9000002    1    1    2    0    0 -0.26194005279E+00 -0.14173794097E+00  0.19834248147E+00  0.10039352445E+01  0.93800000000E+00 0.  1.
         22    1    1    2    0    0  0.50113015848E+00  0.41212009755E+00  0.25655695110E+01  0.26463411206E+01  0.00000000000E+00 0. -1.
</event>
<event>
 5    1  0.6564536E+001  0.1599673E+01  0.7818608E-02  0.3353718E+00
         11   -1    0    0    0    0  0.00000000000E+00  0.00000000000E+00  0.39999999674E+01  0.40000000000E+01  0.51100000000E-03 0.  1.
    9000002   -1    0    0    0    0 -0.00000000000E+00 -0.00000000000E+00  0.00000000000E+00  0.93800000000E+00  0.93800000000E+00 0.  1.
         11    1    1    2    0    0 -0.78488882244E-02  0.13371500582E-01  0.14150274495E+00  0.14235058842E+00  0.51100000000E-03 0. -1.
    9000002    1    1    2    0    0  0.19442152774E+00 -0.36533322325E+00  0.11573675433E+00  0.10317495291E+01  0.93800000000E+00 0.  1.
         22    1    1    2    0    0 -0.18657263951E+00  0.35196172267E+00  0.37427604681E+01  0.37638998825E+01  0.00000000000E+00 0.  1.
</event>
<event>
 5    1  0.6564536E+001  0.1599677E+01  0.7818608E-02  0.3353714E+00
         11   -1    0    0    0    0  0.00000000000E+00  0.00000000000E+00  0.39999999674E+01  0.40000000000E+01  0.51100000000E-03 0. -1.
    9000002   -1    0    0    0    0 -0.00000000000E+00 -0.00000000000E+00  0.00000000000E+00  0.93800000000E+00  0.93800000000E+00 0. -1.
         11    1    1    2    0    0  0.23454222925E-01  0.47099622480E-01  0.47958748403E+00  0.48246542982E+00  0.51100000000E-03 0. -1.
    9000002    1    1    2    0    0 -0.18731519407E+00 -0.38140480857E+00  0.12219376629E+00  0.10369821245E+01  0.93800000000E+00 0. -1.
         22    1    1    2    0    0  0.16386097114E+00  0.33430518609E+00  0.33982187170E+01  0.34185524457E+01  0.00000000000E+00 0. -1.
</event>
<event>
 5    1  0.6564536E+001  0.1597692E+01  0.7818608E-02  0.3355872E+00
         11   -1    0    0    0    0  0.00000000000E+00  0.00000000000E+00  0.39999999674E+01  0.40000000000E+01  0.51100000000E-03 0. -1.
    9000002   -1    0    0    0    0 -0.00000000000E+00 -0.00000000000E+00  0.00000000000E+00  0.93800000000E+00  0.93800000000E+00 0. -1.
         11    1    1    2    0    0  0.56072152008E-01 -0.58689969367E-01  0.72115784775E+00  0.72571172047E+00  0.51100000000E-03 0. -1.
    9000002    1    1    2    0    0 -0.16724326410E+00  0.49126723412E+00  0.18678314041E+00  0.10881386613E+01  0.93800000000E+00 0. -1.
         22    1    1    2    0    0  0.11117111209E+00 -0.43257726476E+00  0.30920589792E+01  0.31241496182E+01  0.00000000000E+00 0. -1.
</event>
<event>
 5    1  0.6564536E+001  0.1599647E+01  0.7818608E-02  0.3353746E+00
         11   -1    0    0    0    0  0.00000000000E+00  0.00000000000E+00  0.39999999674E+01  0.40000000000E+01  0.51100000000E-03 0.  1.
    9000002   -1    0    0    0    0 -0.00000000000E+00 -0.00000000000E+00  0.00000000000E+00  0.93800000000E+00  0.93800000000E+00 0.  1.
         11    1    1    2    0    0  0.52491764684E-01 -0.32415779651E-01  0.38369395789E+00  0.38862254511E+00  0.51100000000E-03 0.  1.
    9000002    1    1    2    0    0 -0.47705737978E+00  0.32448647276E+00  0.23116452802E+00  0.11252360880E+01  0.93800000000E+00 0.  1.
         22    1    1    2    0    0  0.42456561510E+00 -0.29207069311E+00  0.33851414815E+01  0.34241413669E+01  0.00000000000E+00 0.  1.
</event>
<event>
 5    1  0.6564536E+001  0.1599659E+01  0.7818608E-02  0.3353733E+00
         11   -1    0    0    0    0  0.00000000000E+00  0.00000000000E+00  0.39999999674E+01  0.40000000000E+01  0.51100000000E-03 0. -1.
    9000002   -1    0    0    0    0 -0.00000000000E+00 -0.00000000000E+00  0.00000000000E+00  0.93800000000E+00  0.93800000000E+00 0. -1.
         11    1    1    2    0    0 -0.75925071330E-01 -0.16976621121E-01  0.84239815305E+00  0.84598329268E+00  0.51100000000E-03 0. -1.
    9000002    1    1    2    0    0  0.37103217303E+00  0.78629825493E-01  0.96792260700E-01  0.10163957224E+01  0.93800000000E+00 0. -1.
         22    1    1    2    0    0 -0.29510710170E+00 -0.61653204372E-01  0.30608095536E+01  0.30756209849E+01  0.00000000000E+00 0. -1.
</event>
<event>
 5    1  0.6564536E+001  0.1522470E+01  0.7818608E-02  0.3442064E+00
         11   -1    0    0    0    0  0.00000000000E+00  0.00000000000E+00  0.39999999674E+01  0.40000000000E+01  0.51100000000E-03 0. -1.
    9000002   -1    0    0    0    0 -0.00000000000E+00 -0.00000000000E+00  0.00000000000E+00  0.93800000000E+00  0.93800000000E+00 0. -1.
         11    1    1    2    0    0  0.12332249409E+00 -0.19160367839E+00  0.41517390749E+00  0.47359269600E+00  0.51100000000E-03 0. -1.
    9000002    1    1    2    0    0 -0.40052594040E+00 -0.63651780805E-01  0.17860819033E+00  0.10374090147E+01  0.93800000000E+00 0. -1.
         22    1    1    2    0    0  0.27720344630E+00  0.25525545919E+00  0.34062178695E+01  0.34269982893E+01  0.00000000000E+00 0. -1.
</event>
<event>
 5    1  0.6564536E+001  0.1598799E+01  0.7818608E-02  0.3354668E+00
         11   -1    0    0    0    0  0.00000000000E+00  0.00000000000E+00  0.39999999674E+01  0.40000000000E+01  0.51100000000E-03 0.  1.
    9000002   -1    0    0    0    0 -0.00000000000E+00 -0.00000000000E+00  0.00000000000E+00  0.93800000000E+00  0.93800000000E+00 0.  1.
         11    1    1    2    0    0 -0.10151759452E+00  0.23246422181E-01  0.80182301880E+00  0.80855836693E+00  0.51100000000E-03 0.  1.
    9000002    1    1    2    0    0  0.44077305602E+00 -0.24238524346E+00  0.17409618352E+00  0.10785105351E+01  0.93800000000E+00 0.  1.
         22    1    1    2    0    0 -0.33925546150E+00  0.21913882128E+00  0.30240807650E+01  0.30509310980E+01  0.00000000000E+00 0.  1.
</event>
<event>
 5    1  0.6564536E+001  0.1586763E+01  0.7818608E-02  0.3367857E+00
         11   -1    0    0    0    0  0.00000000000E+00  0.00000000000E+00  0.39999999674E+01  0.40000000000E+01  0.51100000000E-03 0. -1.
    9000002   -1    0    0    0    0 -0.00000000000E+00 -0.00000000000E+00  0.00000000000E+00  0.93800000000E+00  0.93800000000E+00 0. -1.
         11    1    1    2    0    0 -0.50024074119E-01 -0.29430749273E-01  0.20084508759E+00  0.20906359636E+00  0.51100000000E-03 0. -1.
    9000002    1    1    2    0    0  0.18244309045E+00 -0.30700984555E+00  0.96103865198E-01  0.10082759937E+01  0.93800000000E+00 0. -1.
         22    1    1    2    0    0 -0.13241901634E+00  0.33644059482E+00  0.37030510146E+01  0.37206604100E+01  0.00000000000E+00 0. -1.
</event>
<event>
 5    1  0.6564536E+001  0.1599675E+01  0.7818608E-02  0.3353716E+00
         11   -1    0    0    0    0  0.00000000000E+00  0.00000000000E+00  0.39999999674E+01  0.40000000000E+01  0.51100000000E-03 0. -1.
    9000002   -1    0    0    0    0 -0.00000000000E+00 -0.00000000000E+00  0.00000000000E+00  0.93800000000E+00  0.93800000000E+00 0.  1.
         11    1    1    2    0    0  0.38007265806E-01  0.86616993063E-01  0.86671919243E+00  0.87186551451E+00  0.51100000000E-03 0. -1.
    9000002    1    1    2    0    0 -0.16390855197E+00 -0.38635118313E+00  0.11911635891E+00  0.10344882585E+01  0.93800000000E+00 0.  1.
         22    1    1    2    0    0  0.12590128616E+00  0.29973419007E+00  0.30141644160E+01  0.30316462269E+01  0.00000000000E+00 0. -1.
</event>
<event>
 5    1  0.6564536E+001  0.1599193E+01  0.7818608E-02  0.3354240E+00
         11   -1    0    0    0    0  0.00000000000E+00  0.00000000000E+00  0.39999999674E+01  0.40000000000E+01  0.51100000000E-03 0. -1.
    9000002   -1    0    0    0    0 -0.00000000000E+00 -0.00000000000E+00  0.00000000000E+00  0.93800000000E+00  0.93800000000E+00 0.  1.
         11    1    1    2    0    0  0.68641898626E-01 -0.36854656175E-01  0.95834322944E+00  0.96150506107E+00  0.51100000000E-03 0. -1.
    9000002    1    1    2    0    0 -0.24761772601E+00  0.23777907901E+00  0.79352550792E-01  0.10019951377E+01  0.93800000000E+00 0.  1.
         22    1    1    2    0    0  0.17897582738E+00 -0.20092442283E+00  0.29623041871E+01  0.29744998012E+01  0.00000000000E+00 0. -1.
</event>
<event>
 5    1  0.6564536E+001  0.1566123E+01  0.7818608E-02  0.3390973E+00
         11   -1    0    0    0    0  0.00000000000E+00  0.00000000000E+00  0.39999999674E+01  0.40000000000E+01  0.51100000000E-03 0.  1.
    9000002   -1    0    0    0    0 -0.00000000000E+00 -0.00000000000E+00  0.00000000000E+00  0.93800000000E+00  0.93800000000E+00 0. -1.
         11    1    1    2    0    0  0.13879708016E+00  0.14418223301E-01  0.92746739423E+00  0.93790646821E+00  0.51100000000E-03 0.  1.
    9000002    1    1    2    0    0  0.18561122177E+00 -0.23632302038E+00  0.86992814462E-01  0.98879312567E+00  0.93800000000E+00 0. -1.
         22    1    1    2    0    0 -0.32440830193E+00  0.22190479708E+00  0.29855397587E+01  0.30113004061E+01  0.00000000000E+00 0.  1.
</event>
<event>
 5    1  0.6564536E+001  0.1599676E+01  0.7818608E-02  0.3353715E+00
         11   -1    0    0    0    0  0.00000000000E+00  0.00000000000E+00  0.39999999674E+01  0.40000000000E+01  0.51100000000E-03 0. -1.
    9000002   -1    0    0    0    0 -0.00000000000E+00 -0.00000000000E+00  0.00000000000E+00  0.93800000000E+00  0.93800000000E+00 0. -1.
         11    1    1    2    0    0  0.39227722212E-01 -0.30203442091E-01  0.17275336498E+00  0.17970823113E+00  0.51100000000E-03 0.  1.
    9000002    1    1    2    0    0 -0.74568239734E+00  0.57703249280E+00  0.69397871576E+00  0.15001530567E+01  0.93800000000E+00 0. -1.
         22    1    1    2    0    0  0.70645467513E+00 -0.54682905071E+00  0.31332678866E+01  0.32581387122E+01  0.00000000000E+00 0. -1.
</event>
<event>
 5    1  0.6564536E+001  0.1599675E+01  0.7818608E-02  0.3353717E+00
         11   -1    0    0    0    0  0.00000000000E+00  0.00000000000E+00  0.39999999674E+01  0.40000000000E+01  0.51100000000E-03 0.  1.
    9000002   -1    0    0    0    0 -0.00000000000E+00 -0.00000000000E+00  0.00000000000E+00  0.93800000000E+00  0.93800000000E+00 0.  1.
         11    1    1    2    0    0  0.79993642969E-01  0.24119153294E-01  0.83914733880E+00  0.84329664639E+00  0.51100000000E-03 0.  1.
    9000002    1    1    2    0    0 -0.37267749938E+00 -0.11878176376E+00  0.10308620048E+00  0.10215030057E+01  0.93800000000E+00 0.  1.
         22    1    1    2    0    0  0.29268385642E+00  0.94662610468E-01  0.30577664281E+01  0.30732003479E+01  0.00000000000E+00 0.  1.
</event>
<event>
 5    1  0.6564536E+001  0.1599653E+01  0.7818608E-02  0.3353740E+00
         11   -1    0    0    0    0  0.00000000000E+00  0.00000000000E+00  0.39999999674E+01  0.40000000000E+01  0.51100000000E-03 0. -1.
    9000002   -1    0    0    0    0 -0.00000000000E+00 -0.00000000000E+00  0.00000000000E+00  0.93800000000E+00  0.93800000000E+00 0. -1.
         11    1    1    2    0    0 -0.67930122210E-03  0.44167964005E-01  0.39802913521E+00  0.40047312530E+00  0.51100000000E-03 0. -1.
    9000002    1    1    2    0    0 -0.27626627392E-01 -0.42644366258E+00  0.12364958956E+00  0.10381477009E+01  0.93800000000E+00 0. -1.
         22    1    1    2    0    0  0.28305928614E-01  0.38227569858E+00  0.34783212426E+01  0.34993791738E+01  0.00000000000E+00 0. -1.
</event>
<event>
 5    1  0.6564536E+001  0.1599459E+01  0.7818608E-02  0.3353951E+00
         11   -1    0    0    0    0  0.00000000000E+00  0.00000000000E+00  0.39999999674E+01  0.40000000000E+01  0.51100000000E-03 0.  1.
    9000002   -1    0    0    0    0 -0.00000000000E+00 -0.00000000000E+00  0.00000000000E+00  0.93800000000E+00  0.93800000000E+00 0.  1.
         11    1    1    2    0    0 -0.13866059872E-01  0.52621687515E-01  0.41933829444E+00  0.42285479294E+00  0.51100000000E-03 0.  1.
    9000002    1    1    2    0    0  0.15913986207E+00 -0.56671674871E+00  0.24138341644E+00  0.11334034245E+01  0.93800000000E+00 0.  1.
         22    1    1    2    0    0 -0.14527380220E+00  0.51409506120E+00  0.33392782565E+01  0.33817417825E+01  0.00000000000E+00 0.  1.
</event>
<event>
 5    1  0.6564536E+001  0.1567569E+01  0.7818608E-02  0.3389333E+00
         11   -1    0    0    0    0  0.00000000000E+00  0.00000000000E+00  0.39999999674E+01  0.40000000000E+01  0.51100000000E-03 0.  1.
    9000002   -1    0    0    0    0 -0.00000000000E+00 -0.00000000000E+00  0.00000000000E+00  0.93800000000E+00  0.93800000000E+00 0.  1.
         11    1    1    2    0    0 -0.14829393051E+00  0.15528986295E+00  0.87679170366E+00  0.90270149224E+00  0.51100000000E-03 0.  1.
    9000002    1    1    2    0    0  0.33849673870E+00  0.47195662898E-01  0.10443801234E+00  0.10037722706E+01  0.93800000000E+00 0.  1.
         22    1    1    2    0    0 -0.19020280819E+00 -0.20248552585E+00  0.30187702514E+01  0.30315262372E+01  0.00000000000E+00 0.  1.
</event>
<event>
 5    1  0.6564536E+001  0.1597797E+01  0.7818608E-02  0.3355758E+00
         11   -1    0    0    0    0  0.00000000000E+00  0.00000000000E+00  0.39999999674E+01  0.40000000000E+01  0.51100000000E-03 0.  1.
    9000002   -1    0    0    0    0 -0.00000000000E+00 -0.00000000000E+00  0.00000000000E+00  0.93800000000E+00  0.93800000000E+00 0. -1.
         11    1    1    2    0    0 -0.41045100877E-01 -0.21927121340E+00  0.14683378792E+01  0.14851871781E+01  0.51100000000E-03 0.  1.
    9000002    1    1    2    0    0  0.19284759304E+00  0.47001716983E+00  0.17863720938E+00  0.10816013992E+01  0.93800000000E+00 0. -1.
         22    1    1    2    0    0 -0.15180249216E+00 -0.25074595642E+00  0.23530248788E+01  0.23712114228E+01  0.00000000000E+00 0.  1.
</event>
<event>
 5    1  0.6564536E+001  0.1599653E+01  0.7818608E-02  0.3353741E+00
         11   -1    0    0    0    0  0.00000000000E+00  0.00000000000E+00  0.39999999674E+01  0.40000000000E+01  0.51100000000E-03 0.  1.
    9000002   -1    0    0    0    0 -0.00000000000E+00 -0.00000000000E+00  0.00000000000E+00  0.93800000000E+00  0.93800000000E+00 0.  1.
         11    1    1    2    0    0 -0.16490704699E+00 -0.11415385170E+00  0.13192983588E+01  0.13344563900E+01  0.51100000000E-03 0.  1.
    9000002    1    1    2    0    0  0.46716367019E+00  0.31180441911E+00  0.21840428366E+00  0.11149028306E+01  0.93800000000E+00 0. -1.
         22    1    1    2    0    0 -0.30225662320E+00 -0.19765056741E+00  0.24622973249E+01  0.24886407794E+01  0.00000000000E+00 0.  1.
</event>
<event>
 5    1  0.6564536E+001  0.1599387E+01  0.7818608E-02  0.3354029E+00
         11   -1    0    0    0    0  0.00000000000E+00  0.00000000000E+00  0.39999999674E+01  0.40000000000E+01  0.51100000000E-03 0.  1.
    9000002   -1    0    0    0    0 -0.00000000000E+00 -0.00000000000E+00  0.00000000000E+00  0.93800000000E+00  0.93800000000E+00 0. -1.
         11    1    1    2    0    0 -0.73685627901E-01 -0.97584520136E-01  0.13176870736E+01  0.13233487052E+01  0.51100000000E-03 0.  1.
    9000002    1    1    2    0    0  0.20096638589E+00  0.34319005366E+00  0.10689596135E+00  0.10244206400E+01  0.93800000000E+00 0. -1.
         22    1    1    2    0    0 -0.12728075799E+00 -0.24560553352E+00  0.25754169324E+01  0.25902306548E+01  0.00000000000E+00 0.  1.
</event>
<event>
 5    1  0.6564536E+001  0.1571701E+01  0.7818608E-02  0.3384662E+00
         11   -1    0    0    0    0  0.00000000000E+00  0.00000000000E+00  0.39999999674E+01  0.40000000000E+01  0.51100000000E-03 0. -1.
    9000002   -1    0    0    0    0 -0.00000000000E+00 -0.00000000000E+00  0.00000000000E+00  0.93800000000E+00  0.93800000000E+00 0.  1.
         11    1    1    2    0    0  0.33634202985E-01  0.79249657053E-01  0.13011383571E+01  0.13039835326E+01  0.51100000000E-03 0. -1.
    9000002    1    1    2    0    0  0.28384711312E-03  0.32317330950E+00  0.92345447548E-01  0.99639989473E+00  0.93800000000E+00 0.  1.
         22    1    1    2    0    0 -0.33918050098E-01 -0.40242296655E+00  0.26065161627E+01  0.26376165727E+01  0.00000000000E+00 0. -1.
</event>
<event>
 5    1  0.6564536E+001  0.1599579E+01  0.7818608E-02  0.3353820E+00
         11   -1    0    0    0    0  0.00000000000E+00  0.00000000000E+00  0.39999999674E+01  0.40000000000E+01  0.51100000000E-03 0.  1.
    9000002   -1    0    0    0    0 -0.00000000000E+00 -0.00000000000E+00  0.00000000000E+00  0.93800000000E+00  0.93800000000E+00 0. -1.
         11    1    1    2    0    0 -0.18994978816E-01  0.50431482441E-02  0.22029723112E+00  0.22117272373E+00  0.51100000000E-03 0.  1.
    9000002    1    1    2    0    0  0.41643680470E+00 -0.13920066441E+00  0.13082063332E+00  0.10439130593E+01  0.93800000000E+00 0. -1.
         22    1    1    2    0    0 -0.39744182589E+00  0.13415751617E+00  0.36488821029E+01  0.36729142170E+01  0.00000000000E+00 0.  1.
</event>
<event>
 5    1  0.6564536E+001  0.1596915E+01  0.7818608E-02  0.3356719E+00
         11   -1    0    0    0    0  0.00000000000E+00  0.00000000000E+00  0.39999999674E+01  0.40000000000E+01  0.51100000000E-03 0.  1.
    9000002   -1    0    0    0    0 -0.00000000000E+00 -0.00000000000E+00  0.00000000000E+00  0.93800000000E+00  0.93800000000E+00 0.  1.
         11    1    1    2    0    0 -0.40053220470E-01  0.12576097048E+00  0.11999001286E+01  0.12071373832E+01  0.51100000000E-03 0.  1.
    9000002    1    1    2    0    0  0.31308681190E+00 -0.41987777000E+00  0.19110753129E+00  0.10911859521E+01  0.93800000000E+00 0.  1.
         22    1    1    2    0    0 -0.27303359143E+00  0.29411679952E+00  0.26089923074E+01  0.26396766647E+01  0.00000000000E+00 0.  1.
</event>
<event>
 5    1  0.6564536E+001  0.1597350E+01  0.7818608E-02  0.3356244E+00
         11   -1    0    0    0    0  0.00000000000E+00  0.00000000000E+00  0.39999999674E+01  0.40000000000E+01  0.51100000000E-03 0.  1.
    9000002   -1    0    0    0    0 -0.00000000000E+00 -0.00000000000E+00  0.00000000000E+00  0.93800000000E+00  0.93800000000E+00 0. -1.
         11    1    1    2    0    0 -0.10644812448E+00  0.33021213918E-01  0.12344816706E+01  0.12395026664E+01  0.51100000000E-03 0.  1.
    9000002    1    1    2    0    0  0.48076681236E+00 -0.23360799689E-01  0.16017947486E+00  0.10663882590E+01  0.93800000000E+00 0. -1.
         22    1    1    2    0    0 -0.37431868787E+00 -0.96604142291E-02  0.26053388219E+01  0.26321090746E+01  0.00000000000E+00 0.  1.
</event>
<event>
 5    1  0.6564536E+001  0.1571209E+01  0.7818608E-02  0.3385217E+00
         11   -1    0    0    0    0  0.00000000000E+00  0.00000000000E+00  0.39999999674E+01  0.40000000000E+01  0.51100000000E-03 0. -1.
    9000002   -1    0    0    0    0 -0.00000000000E+00 -0.00000000000E+00  0.00000000000E+00  0.93800000000E+00  0.93800000000E+00 0.  1.
         11    1    1    2    0    0  0.15914332163E+00  0.23064265070E+00  0.10034542746E+01  0.10418461361E+01  0.51100000000E-03 0. -1.
    9000002    1    1    2    0    0 -0.44625103137E+00 -0.20861152174E+00  0.19184627973E+00  0.10767115422E+01  0.93800000000E+00 0.  1.
         22    1    1    2    0    0  0.28710770974E+00 -0.22031128955E-01  0.28046994131E+01  0.28194423217E+01  0.00000000000E+00 0. -1.
</event>
<event>
 5    1  0.6564536E+001  0.1599659E+01  0.7818608E-02  0.3353734E+00
         11   -1    0    0    0    0  0.00000000000E+00  0.00000000000E+00  0.39999999674E+01  0.40000000000E+01  0.51100000000E-03 0. -1.
    9000002   -1    0    0    0    0 -0.00000000000E+00 -0.00000000000E+00  0.00000000000E+00  0.93800000000E+00  0.93800000000E+00 0.  1.
         11    1    1    2    0    0 -0.10634831608E+00 -0.51652790696E-01  0.12544270981E+01  0.12599863414E+01  0.51100000000E-03 0. -1.
    9000002    1    1    2    0    0  0.32788240873E+00  0.17540030185E+00  0.92959271582E-01  0.10132904648E+01  0.93800000000E+00 0.  1.
         22    1    1    2    0    0 -0.22153409264E+00 -0.12374751115E+00  0.26526135977E+01  0.26647231938E+01  0.00000000000E+00 0. -1.
</event>
<event>
 5    1  0.6564536E+001  0.1596410E+01  0.7818608E-02  0.3357269E+00
         11   -1    0    0    0    0  0.00000000000E+00  0.00000000000E+00  0.39999999674E+01  0.40000000000E+01  0.51100000000E-03 0.  1.
    9000002   -1    0    0    0    0 -0.00000000000E+00 -0.00000000000E+00  0.00000000000E+00  0.93800000000E+00  0.93800000000E+00 0.  1.
         11    1    1    2    0    0  0.12656235556E-02  0.11801793142E-01  0.27993083755E-01  0.30409833664E-01  0.51100000000E-03 0.  1.
    9000002    1    1    2    0    0 -0.50383972610E+00 -0.18928685176E-01  0.17710526398E+00  0.10795476086E+01  0.93800000000E+00 0.  1.
         22    1    1    2    0    0  0.50257410254E+00  0.71268920339E-02  0.37949016196E+01  0.38280425577E+01  0.00000000000E+00 0.  1.
</event>
<event>
 5    1  0.6564536E+001  0.1599615E+01  0.7818608E-02  0.3353781E+00
         11   -1    0    0    0    0  0.00000000000E+00  0.00000000000E+00  0.39999999674E+01  0.40000000000E+01  0.51100000000E-03 0.  1.
    9000002   -1    0    0    0    0 -0.00000000000E+00 -0.00000000000E+00  0.00000000000E+00  0.93800000000E+00  0.93800000000E+00 0. -1.
         11    1    1    2    0    0 -0.68161409211E-01  0.12293552611E+00  0.12563500764E+01  0.12641894229E+01  0.51100000000E-03 0.  1.
    9000002    1    1    2    0    0  0.20856556863E+00 -0.40492888784E+00  0.14107670301E+00  0.10522421949E+01  0.93800000000E+00 0. -1.
         22    1    1    2    0    0 -0.14040415942E+00  0.28199336173E+00  0.26025731879E+01  0.26215683822E+01  0.00000000000E+00 0.  1.
</event>
<event>
 5    1  0.6564536E+001  0.1579379E+01  0.7818608E-02  0.3376054E+00
         11   -1    0    0    0    0  0.00000000000E+00  0.00000000000E+00  0.39999999674E+01  0.40000000000E+01  0.51100000000E-03 0. -1.
    9000002   -1    0    0    0    0 -0.00000000000E+00 -0.00000000000E+00  0.00000000000E+00  0.93800000000E+00  0.93800000000E+00 0. -1.
         11    1    1    2    0    0  0.95143810410E-01  0.30151222904E+00  0.13343312514E+01  0.13712775497E+01  0.51100000000E-03 0. -1.
    9000002    1    1    2    0    0 -0.37974738412E+00 -0.39956626950E+00  0.22936981908E+00  0.11118973844E+01  0.93800000000E+00 0. -1.
         22    1    1    2    0    0  0.28460357371E+00  0.98054040454E-01  0.24362988969E+01  0.24548250659E+01  0.00000000000E+00 0. -1.
</event>
<event>
 5    1  0.6564536E+001  0.1595363E+01  0.7818608E-02  0.3358412E+00
         11   -1    0    0    0    0  0.00000000000E+00  0.00000000000E+00  0.39999999674E+01  0.40000000000E+01  0.51100000000E-03 0.  1.
    9000002   -1    0    0    0    0 -0.00000000000E+00 -0.00000000000E+00  0.00000000000E+00  0.93800000000E+00  0.93800000000E+00 0. -1.
         11    1    1    2    0    0 -0.11978068964E+00  0.86808947400E-01  0.10308066950E+01  0.10413673274E+01  0.51100000000E-03 0.  1.
    9000002    1    1    2    0    0  0.19284745020E+00 -0.37993090664E+00  0.12654369173E+00  0.10379763672E+01  0.93800000000E+00 0. -1.
         22    1    1    2    0    0 -0.73066760562E-01  0.29312195924E+00  0.28426495806E+01  0.28586563054E+01  0.00000000000E+00 0.  1.
</event>
<event>
 5    1  0.6564536E+001  0.1599674E+01  0.7818608E-02  0.3353717E+00
         11   -1    0    0    0    0  0.00000000000E+00  0.00000000000E+00  0.39999999674E+01  0.40000000000E+01  0.51100000000E-03 0.  1.
    9000002   -1    0    0    0    0 -0.00000000000E+00 -0.00000000000E+00  0.00000000000E+00  0.93800000000E+00  0.93800000000E+00 0.  1.
         11    1    1    2    0    0  0.18611014760E+00 -0.57935590743E-01  0.12113823495E+01  0.12269641305E+01  0.51100000000E-03 0.  1.
    9000002    1    1    2    0    0 -0.57998494101E+00  0.18151968445E+00  0.25811481493E+00  0.11470829026E+01  0.93800000000E+00 0.  1.
         22    1    1    2    0    0  0.39387479341E+00 -0.12358409371E+00  0.25305028029E+01  0.25639529670E+01  0.00000000000E+00 0. -1.
</event>
<event>
 5    1  0.6564536E+001  0.1599627E+01  0.7818608E-02  0.3353768E+00
         11   -1    0    0    0    0  0.00000000000E+00  0.00000000000E+00  0.39999999674E+01  0.40000000000E+01  0.51100000000E-03 0.  1.
    9000002   -1    0    0    0    0 -0.00000000000E+00 -0.00000000000E+00  0.00000000000E+00  0.93800000000E+00  0.93800000000E+00 0.  1.
         11    1    1    2    0    0  0.57834278728E-01  0.40425585626E-01  0.43109809542E+00  0.43683504984E+00  0.51100000000E-03 0.  1.
    9000002    1    1    2    0    0 -0.46114494886E+00 -0.37250455744E+00  0.24485689370E+00  0.11363156285E+01  0.93800000000E+00 0.  1.
         22    1    1    2    0    0  0.40331067013E+00  0.33207897182E+00  0.33240449782E+01  0.33648493217E+01  0.00000000000E+00 0.  1.
</event>
<event>
 5    1  0.6564536E+001  0.1599676E+01  0.7818608E-02  0.3353715E+00
         11   -1    0    0    0    0  0.00000000000E+00  0.00000000000E+00  0.39999999674E+01  0.40000000000E+01  0.51100000000E-03 0. -1.
    9000002   -1    0    0    0    0 -0.00000000000E+00 -0.00000000000E+00  0.00000000000E+00  0.93800000000E+00  0.93800000000E+00 0. -1.
         11    1    1    2    0    0  0.12486916386E+00 -0.45696772486E-01  0.45563394017E+00  0.47463991789E+00  0.51100000000E-03 0. -1.
    9000002    1    1    2    0    0 -0.90184118810E+00  0.32517895602E+00  0.72308524027E+00  0.15237306674E+01  0.93800000000E+00 0. -1.
         22    1    1    2    0    0  0.77697202423E+00 -0.27948218353E+00  0.28212807869E+01  0.29396294147E+01  0.00000000000E+00 0. -1.
</event>
<event>
 5    1  0.6564536E+001  0.1599663E+01  0.7818608E-02  0.3353729E+00
         11   -1    0    0    0    0  0.00000000000E+00  0.00000000000E+00  0.39999999674E+01  0.40000000000E+01  0.51100000000E-03 0. -1.
    9000002   -1    0    0    0    0 -0.00000000000E+00 -0.00000000000E+00  0.00000000000E+00  0.93800000000E+00  0.93800000000E+00 0.  1.
         11    1    1    2    0    0 -0.44931829319E-01 -0.10832059268E-01  0.39206033138E+00  0.39477559114E+00  0.51100000000E-03 0. -1.
    9000002    1    1    2    0    0  0.41881855620E+00  0.11624161642E+00  0.12803991515E+00  0.10417098043E+01  0.93800000000E+00 0.  1.
         22    1    1    2    0    0 -0.37388672688E+00 -0.10540955715E+00  0.34798997208E+01  0.35015146046E+01  0.00000000000E+00 0. -1.
</event>
<event>
 5    1  0.6564536E+001  0.1599672E+01  0.7818608E-02  0.3353720E+00
         11   -1    0    0    0    0  0.00000000000E+00  0.00000000000E+00  0.39999999674E+01  0.40000000000E+01  0.51100000000E-03 0.  1.
    9000002   -1    0    0    0    0 -0.00000000000E+00 -0.00000000000E+00  0.00000000000E+00  0.93800000000E+00  0.93800000000E+00 0. -1.
         11    1    1    2    0    0  0.17923682709E-02  0.14059026975E+00  0.14245454857E+01  0.14314674074E+01  0.51100000000E-03 0.  1.
    9000002    1    1    2    0    0 -0.57395166597E-02 -0.37801443154E+00  0.96149381031E-01  0.10158821565E+01  0.93800000000E+00 0. -1.
         22    1    1    2    0    0  0.39471483889E-02  0.23742416179E+00  0.24793051006E+01  0.24906504360E+01  0.00000000000E+00 0. -1.
</event>
<event>
 5    1  0.6564536E+001  0.1591576E+01  0.7818608E-02  0.3362558E+00
         11   -1    0    0    0    0  0.00000000000E+00  0.00000000000E+00  0.39999999674E+01  0.40000000000E+01  0.51100000000E-03 0. -1.
    9000002   -1    0    0    0    0 -0.00000000000E+00 -0.00000000000E+00  0.00000000000E+00  0.93800000000E+00  0.93800000000E+00 0. -1.
         11    1    1    2    0    0 -0.20565088269E+00 -0.91366028940E-01  0.13315454179E+01  0.13504271538E+01  0.51100000000E-03 0. -1.
    9000002    1    1    2    0    0  0.47909084107E+00 -0.11969697739E-01  0.16389169061E+00  0.10660092842E+01  0.93800000000E+00 0. -1.
         22    1    1    2    0    0 -0.27343995838E+00  0.10333572668E+00  0.25045628589E+01  0.25215635620E+01  0.00000000000E+00 0. -1.
</event>
<event>
 5    1  0.6564536E+001  0.1586375E+01  0.7818608E-02  0.3368286E+00
         11   -1    0    0    0    0  0.00000000000E+00  0.00000000000E+00  0.39999999674E+01  0.40000000000E+01  0.51100000000E-03 0.  1.
    9000002   -1    0    0    0    0 -0.00000000000E+00 -0.00000000000E+00  0.00000000000E+00  0.93800000000E+00  0.93800000000E+00 0.  1.
         11    1    1    2    0    0  0.67204684996E-01  0.79447343682E-01  0.39984901484E+00  0.41316806011E+00  0.51100000000E-03 0.  1.
    9000002    1    1    2    0    0 -0.65392791151E+00  0.64756867188E-01  0.31949719105E+00  0.11890069892E+01  0.93800000000E+00 0.  1.
         22    1    1    2    0    0  0.58672322651E+00 -0.14420421087E+00  0.32806537615E+01  0.33358249507E+01  0.00000000000E+00 0.  1.
</event>
<event>
 5    1  0.6564536E+001  0.1504757E+01  0.7818608E-02  0.3463701E+00
         11   -1    0    0    0    0  0.00000000000E+00  0.00000000000E+00  0.39999999674E+01  0.40000000000E+01  0.51100000000E-03 0.  1.
    9000002   -1    0    0    0    0 -0.00000000000E+00 -0.00000000000E+00  0.00000000000E+00  0.93800000000E+00  0.93800000000E+00 0.  1.
         11    1    1    2    0    0  0.24451096577E+00  0.14993618177E-01  0.43866777753E+00  0.50243417592E+00  0.51100000000E-03 0.  1.
    9000002    1    1    2    0    0 -0.79000478905E-01  0.36755384484E+00  0.17731293278E+00  0.10259730896E+01  0.93800000000E+00 0.  1.
         22    1    1    2    0    0 -0.16551048686E+00 -0.38254746302E+00  0.33840192571E+01  0.34095927344E+01  0.00000000000E+00 0.  1.
</event>
<event>
 5    1  0.6564536E+001  0.1599521E+01  0.7818608E-02  0.3353883E+00
         11   -1    0    0    0    0  0.00000000000E+00  0.00000000000E+00  0.39999999674E+01  0.40000000000E+01  0.51100000000E-03 0. -1.
    9000002   -1    0    0    0    0 -0.00000000000E+00 -0.00000000000E+00  0.00000000000E+00  0.93800000000E+00  0.93800000000E+00 0.  1.
         11    1    1    2    0    0 -0.45993280382E-01 -0.12387918263E+00  0.14183065068E+01  0.14244490311E+01  0.51100000000E-03 0. -1.
    9000002    1    1    2    0    0  0.16365097315E+00  0.32639790367E+00  0.89670232668E-01  0.10105453890E+01  0.93800000000E+00 0.  1.
         22    1    1    2    0    0 -0.11765769276E+00 -0.20251872104E+00  0.24920232279E+01  0.25030055800E+01  0.00000000000E+00 0. -1.
</event>
<event>
 5    1  0.6564536E+001  0.1599653E+01  0.7818608E-02  0.3353740E+00
         11   -1    0    0    0    0  0.00000000000E+00  0.00000000000E+00  0.39999999674E+01  0.40000000000E+01  0.51100000000E-03 0. -1.
    9000002   -1    0    0    0    0 -0.00000000000E+00 -0.00000000000E+00  0.00000000000E+00  0.93800000000E+00  0.93800000000E+00 0.  1.
         11    1    1    2    0    0 -0.46562273315E-01 -0.26081713760E-01  0.63480635231E+00  0.63704604790E+00  0.51100000000E-03 0. -1.
    9000002    1    1    2    0    0  0.31398765096E+00  0.16053195902E+00  0.83427504189E-01  0.10055659617E+01  0.93800000000E+00 0.  1.
         22    1    1    2    0    0 -0.26742537765E+00 -0.13445024526E+00  0.32817661109E+01  0.32953879904E+01  0.00000000000E+00 0. -1.
</event>
<event>
 5    1  0.6564536E+001  0.1599605E+01  0.7818608E-02  0.3353792E+00
         11   -1    0    0    0    0  0.00000000000E+00  0.00000000000E+00  0.39999999674E+01  0.40000000000E+01  0.51100000000E-03 0. -1.
    9000002   -1    0    0    0    0 -0.00000000000E+00 -0.00000000000E+00  0.00000000000E+00  0.93800000000E+00  0.93800000000E+00 0. -1.
         11    1    1    2    0    0  0.94646728449E-01 -0.91287217582E-02  0.10921616382E+01  0.10962931368E+01  0.51100000000E-03 0. -1.
    9000002    1    1    2    0    0 -0.34670205359E+00  0.64732540842E-01  0.83489394686E-01  0.10055879349E+01  0.93800000000E+00 0. -1.
         22    1    1    2    0    0  0.25205532514E+00 -0.55603819084E-01  0.28243489345E+01  0.28361189283E+01  0.00000000000E+00 0. -1.
</event>
<event>
 5    1  0.6564536E+001  0.1597790E+01  0.7818608E-02  0.3355765E+00
         11   -1    0    0    0    0  0.00000000000E+00  0.00000000000E+00  0.39999999674E+01  0.40000000000E+01  0.51100000000E-03 0.  1.
    9000002   -1    0    0    0    0 -0.00000000000E+00 -0.00000000000E+00  0.00000000000E+00  0.93800000000E+00  0.93800000000E+00 0.  1.
         11    1    1    2    0    0 -0.54891394308E-01 -0.10910945532E+00  0.71069739447E+00  0.72111648576E+00  0.51100000000E-03 0.  1.
    9000002    1    1    2    0    0  0.16807203007E+00  0.41322521130E+00  0.13670879889E+00  0.10476337997E+01  0.93800000000E+00 0.  1.
         22    1    1    2    0    0 -0.11318063576E+00 -0.30411575598E+00  0.31525937740E+01  0.31692497146E+01  0.00000000000E+00 0.  1.
</event>
<event>
 5    1  0.6564536E+001  0.1599673E+01  0.7818608E-02  0.3353719E+00
         11   -1    0    0    0    0  0.00000000000E+00  0.00000000000E+00  0.39999999674E+01  0.40000000000E+01  0.51100000000E-03 0. -1.
    9000002   -1    0    0    0    0 -0.00000000000E+00 -0.00000000000E+00  0.00000000000E+00  0.93800000000E+00  0.93800000000E+00 0. -1.
         11    1    1    2    0    0  0.30600608525E-02 -0.30959559993E-01  0.25748078679E+00  0.25935395700E+00  0.51100000000E-03 0. -1.
    9000002    1    1    2    0    0 -0.62645163089E-01  0.46788595790E+00  0.15186238658E+00  0.10610126628E+01  0.93800000000E+00 0. -1.
         22    1    1    2    0    0  0.59585102236E-01 -0.43692639791E+00  0.35906567940E+01  0.36176333802E+01  0.00000000000E+00 0. -1.
</event>
<event>
 5    1  0.6564536E+001  0.1557310E+01  0.7818608E-02  0.3401042E+00
         11   -1    0    0    0    0  0.00000000000E+00  0.00000000000E+00  0.39999999674E+01  0.40000000000E+01  0.51100000000E-03 0. -1.
    9000002   -1    0    0    0    0 -0.00000000000E+00 -0.00000000000E+00  0.00000000000E+00  0.93800000000E+00  0.93800000000E+00 0.  1.
         11    1    1    2    0    0 -0.19363464190E-01 -0.11299615929E+00  0.29488519192E+00  0.31638680961E+00  0.51100000000E-03 0. -1.
    9000002    1    1    2    0    0 -0.76970937796E-02 -0.23037279310E+00  0.68076680483E-01  0.96830227898E+00  0.93800000000E+00 0.  1.
         22    1    1    2    0    0  0.27060557970E-01  0.34336895239E+00  0.36370380950E+01  0.36533109114E+01  0.00000000000E+00 0. -1.
</event>
<event>
 5    1  0.6564536E+001  0.1532586E+01  0.7818608E-02  0.3429948E+00
         11   -1    0    0    0    0  0.00000000000E+00  0.00000000000E+00  0.39999999674E+01  0.40000000000E+01  0.51100000000E-03 0.  1.
    9000002   -1    0    0    0    0 -0.00000000000E+00 -0.00000000000E+00  0.00000000000E+00  0.93800000000E+00  0.93800000000E+00 0. -1.
         11    1    1    2    0    0  0.27044323479E+00 -0.12159451988E+00  0.14094701610E+01  0.14403232853E+01  0.51100000000E-03 0.  1.
    9000002    1    1    2    0    0 -0.42949520586E-01 -0.96293318150E-01  0.58060472495E-01  0.94569132538E+00  0.93800000000E+00 0. -1.
         22    1    1    2    0    0 -0.22749371420E+00  0.21788783803E+00  0.25324693339E+01  0.25519853893E+01  0.00000000000E+00 0.  1.
</event>
<event>
 5    1  0.6564536E+001  0.1599672E+01  0.7818608E-02  0.3353720E+00
         11   -1    0    0    0    0  0.00000000000E+00  0.00000000000E+00  0.39999999674E+01  0.40000000000E+01  0.51100000000E-03 0.  1.
    9000002   -1    0    0    0    0 -0.00000000000E+00 -0.00000000000E+00  0.00000000000E+00  0.93800000000E+00  0.93800000000E+00 0. -1.
         11    1    1    2    0    0  0.10015491192E+00  0.40426078030E-01  0.94937541995E+00  0.95549946274E+00  0.51100000000E-03 0.  1.
    9000002    1    1    2    0    0 -0.41713112982E+00 -0.16368631790E+00  0.13634077105E+00  0.10484390283E+01  0.93800000000E+00 0. -1.
         22    1    1    2    0    0  0.31697621789E+00  0.12326023987E+00  0.29142837764E+01  0.29340615090E+01  0.00000000000E+00 0.  1.
</event>
<event>
 5    1  0.6564536E+001  0.1599675E+01  0.7818608E-02  0.3353716E+00
         11   -1    0    0    0    0  0.00000000000E+00  0.00000000000E+00  0.39999999674E+01  0.40000000000E+01  0.51100000000E-03 0.  1.
    9000002   -1    0    0    0    0 -0.00000000000E+00 -0.00000000000E+00  0.00000000000E+00  0.93800000000E+00  0.93800000000E+00 0.  1.
         11    1    1    2    0    0 -0.18783853235E+00 -0.29287649108E-01  0.54407954657E+00  0.57633661582E+00  0.51100000000E-03 0.  1.
    9000002    1    1    2    0    0  0.10550415032E+01  0.16839465190E+00  0.95940348273E+00  0.17151584110E+01  0.93800000000E+00 0.  1.
         22    1    1    2    0    0 -0.86720297084E+00 -0.13910700279E+00  0.24965169381E+01  0.26465049732E+01  0.00000000000E+00 0.  1.
</event>
<event>
 5    1  0.6564536E+001  0.1598839E+01  0.7818608E-02  0.3354625E+00
         11   -1    0    0    0    0  0.00000000000E+00  0.00000000000E+00  0.39999999674E+01  0.40000000000E+01  0.51100000000E-03 0.  1.
    9000002   -1    0    0    0    0 -0.00000000000E+00 -0.00000000000E+00  0.00000000000E+00  0.93800000000E+00  0.93800000000E+00 0.  1.
         11    1    1    2    0    0  0.77688689015E-01 -0.87821050423E-01  0.10389696365E+01  0.10455650319E+01  0.51100000000E-03 0.  1.
    9000002    1    1    2    0    0 -0.33314541377E+00  0.42450045088E+00  0.20151526954E+00  0.11007447040E+01  0.93800000000E+00 0.  1.
         22    1    1    2    0    0  0.25545672476E+00 -0.33667940046E+00  0.27595150613E+01  0.27916902641E+01  0.00000000000E+00 0.  1.
</event>
<event>
 5    1  0.6564536E+001  0.1599640E+01  0.7818608E-02  0.3353754E+00
         11   -1    0    0    0    0  0.00000000000E+00  0.00000000000E+00  0.39999999674E+01  0.40000000000E+01  0.51100000000E-03 0. -1.
    9000002   -1    0    0    0    0 -0.00000000000E+00 -0.00000000000E+00  0.00000000000E+00  0.93800000000E+00  0.93800000000E+00 0.  1.
         11    1    1    2    0    0 -0.30167254333E-01 -0.12848821840E+00  0.11549710273E+01  0.11624876862E+01  0.51100000000E-03 0. -1.
    9000002    1    1    2    0    0  0.82060996410E-01  0.44188021969E+00  0.13721036484E+00  0.10491247876E+01  0.93800000000E+00 0.  1.
         22    1    1    2    0    0 -0.51893742076E-01 -0.31339200129E+00  0.27078185752E+01  0.27263875263E+01  0.00000000000E+00 0. -1.
</event>
<event>
 5    1  0.6564536E+001  0.1563874E+01  0.7818608E-02  0.3393532E+00
         11   -1    0    0    0    0  0.00000000000E+00  0.00000000000E+00  0.39999999674E+01  0.40000000000E+01  0.51100000000E-03 0.  1.
    9000002   -1    0    0    0    0 -0.00000000000E+00 -0.00000000000E+00  0.00000000000E+00  0.93800000000E+00  0.93800000000E+00 0. -1.
         11    1    1    2    0    0 -0.83494952618E-01 -0.19512002972E-01  0.50176335778E-01  0.99348131164E-01  0.51100000000E-03 0.  1.
    9000002    1    1    2    0    0  0.77363622215E+00  0.48088173241E+00  0.69725209353E+00  0.14818112993E+01  0.93800000000E+00 0. -1.
         22    1    1    2    0    0 -0.69014126954E+00 -0.46136972944E+00  0.32525715381E+01  0.33568405695E+01  0.00000000000E+00 0.  1.
</event>
<event>
 5    1  0.6564536E+001  0.1599631E+01  0.7818608E-02  0.3353763E+00
         11   -1    0    0    0    0  0.00000000000E+00  0.00000000000E+00  0.39999999674E+01  0.40000000000E+01  0.51100000000E-03 0. -1.
    9000002   -1    0    0    0    0 -0.00000000000E+00 -0.00000000000E+00  0.00000000000E+00  0.93800000000E+00  0.93800000000E+00 0. -1.
         11    1    1    2    0    0 -0.23200933339E-01 -0.10791043340E+00  0.99712471930E+00  0.10032152869E+01  0.51100000000E-03 0. -1.
    9000002    1    1    2    0    0  0.11521066506E+00  0.40799055133E+00  0.12165611828E+00  0.10365201389E+01  0.93800000000E+00 0. -1.
         22    1    1    2    0    0 -0.92009731718E-01 -0.30008011793E+00  0.28812191298E+01  0.28982645741E+01  0.00000000000E+00 0. -1.
</event>
<event>
 5    1  0.6564536E+001  0.1599677E+01  0.7818608E-02  0.3353714E+00
         11   -1    0    0    0    0  0.00000000000E+00  0.00000000000E+00  0.39999999674E+01  0.40000000000E+01  0.51100000000E-03 0.  1.
    9000002   -1    0    0    0    0 -0.00000000000E+00 -0.00000000000E+00  0.00000000000E+00  0.93800000000E+00  0.93800000000E+00 0. -1.
         11    1    1    2    0    0  0.75263688857E-01 -0.60784325906E-01  0.10236246366E+01  0.10281862745E+01  0.51100000000E-03 0.  1.
    9000002    1    1    2    0    0 -0.28587220157E+00  0.23229151660E+00  0.91166272587E-01  0.10118485823E+01  0.93800000000E+00 0. -1.
         22    1    1    2    0    0  0.21060851271E+00 -0.17150719069E+00  0.28852090581E+01  0.28979651432E+01  0.00000000000E+00 0.  1.
</event>
<event>
 5    1  0.6564536E+001  0.1599629E+01  0.7818608E-02  0.3353766E+00
         11   -1    0    0    0    0  0.00000000000E+00  0.00000000000E+00  0.39999999674E+01  0.40000000000E+01  0.51100000000E-03 0.  1.
    9000002   -1    0    0    0    0 -0.00000000000E+00 -0.00000000000E+00  0.00000000000E+00  0.93800000000E+00  0.93800000000E+00 0. -1.
         11    1    1    2    0    0  0.29855449060E-01 -0.10611000318E+00  0.83203658935E+00  0.83930675426E+00  0.51100000000E-03 0.  1.
    9000002    1    1    2    0    0 -0.16503426969E+00  0.49984731104E+00  0.19059408630E+00  0.10923615474E+01  0.93800000000E+00 0. -1.
         22    1    1    2    0    0  0.13517882063E+00 -0.39373730786E+00  0.29773692917E+01  0.30063316983E+01  0.00000000000E+00 0.  1.
</event>
<event>
 5    1  0.6564536E+001  0.1578816E+01  0.7818608E-02  0.3376682E+00
         11   -1    0    0    0    0  0.00000000000E+00  0.00000000000E+00  0.39999999674E+01  0.40000000000E+01  0.51100000000E-03 0. -1.
    9000002   -1    0    0    0    0 -0.00000000000E+00 -0.00000000000E+00  0.00000000000E+00  0.93800000000E+00  0.93800000000E+00 0.  1.
         11    1    1    2    0    0 -0.15485337303E-01 -0.27174753598E-01  0.17324838616E-01  0.35758552243E-01  0.51100000000E-03 0. -1.
    9000002    1    1    2    0    0  0.27525202440E+00  0.29520014615E+00  0.12754700630E+00  0.10290865085E+01  0.93800000000E+00 0.  1.
         22    1    1    2    0    0 -0.25976668710E+00 -0.26802539256E+00  0.38551281224E+01  0.38731549392E+01  0.00000000000E+00 0. -1.
</event>
<event>
 5    1  0.6564536E+001  0.1588748E+01  0.7818608E-02  0.3365667E+00
         11   -1    0    0    0    0  0.00000000000E+00  0.00000000000E+00  0.39999999674E+01  0.40000000000E+01  0.51100000000E-03 0.  1.
    9000002   -1    0    0    0    0 -0.00000000000E+00 -0.00000000000E+00  0.00000000000E+00  0.93800000000E+00  0.93800000000E+00 0.  1.
         11    1    1    2    0    0  0.14982116165E+00 -0.14775919216E-01  0.10583809892E+01  0.10690347458E+01  0.51100000000E-03 0.  1.
    9000002    1    1    2    0    0 -0.36666285075E+00 -0.31386403516E+00  0.16877615108E+00  0.10683078526E+01  0.93800000000E+00 0.  1.
         22    1    1    2    0    0  0.21684168910E+00  0.32863995438E+00  0.27728428270E+01  0.28006574016E+01  0.00000000000E+00 0.  1.
</event>
<event>
 5    1  0.6564536E+001  0.1599642E+01  0.7818608E-02  0.3353752E+00
         11   -1    0    0    0    0  0.00000000000E+00  0.00000000000E+00  0.39999999674E+01  0.40000000000E+01  0.51100000000E-03 0. -1.
    9000002   -1    0    0    0    0 -0.00000000000E+00 -0.00000000000E+00  0.00000000000E+00  0.93800000000E+00  0.93800000000E+00 0. -1.
         11    1    1    2    0    0  0.15578820425E+00 -0.10193491920E+00  0.13438312724E+01  0.13566662973E+01  0.51100000000E-03 0. -1.
    9000002    1    1    2    0    0 -0.42823162771E+00  0.27730764517E+00  0.17851768799E+00  0.10825869120E+01  0.93800000000E+00 0. -1.
         22    1    1    2    0    0  0.27244342346E+00 -0.17537272597E+00  0.24776510069E+01  0.24987467907E+01  0.00000000000E+00 0. -1.
</event>
<event>
 5    1  0.6564536E+001  0.1599673E+01  0.7818608E-02  0.3353719E+00
         11   -1    0    0    0    0  0.00000000000E+00  0.00000000000E+00  0.39999999674E+01  0.40000000000E+01  0.51100000000E-03 0. -1.
    9000002   -1    0    0    0    0 -0.00000000000E+00 -0.00000000000E+00  0.00000000000E+00  0.93800000000E+00  0.93800000000E+00 0. -1.
         11    1    1    2    0    0  0.88401702994E-01  0.44139200032E-01  0.81905563946E+00  0.82499426164E+00  0.51100000000E-03 0. -1.
    9000002    1    1    2    0    0 -0.41417481903E+00 -0.21702276537E+00  0.14889530784E+00  0.10586092169E+01  0.93800000000E+00 0. -1.
         22    1    1    2    0    0  0.32577311604E+00  0.17288356534E+00  0.30320490201E+01  0.30543965215E+01  0.00000000000E+00 0. -1.
</event>
<event>
 5    1  0.6564536E+001  0.1504512E+01  0.7818608E-02  0.3464004E+00
         11   -1    0    0    0    0  0.00000000000E+00  0.00000000000E+00  0.39999999674E+01  0.40000000000E+01  0.51100000000E-03 0.  1.
    9000002   -1    0    0    0    0 -0.00000000000E+00 -0.00000000000E+00  0.00000000000E+00  0.93800000000E+00  0.93800000000E+00 0. -1.
         11    1    1    2    0    0 -0.33013660003E-01 -0.32652248385E+00  0.77464247789E+00  0.84129546764E+00  0.51100000000E-03 0.  1.
    9000002    1    1    2    0    0 -0.46576017064E+00  0.24454721688E+00  0.28410892107E+00  0.11123388678E+01  0.93800000000E+00 0. -1.
         22    1    1    2    0    0  0.49877383064E+00  0.81975266963E-01  0.29412485684E+01  0.29843656645E+01  0.00000000000E+00 0.  1.
</event>
<event>
 5    1  0.6564536E+001  0.1587902E+01  0.7818608E-02  0.3366600E+00
         11   -1    0    0    0    0  0.00000000000E+00  0.00000000000E+00  0.39999999674E+01  0.40000000000E+01  0.51100000000E-03 0.  1.
    9000002   -1    0    0    0    0 -0.00000000000E+00 -0.00000000000E+00  0.00000000000E+00  0.93800000000E+00  0.93800000000E+00 0.  1.
         11    1    1    2    0    0  0.87652489014E-01  0.51005108048E-01  0.32365884513E+00  0.33917515981E+00  0.51100000000E-03 0.  1.
    9000002    1    1    2    0    0 -0.20649404731E+00 -0.36123386534E+00  0.12700444934E+00  0.10339747711E+01  0.93800000000E+00 0.  1.
         22    1    1    2    0    0  0.11884155830E+00  0.31022875729E+00  0.35493366729E+01  0.35648500691E+01  0.00000000000E+00 0.  1.
</event>
<event>
 5    1  0.6564536E+001  0.1599545E+01  0.7818608E-02  0.3353857E+00
         11   -1    0    0    0    0  0.00000000000E+00  0.00000000000E+00  0.39999999674E+01  0.40000000000E+01  0.51100000000E-03 0. -1.
    9000002   -1    0    0    0    0 -0.00000000000E+00 -0.00000000000E+00  0.00000000000E+00  0.93800000000E+00  0.93800000000E+00 0. -1.
         11    1    1    2    0    0 -0.34124936088E+00 -0.13624514910E+00  0.13523918595E+01  0.14014199477E+01  0.51100000000E-03 0. -1.
    9000002    1    1    2    0    0  0.84362725533E+00  0.30800160944E+00  0.61706025210E+00  0.14377688591E+01  0.93800000000E+00 0. -1.
         22    1    1    2    0    0 -0.50237789445E+00 -0.17175646034E+00  0.20305478558E+01  0.20988111933E+01  0.00000000000E+00 0. -1.
</event>
<event>
 5    1  0.6564536E+001  0.1599448E+01  0.7818608E-02  0.3353963E+00
         11   -1    0    0    0    0  0.00000000000E+00  0.00000000000E+00  0.39999999674E+01  0.40000000000E+01  0.51100000000E-03 0.  1.
    9000002   -1    0    0    0    0 -0.00000000000E+00 -0.00000000000E+00  0.00000000000E+00  0.93800000000E+00  0.93800000000E+00 0.  1.
         11    1    1    2    0    0 -0.45610711522E-01  0.53364944360E-03  0.14019841907E+00  0.14743296652E+00  0.51100000000E-03 0.  1.
    9000002    1    1    2    0    0  0.94432189649E+00  0.10965220683E+00  0.70859517090E+00  0.15118593079E+01  0.93800000000E+00 0.  1.
         22    1    1    2    0    0 -0.89871118496E+00 -0.11018585627E+00  0.31512063774E+01  0.32787077256E+01  0.00000000000E+00 0.  1.
</event>
<event>
 5    1  0.6564536E+001  0.1585957E+01  0.7818608E-02  0.3368748E+00
         11   -1    0    0    0    0  0.00000000000E+00  0.00000000000E+00  0.39999999674E+01  0.40000000000E+01  0.51100000000E-03 0.  1.
    9000002   -1    0    0    0    0 -0.00000000000E+00 -0.00000000000E+00  0.00000000000E+00  0.93800000000E+00  0.93800000000E+00 0. -1.
         11    1    1    2    0    0  0.10976906031E+00  0.18434491051E+00  0.12365289304E+01  0.12550045216E+01  0.51100000000E-03 0.  1.
    9000002    1    1    2    0    0  0.25549626255E-01 -0.39519320297E+00  0.11720464764E+00  0.10248957901E+01  0.93800000000E+00 0. -1.
         22    1    1    2    0    0 -0.13531868657E+00  0.21084829246E+00  0.26462663894E+01  0.26580996883E+01  0.00000000000E+00 0.  1.
</event>
<event>
 5    1  0.6564536E+001  0.1599092E+01  0.7818608E-02  0.3354350E+00
         11   -1    0    0    0    0  0.00000000000E+00  0.00000000000E+00  0.39999999674E+01  0.40000000000E+01  0.51100000000E-03 0. -1.
    9000002   -1    0    0    0    0 -0.00000000000E+00 -0.00000000000E+00  0.00000000000E+00  0.93800000000E+00  0.93800000000E+00 0. -1.
         11    1    1    2    0    0 -0.16252356892E+00 -0.69005163906E-01  0.13934769090E+01  0.14046187313E+01  0.51100000000E-03 0. -1.
    9000002    1    1    2    0    0  0.37920404959E+00  0.16603492598E+00  0.11629149332E+00  0.10318580422E+01  0.93800000000E+00 0. -1.
         22    1    1    2    0    0 -0.21668048067E+00 -0.97029762072E-01  0.24902315650E+01  0.25015232265E+01  0.00000000000E+00 0. -1.
</event>
<event>
 5    1  0.6564536E+001  0.1584019E+01  0.7818608E-02  0.3370893E+00
         11   -1    0    0    0    0  0.00000000000E+00  0.00000000000E+00  0.39999999674E+01  0.40000000000E+01  0.51100000000E-03 0.  1.
    9000002   -1    0    0    0    0 -0.00000000000E+00 -0.00000000000E+00  0.00000000000E+00  0.93800000000E+00  0.93800000000E+00 0.  1.
         11    1    1    2    0    0  0.72733722860E-02 -0.64220809416E-01  0.92020910824E+00  0.92247616680E+00  0.51100000000E-03 0.  1.
    9000002    1    1    2    0    0  0.24495330500E+00 -0.19515965382E+00  0.77965000687E-01  0.99197376651E+00  0.93800000000E+00 0.  1.
         22    1    1    2    0    0 -0.25222667728E+00  0.25938046323E+00  0.30018258584E+01  0.30235500667E+01  0.00000000000E+00 0.  1.
</event>
<event>
 5    1  0.6564536E+001  0.1599677E+01  0.7818608E-02  0.3353714E+00
         11   -1    0    0    0    0  0.00000000000E+00  0.00000000000E+00  0.39999999674E+01  0.40000000000E+01  0.51100000000E-03 0. -1.
    9000002   -1    0    0    0    0 -0.00000000000E+00 -0.00000000000E+00  0.00000000000E+00  0.93800000000E+00  0.93800000000E+00 0.  1.
         11    1    1    2    0    0  0.10884785458E+00  0.26516657639E-01  0.90974471085E+00  0.91661698033E+00  0.51100000000E-03 0.  1.
    9000002    1    1    2    0    0 -0.46061446462E+00 -0.11132666634E+00  0.15307264059E+00  0.10619955485E+01  0.93800000000E+00 0.  1.
         22    1    1    2    0    0  0.35176661004E+00  0.84810008705E-01  0.29371826159E+01  0.29593874712E+01  0.00000000000E+00 0. -1.
</event>
<event>
 5    1  0.6564536E+001  0.1599264E+01  0.7818608E-02  0.3354163E+00
         11   -1    0    0    0    0  0.00000000000E+00  0.00000000000E+00  0.39999999674E+01  0.40000000000E+01  0.51100000000E-03 0.  1.
    9000002   -1    0    0    0    0 -0.00000000000E+00 -0.00000000000E+00  0.00000000000E+00  0.93800000000E+00  0.93800000000E+00 0.  1.
         11    1    1    2    0    0 -0.55015515686E-01  0.91574372179E-01  0.11067879622E+01  0.11119318446E+01  0.51100000000E-03 0.  1.
    9000002    1    1    2    0    0  0.25612340579E+00 -0.36373873441E+00  0.13466835866E+00  0.10468450854E+01  0.93800000000E+00 0.  1.
         22    1    1    2    0    0 -0.20110789010E+00  0.27216436224E+00  0.27585436465E+01  0.27792230700E+01  0.00000000000E+00 0.  1.
</event>
<event>
 5    1  0.6564536E+001  0.1599648E+01  0.7818608E-02  0.3353746E+00
         11   -1    0    0    0    0  0.00000000000E+00  0.00000000000E+00  0.39999999674E+01  0.40000000000E+01  0.51100000000E-03 0.  1.
    9000002   -1    0    0    0    0 -0.00000000000E+00 -0.00000000000E+00  0.00000000000E+00  0.93800000000E+00  0.93800000000E+00 0.  1.
         11    1    1    2    0    0  0.30998399668E-01 -0.16366617726E-01  0.29754875671E+00  0.29960689361E+00  0.51100000000E-03 0.  1.
    9000002    1    1    2    0    0 -0.43642822912E+00  0.23545100795E+00  0.16824753121E+00  0.10742709193E+01  0.93800000000E+00 0.  1.
         22    1    1    2    0    0  0.40542982945E+00 -0.21908439023E+00  0.35342036794E+01  0.35641221871E+01  0.00000000000E+00 0.  1.
</event>
<event>
 5    1  0.6564536E+001  0.1581671E+01  0.7818608E-02  0.3373501E+00
         11   -1    0    0    0    0  0.00000000000E+00  0.00000000000E+00  0.39999999674E+01  0.40000000000E+01  0.51100000000E-03 0.  1.
    9000002   -1    0    0    0    0 -0.00000000000E+00 -0.00000000000E+00  0.00000000000E+00  0.93800000000E+00  0.93800000000E+00 0. -1.
         11    1    1    2    0    0 -0.67662480519E-01  0.28071812403E+00  0.11199422347E+01  0.11565689545E+01  0.51100000000E-03 0.  1.
    9000002    1    1    2    0    0 -0.95973463794E-01 -0.56033563289E+00  0.24155433644E+00  0.11231114925E+01  0.93800000000E+00 0. -1.
         22    1    1    2    0    0  0.16363594431E+00  0.27961750885E+00  0.26385033963E+01  0.26583195529E+01  0.00000000000E+00 0.  1.
</event>
<event>
 5    1  0.6564536E+001  0.1535120E+01  0.7818608E-02  0.3426940E+00
         11   -1    0    0    0    0  0.00000000000E+00  0.00000000000E+00  0.39999999674E+01  0.40000000000E+01  0.51100000000E-03 0. -1.
    9000002   -1    0    0    0    0 -0.00000000000E+00 -0.00000000000E+00  0.00000000000E+00  0.93800000000E+00  0.93800000000E+00 0. -1.
         11    1    1    2    0    0  0.16742802741E+00 -0.16069472255E+00  0.65092650565E+00  0.69105753385E+00  0.51100000000E-03 0. -1.
    9000002    1    1    2    0    0  0.14503894356E+00  0.20183234668E+00  0.92071344716E-01  0.97472751261E+00  0.93800000000E+00 0. -1.
         22    1    1    2    0    0 -0.31246697096E+00 -0.41137624131E-01  0.32570021170E+01  0.32722149535E+01  0.00000000000E+00 0. -1.
</event>
<event>
 5    1  0.6564536E+001  0.1598071E+01  0.7818608E-02  0.3355459E+00
         11   -1    0    0    0    0  0.00000000000E+00  0.00000000000E+00  0.39999999674E+01  0.40000000000E+01  0.51100000000E-03 0. -1.
    9000002   -1    0    0    0    0 -0.00000000000E+00 -0.00000000000E+00  0.00000000000E+00  0.93800000000E+00  0.93800000000E+00 0.  1.
         11    1    1    2    0    0 -0.33951561433E-01  0.75426517089E-02  0.15588154897E+00  0.15971511684E+00  0.51100000000E-03 0. -1.
    9000002    1    1    2    0    0  0.39914235981E+00 -0.23496273072E-01  0.10916784180E+00  0.10254893056E+01  0.93800000000E+00 0.  1.
         22    1    1    2    0    0 -0.36519079838E+00  0.15953621363E-01  0.37349505766E+01  0.37527955775E+01  0.00000000000E+00 0. -1.
</event>
<event>
 5    1  0.6564536E+001  0.1572347E+01  0.7818608E-02  0.3383935E+00
         11   -1    0    0    0    0  0.00000000000E+00  0.00000000000E+00  0.39999999674E+01  0.40000000000E+01  0.51100000000E-03 0. -1.
    9000002   -1    0    0    0    0 -0.00000000000E+00 -0.00000000000E+00  0.00000000000E+00  0.93800000000E+00  0.93800000000E+00 0.  1.
         11    1    1    2    0    0 -0.12650098572E+00 -0.10473142774E-01  0.11094303270E+01  0.11166683024E+01  0.51100000000E-03 0. -1.
    9000002    1    1    2    0    0 -0.18610495405E+00  0.46232492990E-01  0.45040806050E-01  0.95845979130E+00  0.93800000000E+00 0.  1.
         22    1    1    2    0    0  0.31260593977E+00 -0.35759350215E-01  0.28455288343E+01  0.28628719063E+01  0.00000000000E+00 0. -1.
</event>
<event>
 5    1  0.6564536E+001  0.1585117E+01  0.7818608E-02  0.3369677E+00
         11   -1    0    0    0    0  0.00000000000E+00  0.00000000000E+00  0.39999999674E+01  0.40000000000E+01  0.51100000000E-03 0.  1.
    9000002   -1    0    0    0    0 -0.00000000000E+00 -0.00000000000E+00  0.00000000000E+00  0.93800000000E+00  0.93800000000E+00 0. -1.
         11    1    1    2    0    0 -0.12808399216E-01 -0.21358916751E-01  0.23205798585E+00  0.23339114879E+00  0.51100000000E-03 0.  1.
    9000002    1    1    2    0    0 -0.66920505641E+00 -0.35456914636E+00  0.43461117719E+00  0.12815168990E+01  0.93800000000E+00 0. -1.
         22    1    1    2    0    0  0.68201345562E+00  0.37592806311E+00  0.33333308043E+01  0.34230919522E+01  0.00000000000E+00 0.  1.
</event>
<event>
 5    1  0.6564536E+001  0.1578327E+01  0.7818608E-02  0.3377228E+00
         11   -1    0    0    0    0  0.00000000000E+00  0.00000000000E+00  0.39999999674E+01  0.40000000000E+01  0.51100000000E-03 0. -1.
    9000002   -1    0    0    0    0 -0.00000000000E+00 -0.00000000000E+00  0.00000000000E+00  0.93800000000E+00  0.93800000000E+00 0.  1.
         11    1    1    2    0    0 -0.26283512019E-01 -0.10443865743E+00  0.10155498694E+01  0.10212443658E+01  0.51100000000E-03 0. -1.
    9000002    1    1    2    0    0  0.16170820892E+00 -0.18850830509E+00  0.57457124428E-01  0.97202378935E+00  0.93800000000E+00 0.  1.
         22    1    1    2    0    0 -0.13542469690E+00  0.29294696252E+00  0.29269929735E+01  0.29447318449E+01  0.00000000000E+00 0. -1.
</event>
<event>
 5    1  0.6564536E+001  0.1599676E+01  0.7818608E-02  0.3353715E+00
         11   -1    0    0    0    0  0.00000000000E+00  0.00000000000E+00  0.39999999674E+01  0.40000000000E+01  0.51100000000E-03 0. -1.
    9000002   -1    0    0    0    0 -0.00000000000E+00 -0.00000000000E+00  0.00000000000E+00  0.93800000000E+00  0.93800000000E+00 0. -1.
         11    1    1    2    0    0 -0.16619543582E-01 -0.63892401860E-02  0.17105936863E+00  0.17198430259E+00  0.51100000000E-03 0.  1.
    9000002    1    1    2    0    0  0.38369538486E+00  0.14700011224E+00  0.11404286371E+00  0.10303790352E+01  0.93800000000E+00 0. -1.
         22    1    1    2    0    0 -0.36707584128E+00 -0.14061087206E+00  0.37148977350E+01  0.37356366622E+01  0.00000000000E+00 0. -1.
</event>
<event>
 5    1  0.6564536E+001  0.1599672E+01  0.7818608E-02  0.3353720E+00
         11   -1    0    0    0    0  0.00000000000E+00  0.00000000000E+00  0.39999999674E+01  0.40000000000E+01  0.51100000000E-03 0.  1.
    9000002   -1    0    0    0    0 -0.00000000000E+00 -0.00000000000E+00  0.00000000000E+00  0.93800000000E+00  0.93800000000E+00 0. -1.
         11    1    1    2    0    0  0.12636343232E-01 -0.36799774386E-01  0.43872827388E+00  0.44045051934E+00  0.51100000000E-03 0.  1.
    9000002    1    1    2    0    0 -0.12132702364E+00  0.34081173466E+00  0.87872054071E-01  0.10091770821E+01  0.93800000000E+00 0. -1.
         22    1    1    2    0    0  0.10869068041E+00 -0.30401196027E+00  0.34733996394E+01  0.34883723986E+01  0.00000000000E+00 0.  1.
</event>
<event>
 5    1  0.7240804E+001  0.1587367E+01  0.7818608E-02  0.3367190E+00
         11   -1    0    0    0    0  0.00000000000E+00  0.00000000000E+00  0.39999999674E+01  0.40000000000E+01  0.51100000000E-03 0. -1.
    9000002   -1    0    0    0    0 -0.00000000000E+00 -0.00000000000E+00  0.00000000000E+00  0.93800000000E+00  0.93800000000E+00 0.  1.
         11    1    1    2    0    0 -0.92741543397E-01  0.57037728955E-01  0.93069084737E+00  0.93703789192E+00  0.51100000000E-03 0. -1.
    9000002    1    1    2    0    0 -0.87119246602E-01 -0.26224363357E+00  0.60417162534E-01  0.97972226677E+00  0.93800000000E+00 0.  1.
         22    1    1    2    0    0  0.17986079000E+00  0.20520590462E+00  0.30088919575E+01  0.30212398413E+01  0.00000000000E+00 0. -1.
</event>
<event>
 5    1  0.6564536E+001  0.1297245E+01  0.7818608E-02  0.3787219E+00
         11   -1    0    0    0    0  0.00000000000E+00  0.00000000000E+00  0.39999999674E+01  0.40000000000E+01  0.51100000000E-03 0. -1.
    9000002   -1    0    0    0    0 -0.00000000000E+00 -0.00000000000E+00  0.00000000000E+00  0.93800000000E+00  0.93800000000E+00 0.  1.
         11    1    1    2    0    0  0.71346403128E+00  0.17965160319E+00  0.90246601183E+00  0.11643671183E+01  0.51100000000E-03 0. -1.
    9000002    1    1    2    0    0 -0.46985998264E+00 -0.12507248715E+00  0.50839222434E+00  0.11724837671E+01  0.93800000000E+00 0.  1.
         22    1    1    2    0    0 -0.24360404864E+00 -0.54579116040E-01  0.25891417312E+01  0.26011491146E+01  0.00000000000E+00 0. -1.
</event>
<event>
 5    1  0.6564536E+001  0.1599657E+01  0.7818608E-02  0.3353735E+00
         11   -1    0    0    0    0  0.00000000000E+00  0.00000000000E+00  0.39999999674E+01  0.40000000000E+01  0.51100000000E-03 0. -1.
    9000002   -1    0    0    0    0 -0.00000000000E+00 -0.00000000000E+00  0.00000000000E+00  0.93800000000E+00  0.93800000000E+00 0.  1.
         11    1    1    2    0    0  0.16977177371E-01  0.16976238242E-01  0.10434379810E+00  0.10707150200E+00  0.51100000000E-03 0. -1.
    9000002    1    1    2    0    0 -0.57438376136E+00 -0.62200933993E+00  0.53695210060E+00  0.13729435104E+01  0.93800000000E+00 0.  1.
         22    1    1    2    0    0  0.55740658399E+00  0.60503310169E+00  0.33587040687E+01  0.34579849876E+01  0.00000000000E+00 0. -1.
</event>
<event>
 5    1  0.6578285E+001  0.1561391E+01  0.7818608E-02  0.3396364E+00
         11   -1    0    0    0    0  0.00000000000E+00  0.00000000000E+00  0.39999999674E+01  0.40000000000E+01  0.51100000000E-03 0.  1.
    9000002   -1    0    0    0    0 -0.00000000000E+00 -0.00000000000E+00  0.00000000000E+00  0.93800000000E+00  0.93800000000E+00 0. -1.
         11    1    1    2    0    0 -0.63840647269E-01 -0.12387280751E+00  0.52443516493E+00  0.54263487173E+00  0.51100000000E-03 0.  1.
    9000002    1    1    2    0    0 -0.16099280773E+00 -0.90511858812E-01  0.51669778512E-01  0.95740526776E+00  0.93800000000E+00 0. -1.
         22    1    1    2    0    0  0.22483345500E+00  0.21438466632E+00  0.34238950239E+01  0.34379598605E+01  0.00000000000E+00 0.  1.
</event>
<event>
 5    1  0.6564536E+001  0.1596700E+01  0.7818608E-02  0.3356953E+00
         11   -1    0    0    0    0  0.00000000000E+00  0.00000000000E+00  0.39999999674E+01  0.40000000000E+01  0.51100000000E-03 0. -1.
    9000002   -1    0    0    0    0 -0.00000000000E+00 -0.00000000000E+00  0.00000000000E+00  0.93800000000E+00  0.93800000000E+00 0.  1.
         11    1    1    2    0    0  0.31401567729E-02 -0.17380626921E-01  0.81675910527E+00  0.81695020897E+00  0.51100000000E-03 0. -1.
    9000002    1    1    2    0    0  0.11831603319E+00  0.30280164022E+00  0.73043726877E-01  0.99542297696E+00  0.93800000000E+00 0.  1.
         22    1    1    2    0    0 -0.12145618996E+00 -0.28542101330E+00  0.31101971352E+01  0.31256268141E+01  0.00000000000E+00 0. -1.
</event>
<event>
 5    1  0.6564536E+001  0.1598784E+01  0.7818608E-02  0.3354684E+00
         11   -1    0    0    0    0  0.00000000000E+00  0.00000000000E+00  0.39999999674E+01  0.40000000000E+01  0.51100000000E-03 0.  1.
    9000002   -1    0    0    0    0 -0.00000000000E+00 -0.00000000000E+00  0.00000000000E+00  0.93800000000E+00  0.93800000000E+00 0.  1.
         11    1    1    2    0    0 -0.52153224282E-01  0.11008693254E-01  0.61584055935E+00  0.61814319198E+00  0.51100000000E-03 0.  1.
    9000002    1    1    2    0    0  0.39903898450E+00  0.80989111286E-01  0.11268079562E+00  0.10287527929E+01  0.93800000000E+00 0.  1.
         22    1    1    2    0    0 -0.34688576022E+00 -0.91997804540E-01  0.32714786124E+01  0.32911040151E+01  0.00000000000E+00 0.  1.
</event>
<event>
 5    1  0.6564536E+001  0.1599677E+01  0.7818608E-02  0.3353715E+00
         11   -1    0    0    0    0  0.00000000000E+00  0.00000000000E+00  0.39999999674E+01  0.40000000000E+01  0.51100000000E-03 0.  1.
    9000002   -1    0    0    0    0 -0.00000000000E+00 -0.00000000000E+00  0.00000000000E+00  0.93800000000E+00  0.93800000000E+00 0.  1.
         11    1    1    2    0    0 -0.16223533092E-01 -0.99564844445E-01  0.79755107555E+00  0.80390567886E+00  0.51100000000E-03 0.  1.
    9000002    1    1    2    0    0  0.77522621009E-01  0.48185678420E+00  0.16273690449E+00  0.10698238254E+01  0.93800000000E+00 0.  1.
         22    1    1    2    0    0 -0.61299087917E-01 -0.38229193976E+00  0.30397119873E+01  0.30642704958E+01  0.00000000000E+00 0.  1.
</event>
<event>
 5    1  0.6564536E+001  0.1599630E+01  0.7818608E-02  0.3353765E+00
         11   -1    0    0    0    0  0.00000000000E+00  0.00000000000E+00  0.39999999674E+01  0.40000000000E+01  0.51100000000E-03 0. -1.
    9000002   -1    0    0    0    0 -0.00000000000E+00 -0.00000000000E+00  0.00000000000E+00  0.93800000000E+00  0.93800000000E+00 0. -1.
         11    1    1    2    0    0 -0.28198261090E-01 -0.26576697861E-01  0.40827321707E+00  0.41010820974E+00  0.51100000000E-03 0. -1.
    9000002    1    1    2    0    0  0.30849149021E+00  0.22554291901E+00  0.98323814961E-01  0.10176188778E+01  0.93800000000E+00 0. -1.
         22    1    1    2    0    0 -0.28029322912E+00 -0.19896622115E+00  0.34934029353E+01  0.35102729125E+01  0.00000000000E+00 0. -1.
</event>
<event>
 5    1  0.6564536E+001  0.1556009E+01  0.7818608E-02  0.3402539E+00
         11   -1    0    0    0    0  0.00000000000E+00  0.00000000000E+00  0.39999999674E+01  0.40000000000E+01  0.51100000000E-03 0.  1.
    9000002   -1    0    0    0    0 -0.00000000000E+00 -0.00000000000E+00  0.00000000000E+00  0.93800000000E+00  0.93800000000E+00 0.  1.
         11    1    1    2    0    0  0.15166421293E+00  0.22784898037E-01  0.60859046209E+00  0.62761755610E+00  0.51100000000E-03 0.  1.
    9000002    1    1    2    0    0  0.15904974328E+00  0.15386611213E+00  0.66203006067E-01  0.96602196627E+00  0.93800000000E+00 0.  1.
         22    1    1    2    0    0 -0.31071395621E+00 -0.17665101016E+00  0.33252064992E+01  0.33443604776E+01  0.00000000000E+00 0.  1.
</event>
<event>
 5    1  0.6564536E+001  0.1599636E+01  0.7818608E-02  0.3353759E+00
         11   -1    0    0    0    0  0.00000000000E+00  0.00000000000E+00  0.39999999674E+01  0.40000000000E+01  0.51100000000E-03 0.  1.
    9000002   -1    0    0    0    0 -0.00000000000E+00 -0.00000000000E+00  0.00000000000E+00  0.93800000000E+00  0.93800000000E+00 0. -1.
         11    1    1    2    0    0 -0.25967273436E-01  0.12826396784E+00  0.98177492421E+00  0.99045858453E+00  0.51100000000E-03 0.  1.
    9000002    1    1    2    0    0  0.75001215482E-01 -0.49826288269E+00  0.17395349616E+00  0.10788859539E+01  0.93800000000E+00 0. -1.
         22    1    1    2    0    0 -0.49033942046E-01  0.36999891485E+00  0.28442715470E+01  0.28686554616E+01  0.00000000000E+00 0.  1.
</event>
<event>
 5    1  0.6564536E+001  0.1599675E+01  0.7818608E-02  0.3353716E+00
         11   -1    0    0    0    0  0.00000000000E+00  0.00000000000E+00  0.39999999674E+01  0.40000000000E+01  0.51100000000E-03 0. -1.
    9000002   -1    0    0    0    0 -0.00000000000E+00 -0.00000000000E+00  0.00000000000E+00  0.93800000000E+00  0.93800000000E+00 0. -1.
         11    1    1    2    0    0  0.16431748375E-01 -0.63870759391E-01  0.61397330985E+00  0.61750543527E+00  0.51100000000E-03 0.  1.
    9000002    1    1    2    0    0 -0.10703855092E+00  0.39813032729E+00  0.11483007100E+00  0.10310164665E+01  0.93800000000E+00 0. -1.
         22    1    1    2    0    0  0.90606802550E-01 -0.33425956790E+00  0.32711965865E+01  0.32894780983E+01  0.00000000000E+00 0. -1.
</event>
<event>
 5    1  0.7618259E+001  0.1598626E+01  0.7818608E-02  0.3354856E+00
         11   -1    0    0    0    0  0.00000000000E+00  0.00000000000E+00  0.39999999674E+01  0.40000000000E+01  0.51100000000E-03 0.  1.
    9000002   -1    0    0    0    0 -0.00000000000E+00 -0.00000000000E+00  0.00000000000E+00  0.93800000000E+00  0.93800000000E+00 0.  1.
         11    1    1    2    0    0  0.20626535586E-01  0.92322710317E-01  0.14119808483E+01  0.14151463224E+01  0.51100000000E-03 0.  1.
    9000002    1    1    2    0    0  0.66802013575E-02 -0.33876702686E+00  0.77728025849E-01  0.10003466247E+01  0.93800000000E+00 0.  1.
         22    1    1    2    0    0 -0.27306736943E-01  0.24644431654E+00  0.25102910932E+01  0.25225070529E+01  0.00000000000E+00 0.  1.
</event>
<event>
 5    1  0.6564536E+001  0.1599654E+01  0.7818608E-02  0.3353739E+00
         11   -1    0    0    0    0  0.00000000000E+00  0.00000000000E+00  0.39999999674E+01  0.40000000000E+01  0.51100000000E-03 0. -1.
    9000002   -1    0    0    0    0 -0.00000000000E+00 -0.00000000000E+00  0.00000000000E+00  0.93800000000E+00  0.93800000000E+00 0. -1.
         11    1    1    2    0    0  0.69658310089E-01  0.90130921909E-01  0.99332041882E+00  0.99983077509E+00  0.51100000000E-03 0. -1.
    9000002    1    1    2    0    0 -0.26639395669E+00 -0.33283380861E+00  0.12304022891E+00  0.10376545582E+01  0.93800000000E+00 0. -1.
         22    1    1    2    0    0  0.19673564660E+00  0.24270288670E+00  0.28836393196E+01  0.29005146667E+01  0.00000000000E+00 0. -1.
</event>
<event>
 5    1  0.6564536E+001  0.1598853E+01  0.7818608E-02  0.3354610E+00
         11   -1    0    0    0    0  0.00000000000E+00  0.00000000000E+00  0.39999999674E+01  0.40000000000E+01  0.51100000000E-03 0.  1.
    9000002   -1    0    0    0    0 -0.00000000000E+00 -0.00000000000E+00  0.00000000000E+00  0.93800000000E+00  0.93800000000E+00 0. -1.
         11    1    1    2    0    0  0.28026946151E-01 -0.66108383356E-01  0.11774048802E+01  0.11795924470E+01  0.51100000000E-03 0.  1.
    9000002    1    1    2    0    0 -0.15116962836E+00  0.30867001309E+00  0.79814030846E-01  0.10021695031E+01  0.93800000000E+00 0. -1.
         22    1    1    2    0    0  0.12314268221E+00 -0.24256162973E+00  0.27427810563E+01  0.27562380498E+01  0.00000000000E+00 0. -1.
</event>
<event>
 5    1  0.6564536E+001  0.1599677E+01  0.7818608E-02  0.3353714E+00
         11   -1    0    0    0    0  0.00000000000E+00  0.00000000000E+00  0.39999999674E+01  0.40000000000E+01  0.51100000000E-03 0. -1.
    9000002   -1    0    0    0    0 -0.00000000000E+00 -0.00000000000E+00  0.00000000000E+00  0.93800000000E+00  0.93800000000E+00 0.  1.
         11    1    1    2    0    0 -0.45970066591E-01 -0.45807297340E-02  0.50466792582E+00  0.50677826175E+00  0.51100000000E-03 0.  1.
    9000002    1    1    2    0    0  0.35512959115E+00  0.36522826689E-01  0.85524189773E-01  0.10072781793E+01  0.93800000000E+00 0.  1.
         22    1    1    2    0    0 -0.30915952456E+00 -0.31942096955E-01  0.34098078518E+01  0.34239435590E+01  0.00000000000E+00 0. -1.
</event>
<event>
 5    1  0.6564536E+001  0.1599671E+01  0.7818608E-02  0.3353720E+00
         11   -1    0    0    0    0  0.00000000000E+00  0.00000000000E+00  0.39999999674E+01  0.40000000000E+01  0.51100000000E-03 0.  1.
    9000002   -1    0    0    0    0 -0.00000000000E+00 -0.00000000000E+00  0.00000000000E+00  0.93800000000E+00  0.93800000000E+00 0.  1.
         11    1    1    2    0    0  0.99378976186E-01  0.16937185758E-01  0.11092512155E+01  0.11138229524E+01  0.51100000000E-03 0.  1.
    9000002    1    1    2    0    0 -0.35953113332E+00 -0.58815063390E-01  0.89139854268E-01  0.10102038216E+01  0.93800000000E+00 0.  1.
         22    1    1    2    0    0  0.26015215714E+00  0.41877877632E-01  0.28016088976E+01  0.28139732260E+01  0.00000000000E+00 0.  1.
</event>
<event>
 5    1  0.6564536E+001  0.1599030E+01  0.7818608E-02  0.3354417E+00
         11   -1    0    0    0    0  0.00000000000E+00  0.00000000000E+00  0.39999999674E+01  0.40000000000E+01  0.51100000000E-03 0. -1.
    9000002   -1    0    0    0    0 -0.00000000000E+00 -0.00000000000E+00  0.00000000000E+00  0.93800000000E+00  0.93800000000E+00 0. -1.
         11    1    1    2    0    0 -0.36976984051E-02  0.18390152219E-01  0.11526382613E+00  0.11678134015E+00  0.51100000000E-03 0. -1.
    9000002    1    1    2    0    0  0.22459949727E+00 -0.28574652035E+00  0.89231306139E-01  0.10099020913E+01  0.93800000000E+00 0. -1.
         22    1    1    2    0    0 -0.22090179887E+00  0.26735636813E+00  0.37955048351E+01  0.38113165685E+01  0.00000000000E+00 0. -1.
</event>
<event>
 5    1  0.6564536E+001  0.1599671E+01  0.7818608E-02  0.3353720E+00
         11   -1    0    0    0    0  0.00000000000E+00  0.00000000000E+00  0.39999999674E+01  0.40000000000E+01  0.51100000000E-03 0. -1.
    9000002   -1    0    0    0    0 -0.00000000000E+00 -0.00000000000E+00  0.00000000000E+00  0.93800000000E+00  0.93800000000E+00 0. -1.
         11    1    1    2    0    0 -0.48316895531E+00  0.40901295856E+00  0.11943705744E+01  0.13517637256E+01  0.51100000000E-03 0. -1.
    9000002    1    1    2    0    0  0.95664184890E+00 -0.80954749961E+00  0.16479421477E+01  0.22729030123E+01  0.93800000000E+00 0. -1.
         22    1    1    2    0    0 -0.47347289359E+00  0.40053454106E+00  0.11576872453E+01  0.13133332621E+01  0.00000000000E+00 0.  1.
</event>
<event>
 5    1  0.6564536E+001  0.1599665E+01  0.7818608E-02  0.3353727E+00
         11   -1    0    0    0    0  0.00000000000E+00  0.00000000000E+00  0.39999999674E+01  0.40000000000E+01  0.51100000000E-03 0.  1.
    9000002   -1    0    0    0    0 -0.00000000000E+00 -0.00000000000E+00  0.00000000000E+00  0.93800000000E+00  0.93800000000E+00 0. -1.
         11    1    1    2    0    0 -0.39170982825E-01 -0.11653873111E+00  0.79042458845E+00  0.79992932993E+00  0.51100000000E-03 0.  1.
    9000002    1    1    2    0    0  0.18834576080E+00  0.56866584067E+00  0.25033318213E+00  0.11407741521E+01  0.93800000000E+00 0. -1.
         22    1    1    2    0    0 -0.14917477798E+00 -0.45212710957E+00  0.29592421968E+01  0.29972965180E+01  0.00000000000E+00 0.  1.
</event>
<event>
 5    1  0.6564536E+001  0.1484909E+01  0.7818608E-02  0.3488606E+00
         11   -1    0    0    0    0  0.00000000000E+00  0.00000000000E+00  0.39999999674E+01  0.40000000000E+01  0.51100000000E-03 0. -1.
    9000002   -1    0    0    0    0 -0.00000000000E+00 -0.00000000000E+00  0.00000000000E+00  0.93800000000E+00  0.93800000000E+00 0. -1.
         11    1    1    2    0    0 -0.12192762141E-01  0.54378108649E+00  0.10123358098E+01  0.11492043275E+01  0.51100000000E-03 0. -1.
    9000002    1    1    2    0    0  0.43673241970E+00 -0.28224643278E+00  0.38609726507E+00  0.11398742708E+01  0.93800000000E+00 0. -1.
         22    1    1    2    0    0 -0.42453965756E+00 -0.26153465371E+00  0.26015668925E+01  0.26489214016E+01  0.00000000000E+00 0. -1.
</event>
<event>
 5    1  0.6993757E+001  0.1574424E+01  0.7818608E-02  0.3381600E+00
         11   -1    0    0    0    0  0.00000000000E+00  0.00000000000E+00  0.39999999674E+01  0.40000000000E+01  0.51100000000E-03 0.  1.
    9000002   -1    0    0    0    0 -0.00000000000E+00 -0.00000000000E+00  0.00000000000E+00  0.93800000000E+00  0.93800000000E+00 0. -1.
         11    1    1    2    0    0  0.13199979136E+00 -0.56207747097E-01  0.13896176878E+01  0.13970042359E+01  0.51100000000E-03 0.  1.
    9000002    1    1    2    0    0  0.11074432415E+00 -0.22581581154E-01  0.27137018634E-01  0.94517440238E+00  0.93800000000E+00 0. -1.
         22    1    1    2    0    0 -0.24274411551E+00  0.78789328251E-01  0.25832452609E+01  0.25958213617E+01  0.00000000000E+00 0.  1.
</event>
<event>
 5    1  0.6564536E+001  0.1501029E+01  0.7818608E-02  0.3468325E+00
         11   -1    0    0    0    0  0.00000000000E+00  0.00000000000E+00  0.39999999674E+01  0.40000000000E+01  0.51100000000E-03 0.  1.
    9000002   -1    0    0    0    0 -0.00000000000E+00 -0.00000000000E+00  0.00000000000E+00  0.93800000000E+00  0.93800000000E+00 0.  1.
         11    1    1    2    0    0 -0.22465309263E+00 -0.26112802566E+00  0.13340205545E+01  0.13777764546E+01  0.51100000000E-03 0.  1.
    9000002    1    1    2    0    0 -0.96700363717E-01  0.33889270764E-01  0.82770463358E-01  0.94720345894E+00  0.93800000000E+00 0.  1.
         22    1    1    2    0    0  0.32135345635E+00  0.22723875490E+00  0.25832089495E+01  0.26130200865E+01  0.00000000000E+00 0.  1.
</event>
<event>
 5    1  0.6564536E+001  0.1591073E+01  0.7818608E-02  0.3363110E+00
         11   -1    0    0    0    0  0.00000000000E+00  0.00000000000E+00  0.39999999674E+01  0.40000000000E+01  0.51100000000E-03 0. -1.
    9000002   -1    0    0    0    0 -0.00000000000E+00 -0.00000000000E+00  0.00000000000E+00  0.93800000000E+00  0.93800000000E+00 0. -1.
         11    1    1    2    0    0  0.15141724708E+00 -0.12640762628E-01  0.62401973687E+00  0.64225218156E+00  0.51100000000E-03 0. -1.
    9000002    1    1    2    0    0 -0.61337469204E+00 -0.33743384026E+00  0.35996834767E+00  0.12245453527E+01  0.93800000000E+00 0. -1.
         22    1    1    2    0    0  0.46195744496E+00  0.35007460288E+00  0.30160118828E+01  0.30712024658E+01  0.00000000000E+00 0. -1.
</event>
<event>
 5    1  0.6564536E+001  0.1593562E+01  0.7818608E-02  0.3360381E+00
         11   -1    0    0    0    0  0.00000000000E+00  0.00000000000E+00  0.39999999674E+01  0.40000000000E+01  0.51100000000E-03 0.  1.
    9000002   -1    0    0    0    0 -0.00000000000E+00 -0.00000000000E+00  0.00000000000E+00  0.93800000000E+00  0.93800000000E+00 0. -1.
         11    1    1    2    0    0  0.92906005334E-01  0.20236742842E+00  0.11730542434E+01  0.11940019350E+01  0.51100000000E-03 0.  1.
    9000002    1    1    2    0    0 -0.11229794487E+00 -0.45152954147E+00  0.15274177961E+00  0.10581416760E+01  0.93800000000E+00 0. -1.
         22    1    1    2    0    0  0.19391939540E-01  0.24916211304E+00  0.26742039444E+01  0.26858563890E+01  0.00000000000E+00 0.  1.
</event>
<event>
 5    1  0.6564536E+001  0.1526652E+01  0.7818608E-02  0.3437034E+00
         11   -1    0    0    0    0  0.00000000000E+00  0.00000000000E+00  0.39999999674E+01  0.40000000000E+01  0.51100000000E-03 0. -1.
    9000002   -1    0    0    0    0 -0.00000000000E+00 -0.00000000000E+00  0.00000000000E+00  0.93800000000E+00  0.93800000000E+00 0.  1.
         11    1    1    2    0    0  0.13290305740E+00 -0.19444393940E+00  0.77952954641E+00  0.81433300503E+00  0.51100000000E-03 0. -1.
    9000002    1    1    2    0    0  0.15014616161E+00 -0.44931952488E-01  0.72300727340E-01  0.95374742221E+00  0.93800000000E+00 0.  1.
         22    1    1    2    0    0 -0.28304921901E+00  0.23937589188E+00  0.31481696936E+01  0.31699195728E+01  0.00000000000E+00 0. -1.
</event>
<event>
 5    1  0.6564536E+001  0.1581003E+01  0.7818608E-02  0.3374243E+00
         11   -1    0    0    0    0  0.00000000000E+00  0.00000000000E+00  0.39999999674E+01  0.40000000000E+01  0.51100000000E-03 0. -1.
    9000002   -1    0    0    0    0 -0.00000000000E+00 -0.00000000000E+00  0.00000000000E+00  0.93800000000E+00  0.93800000000E+00 0.  1.
         11    1    1    2    0    0  0.28204193231E-01 -0.47985583196E-01  0.23400901737E+00  0.24053809271E+00  0.51100000000E-03 0. -1.
    9000002    1    1    2    0    0  0.25389581061E-01 -0.40781966431E+00  0.12854665733E+00  0.10311788170E+01  0.93800000000E+00 0.  1.
         22    1    1    2    0    0 -0.53593774292E-01  0.45580524751E+00  0.36374442927E+01  0.36662830903E+01  0.00000000000E+00 0. -1.
</event>
<event>
 5    1  0.6564536E+001  0.1597893E+01  0.7818608E-02  0.3355653E+00
         11   -1    0    0    0    0  0.00000000000E+00  0.00000000000E+00  0.39999999674E+01  0.40000000000E+01  0.51100000000E-03 0.  1.
    9000002   -1    0    0    0    0 -0.00000000000E+00 -0.00000000000E+00  0.00000000000E+00  0.93800000000E+00  0.93800000000E+00 0.  1.
         11    1    1    2    0    0  0.11204360917E+00 -0.21012356339E+00  0.11256646111E+01  0.11505767076E+01  0.51100000000E-03 0.  1.
    9000002    1    1    2    0    0 -0.41094170782E+00  0.53840366810E+00  0.32785768179E+00  0.12025332663E+01  0.93800000000E+00 0.  1.
         22    1    1    2    0    0  0.29889809864E+00 -0.32828010471E+00  0.25464776744E+01  0.25848900261E+01  0.00000000000E+00 0.  1.
</event>
<event>
 5    1  0.6564536E+001  0.1599509E+01  0.7818608E-02  0.3353897E+00
         11   -1    0    0    0    0  0.00000000000E+00  0.00000000000E+00  0.39999999674E+01  0.40000000000E+01  0.51100000000E-03 0. -1.
    9000002   -1    0    0    0    0 -0.00000000000E+00 -0.00000000000E+00  0.00000000000E+00  0.93800000000E+00  0.93800000000E+00 0.  1.
         11    1    1    2    0    0 -0.12990641445E-01 -0.63671337834E-01  0.79739436489E+00  0.80003801804E+00  0.51100000000E-03 0. -1.
    9000002    1    1    2    0    0  0.10894558733E+00  0.35408735085E+00  0.92377600349E-01  0.10127312645E+01  0.93800000000E+00 0.  1.
         22    1    1    2    0    0 -0.95954945882E-01 -0.29041601301E+00  0.31102280021E+01  0.31252307175E+01  0.00000000000E+00 0. -1.
</event>
<event>
 5    1  0.6564536E+001  0.1599676E+01  0.7818608E-02  0.3353715E+00
         11   -1    0    0    0    0  0.00000000000E+00  0.00000000000E+00  0.39999999674E+01  0.40000000000E+01  0.51100000000E-03 0. -1.
    9000002   -1    0    0    0    0 -0.00000000000E+00 -0.00000000000E+00  0.00000000000E+00  0.93800000000E+00  0.93800000000E+00 0.  1.
         11    1    1    2    0    0 -0.10046251135E+00 -0.58151666806E-02  0.80146359696E+00  0.80775657888E+00  0.51100000000E-03 0. -1.
    9000002    1    1    2    0    0  0.47834033637E+00  0.29601820309E-01  0.15670091081E+00  0.10649342330E+01  0.93800000000E+00 0.  1.
         22    1    1    2    0    0 -0.37787782502E+00 -0.23786653628E-01  0.30418354596E+01  0.30653091881E+01  0.00000000000E+00 0. -1.
</event>
<event>
 5    1  0.7766140E+001  0.1599660E+01  0.7818608E-02  0.3353732E+00
         11   -1    0    0    0    0  0.00000000000E+00  0.00000000000E+00  0.39999999674E+01  0.40000000000E+01  0.51100000000E-03 0.  1.
    9000002   -1    0    0    0    0 -0.00000000000E+00 -0.00000000000E+00  0.00000000000E+00  0.93800000000E+00  0.93800000000E+00 0. -1.
         11    1    1    2    0    0 -0.63240354856E-02 -0.12613875833E+00  0.13427311979E+01  0.13486579666E+01  0.51100000000E-03 0.  1.
    9000002    1    1    2    0    0  0.10614215557E-01  0.37801526030E+00  0.96214213234E-01  0.10159278387E+01  0.93800000000E+00 0. -1.
         22    1    1    2    0    0 -0.42901800718E-02 -0.25187650197E+00  0.25610545562E+01  0.25734141947E+01  0.00000000000E+00 0.  1.
</event>
<event>
 5    1  0.6564536E+001  0.1599660E+01  0.7818608E-02  0.3353732E+00
         11   -1    0    0    0    0  0.00000000000E+00  0.00000000000E+00  0.39999999674E+01  0.40000000000E+01  0.51100000000E-03 0. -1.
    9000002   -1    0    0    0    0 -0.00000000000E+00 -0.00000000000E+00  0.00000000000E+00  0.93800000000E+00  0.93800000000E+00 0.  1.
         11    1    1    2    0    0  0.64153627379E-01  0.12999600004E+00  0.12027719329E+01  0.12114764676E+01  0.51100000000E-03 0. -1.
    9000002    1    1    2    0    0 -0.19847031554E+00 -0.40465449951E+00  0.13799556985E+00  0.10497725980E+01  0.93800000000E+00 0.  1.
         22    1    1    2    0    0  0.13431668816E+00  0.27465849947E+00  0.26592324646E+01  0.26767509344E+01  0.00000000000E+00 0. -1.
</event>
<event>
 5    1  0.6564536E+001  0.1598458E+01  0.7818608E-02  0.3355039E+00
         11   -1    0    0    0    0  0.00000000000E+00  0.00000000000E+00  0.39999999674E+01  0.40000000000E+01  0.51100000000E-03 0. -1.
    9000002   -1    0    0    0    0 -0.00000000000E+00 -0.00000000000E+00  0.00000000000E+00  0.93800000000E+00  0.93800000000E+00 0.  1.
         11    1    1    2    0    0 -0.15602839113E+00 -0.10185671032E+00  0.11973757874E+01  0.12117873929E+01  0.51100000000E-03 0. -1.
    9000002    1    1    2    0    0  0.40000504396E+00  0.25207759507E+00  0.15343069221E+00  0.10615705942E+01  0.93800000000E+00 0.  1.
         22    1    1    2    0    0 -0.24397665282E+00 -0.15022088475E+00  0.26491934878E+01  0.26646420129E+01  0.00000000000E+00 0. -1.
</event>
<event>
 5    1  0.7967783E+001  0.1579206E+01  0.7818608E-02  0.3376247E+00
         11   -1    0    0    0    0  0.00000000000E+00  0.00000000000E+00  0.39999999674E+01  0.40000000000E+01  0.51100000000E-03 0.  1.
    9000002   -1    0    0    0    0 -0.00000000000E+00 -0.00000000000E+00  0.00000000000E+00  0.93800000000E+00  0.93800000000E+00 0.  1.
         11    1    1    2    0    0  0.55019733150E-01 -0.16241035767E+00  0.14265077691E+01  0.14367772868E+01  0.51100000000E-03 0.  1.
    9000002    1    1    2    0    0  0.17913595999E+00  0.13370408581E+00  0.48766270444E-01  0.96549915787E+00  0.93800000000E+00 0.  1.
         22    1    1    2    0    0 -0.23415569314E+00  0.28706271859E-01  0.25247259278E+01  0.25357235553E+01  0.00000000000E+00 0.  1.
</event>
<event>
 5    1  0.6564536E+001  0.1583923E+01  0.7818608E-02  0.3371000E+00
         11   -1    0    0    0    0  0.00000000000E+00  0.00000000000E+00  0.39999999674E+01  0.40000000000E+01  0.51100000000E-03 0.  1.
    9000002   -1    0    0    0    0 -0.00000000000E+00 -0.00000000000E+00  0.00000000000E+00  0.93800000000E+00  0.93800000000E+00 0.  1.
         11    1    1    2    0    0  0.37840267092E-02  0.61967529465E-01  0.35357952098E+00  0.35898890281E+00  0.51100000000E-03 0.  1.
    9000002    1    1    2    0    0 -0.62249026318E-01  0.27218479101E+00  0.64214428422E-01  0.98077876942E+00  0.93800000000E+00 0.  1.
         22    1    1    2    0    0  0.58464999609E-01 -0.33415232048E+00  0.35822060180E+01  0.35982323278E+01  0.00000000000E+00 0.  1.
</event>
<event>
 5    1  0.6564536E+001  0.1599654E+01  0.7818608E-02  0.3353739E+00
         11   -1    0    0    0    0  0.00000000000E+00  0.00000000000E+00  0.39999999674E+01  0.40000000000E+01  0.51100000000E-03 0.  1.
    9000002   -1    0    0    0    0 -0.00000000000E+00 -0.00000000000E+00  0.00000000000E+00  0.93800000000E+00  0.93800000000E+00 0. -1.
         11    1    1    2    0    0  0.85916956271E-01 -0.13528256150E-01  0.85218410878E+00  0.85661120321E+00  0.51100000000E-03 0.  1.
    9000002    1    1    2    0    0 -0.38688735669E+00  0.40799825755E-01  0.10196412617E+00  0.10205817633E+01  0.93800000000E+00 0. -1.
         22    1    1    2    0    0  0.30097040042E+00 -0.27271569605E-01  0.30458517324E+01  0.30608070335E+01  0.00000000000E+00 0.  1.
</event>
<event>
 5    1  0.6564536E+001  0.1599671E+01  0.7818608E-02  0.3353721E+00
         11   -1    0    0    0    0  0.00000000000E+00  0.00000000000E+00  0.39999999674E+01  0.40000000000E+01  0.51100000000E-03 0. -1.
    9000002   -1    0    0    0    0 -0.00000000000E+00 -0.00000000000E+00  0.00000000000E+00  0.93800000000E+00  0.93800000000E+00 0. -1.
         11    1    1    2    0    0 -0.43945941552E-01  0.97629534890E-03  0.38853471799E+00  0.39101366618E+00  0.51100000000E-03 0. -1.
    9000002    1    1    2    0    0  0.45305386770E+00 -0.15859873116E-01  0.13965297112E+00  0.10511214463E+01  0.93800000000E+00 0. -1.
         22    1    1    2    0    0 -0.40910792615E+00  0.14883577768E-01  0.34718122782E+01  0.34958648875E+01  0.00000000000E+00 0. -1.
</event>
<event>
 5    1  0.6564536E+001  0.1525498E+01  0.7818608E-02  0.3438419E+00
         11   -1    0    0    0    0  0.00000000000E+00  0.00000000000E+00  0.39999999674E+01  0.40000000000E+01  0.51100000000E-03 0. -1.
    9000002   -1    0    0    0    0 -0.00000000000E+00 -0.00000000000E+00  0.00000000000E+00  0.93800000000E+00  0.93800000000E+00 0. -1.
         11    1    1    2    0    0 -0.22985297161E+00  0.16931204827E+00  0.10074036825E+01  0.10470727763E+01  0.51100000000E-03 0. -1.
    9000002    1    1    2    0    0 -0.55962059529E-01 -0.71500168666E-01  0.61590244618E-01  0.94439471857E+00  0.93800000000E+00 0. -1.
         22    1    1    2    0    0  0.28581503114E+00 -0.97811879608E-01  0.29310060402E+01  0.29465325051E+01  0.00000000000E+00 0. -1.
</event>
<event>
 5    1  0.6564536E+001  0.1599674E+01  0.7818608E-02  0.3353718E+00
         11   -1    0    0    0    0  0.00000000000E+00  0.00000000000E+00  0.39999999674E+01  0.40000000000E+01  0.51100000000E-03 0.  1.
    9000002   -1    0    0    0    0 -0.00000000000E+00 -0.00000000000E+00  0.00000000000E+00  0.93800000000E+00  0.93800000000E+00 0. -1.
         11    1    1    2    0    0  0.59467107690E-02 -0.23592570313E-01  0.16435919092E+00  0.16615106832E+00  0.51100000000E-03 0.  1.
    9000002    1    1    2    0    0 -0.13103889467E+00  0.52837853637E+00  0.20447917707E+00  0.11036352674E+01  0.93800000000E+00 0. -1.
         22    1    1    2    0    0  0.12509218390E+00 -0.50478596606E+00  0.36311615994E+01  0.36682136643E+01  0.00000000000E+00 0.  1.
</event>
<event>
 5    1  0.6564536E+001  0.1599618E+01  0.7818608E-02  0.3353778E+00
         11   -1    0    0    0    0  0.00000000000E+00  0.00000000000E+00  0.39999999674E+01  0.40000000000E+01  0.51100000000E-03 0. -1.
    9000002   -1    0    0    0    0 -0.00000000000E+00 -0.00000000000E+00  0.00000000000E+00  0.93800000000E+00  0.93800000000E+00 0.  1.
         11    1    1    2    0    0  0.17435209057E+00 -0.76813168105E-01  0.13512208187E+01  0.13645867053E+01  0.51100000000E-03 0. -1.
    9000002    1    1    2    0    0 -0.48949407223E+00  0.19170622488E+00  0.19008005786E+00  0.10919387125E+01  0.93800000000E+00 0.  1.
         22    1    1    2    0    0  0.31514198166E+00 -0.11489305677E+00  0.24586990908E+01  0.24814745822E+01  0.00000000000E+00 0. -1.
</event>
<event>
 5    1  0.6564536E+001  0.1599676E+01  0.7818608E-02  0.3353715E+00
         11   -1    0    0    0    0  0.00000000000E+00  0.00000000000E+00  0.39999999674E+01  0.40000000000E+01  0.51100000000E-03 0.  1.
    9000002   -1    0    0    0    0 -0.00000000000E+00 -0.00000000000E+00  0.00000000000E+00  0.93800000000E+00  0.93800000000E+00 0.  1.
         11    1    1    2    0    0  0.33484048967E-01 -0.22874525963E-01  0.43801261959E+00  0.43988605515E+00  0.51100000000E-03 0.  1.
    9000002    1    1    2    0    0 -0.30538534872E+00  0.20258309221E+00  0.90218691297E-01  0.10110803790E+01  0.93800000000E+00 0.  1.
         22    1    1    2    0    0  0.27190129975E+00 -0.17970856624E+00  0.34717686565E+01  0.34870335659E+01  0.00000000000E+00 0.  1.
</event>
<event>
 5    1  0.6564536E+001  0.1599675E+01  0.7818608E-02  0.3353716E+00
         11   -1    0    0    0    0  0.00000000000E+00  0.00000000000E+00  0.39999999674E+01  0.40000000000E+01  0.51100000000E-03 0. -1.
    9000002   -1    0    0    0    0 -0.00000000000E+00 -0.00000000000E+00  0.00000000000E+00  0.93800000000E+00  0.93800000000E+00 0. -1.
         11    1    1    2    0    0 -0.42740036510E-01 -0.87480918930E-01  0.97489019180E+00  0.97974015386E+00  0.51100000000E-03 0. -1.
    9000002    1    1    2    0    0  0.16582024811E+00  0.34825015704E+00  0.10017274667E+00  0.10191433195E+01  0.93800000000E+00 0. -1.
         22    1    1    2    0    0 -0.12308021160E+00 -0.26076923811E+00  0.29249370289E+01  0.29391165266E+01  0.00000000000E+00 0.  1.
</event>
<event>
 5    1  0.6564536E+001  0.1595234E+01  0.7818608E-02  0.3358552E+00
         11   -1    0    0    0    0  0.00000000000E+00  0.00000000000E+00  0.39999999674E+01  0.40000000000E+01  0.51100000000E-03 0. -1.
    9000002   -1    0    0    0    0 -0.00000000000E+00 -0.00000000000E+00  0.00000000000E+00  0.93800000000E+00  0.93800000000E+00 0. -1.
         11    1    1    2    0    0 -0.10498457513E+00  0.49615597058E-01  0.39310924670E+00  0.40990073121E+00  0.51100000000E-03 0. -1.
    9000002    1    1    2    0    0  0.51284512327E+00 -0.41778688074E+00  0.31437969056E+00  0.11900565482E+01  0.93800000000E+00 0. -1.
         22    1    1    2    0    0 -0.40786054814E+00  0.36817128368E+00  0.32925110301E+01  0.33380427205E+01  0.00000000000E+00 0. -1.
</event>
<event>
 5    1  0.6564536E+001  0.1580216E+01  0.7818608E-02  0.3375120E+00
         11   -1    0    0    0    0  0.00000000000E+00  0.00000000000E+00  0.39999999674E+01  0.40000000000E+01  0.51100000000E-03 0.  1.
    9000002   -1    0    0    0    0 -0.00000000000E+00 -0.00000000000E+00  0.00000000000E+00  0.93800000000E+00  0.93800000000E+00 0.  1.
         11    1    1    2    0    0 -0.65474126736E-01 -0.11079897320E-01  0.83550958543E+00  0.83814447076E+00  0.51100000000E-03 0.  1.
    9000002    1    1    2    0    0 -0.29706138569E+00  0.27403994345E+00  0.12666015477E+00  0.10291890751E+01  0.93800000000E+00 0.  1.
         22    1    1    2    0    0  0.36253551242E+00 -0.26296004613E+00  0.30378302272E+01  0.30706664542E+01  0.00000000000E+00 0.  1.
</event>
<event>
 5    1  0.6564536E+001  0.1564209E+01  0.7818608E-02  0.3393150E+00
         11   -1    0    0    0    0  0.00000000000E+00  0.00000000000E+00  0.39999999674E+01  0.40000000000E+01  0.51100000000E-03 0.  1.
    9000002   -1    0    0    0    0 -0.00000000000E+00 -0.00000000000E+00  0.00000000000E+00  0.93800000000E+00  0.93800000000E+00 0.  1.
         11    1    1    2    0    0 -0.16901048338E+00  0.50199999513E-01  0.11892429777E+01  0.12022411175E+01  0.51100000000E-03 0.  1.
    9000002    1    1    2    0    0 -0.11196552918E+00 -0.14368237028E-01  0.34821502748E-01  0.94540957421E+00  0.93800000000E+00 0.  1.
         22    1    1    2    0    0  0.28097601256E+00 -0.35831762485E-01  0.27759354869E+01  0.27903493083E+01  0.00000000000E+00 0.  1.
</event>
<event>
 5    1  0.6564536E+001  0.1599676E+01  0.7818608E-02  0.3353715E+00
         11   -1    0    0    0    0  0.00000000000E+00  0.00000000000E+00  0.39999999674E+01  0.40000000000E+01  0.51100000000E-03 0. -1.
    9000002   -1    0    0    0    0 -0.00000000000E+00 -0.00000000000E+00  0.00000000000E+00  0.93800000000E+00  0.93800000000E+00 0. -1.
         11    1    1    2    0    0 -0.72223293724E-01  0.70056041656E-01  0.10426688515E+01  0.10475126005E+01  0.51100000000E-03 0. -1.
    9000002    1    1    2    0    0  0.26919422889E+00 -0.25978196881E+00  0.94099368074E-01  0.10142242825E+01  0.93800000000E+00 0. -1.
         22    1    1    2    0    0 -0.19697093517E+00  0.18972592716E+00  0.28632317478E+01  0.28762631170E+01  0.00000000000E+00 0. -1.
</event>
<event>
 5    1  0.6564536E+001  0.1599674E+01  0.7818608E-02  0.3353718E+00
         11   -1    0    0    0    0  0.00000000000E+00  0.00000000000E+00  0.39999999674E+01  0.40000000000E+01  0.51100000000E-03 0.  1.
    9000002   -1    0    0    0    0 -0.00000000000E+00 -0.00000000000E+00  0.00000000000E+00  0.93800000000E+00  0.93800000000E+00 0.  1.
         11    1    1    2    0    0  0.80103929009E-01 -0.19355138690E+00  0.11934364732E+01  0.12116805088E+01  0.51100000000E-03 0. -1.
    9000002    1    1    2    0    0 -0.25334406021E+00  0.60365957196E+00  0.30277697728E+00  0.11832607446E+01  0.93800000000E+00 0.  1.
         22    1    1    2    0    0  0.17324013120E+00 -0.41010818506E+00  0.25037865169E+01  0.25430587466E+01  0.00000000000E+00 0.  1.
</event>
<event>
 5    1  0.6564536E+001  0.1593788E+01  0.7818608E-02  0.3360133E+00
         11   -1    0    0    0    0  0.00000000000E+00  0.00000000000E+00  0.39999999674E+01  0.40000000000E+01  0.51100000000E-03 0.  1.
    9000002   -1    0    0    0    0 -0.00000000000E+00 -0.00000000000E+00  0.00000000000E+00  0.93800000000E+00  0.93800000000E+00 0.  1.
         11    1    1    2    0    0 -0.66833519943E-02  0.20647712963E-01  0.12332222652E+01  0.12334133175E+01  0.51100000000E-03 0.  1.
    9000002    1    1    2    0    0  0.28798743524E+00 -0.30244439042E-02  0.59868826973E-01  0.98304332893E+00  0.93800000000E+00 0.  1.
         22    1    1    2    0    0 -0.28130408324E+00 -0.17623269058E-01  0.27069088752E+01  0.27215433536E+01  0.00000000000E+00 0. -1.
</event>
<event>
 5    1  0.6564536E+001  0.1599523E+01  0.7818608E-02  0.3353882E+00
         11   -1    0    0    0    0  0.00000000000E+00  0.00000000000E+00  0.39999999674E+01  0.40000000000E+01  0.51100000000E-03 0. -1.
    9000002   -1    0    0    0    0 -0.00000000000E+00 -0.00000000000E+00  0.00000000000E+00  0.93800000000E+00  0.93800000000E+00 0. -1.
         11    1    1    2    0    0  0.76935469206E-02  0.89978443053E-01  0.10549166643E+01  0.10587751134E+01  0.51100000000E-03 0. -1.
    9000002    1    1    2    0    0 -0.17450309084E-01 -0.38087961350E+00  0.97955266446E-01  0.10172576013E+01  0.93800000000E+00 0. -1.
         22    1    1    2    0    0  0.97567621639E-02  0.29090117045E+00  0.28471280366E+01  0.28619672853E+01  0.00000000000E+00 0. -1.
</event>
<event>
 5    1  0.6564536E+001  0.1599676E+01  0.7818608E-02  0.3353715E+00
         11   -1    0    0    0    0  0.00000000000E+00  0.00000000000E+00  0.39999999674E+01  0.40000000000E+01  0.51100000000E-03 0. -1.
    9000002   -1    0    0    0    0 -0.00000000000E+00 -0.00000000000E+00  0.00000000000E+00  0.93800000000E+00  0.93800000000E+00 0.  1.
         11    1    1    2    0    0  0.14168160575E-01  0.98307102274E-03  0.15325209942E+00  0.15390961731E+00  0.51100000000E-03 0.  1.
    9000002    1    1    2    0    0 -0.35761189121E+00 -0.24492280545E-01  0.86233629057E-01  0.10078523579E+01  0.93800000000E+00 0.  1.
         22    1    1    2    0    0  0.34344373063E+00  0.23509209522E-01  0.37605142389E+01  0.37762380248E+01  0.00000000000E+00 0. -1.
</event>
<event>
 5    1  0.6564536E+001  0.1599647E+01  0.7818608E-02  0.3353747E+00
         11   -1    0    0    0    0  0.00000000000E+00  0.00000000000E+00  0.39999999674E+01  0.40000000000E+01  0.51100000000E-03 0.  1.
    9000002   -1    0    0    0    0 -0.00000000000E+00 -0.00000000000E+00  0.00000000000E+00  0.93800000000E+00  0.93800000000E+00 0.  1.
         11    1    1    2    0    0  0.27870203771E+00 -0.16646105963E-01  0.14525938519E+01  0.14791825710E+01  0.51100000000E-03 0.  1.
    9000002    1    1    2    0    0 -0.69801699412E+00  0.25748859809E-01  0.34857579244E+00  0.12203441363E+01  0.93800000000E+00 0.  1.
         22    1    1    2    0    0  0.41931495641E+00 -0.91027538456E-02  0.21988303230E+01  0.22384732927E+01  0.00000000000E+00 0.  1.
</event>
<event>
 5    1  0.6564536E+001  0.1599662E+01  0.7818608E-02  0.3353731E+00
         11   -1    0    0    0    0  0.00000000000E+00  0.00000000000E+00  0.39999999674E+01  0.40000000000E+01  0.51100000000E-03 0.  1.
    9000002   -1    0    0    0    0 -0.00000000000E+00 -0.00000000000E+00  0.00000000000E+00  0.93800000000E+00  0.93800000000E+00 0. -1.
         11    1    1    2    0    0  0.55681609373E-01  0.49520577457E-01  0.80545969509E+00  0.80889944415E+00  0.51100000000E-03 0.  1.
    9000002    1    1    2    0    0 -0.25517896899E+00 -0.25097286258E+00  0.85983341058E-01  0.10076412154E+01  0.93800000000E+00 0. -1.
         22    1    1    2    0    0  0.19949735962E+00  0.20145228512E+00  0.31085569312E+01  0.31214593405E+01  0.00000000000E+00 0.  1.
</event>
<event>
 5    1  0.6564536E+001  0.1599636E+01  0.7818608E-02  0.3353758E+00
         11   -1    0    0    0    0  0.00000000000E+00  0.00000000000E+00  0.39999999674E+01  0.40000000000E+01  0.51100000000E-03 0.  1.
    9000002   -1    0    0    0    0 -0.00000000000E+00 -0.00000000000E+00  0.00000000000E+00  0.93800000000E+00  0.93800000000E+00 0. -1.
         11    1    1    2    0    0  0.18696796989E-01 -0.63594195647E-01  0.61390365588E+00  0.61747206558E+00  0.51100000000E-03 0.  1.
    9000002    1    1    2    0    0 -0.13999632359E+00  0.37494979599E+00  0.10808594989E+00  0.10255305421E+01  0.93800000000E+00 0. -1.
         22    1    1    2    0    0  0.12129952660E+00 -0.31135560034E+00  0.32780103616E+01  0.32949973924E+01  0.00000000000E+00 0.  1.
</event>
<event>
 5    1  0.6564536E+001  0.1579938E+01  0.7818608E-02  0.3375430E+00
         11   -1    0    0    0    0  0.00000000000E+00  0.00000000000E+00  0.39999999674E+01  0.40000000000E+01  0.51100000000E-03 0. -1.
    9000002   -1    0    0    0    0 -0.00000000000E+00 -0.00000000000E+00  0.00000000000E+00  0.93800000000E+00  0.93800000000E+00 0. -1.
         11    1    1    2    0    0  0.88908547569E-01  0.27988868026E-01  0.34376511667E+00  0.35617807782E+00  0.51100000000E-03 0. -1.
    9000002    1    1    2    0    0 -0.35906349124E+00  0.57455024655E+00  0.34795444861E+00  0.12082842691E+01  0.93800000000E+00 0. -1.
         22    1    1    2    0    0  0.27015494367E+00 -0.60253911458E+00  0.33082804021E+01  0.33735376531E+01  0.00000000000E+00 0. -1.
</event>
<event>
 5    1  0.6564536E+001  0.1599677E+01  0.7818608E-02  0.3353714E+00
         11   -1    0    0    0    0  0.00000000000E+00  0.00000000000E+00  0.39999999674E+01  0.40000000000E+01  0.51100000000E-03 0.  1.
    9000002   -1    0    0    0    0 -0.00000000000E+00 -0.00000000000E+00  0.00000000000E+00  0.93800000000E+00  0.93800000000E+00 0.  1.
         11    1    1    2    0    0  0.96596717184E-01  0.13902107949E+00  0.10481981716E+01  0.10617803230E+01  0.51100000000E-03 0.  1.
    9000002    1    1    2    0    0 -0.34429101824E+00 -0.49718113307E+00  0.25542697641E+00  0.11449071249E+01  0.93800000000E+00 0.  1.
         22    1    1    2    0    0  0.24769430106E+00  0.35816005358E+00  0.26963748194E+01  0.27313125521E+01  0.00000000000E+00 0.  1.
</event>
<event>
 5    1  0.6564536E+001  0.1599584E+01  0.7818608E-02  0.3353815E+00
         11   -1    0    0    0    0  0.00000000000E+00  0.00000000000E+00  0.39999999674E+01  0.40000000000E+01  0.51100000000E-03 0.  1.
    9000002   -1    0    0    0    0 -0.00000000000E+00 -0.00000000000E+00  0.00000000000E+00  0.93800000000E+00  0.93800000000E+00 0.  1.
         11    1    1    2    0    0 -0.23567042224E-02  0.24808297119E-01  0.23626927793E+00  0.23758038318E+00  0.51100000000E-03 0.  1.
    9000002    1    1    2    0    0 -0.49148677459E-01 -0.43025712673E+00  0.12714073052E+00  0.10409349417E+01  0.93800000000E+00 0.  1.
         22    1    1    2    0    0  0.51505381682E-01  0.40544882961E+00  0.36365899589E+01  0.36594846751E+01  0.00000000000E+00 0.  1.
</event>
<event>
 5    1  0.6564536E+001  0.1599674E+01  0.7818608E-02  0.3353717E+00
         11   -1    0    0    0    0  0.00000000000E+00  0.00000000000E+00  0.39999999674E+01  0.40000000000E+01  0.51100000000E-03 0.  1.
    9000002   -1    0    0    0    0 -0.00000000000E+00 -0.00000000000E+00  0.00000000000E+00  0.93800000000E+00  0.93800000000E+00 0.  1.
         11    1    1    2    0    0  0.82864021401E-01 -0.41997239445E-01  0.85599964920E+00  0.86102605925E+00  0.51100000000E-03 0.  1.
    9000002    1    1    2    0    0 -0.37147690643E+00  0.19714319912E+00  0.11962314105E+00  0.10348981732E+01  0.93800000000E+00 0.  1.
         22    1    1    2    0    0  0.28861288503E+00 -0.15514595968E+00  0.30243771771E+01  0.30420757676E+01  0.00000000000E+00 0.  1.
</event>
<event>
 5    1  0.6564536E+001  0.1599676E+01  0.7818608E-02  0.3353715E+00
         11   -1    0    0    0    0  0.00000000000E+00  0.00000000000E+00  0.39999999674E+01  0.40000000000E+01  0.51100000000E-03 0.  1.
    9000002   -1    0    0    0    0 -0.00000000000E+00 -0.00000000000E+00  0.00000000000E+00  0.93800000000E+00  0.93800000000E+00 0.  1.
         11    1    1    2    0    0 -0.37357490384E-01  0.16717085433E+00  0.81649111695E+00  0.83426595388E+00  0.51100000000E-03 0.  1.
    9000002    1    1    2    0    0  0.16250614830E+00 -0.73832447508E+00  0.41507837420E+00  0.12742312724E+01  0.93800000000E+00 0.  1.
         22    1    1    2    0    0 -0.12514865791E+00  0.57115362076E+00  0.27684304762E+01  0.28295027738E+01  0.00000000000E+00 0. -1.
</event>
<event>
 5    1  0.6564536E+001  0.1602188E+01  0.7818608E-02  0.3350992E+00
         11   -1    0    0    0    0  0.00000000000E+00  0.00000000000E+00  0.39999999674E+01  0.40000000000E+01  0.51100000000E-03 0. -1.
    9000002   -1    0    0    0    0 -0.00000000000E+00 -0.00000000000E+00  0.00000000000E+00  0.93800000000E+00  0.93800000000E+00 0.  1.
         11    1    1    2    0    0  0.20010942856E+00  0.48800150769E+00  0.97839712006E+00  0.11115081829E+01  0.51100000000E-03 0. -1.
    9000002    1    1    2    0    0  0.65052280343E-01  0.23849597322E+00  0.32787391175E+00  0.10239421031E+01  0.93800000000E+00 0.  1.
         22    1    1    2    0    0 -0.26516170891E+00 -0.72649748091E+00  0.26937289355E+01  0.28025497141E+01  0.00000000000E+00 0. -1.
</event>
<event>
 5    1  0.6564536E+001  0.1599677E+01  0.7818608E-02  0.3353714E+00
         11   -1    0    0    0    0  0.00000000000E+00  0.00000000000E+00  0.39999999674E+01  0.40000000000E+01  0.51100000000E-03 0.  1.
    9000002   -1    0    0    0    0 -0.00000000000E+00 -0.00000000000E+00  0.00000000000E+00  0.93800000000E+00  0.93800000000E+00 0. -1.
         11    1    1    2    0    0  0.28419189356E-01 -0.68210414736E-01  0.68240625267E+00  0.68639556074E+00  0.51100000000E-03 0. -1.
    9000002    1    1    2    0    0 -0.16084768123E+00  0.38730374106E+00  0.11893589443E+00  0.10343432271E+01  0.93800000000E+00 0. -1.
         22    1    1    2    0    0  0.13242849187E+00 -0.31909332632E+00  0.31986578203E+01  0.32172612122E+01  0.00000000000E+00 0.  1.
</event>
<event>
 5    1  0.6564536E+001  0.1599597E+01  0.7818608E-02  0.3353800E+00
         11   -1    0    0    0    0  0.00000000000E+00  0.00000000000E+00  0.39999999674E+01  0.40000000000E+01  0.51100000000E-03 0. -1.
    9000002   -1    0    0    0    0 -0.00000000000E+00 -0.00000000000E+00  0.00000000000E+00  0.93800000000E+00  0.93800000000E+00 0.  1.
         11    1    1    2    0    0  0.99011182029E-01 -0.29858706290E-01  0.86092319105E+00  0.86711231021E+00  0.51100000000E-03 0. -1.
    9000002    1    1    2    0    0 -0.47938990481E+00  0.14207016204E+00  0.17120966398E+00  0.10766407761E+01  0.93800000000E+00 0.  1.
         22    1    1    2    0    0  0.38037872278E+00 -0.11221145575E+00  0.29678671123E+01  0.29942469137E+01  0.00000000000E+00 0. -1.
</event>
<event>
 5    1  0.6564536E+001  0.1595020E+01  0.7818608E-02  0.3358786E+00
         11   -1    0    0    0    0  0.00000000000E+00  0.00000000000E+00  0.39999999674E+01  0.40000000000E+01  0.51100000000E-03 0.  1.
    9000002   -1    0    0    0    0 -0.00000000000E+00 -0.00000000000E+00  0.00000000000E+00  0.93800000000E+00  0.93800000000E+00 0.  1.
         11    1    1    2    0    0 -0.45167942453E-01  0.39605294534E-01  0.36489968961E+00  0.36981179941E+00  0.51100000000E-03 0.  1.
    9000002    1    1    2    0    0  0.40214081345E-01 -0.66892596500E+00  0.32350282114E+00  0.11973208402E+01  0.93800000000E+00 0.  1.
         22    1    1    2    0    0  0.49538611083E-02  0.62932067047E+00  0.33115974566E+01  0.33708673604E+01  0.00000000000E+00 0.  1.
</event>
<event>
 5    1  0.6564536E+001  0.1599659E+01  0.7818608E-02  0.3353734E+00
         11   -1    0    0    0    0  0.00000000000E+00  0.00000000000E+00  0.39999999674E+01  0.40000000000E+01  0.51100000000E-03 0.  1.
    9000002   -1    0    0    0    0 -0.00000000000E+00 -0.00000000000E+00  0.00000000000E+00  0.93800000000E+00  0.93800000000E+00 0.  1.
         11    1    1    2    0    0  0.47319568547E-01 -0.12906028403E+00  0.77079474919E+00  0.78295625994E+00  0.51100000000E-03 0.  1.
    9000002    1    1    2    0    0 -0.22662232718E+00  0.63566993534E+00  0.32337441719E+00  0.11999370648E+01  0.93800000000E+00 0.  1.
         22    1    1    2    0    0  0.17930275863E+00 -0.50660965131E+00  0.29058308010E+01  0.29551066752E+01  0.00000000000E+00 0. -1.
</event>
<event>
 5    1  0.6564536E+001  0.1599647E+01  0.7818608E-02  0.3353747E+00
         11   -1    0    0    0    0  0.00000000000E+00  0.00000000000E+00  0.39999999674E+01  0.40000000000E+01  0.51100000000E-03 0. -1.
    9000002   -1    0    0    0    0 -0.00000000000E+00 -0.00000000000E+00  0.00000000000E+00  0.93800000000E+00  0.93800000000E+00 0.  1.
         11    1    1    2    0    0  0.54661574812E-02  0.35242749919E-02  0.83905727299E-01  0.84158966168E-01  0.51100000000E-03 0. -1.
    9000002    1    1    2    0    0 -0.25224830592E+00 -0.25101058041E+00  0.84990295436E-01  0.10068281232E+01  0.93800000000E+00 0.  1.
         22    1    1    2    0    0  0.24678214844E+00  0.24748630542E+00  0.38311039446E+01  0.38470129106E+01  0.00000000000E+00 0. -1.
</event>
<event>
 5    1  0.6564536E+001  0.1599677E+01  0.7818608E-02  0.3353714E+00
         11   -1    0    0    0    0  0.00000000000E+00  0.00000000000E+00  0.39999999674E+01  0.40000000000E+01  0.51100000000E-03 0.  1.
    9000002   -1    0    0    0    0 -0.00000000000E+00 -0.00000000000E+00  0.00000000000E+00  0.93800000000E+00  0.93800000000E+00 0.  1.
         11    1    1    2    0    0  0.16479063060E+00  0.67820270412E-01  0.12404888950E+01  0.12532232446E+01  0.51100000000E-03 0.  1.
    9000002    1    1    2    0    0 -0.50600812351E+00 -0.20809215414E+00  0.20664692160E+00  0.11053929238E+01  0.93800000000E+00 0.  1.
         22    1    1    2    0    0  0.34121749291E+00  0.14027188373E+00  0.25528641508E+01  0.25793838317E+01  0.00000000000E+00 0.  1.
</event>
<event>
 5    1  0.6564536E+001  0.1593428E+01  0.7818608E-02  0.3360527E+00
         11   -1    0    0    0    0  0.00000000000E+00  0.00000000000E+00  0.39999999674E+01  0.40000000000E+01  0.51100000000E-03 0. -1.
    9000002   -1    0    0    0    0 -0.00000000000E+00 -0.00000000000E+00  0.00000000000E+00  0.93800000000E+00  0.93800000000E+00 0. -1.
         11    1    1    2    0    0 -0.30216481897E-01 -0.45316089516E-01  0.15503381721E+00  0.16432385508E+00  0.51100000000E-03 0. -1.
    9000002    1    1    2    0    0  0.32466105159E+00  0.28043282277E+00  0.12995530927E+00  0.10396055737E+01  0.93800000000E+00 0. -1.
         22    1    1    2    0    0 -0.29444456969E+00 -0.23511673325E+00  0.37150108409E+01  0.37340705712E+01  0.00000000000E+00 0. -1.
</event>
<event>
 5    1  0.6564536E+001  0.1599620E+01  0.7818608E-02  0.3353776E+00
         11   -1    0    0    0    0  0.00000000000E+00  0.00000000000E+00  0.39999999674E+01  0.40000000000E+01  0.51100000000E-03 0. -1.
    9000002   -1    0    0    0    0 -0.00000000000E+00 -0.00000000000E+00  0.00000000000E+00  0.93800000000E+00  0.93800000000E+00 0. -1.
         11    1    1    2    0    0  0.88491111466E-01  0.13111197379E-01  0.84398430498E+00  0.84871217057E+00  0.51100000000E-03 0. -1.
    9000002    1    1    2    0    0 -0.38421717555E+00 -0.36372356497E-01  0.10033606521E+00  0.10192434019E+01  0.93800000000E+00 0. -1.
         22    1    1    2    0    0  0.29572606408E+00  0.23261159118E-01  0.30556795972E+01  0.30700444275E+01  0.00000000000E+00 0. -1.
</event>
<event>
 5    1  0.6564536E+001  0.1599676E+01  0.7818608E-02  0.3353715E+00
         11   -1    0    0    0    0  0.00000000000E+00  0.00000000000E+00  0.39999999674E+01  0.40000000000E+01  0.51100000000E-03 0. -1.
    9000002   -1    0    0    0    0 -0.00000000000E+00 -0.00000000000E+00  0.00000000000E+00  0.93800000000E+00  0.93800000000E+00 0. -1.
         11    1    1    2    0    0 -0.57666286662E-01  0.10127211391E+00  0.12684877322E+01  0.12738299845E+01  0.51100000000E-03 0. -1.
    9000002    1    1    2    0    0  0.17542062881E+00 -0.31278405146E+00  0.86315390603E-01  0.10079189484E+01  0.93800000000E+00 0. -1.
         22    1    1    2    0    0 -0.11775434215E+00  0.21151193755E+00  0.26451968446E+01  0.26562510671E+01  0.00000000000E+00 0.  1.
</event>
<event>
 5    1  0.6564536E+001  0.1568949E+01  0.7818608E-02  0.3387770E+00
         11   -1    0    0    0    0  0.00000000000E+00  0.00000000000E+00  0.39999999674E+01  0.40000000000E+01  0.51100000000E-03 0. -1.
    9000002   -1    0    0    0    0 -0.00000000000E+00 -0.00000000000E+00  0.00000000000E+00  0.93800000000E+00  0.93800000000E+00 0. -1.
         11    1    1    2    0    0  0.60265892746E-01  0.13440709961E+00  0.10018726539E+01  0.10126432353E+01  0.51100000000E-03 0. -1.
    9000002    1    1    2    0    0  0.37083678036E+00 -0.77749717968E+00  0.60464988939E+00  0.14097756101E+01  0.93800000000E+00 0. -1.
         22    1    1    2    0    0 -0.43110267310E+00  0.64309008007E+00  0.23934774241E+01  0.25155811546E+01  0.00000000000E+00 0. -1.
</event>
<event>
 5    1  0.6564536E+001  0.1599677E+01  0.7818608E-02  0.3353715E+00
         11   -1    0    0    0    0  0.00000000000E+00  0.00000000000E+00  0.39999999674E+01  0.40000000000E+01  0.51100000000E-03 0.  1.
    9000002   -1    0    0    0    0 -0.00000000000E+00 -0.00000000000E+00  0.00000000000E+00  0.93800000000E+00  0.93800000000E+00 0.  1.
         11    1    1    2    0    0 -0.82952264787E-02 -0.10849487117E+00  0.10475647963E+01  0.10532009359E+01  0.51100000000E-03 0.  1.
    9000002    1    1    2    0    0  0.29630699785E-01  0.40068531171E+00  0.10891086495E+00  0.10262223316E+01  0.93800000000E+00 0.  1.
         22    1    1    2    0    0 -0.21335473307E-01 -0.29219044054E+00  0.28435243062E+01  0.28585767325E+01  0.00000000000E+00 0.  1.
</event>
<event>
 5    1  0.8385526E+001  0.1599112E+01  0.7818608E-02  0.3354328E+00
         11   -1    0    0    0    0  0.00000000000E+00  0.00000000000E+00  0.39999999674E+01  0.40000000000E+01  0.51100000000E-03 0.  1.
    9000002   -1    0    0    0    0 -0.00000000000E+00 -0.00000000000E+00  0.00000000000E+00  0.93800000000E+00  0.93800000000E+00 0. -1.
         11    1    1    2    0    0 -0.68587290687E-01 -0.54335765639E-01  0.13203867913E+01  0.13232830882E+01  0.51100000000E-03 0.  1.
    9000002    1    1    2    0    0  0.21758871836E+00  0.24113703405E+00  0.70993515542E-01  0.99517636567E+00  0.93800000000E+00 0. -1.
         22    1    1    2    0    0 -0.14900142767E+00 -0.18680126841E+00  0.26086196605E+01  0.26195405461E+01  0.00000000000E+00 0.  1.
</event>
<event>
 5    1  0.6564536E+001  0.1592628E+01  0.7818608E-02  0.3361404E+00
         11   -1    0    0    0    0  0.00000000000E+00  0.00000000000E+00  0.39999999674E+01  0.40000000000E+01  0.51100000000E-03 0.  1.
    9000002   -1    0    0    0    0 -0.00000000000E+00 -0.00000000000E+00  0.00000000000E+00  0.93800000000E+00  0.93800000000E+00 0.  1.
         11    1    1    2    0    0  0.38828434443E-01  0.12966616443E+00  0.75865057481E+00  0.77063085670E+00  0.51100000000E-03 0.  1.
    9000002    1    1    2    0    0 -0.40036867721E+00 -0.30192079271E+00  0.17855941516E+00  0.10785076298E+01  0.93800000000E+00 0.  1.
         22    1    1    2    0    0  0.36154024276E+00  0.17225462827E+00  0.30627899774E+01  0.30888615135E+01  0.00000000000E+00 0. -1.
</event>
<event>
 5    1  0.6564536E+001  0.1599646E+01  0.7818608E-02  0.3353748E+00
         11   -1    0    0    0    0  0.00000000000E+00  0.00000000000E+00  0.39999999674E+01  0.40000000000E+01  0.51100000000E-03 0. -1.
    9000002   -1    0    0    0    0 -0.00000000000E+00 -0.00000000000E+00  0.00000000000E+00  0.93800000000E+00  0.93800000000E+00 0.  1.
         11    1    1    2    0    0  0.58939901416E-01  0.80948055996E-01  0.99840662181E+00  0.10034154391E+01  0.51100000000E-03 0. -1.
    9000002    1    1    2    0    0 -0.22543341512E+00 -0.33789756172E+00  0.11140801971E+00  0.10282269855E+01  0.93800000000E+00 0.  1.
         22    1    1    2    0    0  0.16649351370E+00  0.25694950572E+00  0.28901853258E+01  0.29063575754E+01  0.00000000000E+00 0. -1.
</event>
<event>
 5    1  0.6564536E+001  0.1585920E+01  0.7818608E-02  0.3368788E+00
         11   -1    0    0    0    0  0.00000000000E+00  0.00000000000E+00  0.39999999674E+01  0.40000000000E+01  0.51100000000E-03 0.  1.
    9000002   -1    0    0    0    0 -0.00000000000E+00 -0.00000000000E+00  0.00000000000E+00  0.93800000000E+00  0.93800000000E+00 0.  1.
         11    1    1    2    0    0  0.33538321647E-01 -0.50002474085E+00  0.13682623057E+01  0.14571518654E+01  0.51100000000E-03 0.  1.
    9000002    1    1    2    0    0  0.77223444719E-01  0.90930808774E+00  0.66314232888E+00  0.14671081784E+01  0.93800000000E+00 0.  1.
         22    1    1    2    0    0 -0.11076176637E+00 -0.40928334689E+00  0.19685953327E+01  0.20137399562E+01  0.00000000000E+00 0.  1.
</event>
<event>
 5    1  0.6564536E+001  0.1591313E+01  0.7818608E-02  0.3362846E+00
         11   -1    0    0    0    0  0.00000000000E+00  0.00000000000E+00  0.39999999674E+01  0.40000000000E+01  0.51100000000E-03 0.  1.
    9000002   -1    0    0    0    0 -0.00000000000E+00 -0.00000000000E+00  0.00000000000E+00  0.93800000000E+00  0.93800000000E+00 0. -1.
         11    1    1    2    0    0  0.29173239058E-01 -0.32730277536E-01  0.67370372110E+00  0.67512910905E+00  0.51100000000E-03 0.  1.
    9000002    1    1    2    0    0  0.29523019490E+00  0.58128936492E-01  0.66983556393E-01  0.98735537577E+00  0.93800000000E+00 0. -1.
         22    1    1    2    0    0 -0.32440343396E+00 -0.25398658957E-01  0.32593126899E+01  0.32755155152E+01  0.00000000000E+00 0.  1.
</event>
<event>
 5    1  0.6564536E+001  0.1599675E+01  0.7818608E-02  0.3353716E+00
         11   -1    0    0    0    0  0.00000000000E+00  0.00000000000E+00  0.39999999674E+01  0.40000000000E+01  0.51100000000E-03 0.  1.
    9000002   -1    0    0    0    0 -0.00000000000E+00 -0.00000000000E+00  0.00000000000E+00  0.93800000000E+00  0.93800000000E+00 0.  1.
         11    1    1    2    0    0  0.16834593905E-01 -0.90458529788E-01  0.87329676720E+00  0.87813077265E+00  0.51100000000E-03 0.  1.
    9000002    1    1    2    0    0 -0.74372912629E-01  0.39706449003E+00  0.11013388129E+00  0.10272122523E+01  0.93800000000E+00 0.  1.
         22    1    1    2    0    0  0.57538318724E-01 -0.30660596024E+00  0.30165693189E+01  0.30326569751E+01  0.00000000000E+00 0.  1.
</event>
<event>
 5    1  0.6564536E+001  0.1555698E+01  0.7818608E-02  0.3402897E+00
         11   -1    0    0    0    0  0.00000000000E+00  0.00000000000E+00  0.39999999674E+01  0.40000000000E+01  0.51100000000E-03 0. -1.
    9000002   -1    0    0    0    0 -0.00000000000E+00 -0.00000000000E+00  0.00000000000E+00  0.93800000000E+00  0.93800000000E+00 0. -1.
         11    1    1    2    0    0 -0.90881840908E-02  0.27421150656E+00  0.91083706504E+00  0.95126177553E+00  0.51100000000E-03 0. -1.
    9000002    1    1    2    0    0 -0.28679749717E+00 -0.30417777157E+00  0.15622683957E+00  0.10387626035E+01  0.93800000000E+00 0. -1.
         22    1    1    2    0    0  0.29588568126E+00  0.29966265014E-01  0.29329360628E+01  0.29479756209E+01  0.00000000000E+00 0. -1.
</event>
<event>
 5    1  0.6564536E+001  0.1532038E+01  0.7818608E-02  0.3430599E+00
         11   -1    0    0    0    0  0.00000000000E+00  0.00000000000E+00  0.39999999674E+01  0.40000000000E+01  0.51100000000E-03 0.  1.
    9000002   -1    0    0    0    0 -0.00000000000E+00 -0.00000000000E+00  0.00000000000E+00  0.93800000000E+00  0.93800000000E+00 0. -1.
         11    1    1    2    0    0 -0.28659431328E+00 -0.48454151189E-01  0.13915257718E+01  0.14215584194E+01  0.51100000000E-03 0.  1.
    9000002    1    1    2    0    0 -0.51657631588E-02 -0.89544130053E-01  0.56319548328E-01  0.94396013044E+00  0.93800000000E+00 0. -1.
         22    1    1    2    0    0  0.29176007644E+00  0.13799828124E+00  0.25521546473E+01  0.25724814501E+01  0.00000000000E+00 0.  1.
</event>
<event>
 5    1  0.6564536E+001  0.1596356E+01  0.7818608E-02  0.3357328E+00
         11   -1    0    0    0    0  0.00000000000E+00  0.00000000000E+00  0.39999999674E+01  0.40000000000E+01  0.51100000000E-03 0. -1.
    9000002   -1    0    0    0    0 -0.00000000000E+00 -0.00000000000E+00  0.00000000000E+00  0.93800000000E+00  0.93800000000E+00 0.  1.
         11    1    1    2    0    0  0.79675201806E-01 -0.28590031719E-01  0.74123341644E+00  0.74605145028E+00  0.51100000000E-03 0. -1.
    9000002    1    1    2    0    0 -0.66521070110E+00  0.71271107193E-01  0.32089994050E+00  0.11959956603E+01  0.93800000000E+00 0.  1.
         22    1    1    2    0    0  0.58553549930E+00 -0.42681075473E-01  0.29378666104E+01  0.29959528894E+01  0.00000000000E+00 0. -1.
</event>
<event>
 5    1  0.6564536E+001  0.1599651E+01  0.7818608E-02  0.3353742E+00
         11   -1    0    0    0    0  0.00000000000E+00  0.00000000000E+00  0.39999999674E+01  0.40000000000E+01  0.51100000000E-03 0. -1.
    9000002   -1    0    0    0    0 -0.00000000000E+00 -0.00000000000E+00  0.00000000000E+00  0.93800000000E+00  0.93800000000E+00 0. -1.
         11    1    1    2    0    0 -0.36814869550E-01 -0.14851715997E-02  0.31761528902E+00  0.31974563843E+00  0.51100000000E-03 0. -1.
    9000002    1    1    2    0    0  0.47164502863E+00 -0.13690584449E-01  0.15173639929E+00  0.10608979216E+01  0.93800000000E+00 0. -1.
         22    1    1    2    0    0 -0.43483015908E+00  0.15175756049E-01  0.35306482791E+01  0.35573564400E+01  0.00000000000E+00 0. -1.
</event>
<event>
 5    1  0.6564536E+001  0.1599518E+01  0.7818608E-02  0.3353887E+00
         11   -1    0    0    0    0  0.00000000000E+00  0.00000000000E+00  0.39999999674E+01  0.40000000000E+01  0.51100000000E-03 0. -1.
    9000002   -1    0    0    0    0 -0.00000000000E+00 -0.00000000000E+00  0.00000000000E+00  0.93800000000E+00  0.93800000000E+00 0. -1.
         11    1    1    2    0    0 -0.10350937095E+00  0.12652715038E+00  0.12735490424E+01  0.12839979495E+01  0.51100000000E-03 0. -1.
    9000002    1    1    2    0    0  0.31862494645E+00 -0.33974685439E+00  0.14783859635E+00  0.10576625323E+01  0.93800000000E+00 0. -1.
         22    1    1    2    0    0 -0.21511557550E+00  0.21321970401E+00  0.25786123286E+01  0.25963395183E+01  0.00000000000E+00 0. -1.
</event>
<event>
 5    1  0.6564536E+001  0.1599676E+01  0.7818608E-02  0.3353715E+00
         11   -1    0    0    0    0  0.00000000000E+00  0.00000000000E+00  0.39999999674E+01  0.40000000000E+01  0.51100000000E-03 0.  1.
    9000002   -1    0    0    0    0 -0.00000000000E+00 -0.00000000000E+00  0.00000000000E+00  0.93800000000E+00  0.93800000000E+00 0. -1.
         11    1    1    2    0    0  0.36971675711E-01 -0.26389111008E-01  0.45026308173E+00  0.45254877514E+00  0.51100000000E-03 0.  1.
    9000002    1    1    2    0    0 -0.31659316693E+00  0.23007858797E+00  0.10320194754E+00  0.10215977839E+01  0.93800000000E+00 0. -1.
         22    1    1    2    0    0  0.27962149122E+00 -0.20368947697E+00  0.34465349381E+01  0.34638534410E+01  0.00000000000E+00 0.  1.
</event>
<event>
 5    1  0.7043368E+001  0.1597190E+01  0.7818608E-02  0.3356419E+00
         11   -1    0    0    0    0  0.00000000000E+00  0.00000000000E+00  0.39999999674E+01  0.40000000000E+01  0.51100000000E-03 0. -1.
    9000002   -1    0    0    0    0 -0.00000000000E+00 -0.00000000000E+00  0.00000000000E+00  0.93800000000E+00  0.93800000000E+00 0. -1.
         11    1    1    2    0    0 -0.72740021399E-02  0.18805538567E-01  0.77965903311E+00  0.77991988589E+00  0.51100000000E-03 0. -1.
    9000002    1    1    2    0    0  0.27435828958E+00 -0.13930452602E+00  0.65164222637E-01  0.98932734620E+00  0.93800000000E+00 0. -1.
         22    1    1    2    0    0 -0.26708428744E+00  0.12049898746E+00  0.31551767116E+01  0.31687527679E+01  0.00000000000E+00 0. -1.
</event>
<event>
 5    1  0.6564536E+001  0.1599593E+01  0.7818608E-02  0.3353806E+00
         11   -1    0    0    0    0  0.00000000000E+00  0.00000000000E+00  0.39999999674E+01  0.40000000000E+01  0.51100000000E-03 0.  1.
    9000002   -1    0    0    0    0 -0.00000000000E+00 -0.00000000000E+00  0.00000000000E+00  0.93800000000E+00  0.93800000000E+00 0.  1.
         11    1    1    2    0    0 -0.43132830868E-01  0.19735726569E-01  0.33043516892E+00  0.33382271041E+00  0.51100000000E-03 0.  1.
    9000002    1    1    2    0    0  0.53547530748E+00 -0.27813635895E+00  0.25429734409E+00  0.11439426464E+01  0.93800000000E+00 0.  1.
         22    1    1    2    0    0 -0.49234247661E+00  0.25840063238E+00  0.34152674543E+01  0.34602346432E+01  0.00000000000E+00 0.  1.
</event>
<event>
 5    1  0.6564536E+001  0.1599675E+01  0.7818608E-02  0.3353716E+00
         11   -1    0    0    0    0  0.00000000000E+00  0.00000000000E+00  0.39999999674E+01  0.40000000000E+01  0.51100000000E-03 0. -1.
    9000002   -1    0    0    0    0 -0.00000000000E+00 -0.00000000000E+00  0.00000000000E+00  0.93800000000E+00  0.93800000000E+00 0.  1.
         11    1    1    2    0    0  0.10841989652E-01 -0.19279221092E+00  0.14833322299E+01  0.14958479704E+01  0.51100000000E-03 0. -1.
    9000002    1    1    2    0    0 -0.25926621254E-01  0.49444935903E+00  0.16768588775E+00  0.10738318841E+01  0.93800000000E+00 0.  1.
         22    1    1    2    0    0  0.15084631603E-01 -0.30165714810E+00  0.23489818497E+01  0.23683201455E+01  0.00000000000E+00 0. -1.
</event>
<event>
 5    1  0.6564536E+001  0.1598668E+01  0.7818608E-02  0.3354810E+00
         11   -1    0    0    0    0  0.00000000000E+00  0.00000000000E+00  0.39999999674E+01  0.40000000000E+01  0.51100000000E-03 0.  1.
    9000002   -1    0    0    0    0 -0.00000000000E+00 -0.00000000000E+00  0.00000000000E+00  0.93800000000E+00  0.93800000000E+00 0. -1.
         11    1    1    2    0    0 -0.15315218936E+00 -0.13287558940E+00  0.13657428432E+01  0.13807118781E+01  0.51100000000E-03 0.  1.
    9000002    1    1    2    0    0  0.36454215083E+00  0.29519618248E+00  0.15075935452E+00  0.10595301548E+01  0.93800000000E+00 0. -1.
         22    1    1    2    0    0 -0.21138996147E+00 -0.16232059308E+00  0.24834977696E+01  0.24977579671E+01  0.00000000000E+00 0.  1.
</event>
<event>
 5    1  0.6564536E+001  0.1522828E+01  0.7818608E-02  0.3441632E+00
         11   -1    0    0    0    0  0.00000000000E+00  0.00000000000E+00  0.39999999674E+01  0.40000000000E+01  0.51100000000E-03 0. -1.
    9000002   -1    0    0    0    0 -0.00000000000E+00 -0.00000000000E+00  0.00000000000E+00  0.93800000000E+00  0.93800000000E+00 0.  1.
         11    1    1    2    0    0  0.59552720784E-01 -0.21689753272E+00  0.63913205807E+00  0.67755524869E+00  0.51100000000E-03 0. -1.
    9000002    1    1    2    0    0  0.13849964556E+00 -0.10542744548E+00  0.79476648091E-01  0.95731793866E+00  0.93800000000E+00 0.  1.
         22    1    1    2    0    0 -0.19805236635E+00  0.32232497821E+00  0.32813912612E+01  0.33031268127E+01  0.00000000000E+00 0. -1.
</event>
<event>
 5    1  0.6564536E+001  0.1599677E+01  0.7818608E-02  0.3353714E+00
         11   -1    0    0    0    0  0.00000000000E+00  0.00000000000E+00  0.39999999674E+01  0.40000000000E+01  0.51100000000E-03 0.  1.
    9000002   -1    0    0    0    0 -0.00000000000E+00 -0.00000000000E+00  0.00000000000E+00  0.93800000000E+00  0.93800000000E+00 0.  1.
         11    1    1    2    0    0  0.10888331957E+00 -0.42011709510E-01  0.10566594540E+01  0.10630851442E+01  0.51100000000E-03 0. -1.
    9000002    1    1    2    0    0 -0.39956037347E+00  0.15451341552E+00  0.12426071874E+00  0.10386566390E+01  0.93800000000E+00 0.  1.
         22    1    1    2    0    0  0.29067705390E+00 -0.11250170601E+00  0.28190797947E+01  0.28362582168E+01  0.00000000000E+00 0.  1.
</event>
<event>
 5    1  0.6564536E+001  0.1592352E+01  0.7818608E-02  0.3361706E+00
         11   -1    0    0    0    0  0.00000000000E+00  0.00000000000E+00  0.39999999674E+01  0.40000000000E+01  0.51100000000E-03 0. -1.
    9000002   -1    0    0    0    0 -0.00000000000E+00 -0.00000000000E+00  0.00000000000E+00  0.93800000000E+00  0.93800000000E+00 0.  1.
         11    1    1    2    0    0 -0.13679190249E+00 -0.98424824671E-01  0.71005409897E+00  0.72977842889E+00  0.51100000000E-03 0. -1.
    9000002    1    1    2    0    0  0.36338015193E+00  0.30735333579E+00  0.16094324497E+00  0.10640760950E+01  0.93800000000E+00 0.  1.
         22    1    1    2    0    0 -0.22658824944E+00 -0.20892851112E+00  0.31290026234E+01  0.31441454761E+01  0.00000000000E+00 0. -1.
</event>
<event>
 5    1  0.6564536E+001  0.1599677E+01  0.7818608E-02  0.3353715E+00
         11   -1    0    0    0    0  0.00000000000E+00  0.00000000000E+00  0.39999999674E+01  0.40000000000E+01  0.51100000000E-03 0.  1.
    9000002   -1    0    0    0    0 -0.00000000000E+00 -0.00000000000E+00  0.00000000000E+00  0.93800000000E+00  0.93800000000E+00 0. -1.
         11    1    1    2    0    0 -0.35877927299E-01 -0.17369461093E+00  0.10660858856E+01  0.10807388306E+01  0.51100000000E-03 0. -1.
    9000002    1    1    2    0    0  0.12378476076E+00  0.60943084003E+00  0.27111777687E+00  0.11576171495E+01  0.93800000000E+00 0. -1.
         22    1    1    2    0    0 -0.87906833459E-01 -0.43573622909E+00  0.26627963049E+01  0.26996440199E+01  0.00000000000E+00 0.  1.
</event>
<event>
 5    1  0.6564536E+001  0.1599611E+01  0.7818608E-02  0.3353785E+00
         11   -1    0    0    0    0  0.00000000000E+00  0.00000000000E+00  0.39999999674E+01  0.40000000000E+01  0.51100000000E-03 0. -1.
    9000002   -1    0    0    0    0 -0.00000000000E+00 -0.00000000000E+00  0.00000000000E+00  0.93800000000E+00  0.93800000000E+00 0. -1.
         11    1    1    2    0    0  0.91781599660E-01  0.91450444102E-01  0.13605348223E+01  0.13666902757E+01  0.51100000000E-03 0. -1.
    9000002    1    1    2    0    0 -0.25892077808E+00 -0.28840482745E+00  0.10122011368E+00  0.10199543251E+01  0.93800000000E+00 0. -1.
         22    1    1    2    0    0  0.16713917842E+00  0.19695438334E+00  0.25382450314E+01  0.25513553993E+01  0.00000000000E+00 0. -1.
</event>
<event>
 5    1  0.6564536E+001  0.1599560E+01  0.7818608E-02  0.3353841E+00
         11   -1    0    0    0    0  0.00000000000E+00  0.00000000000E+00  0.39999999674E+01  0.40000000000E+01  0.51100000000E-03 0.  1.
    9000002   -1    0    0    0    0 -0.00000000000E+00 -0.00000000000E+00  0.00000000000E+00  0.93800000000E+00  0.93800000000E+00 0.  1.
         11    1    1    2    0    0  0.16190690516E-01  0.12854872429E+00  0.12058259045E+01  0.12127667897E+01  0.51100000000E-03 0.  1.
    9000002    1    1    2    0    0 -0.80335168904E-01 -0.38812249341E+00  0.10601001968E+00  0.10238041480E+01  0.93800000000E+00 0.  1.
         22    1    1    2    0    0  0.64144478387E-01  0.25957376911E+00  0.26881640431E+01  0.27014290623E+01  0.00000000000E+00 0. -1.
</event>
<event>
 5    1  0.6564536E+001  0.1589174E+01  0.7818608E-02  0.3365198E+00
         11   -1    0    0    0    0  0.00000000000E+00  0.00000000000E+00  0.39999999674E+01  0.40000000000E+01  0.51100000000E-03 0.  1.
    9000002   -1    0    0    0    0 -0.00000000000E+00 -0.00000000000E+00  0.00000000000E+00  0.93800000000E+00  0.93800000000E+00 0.  1.
         11    1    1    2    0    0  0.20525488585E-01  0.11348417074E+00  0.55956672608E+00  0.57132751969E+00  0.51100000000E-03 0.  1.
    9000002    1    1    2    0    0 -0.30989326453E+00 -0.20896078997E+00  0.10255954612E+00  0.10149191631E+01  0.93800000000E+00 0.  1.
         22    1    1    2    0    0  0.28936777594E+00  0.95476619230E-01  0.33378736952E+01  0.33517533172E+01  0.00000000000E+00 0.  1.
</event>
<event>
 5    1  0.8130743E+001  0.1574995E+01  0.7818608E-02  0.3380958E+00
         11   -1    0    0    0    0  0.00000000000E+00  0.00000000000E+00  0.39999999674E+01  0.40000000000E+01  0.51100000000E-03 0.  1.
    9000002   -1    0    0    0    0 -0.00000000000E+00 -0.00000000000E+00  0.00000000000E+00  0.93800000000E+00  0.93800000000E+00 0.  1.
         11    1    1    2    0    0 -0.15487216005E+00  0.12110904603E-01  0.10680714163E+01  0.10793094419E+01  0.51100000000E-03 0.  1.
    9000002    1    1    2    0    0 -0.27670124681E-01 -0.20408116171E+00  0.46859710650E-01  0.96148561552E+00  0.93800000000E+00 0.  1.
         22    1    1    2    0    0  0.18254228473E+00  0.19197025711E+00  0.28850688404E+01  0.28972049426E+01  0.00000000000E+00 0.  1.
</event>
<event>
 5    1  0.6564536E+001  0.1536607E+01  0.7818608E-02  0.3425179E+00
         11   -1    0    0    0    0  0.00000000000E+00  0.00000000000E+00  0.39999999674E+01  0.40000000000E+01  0.51100000000E-03 0.  1.
    9000002   -1    0    0    0    0 -0.00000000000E+00 -0.00000000000E+00  0.00000000000E+00  0.93800000000E+00  0.93800000000E+00 0. -1.
         11    1    1    2    0    0 -0.14313316798E+00  0.16701644285E+00  0.12116885919E+01  0.12314914132E+01  0.51100000000E-03 0.  1.
    9000002    1    1    2    0    0  0.90470041238E-01  0.28304899496E+00  0.10992944217E+00  0.99006567669E+00  0.93800000000E+00 0. -1.
         22    1    1    2    0    0  0.52663126744E-01 -0.45006543781E+00  0.26783819333E+01  0.27164429101E+01  0.00000000000E+00 0.  1.
</event>
<event>
 5    1  0.6564536E+001  0.1588688E+01  0.7818608E-02  0.3365733E+00
         11   -1    0    0    0    0  0.00000000000E+00  0.00000000000E+00  0.39999999674E+01  0.40000000000E+01  0.51100000000E-03 0. -1.
    9000002   -1    0    0    0    0 -0.00000000000E+00 -0.00000000000E+00  0.00000000000E+00  0.93800000000E+00  0.93800000000E+00 0.  1.
         11    1    1    2    0    0  0.18310770635E+00  0.15916353781E+00  0.10016400410E+01  0.10306039476E+01  0.51100000000E-03 0. -1.
    9000002    1    1    2    0    0 -0.53882303394E+00 -0.20193687257E+00  0.24055889909E+00  0.11264197026E+01  0.93800000000E+00 0.  1.
         22    1    1    2    0    0  0.35571532759E+00  0.42773334755E-01  0.27578010273E+01  0.27809763499E+01  0.00000000000E+00 0. -1.
</event>
<event>
 5    1  0.6564536E+001  0.1597678E+01  0.7818608E-02  0.3355887E+00
         11   -1    0    0    0    0  0.00000000000E+00  0.00000000000E+00  0.39999999674E+01  0.40000000000E+01  0.51100000000E-03 0.  1.
    9000002   -1    0    0    0    0 -0.00000000000E+00 -0.00000000000E+00  0.00000000000E+00  0.93800000000E+00  0.93800000000E+00 0. -1.
         11    1    1    2    0    0  0.32233991228E-01 -0.15287340108E-01  0.82047156276E+00  0.82124696613E+00  0.51100000000E-03 0.  1.
    9000002    1    1    2    0    0 -0.36063219722E+00  0.42283121240E-01  0.90157163331E-01  0.10098592764E+01  0.93800000000E+00 0. -1.
         22    1    1    2    0    0  0.32839820599E+00 -0.26995781133E-01  0.30893712413E+01  0.31068937575E+01  0.00000000000E+00 0.  1.
</event>
<event>
 5    1  0.6564536E+001  0.1584061E+01  0.7818608E-02  0.3370847E+00
         11   -1    0    0    0    0  0.00000000000E+00  0.00000000000E+00  0.39999999674E+01  0.40000000000E+01  0.51100000000E-03 0. -1.
    9000002   -1    0    0    0    0 -0.00000000000E+00 -0.00000000000E+00  0.00000000000E+00  0.93800000000E+00  0.93800000000E+00 0. -1.
         11    1    1    2    0    0  0.10113424333E+00  0.90091574962E-01  0.12619671183E+01  0.12692146768E+01  0.51100000000E-03 0. -1.
    9000002    1    1    2    0    0 -0.34237274264E+00  0.15527690711E+00  0.10794120459E+00  0.10162801368E+01  0.93800000000E+00 0. -1.
         22    1    1    2    0    0  0.24123849931E+00 -0.24536848207E+00  0.26300916445E+01  0.26525051864E+01  0.00000000000E+00 0. -1.
</event>
<event>
 5    1  0.6564536E+001  0.1599635E+01  0.7818608E-02  0.3353759E+00
         11   -1    0    0    0    0  0.00000000000E+00  0.00000000000E+00  0.39999999674E+01  0.40000000000E+01  0.51100000000E-03 0.  1.
    9000002   -1    0    0    0    0 -0.00000000000E+00 -0.00000000000E+00  0.00000000000E+00  0.93800000000E+00  0.93800000000E+00 0.  1.
         11    1    1    2    0    0 -0.10948157190E+00 -0.85149415600E-01  0.13596178011E+01  0.13666738688E+01  0.51100000000E-03 0.  1.
    9000002    1    1    2    0    0  0.32644624360E+00  0.25929744101E+00  0.11752894431E+00  0.10331792514E+01  0.93800000000E+00 0.  1.
         22    1    1    2    0    0 -0.21696467170E+00 -0.17414802541E+00  0.25228532220E+01  0.25381468797E+01  0.00000000000E+00 0.  1.
</event>
<event>
 5    1  0.6564536E+001  0.1599636E+01  0.7818608E-02  0.3353758E+00
         11   -1    0    0    0    0  0.00000000000E+00  0.00000000000E+00  0.39999999674E+01  0.40000000000E+01  0.51100000000E-03 0.  1.
    9000002   -1    0    0    0    0 -0.00000000000E+00 -0.00000000000E+00  0.00000000000E+00  0.93800000000E+00  0.93800000000E+00 0. -1.
         11    1    1    2    0    0  0.15064303912E-01  0.42053077470E-01  0.43353855510E+00  0.43583406757E+00  0.51100000000E-03 0.  1.
    9000002    1    1    2    0    0 -0.11796736602E+00 -0.41574739994E+00  0.12655534647E+00  0.10404914491E+01  0.93800000000E+00 0. -1.
         22    1    1    2    0    0  0.10290306211E+00  0.37369432247E+00  0.34399060658E+01  0.34616744833E+01  0.00000000000E+00 0.  1.
</event>
<event>
 5    1  0.6564536E+001  0.1599353E+01  0.7818608E-02  0.3354066E+00
         11   -1    0    0    0    0  0.00000000000E+00  0.00000000000E+00  0.39999999674E+01  0.40000000000E+01  0.51100000000E-03 0.  1.
    9000002   -1    0    0    0    0 -0.00000000000E+00 -0.00000000000E+00  0.00000000000E+00  0.93800000000E+00  0.93800000000E+00 0.  1.
         11    1    1    2    0    0  0.10267731407E+00  0.27451643133E-01  0.12806819546E+01  0.12850847262E+01  0.51100000000E-03 0.  1.
    9000002    1    1    2    0    0 -0.35904005563E+00 -0.41402216983E-01  0.87959593557E-01  0.10090613436E+01  0.93800000000E+00 0.  1.
         22    1    1    2    0    0  0.25636274156E+00  0.13950573850E-01  0.26313584192E+01  0.26438539302E+01  0.00000000000E+00 0.  1.
</event>
<event>
 5    1  0.6564536E+001  0.1599671E+01  0.7818608E-02  0.3353720E+00
         11   -1    0    0    0    0  0.00000000000E+00  0.00000000000E+00  0.39999999674E+01  0.40000000000E+01  0.51100000000E-03 0. -1.
    9000002   -1    0    0    0    0 -0.00000000000E+00 -0.00000000000E+00  0.00000000000E+00  0.93800000000E+00  0.93800000000E+00 0.  1.
         11    1    1    2    0    0  0.18037865688E-01  0.10623924347E+00  0.11445550297E+01  0.11496167268E+01  0.51100000000E-03 0. -1.
    9000002    1    1    2    0    0 -0.69412430039E-01 -0.36699799032E+00  0.93796704394E-01  0.10139760510E+01  0.93800000000E+00 0.  1.
         22    1    1    2    0    0  0.51374564352E-01  0.26075874685E+00  0.27616482333E+01  0.27744072222E+01  0.00000000000E+00 0. -1.
</event>
<event>
 5    1  0.6564536E+001  0.1599486E+01  0.7818608E-02  0.3353922E+00
         11   -1    0    0    0    0  0.00000000000E+00  0.00000000000E+00  0.39999999674E+01  0.40000000000E+01  0.51100000000E-03 0.  1.
    9000002   -1    0    0    0    0 -0.00000000000E+00 -0.00000000000E+00  0.00000000000E+00  0.93800000000E+00  0.93800000000E+00 0.  1.
         11    1    1    2    0    0 -0.86156556214E-01 -0.19966258333E+00  0.14268889950E+01  0.14433643215E+01  0.51100000000E-03 0.  1.
    9000002    1    1    2    0    0  0.26924255881E+00  0.51985613064E+00  0.23858744358E+00  0.11311542425E+01  0.93800000000E+00 0.  1.
         22    1    1    2    0    0 -0.18308600260E+00 -0.32019354731E+00  0.23345235288E+01  0.23634814361E+01  0.00000000000E+00 0.  1.
</event>
<event>
 5    1  0.6564536E+001  0.1599677E+01  0.7818608E-02  0.3353714E+00
         11   -1    0    0    0    0  0.00000000000E+00  0.00000000000E+00  0.39999999674E+01  0.40000000000E+01  0.51100000000E-03 0. -1.
    9000002   -1    0    0    0    0 -0.00000000000E+00 -0.00000000000E+00  0.00000000000E+00  0.93800000000E+00  0.93800000000E+00 0. -1.
         11    1    1    2    0    0 -0.61838948434E-01  0.39674234964E-01  0.74887679246E+00  0.75247246585E+00  0.51100000000E-03 0.  1.
    9000002    1    1    2    0    0  0.32285962822E+00 -0.20698729533E+00  0.99005153723E-01  0.10181984583E+01  0.93800000000E+00 0. -1.
         22    1    1    2    0    0 -0.26102067979E+00  0.16731306036E+00  0.31521180212E+01  0.31673290759E+01  0.00000000000E+00 0. -1.
</event>
<event>
 5    1  0.6564536E+001  0.1599652E+01  0.7818608E-02  0.3353742E+00
         11   -1    0    0    0    0  0.00000000000E+00  0.00000000000E+00  0.39999999674E+01  0.40000000000E+01  0.51100000000E-03 0.  1.
    9000002   -1    0    0    0    0 -0.00000000000E+00 -0.00000000000E+00  0.00000000000E+00  0.93800000000E+00  0.93800000000E+00 0.  1.
         11    1    1    2    0    0 -0.11350129440E+00 -0.76891118960E-01  0.81074162365E+00  0.82225119607E+00  0.51100000000E-03 0.  1.
    9000002    1    1    2    0    0  0.51653628663E+00  0.33205927985E+00  0.26391413807E+00  0.11517672391E+01  0.93800000000E+00 0.  1.
         22    1    1    2    0    0 -0.40303499222E+00 -0.25516816089E+00  0.29253442056E+01  0.29639815649E+01  0.00000000000E+00 0. -1.
</event>
<event>
 5    1  0.6564536E+001  0.1599654E+01  0.7818608E-02  0.3353739E+00
         11   -1    0    0    0    0  0.00000000000E+00  0.00000000000E+00  0.39999999674E+01  0.40000000000E+01  0.51100000000E-03 0.  1.
    9000002   -1    0    0    0    0 -0.00000000000E+00 -0.00000000000E+00  0.00000000000E+00  0.93800000000E+00  0.93800000000E+00 0.  1.
         11    1    1    2    0    0 -0.27638355816E-01 -0.13371250735E-01  0.29859781560E+00  0.30017259312E+00  0.51100000000E-03 0.  1.
    9000002    1    1    2    0    0  0.39547887069E+00  0.15875695480E+00  0.12294481667E+00  0.10375773397E+01  0.93800000000E+00 0.  1.
         22    1    1    2    0    0 -0.36784051488E+00 -0.14538570407E+00  0.35784573351E+01  0.36002500672E+01  0.00000000000E+00 0.  1.
</event>
<event>
 5    1  0.6564536E+001  0.1548340E+01  0.7818608E-02  0.3411415E+00
         11   -1    0    0    0    0  0.00000000000E+00  0.00000000000E+00  0.39999999674E+01  0.40000000000E+01  0.51100000000E-03 0. -1.
    9000002   -1    0    0    0    0 -0.00000000000E+00 -0.00000000000E+00  0.00000000000E+00  0.93800000000E+00  0.93800000000E+00 0. -1.
         11    1    1    2    0    0  0.14003252851E+00 -0.12158471019E+00  0.97233918331E+00  0.98986650581E+00  0.51100000000E-03 0. -1.
    9000002    1    1    2    0    0  0.79796040473E-01 -0.20724097966E+00  0.72535787348E-01  0.96665488783E+00  0.93800000000E+00 0. -1.
         22    1    1    2    0    0 -0.21982856898E+00  0.32882568986E+00  0.29551249967E+01  0.29814786064E+01  0.00000000000E+00 0. -1.
</event>
<event>
 5    1  0.6564536E+001  0.1599672E+01  0.7818608E-02  0.3353719E+00
         11   -1    0    0    0    0  0.00000000000E+00  0.00000000000E+00  0.39999999674E+01  0.40000000000E+01  0.51100000000E-03 0. -1.
    9000002   -1    0    0    0    0 -0.00000000000E+00 -0.00000000000E+00  0.00000000000E+00  0.93800000000E+00  0.93800000000E+00 0. -1.
         11    1    1    2    0    0 -0.86361147046E-01 -0.34914131471E-01  0.89776048060E+00  0.90258040415E+00  0.51100000000E-03 0. -1.
    9000002    1    1    2    0    0  0.38246265805E+00  0.15508939400E+00  0.11508638865E+00  0.10312222272E+01  0.93800000000E+00 0. -1.
         22    1    1    2    0    0 -0.29610151101E+00 -0.12017526253E+00  0.29871530981E+01  0.30041973687E+01  0.00000000000E+00 0. -1.
</event>
<event>
 5    1  0.6564536E+001  0.1599677E+01  0.7818608E-02  0.3353714E+00
         11   -1    0    0    0    0  0.00000000000E+00  0.00000000000E+00  0.39999999674E+01  0.40000000000E+01  0.51100000000E-03 0.  1.
    9000002   -1    0    0    0    0 -0.00000000000E+00 -0.00000000000E+00  0.00000000000E+00  0.93800000000E+00  0.93800000000E+00 0.  1.
         11    1    1    2    0    0  0.13178902823E+00  0.12781984887E-01  0.13628583057E+01  0.13692752644E+01  0.51100000000E-03 0.  1.
    9000002    1    1    2    0    0 -0.37862694205E+00 -0.35311266975E-01  0.97299653713E-01  0.10168168318E+01  0.93800000000E+00 0.  1.
         22    1    1    2    0    0  0.24683791382E+00  0.22529282087E-01  0.25398420079E+01  0.25519079038E+01  0.00000000000E+00 0.  1.
</event>
<event>
 5    1  0.6564536E+001  0.1599674E+01  0.7818608E-02  0.3353717E+00
         11   -1    0    0    0    0  0.00000000000E+00  0.00000000000E+00  0.39999999674E+01  0.40000000000E+01  0.51100000000E-03 0.  1.
    9000002   -1    0    0    0    0 -0.00000000000E+00 -0.00000000000E+00  0.00000000000E+00  0.93800000000E+00  0.93800000000E+00 0. -1.
         11    1    1    2    0    0 -0.19112865422E+00  0.11026686621E-01  0.13085543618E+01  0.13224849826E+01  0.51100000000E-03 0.  1.
    9000002    1    1    2    0    0  0.55418518699E+00 -0.26493305075E-01  0.21281203797E+00  0.11103855547E+01  0.93800000000E+00 0. -1.
         22    1    1    2    0    0 -0.36305653276E+00  0.15466618454E-01  0.24786335676E+01  0.25051294626E+01  0.00000000000E+00 0.  1.
</event>
<event>
 5    1  0.6564536E+001  0.1552744E+01  0.7818608E-02  0.3406306E+00
         11   -1    0    0    0    0  0.00000000000E+00  0.00000000000E+00  0.39999999674E+01  0.40000000000E+01  0.51100000000E-03 0. -1.
    9000002   -1    0    0    0    0 -0.00000000000E+00 -0.00000000000E+00  0.00000000000E+00  0.93800000000E+00  0.93800000000E+00 0. -1.
         11    1    1    2    0    0 -0.14205006169E+00  0.14086641907E+00  0.11884348865E+01  0.12051553047E+01  0.51100000000E-03 0. -1.
    9000002    1    1    2    0    0 -0.22210468708E+00 -0.80326837620E-01  0.73565474476E-01  0.97007152927E+00  0.93800000000E+00 0. -1.
         22    1    1    2    0    0  0.36415474878E+00 -0.60539581450E-01  0.27379996064E+01  0.27627731660E+01  0.00000000000E+00 0. -1.
</event>
<event>
 5    1  0.6564536E+001  0.1599330E+01  0.7818608E-02  0.3354091E+00
         11   -1    0    0    0    0  0.00000000000E+00  0.00000000000E+00  0.39999999674E+01  0.40000000000E+01  0.51100000000E-03 0.  1.
    9000002   -1    0    0    0    0 -0.00000000000E+00 -0.00000000000E+00  0.00000000000E+00  0.93800000000E+00  0.93800000000E+00 0.  1.
         11    1    1    2    0    0  0.23417063238E-01 -0.39343912443E-01  0.35553432391E+00  0.35847066672E+00  0.51100000000E-03 0.  1.
    9000002    1    1    2    0    0 -0.26538674953E+00  0.28942811800E+00  0.10420103804E+00  0.10222038048E+01  0.93800000000E+00 0.  1.
         22    1    1    2    0    0  0.24196968629E+00 -0.25008420556E+00  0.35402646054E+01  0.35573255284E+01  0.00000000000E+00 0.  1.
</event>
<event>
 5    1  0.6564536E+001  0.1599597E+01  0.7818608E-02  0.3353801E+00
         11   -1    0    0    0    0  0.00000000000E+00  0.00000000000E+00  0.39999999674E+01  0.40000000000E+01  0.51100000000E-03 0.  1.
    9000002   -1    0    0    0    0 -0.00000000000E+00 -0.00000000000E+00  0.00000000000E+00  0.93800000000E+00  0.93800000000E+00 0.  1.
         11    1    1    2    0    0  0.56783619345E-01 -0.15607542547E-01  0.45119040382E+00  0.45501760013E+00  0.51100000000E-03 0.  1.
    9000002    1    1    2    0    0 -0.53281258555E+00  0.15002220224E+00  0.21184666137E+00  0.11095579843E+01  0.93800000000E+00 0.  1.
         22    1    1    2    0    0  0.47602896621E+00 -0.13441465970E+00  0.33369629022E+01  0.33734244156E+01  0.00000000000E+00 0.  1.
</event>
<event>
 5    1  0.6564536E+001  0.1599421E+01  0.7818608E-02  0.3353992E+00
         11   -1    0    0    0    0  0.00000000000E+00  0.00000000000E+00  0.39999999674E+01  0.40000000000E+01  0.51100000000E-03 0.  1.
    9000002   -1    0    0    0    0 -0.00000000000E+00 -0.00000000000E+00  0.00000000000E+00  0.93800000000E+00  0.93800000000E+00 0.  1.
         11    1    1    2    0    0 -0.30065740123E-01  0.21962723324E+00  0.10342324957E+01  0.10577226416E+01  0.51100000000E-03 0.  1.
    9000002    1    1    2    0    0  0.15613881343E+00 -0.73137066030E+00  0.40548611471E+00  0.12663117156E+01  0.93800000000E+00 0.  1.
         22    1    1    2    0    0 -0.12607307331E+00  0.51174342707E+00  0.25602813569E+01  0.26139656428E+01  0.00000000000E+00 0.  1.
</event>
<event>
 5    1  0.6564536E+001  0.1599654E+01  0.7818608E-02  0.3353739E+00
         11   -1    0    0    0    0  0.00000000000E+00  0.00000000000E+00  0.39999999674E+01  0.40000000000E+01  0.51100000000E-03 0. -1.
    9000002   -1    0    0    0    0 -0.00000000000E+00 -0.00000000000E+00  0.00000000000E+00  0.93800000000E+00  0.93800000000E+00 0.  1.
         11    1    1    2    0    0 -0.21624670987E-02 -0.26460693350E-02  0.26883293222E-01  0.27104437318E-01  0.51100000000E-03 0.  1.
    9000002    1    1    2    0    0  0.20156769643E+00  0.34035199867E+00  0.10550119413E+00  0.10234468825E+01  0.93800000000E+00 0.  1.
         22    1    1    2    0    0 -0.19940522933E+00 -0.33770592934E+00  0.38676154800E+01  0.38874486802E+01  0.00000000000E+00 0. -1.
</event>
<event>
 5    1  0.6564536E+001  0.1597243E+01  0.7818608E-02  0.3356361E+00
         11   -1    0    0    0    0  0.00000000000E+00  0.00000000000E+00  0.39999999674E+01  0.40000000000E+01  0.51100000000E-03 0.  1.
    9000002   -1    0    0    0    0 -0.00000000000E+00 -0.00000000000E+00  0.00000000000E+00  0.93800000000E+00  0.93800000000E+00 0.  1.
         11    1    1    2    0    0 -0.15625800518E+00 -0.99200141425E-01  0.12513689216E+01  0.12649828739E+01  0.51100000000E-03 0.  1.
    9000002    1    1    2    0    0  0.31098554441E+00  0.30033196687E+00  0.12870081865E+00  0.10408262102E+01  0.93800000000E+00 0.  1.
         22    1    1    2    0    0 -0.15472753923E+00 -0.20113182545E+00  0.26199302271E+01  0.26321909158E+01  0.00000000000E+00 0. -1.
</event>
<event>
 5    1  0.6564536E+001  0.1599562E+01  0.7818608E-02  0.3353839E+00
         11   -1    0    0    0    0  0.00000000000E+00  0.00000000000E+00  0.39999999674E+01  0.40000000000E+01  0.51100000000E-03 0. -1.
    9000002   -1    0    0    0    0 -0.00000000000E+00 -0.00000000000E+00  0.00000000000E+00  0.93800000000E+00  0.93800000000E+00 0.  1.
         11    1    1    2    0    0  0.13407157494E+00  0.78544954115E-02  0.12933517756E+01  0.13003061012E+01  0.51100000000E-03 0. -1.
    9000002    1    1    2    0    0 -0.38382924255E+00  0.67349805725E-02  0.99298226345E-01  0.10183684918E+01  0.93800000000E+00 0.  1.
         22    1    1    2    0    0  0.24975766760E+00 -0.14589475984E-01  0.26073499654E+01  0.26193254069E+01  0.00000000000E+00 0.  1.
</event>
<event>
 5    1  0.6564536E+001  0.1599677E+01  0.7818608E-02  0.3353714E+00
         11   -1    0    0    0    0  0.00000000000E+00  0.00000000000E+00  0.39999999674E+01  0.40000000000E+01  0.51100000000E-03 0. -1.
    9000002   -1    0    0    0    0 -0.00000000000E+00 -0.00000000000E+00  0.00000000000E+00  0.93800000000E+00  0.93800000000E+00 0. -1.
         11    1    1    2    0    0  0.34700325706E+00  0.35579791205E-01  0.13912837656E+01  0.14343458299E+01  0.51100000000E-03 0. -1.
    9000002    1    1    2    0    0 -0.85682455729E+00 -0.87818071482E-01  0.55884121824E+00  0.13906861051E+01  0.93800000000E+00 0. -1.
         22    1    1    2    0    0  0.50982130024E+00  0.52238280277E-01  0.20498749835E+01  0.21129680651E+01  0.00000000000E+00 0. -1.
</event>
<event>
 5    1  0.6564536E+001  0.1597333E+01  0.7818608E-02  0.3356263E+00
         11   -1    0    0    0    0  0.00000000000E+00  0.00000000000E+00  0.39999999674E+01  0.40000000000E+01  0.51100000000E-03 0. -1.
    9000002   -1    0    0    0    0 -0.00000000000E+00 -0.00000000000E+00  0.00000000000E+00  0.93800000000E+00  0.93800000000E+00 0.  1.
         11    1    1    2    0    0  0.30209361571E-01 -0.50317887724E-01  0.90412949449E+00  0.90603250453E+00  0.51100000000E-03 0. -1.
    9000002    1    1    2    0    0 -0.31531888789E+00  0.31548807377E+00  0.13707196062E+00  0.10476599869E+01  0.93800000000E+00 0.  1.
         22    1    1    2    0    0  0.28510952632E+00 -0.26517018605E+00  0.29587985123E+01  0.29843075086E+01  0.00000000000E+00 0. -1.
</event>
<event>
 5    1  0.6564536E+001  0.1595730E+01  0.7818608E-02  0.3358011E+00
         11   -1    0    0    0    0  0.00000000000E+00  0.00000000000E+00  0.39999999674E+01  0.40000000000E+01  0.51100000000E-03 0.  1.
    9000002   -1    0    0    0    0 -0.00000000000E+00 -0.00000000000E+00  0.00000000000E+00  0.93800000000E+00  0.93800000000E+00 0. -1.
         11    1    1    2    0    0 -0.13956464895E-01  0.30083337404E-01  0.74908461931E+00  0.74981852345E+00  0.51100000000E-03 0.  1.
    9000002    1    1    2    0    0  0.38207021568E+00 -0.16197334540E+00  0.11971657497E+00  0.10326611606E+01  0.93800000000E+00 0. -1.
         22    1    1    2    0    0 -0.36811375078E+00  0.13189000799E+00  0.31311987731E+01  0.31555203159E+01  0.00000000000E+00 0.  1.
</event>
<event>
 5    1  0.6564536E+001  0.1599241E+01  0.7818608E-02  0.3354187E+00
         11   -1    0    0    0    0  0.00000000000E+00  0.00000000000E+00  0.39999999674E+01  0.40000000000E+01  0.51100000000E-03 0. -1.
    9000002   -1    0    0    0    0 -0.00000000000E+00 -0.00000000000E+00  0.00000000000E+00  0.93800000000E+00  0.93800000000E+00 0.  1.
         11    1    1    2    0    0  0.27221176945E-01 -0.14146342195E+00  0.77439535480E+00  0.78768097532E+00  0.51100000000E-03 0. -1.
    9000002    1    1    2    0    0 -0.16758882454E+00  0.74176672485E+00  0.42110385049E+00  0.12788574358E+01  0.93800000000E+00 0.  1.
         22    1    1    2    0    0  0.14036764759E+00 -0.60030330290E+00  0.28045007621E+01  0.28714615889E+01  0.00000000000E+00 0. -1.
</event>
<event>
 5    1  0.6564536E+001  0.1599677E+01  0.7818608E-02  0.3353714E+00
         11   -1    0    0    0    0  0.00000000000E+00  0.00000000000E+00  0.39999999674E+01  0.40000000000E+01  0.51100000000E-03 0.  1.
    9000002   -1    0    0    0    0 -0.00000000000E+00 -0.00000000000E+00  0.00000000000E+00  0.93800000000E+00  0.93800000000E+00 0.  1.
         11    1    1    2    0    0 -0.55924484118E-02  0.11349219997E+00  0.98296581725E+00  0.98951190692E+00  0.51100000000E-03 0.  1.
    9000002    1    1    2    0    0  0.20916130343E-01 -0.44426430025E+00  0.13424543672E+00  0.10467445201E+01  0.93800000000E+00 0.  1.
         22    1    1    2    0    0 -0.15323681931E-01  0.33077210028E+00  0.28827887134E+01  0.29017435730E+01  0.00000000000E+00 0.  1.
</event>
<event>
 5    1  0.6564536E+001  0.1599677E+01  0.7818608E-02  0.3353714E+00
         11   -1    0    0    0    0  0.00000000000E+00  0.00000000000E+00  0.39999999674E+01  0.40000000000E+01  0.51100000000E-03 0. -1.
    9000002   -1    0    0    0    0 -0.00000000000E+00 -0.00000000000E+00  0.00000000000E+00  0.93800000000E+00  0.93800000000E+00 0. -1.
         11    1    1    2    0    0  0.82985263746E-01 -0.14422164317E+00  0.10417824853E+01  0.10549869403E+01  0.51100000000E-03 0.  1.
    9000002    1    1    2    0    0 -0.29943127743E+00  0.51856548614E+00  0.25010969300E+00  0.11405998912E+01  0.93800000000E+00 0. -1.
         22    1    1    2    0    0  0.21644601368E+00 -0.37434384297E+00  0.27081077891E+01  0.27424131685E+01  0.00000000000E+00 0. -1.
</event>
<event>
 5    1  0.6564536E+001  0.1598358E+01  0.7818608E-02  0.3355148E+00
         11   -1    0    0    0    0  0.00000000000E+00  0.00000000000E+00  0.39999999674E+01  0.40000000000E+01  0.51100000000E-03 0.  1.
    9000002   -1    0    0    0    0 -0.00000000000E+00 -0.00000000000E+00  0.00000000000E+00  0.93800000000E+00  0.93800000000E+00 0.  1.
         11    1    1    2    0    0  0.91424448271E-01 -0.41760277874E-01  0.71272069898E+00  0.71977316317E+00  0.51100000000E-03 0.  1.
    9000002    1    1    2    0    0 -0.37931911758E+00  0.87163871050E-01  0.10312764325E+00  0.10207643431E+01  0.93800000000E+00 0.  1.
         22    1    1    2    0    0  0.28789466931E+00 -0.45403593176E-01  0.31841516251E+01  0.31974624937E+01  0.00000000000E+00 0.  1.
</event>
<event>
 5    1  0.8302874E+001  0.1593964E+01  0.7818608E-02  0.3359941E+00
         11   -1    0    0    0    0  0.00000000000E+00  0.00000000000E+00  0.39999999674E+01  0.40000000000E+01  0.51100000000E-03 0. -1.
    9000002   -1    0    0    0    0 -0.00000000000E+00 -0.00000000000E+00  0.00000000000E+00  0.93800000000E+00  0.93800000000E+00 0.  1.
         11    1    1    2    0    0  0.10164522233E-01 -0.32906505853E-01  0.13449220772E+01  0.13453630775E+01  0.51100000000E-03 0. -1.
    9000002    1    1    2    0    0  0.20225366785E+00  0.19754106515E+00  0.57684352439E-01  0.98137684051E+00  0.93800000000E+00 0.  1.
         22    1    1    2    0    0 -0.21241819009E+00 -0.16463455929E+00  0.25973935378E+01  0.26112600819E+01  0.00000000000E+00 0. -1.
</event>
<event>
 5    1  0.6564536E+001  0.1598998E+01  0.7818608E-02  0.3354451E+00
         11   -1    0    0    0    0  0.00000000000E+00  0.00000000000E+00  0.39999999674E+01  0.40000000000E+01  0.51100000000E-03 0.  1.
    9000002   -1    0    0    0    0 -0.00000000000E+00 -0.00000000000E+00  0.00000000000E+00  0.93800000000E+00  0.93800000000E+00 0.  1.
         11    1    1    2    0    0  0.19638478957E-01 -0.48818087694E-01  0.91397561190E-01  0.10546397894E+00  0.51100000000E-03 0.  1.
    9000002    1    1    2    0    0 -0.24209848090E+00  0.11945876313E+01  0.14630412244E+01  0.21227305311E+01  0.93800000000E+00 0.  1.
         22    1    1    2    0    0  0.22246000194E+00 -0.11457695436E+01  0.24455611818E+01  0.27098054899E+01  0.00000000000E+00 0.  1.
</event>
<event>
 5    1  0.7248308E+001  0.1599675E+01  0.7818608E-02  0.3353717E+00
         11   -1    0    0    0    0  0.00000000000E+00  0.00000000000E+00  0.39999999674E+01  0.40000000000E+01  0.51100000000E-03 0. -1.
    9000002   -1    0    0    0    0 -0.00000000000E+00 -0.00000000000E+00  0.00000000000E+00  0.93800000000E+00  0.93800000000E+00 0. -1.
         11    1    1    2    0    0  0.10864310830E+00  0.53332314137E-01  0.13301688893E+01  0.13356635788E+01  0.51100000000E-03 0. -1.
    9000002    1    1    2    0    0 -0.32288515432E+00 -0.16079652662E+00  0.87347089650E-01  0.10087536171E+01  0.93800000000E+00 0. -1.
         22    1    1    2    0    0  0.21424204602E+00  0.10746421248E+00  0.25824839884E+01  0.25935828041E+01  0.00000000000E+00 0. -1.
</event>
<event>
 5    1  0.9088407E+001  0.1589504E+01  0.7818608E-02  0.3364834E+00
         11   -1    0    0    0    0  0.00000000000E+00  0.00000000000E+00  0.39999999674E+01  0.40000000000E+01  0.51100000000E-03 0.  1.
    9000002   -1    0    0    0    0 -0.00000000000E+00 -0.00000000000E+00  0.00000000000E+00  0.93800000000E+00  0.93800000000E+00 0.  1.
         11    1    1    2    0    0 -0.17618178641E-01 -0.46690574335E-01  0.13605781616E+01  0.13614931528E+01  0.51100000000E-03 0.  1.
    9000002    1    1    2    0    0 -0.16811438378E+00 -0.11828062742E+00  0.35659237289E-01  0.96092056595E+00  0.93800000000E+00 0.  1.
         22    1    1    2    0    0  0.18573256242E+00  0.16497120175E+00  0.26037625684E+01  0.26155862813E+01  0.00000000000E+00 0.  1.
</event>
<event>
 5    1  0.6564536E+001  0.1599676E+01  0.7818608E-02  0.3353715E+00
         11   -1    0    0    0    0  0.00000000000E+00  0.00000000000E+00  0.39999999674E+01  0.40000000000E+01  0.51100000000E-03 0.  1.
    9000002   -1    0    0    0    0 -0.00000000000E+00 -0.00000000000E+00  0.00000000000E+00  0.93800000000E+00  0.93800000000E+00 0. -1.
         11    1    1    2    0    0  0.13936606367E+00 -0.24400409334E+00  0.11664629830E+01  0.11998320921E+01  0.51100000000E-03 0.  1.
    9000002    1    1    2    0    0 -0.41264764886E+00  0.72801697227E+00  0.52262192781E+00  0.13613465663E+01  0.93800000000E+00 0. -1.
         22    1    1    2    0    0  0.27328158519E+00 -0.48401287893E+00  0.23109150565E+01  0.23768213417E+01  0.00000000000E+00 0.  1.
</event>
<event>
 5    1  0.6564536E+001  0.1599669E+01  0.7818608E-02  0.3353723E+00
         11   -1    0    0    0    0  0.00000000000E+00  0.00000000000E+00  0.39999999674E+01  0.40000000000E+01  0.51100000000E-03 0.  1.
    9000002   -1    0    0    0    0 -0.00000000000E+00 -0.00000000000E+00  0.00000000000E+00  0.93800000000E+00  0.93800000000E+00 0.  1.
         11    1    1    2    0    0 -0.17771039677E+00  0.70880543791E-01  0.14208402274E+01  0.14336639249E+01  0.51100000000E-03 0.  1.
    9000002    1    1    2    0    0  0.48577886823E+00 -0.18913640523E+00  0.18672252635E+00  0.10892488193E+01  0.93800000000E+00 0.  1.
         22    1    1    2    0    0 -0.30806847147E+00  0.11825586144E+00  0.23924372136E+01  0.24150872557E+01  0.00000000000E+00 0.  1.
</event>
<event>
 5    1  0.6564536E+001  0.1599676E+01  0.7818608E-02  0.3353715E+00
         11   -1    0    0    0    0  0.00000000000E+00  0.00000000000E+00  0.39999999674E+01  0.40000000000E+01  0.51100000000E-03 0.  1.
    9000002   -1    0    0    0    0 -0.00000000000E+00 -0.00000000000E+00  0.00000000000E+00  0.93800000000E+00  0.93800000000E+00 0. -1.
         11    1    1    2    0    0  0.13901829773E+00 -0.75203061430E-01  0.13872711472E+01  0.13962460688E+01  0.51100000000E-03 0.  1.
    9000002    1    1    2    0    0 -0.38587595032E+00  0.21286275163E+00  0.13172732591E+00  0.10447042110E+01  0.93800000000E+00 0. -1.
         22    1    1    2    0    0  0.24685765259E+00 -0.13765969020E+00  0.24810014942E+01  0.24970497202E+01  0.00000000000E+00 0. -1.
</event>
<event>
 5    1  0.6564536E+001  0.1599674E+01  0.7818608E-02  0.3353717E+00
         11   -1    0    0    0    0  0.00000000000E+00  0.00000000000E+00  0.39999999674E+01  0.40000000000E+01  0.51100000000E-03 0. -1.
    9000002   -1    0    0    0    0 -0.00000000000E+00 -0.00000000000E+00  0.00000000000E+00  0.93800000000E+00  0.93800000000E+00 0. -1.
         11    1    1    2    0    0 -0.15636639615E-01 -0.42210076511E-01  0.25918004633E+00  0.26306035922E+00  0.51100000000E-03 0.  1.
    9000002    1    1    2    0    0  0.23562679756E+00  0.59710370834E+00  0.29020930698E+00  0.11730806742E+01  0.93800000000E+00 0. -1.
         22    1    1    2    0    0 -0.21999015795E+00 -0.55489363183E+00  0.34506106141E+01  0.35018589666E+01  0.00000000000E+00 0. -1.
</event>
<event>
 5    1  0.6564536E+001  0.1599139E+01  0.7818608E-02  0.3354299E+00
         11   -1    0    0    0    0  0.00000000000E+00  0.00000000000E+00  0.39999999674E+01  0.40000000000E+01  0.51100000000E-03 0.  1.
    9000002   -1    0    0    0    0 -0.00000000000E+00 -0.00000000000E+00  0.00000000000E+00  0.93800000000E+00  0.93800000000E+00 0. -1.
         11    1    1    2    0    0 -0.26868945020E-01 -0.11274594647E+00  0.11717024064E+01  0.11774210712E+01  0.51100000000E-03 0.  1.
    9000002    1    1    2    0    0  0.42781254839E-02  0.37514313098E+00  0.95088201433E-01  0.10147100261E+01  0.93800000000E+00 0. -1.
         22    1    1    2    0    0  0.22590819536E-01 -0.26239718451E+00  0.27332093596E+01  0.27458689027E+01  0.00000000000E+00 0.  1.
</event>
<event>
 5    1  0.6564536E+001  0.1599650E+01  0.7818608E-02  0.3353743E+00
         11   -1    0    0    0    0  0.00000000000E+00  0.00000000000E+00  0.39999999674E+01  0.40000000000E+01  0.51100000000E-03 0. -1.
    9000002   -1    0    0    0    0 -0.00000000000E+00 -0.00000000000E+00  0.00000000000E+00  0.93800000000E+00  0.93800000000E+00 0. -1.
         11    1    1    2    0    0  0.10661411900E+00  0.97854618995E-01  0.14405387328E+01  0.14477894179E+01  0.51100000000E-03 0. -1.
    9000002    1    1    2    0    0 -0.28340569645E+00 -0.28007198725E+00  0.10708729494E+00  0.10247296207E+01  0.93800000000E+00 0. -1.
         22    1    1    2    0    0  0.17679157745E+00  0.18221736825E+00  0.24523739396E+01  0.24654809614E+01  0.00000000000E+00 0. -1.
</event>
<event>
 5    1  0.6564536E+001  0.1587922E+01  0.7818608E-02  0.3366577E+00
         11   -1    0    0    0    0  0.00000000000E+00  0.00000000000E+00  0.39999999674E+01  0.40000000000E+01  0.51100000000E-03 0. -1.
    9000002   -1    0    0    0    0 -0.00000000000E+00 -0.00000000000E+00  0.00000000000E+00  0.93800000000E+00  0.93800000000E+00 0.  1.
         11    1    1    2    0    0 -0.12334243192E+00 -0.19735515247E+00  0.11935123184E+01  0.12159910884E+01  0.51100000000E-03 0. -1.
    9000002    1    1    2    0    0  0.42042012147E-01  0.47222449617E+00  0.16364449066E+00  0.10636667828E+01  0.93800000000E+00 0.  1.
         22    1    1    2    0    0  0.81300419773E-01 -0.27486934371E+00  0.26428431583E+01  0.26583421288E+01  0.00000000000E+00 0. -1.
</event>
<event>
 5    1  0.6564536E+001  0.1556625E+01  0.7818608E-02  0.3401830E+00
         11   -1    0    0    0    0  0.00000000000E+00  0.00000000000E+00  0.39999999674E+01  0.40000000000E+01  0.51100000000E-03 0. -1.
    9000002   -1    0    0    0    0 -0.00000000000E+00 -0.00000000000E+00  0.00000000000E+00  0.93800000000E+00  0.93800000000E+00 0.  1.
         11    1    1    2    0    0  0.52380788895E-01 -0.26824931907E+00  0.13100413229E+01  0.13382488457E+01  0.51100000000E-03 0. -1.
    9000002    1    1    2    0    0  0.36618263515E+00  0.32440064039E+00  0.20302261342E+00  0.10772129220E+01  0.93800000000E+00 0.  1.
         22    1    1    2    0    0 -0.41856342405E+00 -0.56151321317E-01  0.24869360311E+01  0.25225382323E+01  0.00000000000E+00 0. -1.
</event>
<event>
 5    1  0.6564536E+001  0.1599674E+01  0.7818608E-02  0.3353717E+00
         11   -1    0    0    0    0  0.00000000000E+00  0.00000000000E+00  0.39999999674E+01  0.40000000000E+01  0.51100000000E-03 0. -1.
    9000002   -1    0    0    0    0 -0.00000000000E+00 -0.00000000000E+00  0.00000000000E+00  0.93800000000E+00  0.93800000000E+00 0.  1.
         11    1    1    2    0    0 -0.65699079865E-01 -0.90788738848E-01  0.74546703678E+00  0.75384370280E+00  0.51100000000E-03 0. -1.
    9000002    1    1    2    0    0  0.32570760080E+00  0.46265726658E+00  0.22179887770E+00  0.11176653925E+01  0.93800000000E+00 0.  1.
         22    1    1    2    0    0 -0.26000852094E+00 -0.37186852774E+00  0.30327340529E+01  0.30664909047E+01  0.00000000000E+00 0. -1.
</event>
<event>
 5    1  0.6564536E+001  0.1597132E+01  0.7818608E-02  0.3356482E+00
         11   -1    0    0    0    0  0.00000000000E+00  0.00000000000E+00  0.39999999674E+01  0.40000000000E+01  0.51100000000E-03 0. -1.
    9000002   -1    0    0    0    0 -0.00000000000E+00 -0.00000000000E+00  0.00000000000E+00  0.93800000000E+00  0.93800000000E+00 0.  1.
         11    1    1    2    0    0  0.67152669360E-01 -0.39702629129E-01  0.35858769385E+00  0.36697571454E+00  0.51100000000E-03 0. -1.
    9000002    1    1    2    0    0 -0.56697659444E+00  0.67274904504E-01  0.22853782753E+00  0.11216335899E+01  0.93800000000E+00 0.  1.
         22    1    1    2    0    0  0.49982392508E+00 -0.27572275375E-01  0.34128744460E+01  0.34493906955E+01  0.00000000000E+00 0. -1.
</event>
<event>
 5    1  0.6564536E+001  0.1597421E+01  0.7818608E-02  0.3356167E+00
         11   -1    0    0    0    0  0.00000000000E+00  0.00000000000E+00  0.39999999674E+01  0.40000000000E+01  0.51100000000E-03 0. -1.
    9000002   -1    0    0    0    0 -0.00000000000E+00 -0.00000000000E+00  0.00000000000E+00  0.93800000000E+00  0.93800000000E+00 0. -1.
         11    1    1    2    0    0  0.41120655496E-01  0.69215312293E-01  0.61040511052E+00  0.61569174741E+00  0.51100000000E-03 0. -1.
    9000002    1    1    2    0    0 -0.35290575702E+00 -0.19194318719E+00  0.11076294436E+00  0.10264000635E+01  0.93800000000E+00 0. -1.
         22    1    1    2    0    0  0.31178510152E+00  0.12272787490E+00  0.32788319125E+01  0.32959081891E+01  0.00000000000E+00 0. -1.
</event>
<event>
 5    1  0.6564536E+001  0.1590591E+01  0.7818608E-02  0.3363639E+00
         11   -1    0    0    0    0  0.00000000000E+00  0.00000000000E+00  0.39999999674E+01  0.40000000000E+01  0.51100000000E-03 0. -1.
    9000002   -1    0    0    0    0 -0.00000000000E+00 -0.00000000000E+00  0.00000000000E+00  0.93800000000E+00  0.93800000000E+00 0. -1.
         11    1    1    2    0    0  0.16015556646E-01 -0.26653264081E-01  0.53810078419E+00  0.53899871021E+00  0.51100000000E-03 0. -1.
    9000002    1    1    2    0    0  0.39882135691E+00 -0.58436660801E-01  0.11724996185E+00  0.10276501699E+01  0.93800000000E+00 0. -1.
         22    1    1    2    0    0 -0.41483691356E+00  0.85089924882E-01  0.33446492213E+01  0.33713511199E+01  0.00000000000E+00 0. -1.
</event>
<event>
 5    1  0.6564536E+001  0.1599671E+01  0.7818608E-02  0.3353720E+00
         11   -1    0    0    0    0  0.00000000000E+00  0.00000000000E+00  0.39999999674E+01  0.40000000000E+01  0.51100000000E-03 0. -1.
    9000002   -1    0    0    0    0 -0.00000000000E+00 -0.00000000000E+00  0.00000000000E+00  0.93800000000E+00  0.93800000000E+00 0.  1.
         11    1    1    2    0    0 -0.10613586702E+00 -0.46307546396E-01  0.12525330287E+01  0.12578745805E+01  0.51100000000E-03 0. -1.
    9000002    1    1    2    0    0  0.32930197551E+00  0.13676311270E+00  0.85318349155E-01  0.10071083163E+01  0.93800000000E+00 0.  1.
         22    1    1    2    0    0 -0.22316610849E+00 -0.90455566303E-01  0.26621485895E+01  0.26730171032E+01  0.00000000000E+00 0. -1.
</event>
<event>
 5    1  0.6564536E+001  0.1599644E+01  0.7818608E-02  0.3353750E+00
         11   -1    0    0    0    0  0.00000000000E+00  0.00000000000E+00  0.39999999674E+01  0.40000000000E+01  0.51100000000E-03 0. -1.
    9000002   -1    0    0    0    0 -0.00000000000E+00 -0.00000000000E+00  0.00000000000E+00  0.93800000000E+00  0.93800000000E+00 0. -1.
         11    1    1    2    0    0 -0.51731500018E-01  0.80070612587E-01  0.10459885821E+01  0.10503236769E+01  0.51100000000E-03 0. -1.
    9000002    1    1    2    0    0  0.20207135902E+00 -0.31987118585E+00  0.96325148829E-01  0.10160083385E+01  0.93800000000E+00 0. -1.
         22    1    1    2    0    0 -0.15033985900E+00  0.23980057326E+00  0.28576862364E+01  0.28716679846E+01  0.00000000000E+00 0. -1.
</event>
<event>
 5    1  0.6564536E+001  0.1599644E+01  0.7818608E-02  0.3353750E+00
         11   -1    0    0    0    0  0.00000000000E+00  0.00000000000E+00  0.39999999674E+01  0.40000000000E+01  0.51100000000E-03 0.  1.
    9000002   -1    0    0    0    0 -0.00000000000E+00 -0.00000000000E+00  0.00000000000E+00  0.93800000000E+00  0.93800000000E+00 0. -1.
         11    1    1    2    0    0  0.99284785676E-01  0.41418347508E-01  0.89869443141E+00  0.90511042991E+00  0.51100000000E-03 0.  1.
    9000002    1    1    2    0    0 -0.40226410677E+00 -0.17764925400E+00  0.13117000120E+00  0.10442342832E+01  0.93800000000E+00 0. -1.
         22    1    1    2    0    0  0.30297932110E+00  0.13623090650E+00  0.29701355348E+01  0.29886552869E+01  0.00000000000E+00 0.  1.
</event>
<event>
 5    1  0.6564536E+001  0.1582902E+01  0.7818608E-02  0.3372132E+00
         11   -1    0    0    0    0  0.00000000000E+00  0.00000000000E+00  0.39999999674E+01  0.40000000000E+01  0.51100000000E-03 0. -1.
    9000002   -1    0    0    0    0 -0.00000000000E+00 -0.00000000000E+00  0.00000000000E+00  0.93800000000E+00  0.93800000000E+00 0. -1.
         11    1    1    2    0    0  0.84980229365E-01  0.56411087583E-01  0.47609982933E+00  0.48690364426E+00  0.51100000000E-03 0. -1.
    9000002    1    1    2    0    0  0.12561685168E+00 -0.30271800435E+00  0.85306277982E-01  0.99726573422E+00  0.93800000000E+00 0. -1.
         22    1    1    2    0    0 -0.21059708104E+00  0.24630691677E+00  0.34385938600E+01  0.34538306215E+01  0.00000000000E+00 0. -1.
</event>
<event>
 5    1  0.6564536E+001  0.1599675E+01  0.7818608E-02  0.3353716E+00
         11   -1    0    0    0    0  0.00000000000E+00  0.00000000000E+00  0.39999999674E+01  0.40000000000E+01  0.51100000000E-03 0. -1.
    9000002   -1    0    0    0    0 -0.00000000000E+00 -0.00000000000E+00  0.00000000000E+00  0.93800000000E+00  0.93800000000E+00 0.  1.
         11    1    1    2    0    0 -0.80455169749E-01  0.99927187879E-01  0.13650059395E+01  0.13710215000E+01  0.51100000000E-03 0. -1.
    9000002    1    1    2    0    0  0.23243022203E+00 -0.28244016122E+00  0.89873403077E-01  0.10108004162E+01  0.93800000000E+00 0.  1.
         22    1    1    2    0    0 -0.15197505228E+00  0.18251297334E+00  0.25451206247E+01  0.25561780839E+01  0.00000000000E+00 0. -1.
</event>
<event>
 5    1  0.6564536E+001  0.1549933E+01  0.7818608E-02  0.3409564E+00
         11   -1    0    0    0    0  0.00000000000E+00  0.00000000000E+00  0.39999999674E+01  0.40000000000E+01  0.51100000000E-03 0. -1.
    9000002   -1    0    0    0    0 -0.00000000000E+00 -0.00000000000E+00  0.00000000000E+00  0.93800000000E+00  0.93800000000E+00 0.  1.
         11    1    1    2    0    0  0.20965055420E+00  0.31813856280E+00  0.10847998996E+01  0.11497637076E+01  0.51100000000E-03 0. -1.
    9000002    1    1    2    0    0 -0.77527497418E-01 -0.54128733706E+00  0.25482279708E+00  0.11152493676E+01  0.93800000000E+00 0.  1.
         22    1    1    2    0    0 -0.13212305679E+00  0.22314877427E+00  0.26603772706E+01  0.26729869247E+01  0.00000000000E+00 0. -1.
</event>
<event>
 5    1  0.6564536E+001  0.1596725E+01  0.7818608E-02  0.3356926E+00
         11   -1    0    0    0    0  0.00000000000E+00  0.00000000000E+00  0.39999999674E+01  0.40000000000E+01  0.51100000000E-03 0. -1.
    9000002   -1    0    0    0    0 -0.00000000000E+00 -0.00000000000E+00  0.00000000000E+00  0.93800000000E+00  0.93800000000E+00 0.  1.
         11    1    1    2    0    0 -0.22027900846E+00  0.18180274776E+00  0.14109668156E+01  0.14395842096E+01  0.51100000000E-03 0. -1.
    9000002    1    1    2    0    0  0.48699699291E+00 -0.60490795739E+00  0.44451882094E+00  0.12963489847E+01  0.93800000000E+00 0.  1.
         22    1    1    2    0    0 -0.26671798444E+00  0.42310520963E+00  0.21445143308E+01  0.22020668057E+01  0.00000000000E+00 0. -1.
</event>
<event>
 5    1  0.6564536E+001  0.1599673E+01  0.7818608E-02  0.3353718E+00
         11   -1    0    0    0    0  0.00000000000E+00  0.00000000000E+00  0.39999999674E+01  0.40000000000E+01  0.51100000000E-03 0.  1.
    9000002   -1    0    0    0    0 -0.00000000000E+00 -0.00000000000E+00  0.00000000000E+00  0.93800000000E+00  0.93800000000E+00 0. -1.
         11    1    1    2    0    0 -0.14129871394E+00  0.36093431989E-01  0.10551674148E+01  0.10651979143E+01  0.51100000000E-03 0.  1.
    9000002    1    1    2    0    0  0.51200029961E+00 -0.12272413352E+00  0.19064139444E+00  0.10924255860E+01  0.93800000000E+00 0. -1.
         22    1    1    2    0    0 -0.37070158567E+00  0.86630701527E-01  0.27541911581E+01  0.27803764996E+01  0.00000000000E+00 0.  1.
</event>
<event>
 5    1  0.6564536E+001  0.1464710E+01  0.7818608E-02  0.3514703E+00
         11   -1    0    0    0    0  0.00000000000E+00  0.00000000000E+00  0.39999999674E+01  0.40000000000E+01  0.51100000000E-03 0. -1.
    9000002   -1    0    0    0    0 -0.00000000000E+00 -0.00000000000E+00  0.00000000000E+00  0.93800000000E+00  0.93800000000E+00 0. -1.
         11    1    1    2    0    0 -0.22979045920E+00  0.29212479093E+00  0.67348473522E+00  0.76923500851E+00  0.51100000000E-03 0. -1.
    9000002    1    1    2    0    0  0.85353583111E-01  0.14248521954E+00  0.15592547385E+00  0.96526888758E+00  0.93800000000E+00 0. -1.
         22    1    1    2    0    0  0.14443687609E+00 -0.43461001048E+00  0.31705897583E+01  0.32034961039E+01  0.00000000000E+00 0. -1.
</event>
<event>
 5    1  0.6564536E+001  0.1480392E+01  0.7818608E-02  0.3494375E+00
         11   -1    0    0    0    0  0.00000000000E+00  0.00000000000E+00  0.39999999674E+01  0.40000000000E+01  0.51100000000E-03 0.  1.
    9000002   -1    0    0    0    0 -0.00000000000E+00 -0.00000000000E+00  0.00000000000E+00  0.93800000000E+00  0.93800000000E+00 0.  1.
         11    1    1    2    0    0  0.29731919613E+00  0.78295620249E-01  0.98985996980E+00  0.10365094932E+01  0.51100000000E-03 0.  1.
    9000002    1    1    2    0    0  0.20554818389E+00  0.75998511285E-01  0.12798005993E+00  0.97172461395E+00  0.93800000000E+00 0.  1.
         22    1    1    2    0    0 -0.50286738001E+00 -0.15429413153E+00  0.28821599376E+01  0.29297658929E+01  0.00000000000E+00 0.  1.
</event>
<event>
 5    1  0.6564536E+001  0.1558238E+01  0.7818608E-02  0.3399976E+00
         11   -1    0    0    0    0  0.00000000000E+00  0.00000000000E+00  0.39999999674E+01  0.40000000000E+01  0.51100000000E-03 0.  1.
    9000002   -1    0    0    0    0 -0.00000000000E+00 -0.00000000000E+00  0.00000000000E+00  0.93800000000E+00  0.93800000000E+00 0.  1.
         11    1    1    2    0    0 -0.20096253822E+00  0.35459423237E-01  0.10126276513E+01  0.10329851566E+01  0.51100000000E-03 0.  1.
    9000002    1    1    2    0    0  0.62172705704E-01  0.28557130090E+00  0.89978687487E-01  0.98658835257E+00  0.93800000000E+00 0.  1.
         22    1    1    2    0    0  0.13878983252E+00 -0.32103072413E+00  0.28973936286E+01  0.29184264908E+01  0.00000000000E+00 0.  1.
</event>
<event>
 5    1  0.6564536E+001  0.1487066E+01  0.7818608E-02  0.3485865E+00
         11   -1    0    0    0    0  0.00000000000E+00  0.00000000000E+00  0.39999999674E+01  0.40000000000E+01  0.51100000000E-03 0. -1.
    9000002   -1    0    0    0    0 -0.00000000000E+00 -0.00000000000E+00  0.00000000000E+00  0.93800000000E+00  0.93800000000E+00 0.  1.
         11    1    1    2    0    0  0.22183044468E+00 -0.21608681783E+00  0.48789536369E+00  0.57787923137E+00  0.51100000000E-03 0. -1.
    9000002    1    1    2    0    0  0.53999696143E-01  0.40856787179E+00  0.21620934097E+00  0.10471075170E+01  0.93800000000E+00 0.  1.
         22    1    1    2    0    0 -0.27583014082E+00 -0.19248105397E+00  0.32958952627E+01  0.33130132516E+01  0.00000000000E+00 0. -1.
</event>
<event>
 5    1  0.6564536E+001  0.1598808E+01  0.7818608E-02  0.3354658E+00
         11   -1    0    0    0    0  0.00000000000E+00  0.00000000000E+00  0.39999999674E+01  0.40000000000E+01  0.51100000000E-03 0.  1.
    9000002   -1    0    0    0    0 -0.00000000000E+00 -0.00000000000E+00  0.00000000000E+00  0.93800000000E+00  0.93800000000E+00 0. -1.
         11    1    1    2    0    0 -0.16767606210E-01  0.96803319840E-02  0.31967737532E+00  0.32026355843E+00  0.51100000000E-03 0.  1.
    9000002    1    1    2    0    0  0.43683675832E+00 -0.80511775449E-01  0.13464223343E+00  0.10465567497E+01  0.93800000000E+00 0. -1.
         22    1    1    2    0    0 -0.42006915211E+00  0.70831443465E-01  0.35456803586E+01  0.35711796918E+01  0.00000000000E+00 0.  1.
</event>
<event>
 5    1  0.6564536E+001  0.1599462E+01  0.7818608E-02  0.3353948E+00
         11   -1    0    0    0    0  0.00000000000E+00  0.00000000000E+00  0.39999999674E+01  0.40000000000E+01  0.51100000000E-03 0. -1.
    9000002   -1    0    0    0    0 -0.00000000000E+00 -0.00000000000E+00  0.00000000000E+00  0.93800000000E+00  0.93800000000E+00 0. -1.
         11    1    1    2    0    0  0.69166882362E-02  0.23508673344E+00  0.14680113916E+01  0.14867317578E+01  0.51100000000E-03 0. -1.
    9000002    1    1    2    0    0  0.26253450617E-01 -0.59743853266E+00  0.24962047969E+00  0.11400773780E+01  0.93800000000E+00 0. -1.
         22    1    1    2    0    0 -0.33170138853E-01  0.36235179922E+00  0.22823680961E+01  0.23111908642E+01  0.00000000000E+00 0. -1.
</event>
<event>
 5    1  0.6564536E+001  0.1599629E+01  0.7818608E-02  0.3353766E+00
         11   -1    0    0    0    0  0.00000000000E+00  0.00000000000E+00  0.39999999674E+01  0.40000000000E+01  0.51100000000E-03 0. -1.
    9000002   -1    0    0    0    0 -0.00000000000E+00 -0.00000000000E+00  0.00000000000E+00  0.93800000000E+00  0.93800000000E+00 0. -1.
         11    1    1    2    0    0  0.74518991469E-01  0.39599944816E-01  0.91089632856E+00  0.91479703663E+00  0.51100000000E-03 0. -1.
    9000002    1    1    2    0    0 -0.34568036305E+00 -0.18339234353E+00  0.10321374191E+00  0.10215795327E+01  0.93800000000E+00 0. -1.
         22    1    1    2    0    0  0.27116137158E+00  0.14379239872E+00  0.29858898969E+01  0.30016234307E+01  0.00000000000E+00 0. -1.
</event>
<event>
 5    1  0.6564536E+001  0.1561060E+01  0.7818608E-02  0.3396743E+00
         11   -1    0    0    0    0  0.00000000000E+00  0.00000000000E+00  0.39999999674E+01  0.40000000000E+01  0.51100000000E-03 0.  1.
    9000002   -1    0    0    0    0 -0.00000000000E+00 -0.00000000000E+00  0.00000000000E+00  0.93800000000E+00  0.93800000000E+00 0.  1.
         11    1    1    2    0    0  0.11162187250E+00  0.22472838989E+00  0.13702787252E+01  0.13930636516E+01  0.51100000000E-03 0.  1.
    9000002    1    1    2    0    0  0.13348434835E+00 -0.18350743109E+00  0.63971399040E-01  0.96717598627E+00  0.93800000000E+00 0.  1.
         22    1    1    2    0    0 -0.24510622085E+00 -0.41220958800E-01  0.25657498431E+01  0.25777603621E+01  0.00000000000E+00 0.  1.
</event>
<event>
 5    1  0.6564536E+001  0.1599666E+01  0.7818608E-02  0.3353726E+00
         11   -1    0    0    0    0  0.00000000000E+00  0.00000000000E+00  0.39999999674E+01  0.40000000000E+01  0.51100000000E-03 0.  1.
    9000002   -1    0    0    0    0 -0.00000000000E+00 -0.00000000000E+00  0.00000000000E+00  0.93800000000E+00  0.93800000000E+00 0.  1.
         11    1    1    2    0    0 -0.15700816720E-01 -0.45624347349E-02  0.17185909964E+00  0.17263586738E+00  0.51100000000E-03 0.  1.
    9000002    1    1    2    0    0  0.38533813609E+00  0.12180330894E+00  0.11023135673E+00  0.10272859763E+01  0.93800000000E+00 0.  1.
         22    1    1    2    0    0 -0.36963731937E+00 -0.11724087420E+00  0.37179095110E+01  0.37380781563E+01  0.00000000000E+00 0.  1.
</event>
<event>
 5    1  0.6564536E+001  0.1599671E+01  0.7818608E-02  0.3353720E+00
         11   -1    0    0    0    0  0.00000000000E+00  0.00000000000E+00  0.39999999674E+01  0.40000000000E+01  0.51100000000E-03 0. -1.
    9000002   -1    0    0    0    0 -0.00000000000E+00 -0.00000000000E+00  0.00000000000E+00  0.93800000000E+00  0.93800000000E+00 0.  1.
         11    1    1    2    0    0 -0.64936080996E-01 -0.99110578884E-01  0.11018338676E+01  0.11081866875E+01  0.51100000000E-03 0. -1.
    9000002    1    1    2    0    0  0.22897169014E+00  0.35802202255E+00  0.12223403129E+00  0.10370115534E+01  0.93800000000E+00 0.  1.
         22    1    1    2    0    0 -0.16403560914E+00 -0.25891144367E+00  0.27759320684E+01  0.27928017590E+01  0.00000000000E+00 0. -1.
</event>
<event>
 5    1  0.6564536E+001  0.1598280E+01  0.7818608E-02  0.3355233E+00
         11   -1    0    0    0    0  0.00000000000E+00  0.00000000000E+00  0.39999999674E+01  0.40000000000E+01  0.51100000000E-03 0.  1.
    9000002   -1    0    0    0    0 -0.00000000000E+00 -0.00000000000E+00  0.00000000000E+00  0.93800000000E+00  0.93800000000E+00 0.  1.
         11    1    1    2    0    0  0.49748633270E-02 -0.21681224128E-02  0.40655977607E-01  0.41019747148E-01  0.51100000000E-03 0.  1.
    9000002    1    1    2    0    0  0.39047390639E+00  0.91984874231E-01  0.10973201020E+00  0.10260683226E+01  0.93800000000E+00 0.  1.
         22    1    1    2    0    0 -0.39544876971E+00 -0.89816751818E-01  0.38496119796E+01  0.38709119302E+01  0.00000000000E+00 0.  1.
</event>
<event>
 5    1  0.6564536E+001  0.1599258E+01  0.7818608E-02  0.3354169E+00
         11   -1    0    0    0    0  0.00000000000E+00  0.00000000000E+00  0.39999999674E+01  0.40000000000E+01  0.51100000000E-03 0.  1.
    9000002   -1    0    0    0    0 -0.00000000000E+00 -0.00000000000E+00  0.00000000000E+00  0.93800000000E+00  0.93800000000E+00 0. -1.
         11    1    1    2    0    0  0.15272998343E-01  0.31200359666E-01  0.24076129509E+00  0.24325498814E+00  0.51100000000E-03 0.  1.
    9000002    1    1    2    0    0 -0.33687939295E+00 -0.33187938600E+00  0.15278545327E+00  0.10615173324E+01  0.93800000000E+00 0. -1.
         22    1    1    2    0    0  0.32160639461E+00  0.30067902633E+00  0.36064532190E+01  0.36332276795E+01  0.00000000000E+00 0.  1.
</event>
<event>
 5    1  0.6564536E+001  0.1517799E+01  0.7818608E-02  0.3447717E+00
         11   -1    0    0    0    0  0.00000000000E+00  0.00000000000E+00  0.39999999674E+01  0.40000000000E+01  0.51100000000E-03 0. -1.
    9000002   -1    0    0    0    0 -0.00000000000E+00 -0.00000000000E+00  0.00000000000E+00  0.93800000000E+00  0.93800000000E+00 0. -1.
         11    1    1    2    0    0  0.27377699410E+00  0.98252971705E-01  0.12631813443E+01  0.12962387352E+01  0.51100000000E-03 0. -1.
    9000002    1    1    2    0    0  0.14196969890E+00 -0.17577940102E+00  0.98594278452E-01  0.96985495048E+00  0.93800000000E+00 0. -1.
         22    1    1    2    0    0 -0.41574669299E+00  0.77526429317E-01  0.26382243446E+01  0.26719063143E+01  0.00000000000E+00 0. -1.
</event>
<event>
 5    1  0.6564536E+001  0.1593105E+01  0.7818608E-02  0.3360881E+00
         11   -1    0    0    0    0  0.00000000000E+00  0.00000000000E+00  0.39999999674E+01  0.40000000000E+01  0.51100000000E-03 0.  1.
    9000002   -1    0    0    0    0 -0.00000000000E+00 -0.00000000000E+00  0.00000000000E+00  0.93800000000E+00  0.93800000000E+00 0.  1.
         11    1    1    2    0    0 -0.55972331355E-01  0.87380612464E-02  0.26117141457E+00  0.26724525160E+00  0.51100000000E-03 0.  1.
    9000002    1    1    2    0    0  0.13462812632E+00 -0.33633551318E+00  0.93474645505E-01  0.10098652480E+01  0.93800000000E+00 0.  1.
         22    1    1    2    0    0 -0.78655794967E-01  0.32759745193E+00  0.36453539073E+01  0.36608895004E+01  0.00000000000E+00 0.  1.
</event>
<event>
 5    1  0.6564536E+001  0.1500743E+01  0.7818608E-02  0.3468680E+00
         11   -1    0    0    0    0  0.00000000000E+00  0.00000000000E+00  0.39999999674E+01  0.40000000000E+01  0.51100000000E-03 0. -1.
    9000002   -1    0    0    0    0 -0.00000000000E+00 -0.00000000000E+00  0.00000000000E+00  0.93800000000E+00  0.93800000000E+00 0. -1.
         11    1    1    2    0    0 -0.28516009739E+00  0.13520681641E+00  0.12253113670E+01  0.12653005064E+01  0.51100000000E-03 0. -1.
    9000002    1    1    2    0    0 -0.95182552030E-01  0.65871417247E-01  0.85121939601E-01  0.94894072861E+00  0.93800000000E+00 0. -1.
         22    1    1    2    0    0  0.38034264942E+00 -0.20107823366E+00  0.26895666608E+01  0.27237587650E+01  0.00000000000E+00 0. -1.
</event>
<event>
 5    1  0.6564536E+001  0.1577081E+01  0.7818608E-02  0.3378621E+00
         11   -1    0    0    0    0  0.00000000000E+00  0.00000000000E+00  0.39999999674E+01  0.40000000000E+01  0.51100000000E-03 0. -1.
    9000002   -1    0    0    0    0 -0.00000000000E+00 -0.00000000000E+00  0.00000000000E+00  0.93800000000E+00  0.93800000000E+00 0. -1.
         11    1    1    2    0    0 -0.86076600083E-01 -0.17490828859E-01  0.77559245974E+00  0.78055046916E+00  0.51100000000E-03 0. -1.
    9000002    1    1    2    0    0 -0.18181444913E+00 -0.29855808544E+00  0.10034605335E+00  0.10060351657E+01  0.93800000000E+00 0. -1.
         22    1    1    2    0    0  0.26789104921E+00  0.31604891430E+00  0.31240614543E+01  0.31514143651E+01  0.00000000000E+00 0. -1.
</event>
<event>
 5    1  0.6564536E+001  0.1598287E+01  0.7818608E-02  0.3355225E+00
         11   -1    0    0    0    0  0.00000000000E+00  0.00000000000E+00  0.39999999674E+01  0.40000000000E+01  0.51100000000E-03 0.  1.
    9000002   -1    0    0    0    0 -0.00000000000E+00 -0.00000000000E+00  0.00000000000E+00  0.93800000000E+00  0.93800000000E+00 0. -1.
         11    1    1    2    0    0  0.64213398229E-01 -0.12589476790E+00  0.90382859643E+00  0.91481104385E+00  0.51100000000E-03 0.  1.
    9000002    1    1    2    0    0 -0.23660207012E+00  0.37896769909E+00  0.13669716187E+00  0.10479156314E+01  0.93800000000E+00 0. -1.
         22    1    1    2    0    0  0.17238867189E+00 -0.25307293119E+00  0.29594742091E+01  0.29752733247E+01  0.00000000000E+00 0.  1.
</event>
<event>
 5    1  0.6564536E+001  0.1599647E+01  0.7818608E-02  0.3353747E+00
         11   -1    0    0    0    0  0.00000000000E+00  0.00000000000E+00  0.39999999674E+01  0.40000000000E+01  0.51100000000E-03 0.  1.
    9000002   -1    0    0    0    0 -0.00000000000E+00 -0.00000000000E+00  0.00000000000E+00  0.93800000000E+00  0.93800000000E+00 0. -1.
         11    1    1    2    0    0  0.45293664795E-01  0.22268442466E+00  0.13409894559E+01  0.13601076616E+01  0.51100000000E-03 0.  1.
    9000002    1    1    2    0    0 -0.14183813960E+00 -0.62299688643E+00  0.28735382271E+00  0.11707516380E+01  0.93800000000E+00 0. -1.
         22    1    1    2    0    0  0.96544474803E-01  0.40031246177E+00  0.23716566887E+01  0.24071407005E+01  0.00000000000E+00 0. -1.
</event>
<event>
 5    1  0.6564536E+001  0.1599677E+01  0.7818608E-02  0.3353714E+00
         11   -1    0    0    0    0  0.00000000000E+00  0.00000000000E+00  0.39999999674E+01  0.40000000000E+01  0.51100000000E-03 0. -1.
    9000002   -1    0    0    0    0 -0.00000000000E+00 -0.00000000000E+00  0.00000000000E+00  0.93800000000E+00  0.93800000000E+00 0. -1.
         11    1    1    2    0    0 -0.64627897338E-01  0.22114084781E-01  0.70303610777E+00  0.70634681836E+00  0.51100000000E-03 0. -1.
    9000002    1    1    2    0    0  0.35738551541E+00 -0.12068140700E+00  0.95705513077E-01  0.10155254570E+01  0.93800000000E+00 0. -1.
         22    1    1    2    0    0 -0.29275761807E+00  0.98567322220E-01  0.32012583465E+01  0.32161277246E+01  0.00000000000E+00 0. -1.
</event>
<event>
 5    1  0.6564536E+001  0.1597976E+01  0.7818608E-02  0.3355564E+00
         11   -1    0    0    0    0  0.00000000000E+00  0.00000000000E+00  0.39999999674E+01  0.40000000000E+01  0.51100000000E-03 0.  1.
    9000002   -1    0    0    0    0 -0.00000000000E+00 -0.00000000000E+00  0.00000000000E+00  0.93800000000E+00  0.93800000000E+00 0.  1.
         11    1    1    2    0    0 -0.67927724115E-02 -0.14504962223E-01  0.20652087714E+00  0.20714166530E+00  0.51100000000E-03 0.  1.
    9000002    1    1    2    0    0  0.38875217729E+00 -0.55133680283E-01  0.10530191837E+00  0.10223015563E+01  0.93800000000E+00 0.  1.
         22    1    1    2    0    0 -0.38195940488E+00  0.69638642506E-01  0.36881771719E+01  0.37085567784E+01  0.00000000000E+00 0.  1.
</event>
<event>
 5    1  0.6564536E+001  0.1599431E+01  0.7818608E-02  0.3353982E+00
         11   -1    0    0    0    0  0.00000000000E+00  0.00000000000E+00  0.39999999674E+01  0.40000000000E+01  0.51100000000E-03 0. -1.
    9000002   -1    0    0    0    0 -0.00000000000E+00 -0.00000000000E+00  0.00000000000E+00  0.93800000000E+00  0.93800000000E+00 0. -1.
         11    1    1    2    0    0  0.21531586581E+00  0.25368923529E-01  0.12536006688E+01  0.12722104394E+01  0.51100000000E-03 0. -1.
    9000002    1    1    2    0    0 -0.59740616039E+00 -0.48735445521E-01  0.25087384441E+00  0.11410744717E+01  0.93800000000E+00 0. -1.
         22    1    1    2    0    0  0.38209029458E+00  0.23366521993E-01  0.24955254542E+01  0.25247150889E+01  0.00000000000E+00 0. -1.
</event>
<event>
 5    1  0.6564536E+001  0.1596092E+01  0.7818608E-02  0.3357616E+00
         11   -1    0    0    0    0  0.00000000000E+00  0.00000000000E+00  0.39999999674E+01  0.40000000000E+01  0.51100000000E-03 0.  1.
    9000002   -1    0    0    0    0 -0.00000000000E+00 -0.00000000000E+00  0.00000000000E+00  0.93800000000E+00  0.93800000000E+00 0. -1.
         11    1    1    2    0    0 -0.15767138643E-01  0.14090279518E-01  0.55393474948E+00  0.55433844034E+00  0.51100000000E-03 0.  1.
    9000002    1    1    2    0    0  0.23790356129E+00  0.23266423758E+00  0.76971643137E-01  0.99824815841E+00  0.93800000000E+00 0. -1.
         22    1    1    2    0    0 -0.22213642265E+00 -0.24675451709E+00  0.33690935747E+01  0.33854134013E+01  0.00000000000E+00 0.  1.
</event>
<event>
 5    1  0.6564536E+001  0.1599676E+01  0.7818608E-02  0.3353715E+00
         11   -1    0    0    0    0  0.00000000000E+00  0.00000000000E+00  0.39999999674E+01  0.40000000000E+01  0.51100000000E-03 0. -1.
    9000002   -1    0    0    0    0 -0.00000000000E+00 -0.00000000000E+00  0.00000000000E+00  0.93800000000E+00  0.93800000000E+00 0. -1.
         11    1    1    2    0    0  0.96010308840E-02  0.12270303744E-01  0.17029401001E+00  0.17100599731E+00  0.51100000000E-03 0.  1.
    9000002    1    1    2    0    0 -0.21615126879E+00 -0.28558061544E+00  0.86090889272E-01  0.10077367216E+01  0.93800000000E+00 0. -1.
         22    1    1    2    0    0  0.20655023790E+00  0.27331031170E+00  0.37436150681E+01  0.37592572811E+01  0.00000000000E+00 0. -1.
</event>
<event>
 5    1  0.6564536E+001  0.1585430E+01  0.7818608E-02  0.3369331E+00
         11   -1    0    0    0    0  0.00000000000E+00  0.00000000000E+00  0.39999999674E+01  0.40000000000E+01  0.51100000000E-03 0.  1.
    9000002   -1    0    0    0    0 -0.00000000000E+00 -0.00000000000E+00  0.00000000000E+00  0.93800000000E+00  0.93800000000E+00 0.  1.
         11    1    1    2    0    0  0.61047051348E-01 -0.30847278323E-01  0.44313935339E+00  0.44838715938E+00  0.51100000000E-03 0.  1.
    9000002    1    1    2    0    0  0.28067140805E-01 -0.29699390319E+00  0.70585198974E-01  0.98682288848E+00  0.93800000000E+00 0.  1.
         22    1    1    2    0    0 -0.89114192153E-01  0.32784118151E+00  0.34862754150E+01  0.35027899521E+01  0.00000000000E+00 0.  1.
</event>
<event>
 5    1  0.6564536E+001  0.1599405E+01  0.7818608E-02  0.3354010E+00
         11   -1    0    0    0    0  0.00000000000E+00  0.00000000000E+00  0.39999999674E+01  0.40000000000E+01  0.51100000000E-03 0. -1.
    9000002   -1    0    0    0    0 -0.00000000000E+00 -0.00000000000E+00  0.00000000000E+00  0.93800000000E+00  0.93800000000E+00 0.  1.
         11    1    1    2    0    0  0.37686892504E-01  0.58709389485E-01  0.77762336799E+00  0.78074673092E+00  0.51100000000E-03 0. -1.
    9000002    1    1    2    0    0 -0.25824698601E+00 -0.25491277095E+00  0.88636283559E-01  0.10096397463E+01  0.93800000000E+00 0.  1.
         22    1    1    2    0    0  0.22056009350E+00  0.19620338146E+00  0.31337403158E+01  0.31476135228E+01  0.00000000000E+00 0. -1.
</event>
<event>
 5    1  0.6564536E+001  0.1586224E+01  0.7818608E-02  0.3368453E+00
         11   -1    0    0    0    0  0.00000000000E+00  0.00000000000E+00  0.39999999674E+01  0.40000000000E+01  0.51100000000E-03 0. -1.
    9000002   -1    0    0    0    0 -0.00000000000E+00 -0.00000000000E+00  0.00000000000E+00  0.93800000000E+00  0.93800000000E+00 0. -1.
         11    1    1    2    0    0 -0.30847417266E+00 -0.11935083364E+00  0.13688707947E+01  0.14082643397E+01  0.51100000000E-03 0. -1.
    9000002    1    1    2    0    0  0.55351181298E+00  0.99731167295E-01  0.23197941971E+00  0.11180250820E+01  0.93800000000E+00 0. -1.
         22    1    1    2    0    0 -0.24503764032E+00  0.19619666345E-01  0.23991497530E+01  0.24117105783E+01  0.00000000000E+00 0.  1.
</event>
<event>
 5    1  0.6564536E+001  0.1599424E+01  0.7818608E-02  0.3353989E+00
         11   -1    0    0    0    0  0.00000000000E+00  0.00000000000E+00  0.39999999674E+01  0.40000000000E+01  0.51100000000E-03 0.  1.
    9000002   -1    0    0    0    0 -0.00000000000E+00 -0.00000000000E+00  0.00000000000E+00  0.93800000000E+00  0.93800000000E+00 0.  1.
         11    1    1    2    0    0 -0.97613679827E-01  0.11157210428E+00  0.11107386991E+01  0.11205880081E+01  0.51100000000E-03 0.  1.
    9000002    1    1    2    0    0  0.32524243299E+00 -0.44023781209E+00  0.20706309473E+00  0.11055817910E+01  0.93800000000E+00 0.  1.
         22    1    1    2    0    0 -0.22762875316E+00  0.32866570781E+00  0.26821981735E+01  0.27118302009E+01  0.00000000000E+00 0.  1.
</event>
<event>
 5    1  0.6564536E+001  0.1503091E+01  0.7818608E-02  0.3465764E+00
         11   -1    0    0    0    0  0.00000000000E+00  0.00000000000E+00  0.39999999674E+01  0.40000000000E+01  0.51100000000E-03 0. -1.
    9000002   -1    0    0    0    0 -0.00000000000E+00 -0.00000000000E+00  0.00000000000E+00  0.93800000000E+00  0.93800000000E+00 0. -1.
         11    1    1    2    0    0 -0.13539532980E+00 -0.52243195137E-01  0.49950123585E+00  0.52015669995E+00  0.51100000000E-03 0. -1.
    9000002    1    1    2    0    0 -0.24281242911E-01 -0.10983204640E+01  0.13680651983E+01  0.19895586966E+01  0.93800000000E+00 0. -1.
         22    1    1    2    0    0  0.15967657271E+00  0.11505636592E+01  0.21324335332E+01  0.24282846034E+01  0.00000000000E+00 0. -1.
</event>
<event>
 5    1  0.6564536E+001  0.1597223E+01  0.7818608E-02  0.3356383E+00
         11   -1    0    0    0    0  0.00000000000E+00  0.00000000000E+00  0.39999999674E+01  0.40000000000E+01  0.51100000000E-03 0.  1.
    9000002   -1    0    0    0    0 -0.00000000000E+00 -0.00000000000E+00  0.00000000000E+00  0.93800000000E+00  0.93800000000E+00 0. -1.
         11    1    1    2    0    0 -0.14616719187E-01 -0.49244368077E-01  0.48573293039E+00  0.48844180518E+00  0.51100000000E-03 0.  1.
    9000002    1    1    2    0    0  0.42457744156E+00  0.37349072648E+00  0.22387714042E+00  0.11179115800E+01  0.93800000000E+00 0. -1.
         22    1    1    2    0    0 -0.40996072237E+00 -0.32424635841E+00  0.32903898966E+01  0.33316466148E+01  0.00000000000E+00 0.  1.
</event>
<event>
 5    1  0.6564536E+001  0.1599652E+01  0.7818608E-02  0.3353741E+00
         11   -1    0    0    0    0  0.00000000000E+00  0.00000000000E+00  0.39999999674E+01  0.40000000000E+01  0.51100000000E-03 0. -1.
    9000002   -1    0    0    0    0 -0.00000000000E+00 -0.00000000000E+00  0.00000000000E+00  0.93800000000E+00  0.93800000000E+00 0.  1.
         11    1    1    2    0    0  0.33692747220E-01 -0.49755001183E-01  0.51291385158E+00  0.51642196082E+00  0.51100000000E-03 0.  1.
    9000002    1    1    2    0    0 -0.28082872707E+00  0.36103926803E+00  0.14227308718E+00  0.10532330029E+01  0.93800000000E+00 0.  1.
         22    1    1    2    0    0  0.24713597985E+00 -0.31128426684E+00  0.33448130286E+01  0.33683450363E+01  0.00000000000E+00 0. -1.
</event>
<event>
 5    1  0.6564536E+001  0.1599677E+01  0.7818608E-02  0.3353714E+00
         11   -1    0    0    0    0  0.00000000000E+00  0.00000000000E+00  0.39999999674E+01  0.40000000000E+01  0.51100000000E-03 0.  1.
    9000002   -1    0    0    0    0 -0.00000000000E+00 -0.00000000000E+00  0.00000000000E+00  0.93800000000E+00  0.93800000000E+00 0. -1.
         11    1    1    2    0    0 -0.71252893960E-01 -0.22343447062E-02  0.66352057451E+00  0.66733932981E+00  0.51100000000E-03 0. -1.
    9000002    1    1    2    0    0  0.41615469308E+00  0.13879527088E-01  0.11719876883E+00  0.10329360683E+01  0.93800000000E+00 0. -1.
         22    1    1    2    0    0 -0.34490179912E+00 -0.11645182382E-01  0.32192806240E+01  0.32377246019E+01  0.00000000000E+00 0.  1.
</event>
<event>
 5    1  0.6564536E+001  0.1561351E+01  0.7818608E-02  0.3396411E+00
         11   -1    0    0    0    0  0.00000000000E+00  0.00000000000E+00  0.39999999674E+01  0.40000000000E+01  0.51100000000E-03 0. -1.
    9000002   -1    0    0    0    0 -0.00000000000E+00 -0.00000000000E+00  0.00000000000E+00  0.93800000000E+00  0.93800000000E+00 0. -1.
         11    1    1    2    0    0  0.12857322959E-01  0.10094089996E+00  0.10850170854E+00  0.14875233752E+00  0.51100000000E-03 0. -1.
    9000002    1    1    2    0    0  0.39704173629E+00 -0.53672808422E+00  0.35835795564E+00  0.12058124237E+01  0.93800000000E+00 0. -1.
         22    1    1    2    0    0 -0.40989905925E+00  0.43578718426E+00  0.35331403032E+01  0.35834352388E+01  0.00000000000E+00 0. -1.
</event>
<event>
 5    1  0.6564536E+001  0.1599674E+01  0.7818608E-02  0.3353717E+00
         11   -1    0    0    0    0  0.00000000000E+00  0.00000000000E+00  0.39999999674E+01  0.40000000000E+01  0.51100000000E-03 0.  1.
    9000002   -1    0    0    0    0 -0.00000000000E+00 -0.00000000000E+00  0.00000000000E+00  0.93800000000E+00  0.93800000000E+00 0. -1.
         11    1    1    2    0    0 -0.22117528037E-01  0.36694452935E-01  0.34659827288E+00  0.34923672746E+00  0.51100000000E-03 0.  1.
    9000002    1    1    2    0    0  0.25627179450E+00 -0.40462159238E+00  0.15649577117E+00  0.10647670130E+01  0.93800000000E+00 0. -1.
         22    1    1    2    0    0 -0.23415426647E+00  0.36792713945E+00  0.34969059233E+01  0.35239962595E+01  0.00000000000E+00 0.  1.
</event>
<event>
 5    1  0.6564536E+001  0.1549539E+01  0.7818608E-02  0.3410022E+00
         11   -1    0    0    0    0  0.00000000000E+00  0.00000000000E+00  0.39999999674E+01  0.40000000000E+01  0.51100000000E-03 0.  1.
    9000002   -1    0    0    0    0 -0.00000000000E+00 -0.00000000000E+00  0.00000000000E+00  0.93800000000E+00  0.93800000000E+00 0. -1.
         11    1    1    2    0    0 -0.94184746559E-01  0.16000426300E+00  0.78744343879E+00  0.80903619269E+00  0.51100000000E-03 0.  1.
    9000002    1    1    2    0    0 -0.50214995676E-02  0.16883469953E+00  0.57022367400E-01  0.95479103557E+00  0.93800000000E+00 0. -1.
         22    1    1    2    0    0  0.99206246127E-01 -0.32883896253E+00  0.31555341612E+01  0.31741727717E+01  0.00000000000E+00 0.  1.
</event>
<event>
 5    1  0.6564536E+001  0.1599674E+01  0.7818608E-02  0.3353718E+00
         11   -1    0    0    0    0  0.00000000000E+00  0.00000000000E+00  0.39999999674E+01  0.40000000000E+01  0.51100000000E-03 0.  1.
    9000002   -1    0    0    0    0 -0.00000000000E+00 -0.00000000000E+00  0.00000000000E+00  0.93800000000E+00  0.93800000000E+00 0. -1.
         11    1    1    2    0    0  0.31462926719E-01 -0.88982647409E-01  0.60380822167E+00  0.61114029239E+00  0.51100000000E-03 0.  1.
    9000002    1    1    2    0    0 -0.18798622703E+00  0.54909425233E+00  0.23405746760E+00  0.11275948819E+01  0.93800000000E+00 0. -1.
         22    1    1    2    0    0  0.15652330031E+00 -0.46011160492E+00  0.31621342781E+01  0.31992648257E+01  0.00000000000E+00 0.  1.
</event>
<event>
 5    1  0.6564536E+001  0.1591131E+01  0.7818608E-02  0.3363046E+00
         11   -1    0    0    0    0  0.00000000000E+00  0.00000000000E+00  0.39999999674E+01  0.40000000000E+01  0.51100000000E-03 0. -1.
    9000002   -1    0    0    0    0 -0.00000000000E+00 -0.00000000000E+00  0.00000000000E+00  0.93800000000E+00  0.93800000000E+00 0.  1.
         11    1    1    2    0    0  0.37312655860E-01 -0.57117042984E-01  0.10087351791E+01  0.10110398180E+01  0.51100000000E-03 0. -1.
    9000002    1    1    2    0    0  0.20329186969E+00  0.36389331173E+00  0.12468660845E+00  0.10339906561E+01  0.93800000000E+00 0.  1.
         22    1    1    2    0    0 -0.24060452555E+00 -0.30677626875E+00  0.28665781798E+01  0.28929695259E+01  0.00000000000E+00 0. -1.
</event>
<event>
 5    1  0.6564536E+001  0.1599677E+01  0.7818608E-02  0.3353714E+00
         11   -1    0    0    0    0  0.00000000000E+00  0.00000000000E+00  0.39999999674E+01  0.40000000000E+01  0.51100000000E-03 0.  1.
    9000002   -1    0    0    0    0 -0.00000000000E+00 -0.00000000000E+00  0.00000000000E+00  0.93800000000E+00  0.93800000000E+00 0.  1.
         11    1    1    2    0    0 -0.68919471124E-01 -0.40798385086E-01  0.76853016086E+00  0.77269222269E+00  0.51100000000E-03 0.  1.
    9000002    1    1    2    0    0  0.35112475338E+00  0.20667723501E+00  0.11208145257E+00  0.10287907095E+01  0.93800000000E+00 0.  1.
         22    1    1    2    0    0 -0.28220528225E+00 -0.16587884993E+00  0.31193883539E+01  0.31365170678E+01  0.00000000000E+00 0.  1.
</event>
<event>
 5    1  0.6564536E+001  0.1594945E+01  0.7818608E-02  0.3358868E+00
         11   -1    0    0    0    0  0.00000000000E+00  0.00000000000E+00  0.39999999674E+01  0.40000000000E+01  0.51100000000E-03 0.  1.
    9000002   -1    0    0    0    0 -0.00000000000E+00 -0.00000000000E+00  0.00000000000E+00  0.93800000000E+00  0.93800000000E+00 0.  1.
         11    1    1    2    0    0 -0.21783982671E-01  0.68903531264E-01  0.76126567302E+00  0.76468812242E+00  0.51100000000E-03 0.  1.
    9000002    1    1    2    0    0 -0.22407603353E+00 -0.35304161234E+00  0.12222060261E+00  0.10342293385E+01  0.93800000000E+00 0.  1.
         22    1    1    2    0    0  0.24586001620E+00  0.28413808107E+00  0.31165136917E+01  0.31390825391E+01  0.00000000000E+00 0.  1.
</event>
<event>
 5    1  0.6564536E+001  0.1599677E+01  0.7818608E-02  0.3353714E+00
         11   -1    0    0    0    0  0.00000000000E+00  0.00000000000E+00  0.39999999674E+01  0.40000000000E+01  0.51100000000E-03 0. -1.
    9000002   -1    0    0    0    0 -0.00000000000E+00 -0.00000000000E+00  0.00000000000E+00  0.93800000000E+00  0.93800000000E+00 0. -1.
         11    1    1    2    0    0  0.44024081748E-01 -0.13546322065E-01  0.40605492567E+00  0.40865937698E+00  0.51100000000E-03 0.  1.
    9000002    1    1    2    0    0 -0.41836612110E+00  0.12839991228E+00  0.12984219804E+00  0.10431777150E+01  0.93800000000E+00 0. -1.
         22    1    1    2    0    0  0.37434203935E+00 -0.11485359021E+00  0.34641028437E+01  0.34861629080E+01  0.00000000000E+00 0. -1.
</event>
<event>
 5    1  0.6564536E+001  0.1539057E+01  0.7818608E-02  0.3422286E+00
         11   -1    0    0    0    0  0.00000000000E+00  0.00000000000E+00  0.39999999674E+01  0.40000000000E+01  0.51100000000E-03 0.  1.
    9000002   -1    0    0    0    0 -0.00000000000E+00 -0.00000000000E+00  0.00000000000E+00  0.93800000000E+00  0.93800000000E+00 0.  1.
         11    1    1    2    0    0  0.25840649860E+00  0.25617428746E-01  0.91471011695E+00  0.95085489447E+00  0.51100000000E-03 0.  1.
    9000002    1    1    2    0    0 -0.72946540205E-01  0.19587692476E+00  0.75984641847E-01  0.96400551512E+00  0.93800000000E+00 0.  1.
         22    1    1    2    0    0 -0.18545995840E+00 -0.22149435350E+00  0.30093052086E+01  0.30231395904E+01  0.00000000000E+00 0.  1.
</event>
<event>
 5    1  0.6564536E+001  0.1599671E+01  0.7818608E-02  0.3353721E+00
         11   -1    0    0    0    0  0.00000000000E+00  0.00000000000E+00  0.39999999674E+01  0.40000000000E+01  0.51100000000E-03 0.  1.
    9000002   -1    0    0    0    0 -0.00000000000E+00 -0.00000000000E+00  0.00000000000E+00  0.93800000000E+00  0.93800000000E+00 0.  1.
         11    1    1    2    0    0 -0.44215529129E-01  0.52440348906E-01  0.68845015042E+00  0.69185899860E+00  0.51100000000E-03 0.  1.
    9000002    1    1    2    0    0  0.24284769294E+00 -0.28696276068E+00  0.95046295888E-01  0.10149878947E+01  0.93800000000E+00 0.  1.
         22    1    1    2    0    0 -0.19863216381E+00  0.23452241177E+00  0.32165035210E+01  0.32311531067E+01  0.00000000000E+00 0.  1.
</event>
<event>
 5    1  0.6564536E+001  0.1599660E+01  0.7818608E-02  0.3353733E+00
         11   -1    0    0    0    0  0.00000000000E+00  0.00000000000E+00  0.39999999674E+01  0.40000000000E+01  0.51100000000E-03 0. -1.
    9000002   -1    0    0    0    0 -0.00000000000E+00 -0.00000000000E+00  0.00000000000E+00  0.93800000000E+00  0.93800000000E+00 0. -1.
         11    1    1    2    0    0 -0.10926577934E-01  0.65489246515E-01  0.35589766208E+00  0.36203817272E+00  0.51100000000E-03 0. -1.
    9000002    1    1    2    0    0  0.87352988296E-01 -0.66139257849E+00  0.31540204439E+00  0.11934794246E+01  0.93800000000E+00 0. -1.
         22    1    1    2    0    0 -0.76426410361E-01  0.59590333197E+00  0.33287002609E+01  0.33824824026E+01  0.00000000000E+00 0. -1.
</event>
<event>
 5    1  0.6564536E+001  0.1599267E+01  0.7818608E-02  0.3354160E+00
         11   -1    0    0    0    0  0.00000000000E+00  0.00000000000E+00  0.39999999674E+01  0.40000000000E+01  0.51100000000E-03 0. -1.
    9000002   -1    0    0    0    0 -0.00000000000E+00 -0.00000000000E+00  0.00000000000E+00  0.93800000000E+00  0.93800000000E+00 0.  1.
         11    1    1    2    0    0 -0.16972609577E-01  0.11175726258E+00  0.13801847416E+01  0.13848061010E+01  0.51100000000E-03 0. -1.
    9000002    1    1    2    0    0  0.99856642510E-01 -0.35745898671E+00  0.92919450107E-01  0.10130282822E+01  0.93800000000E+00 0.  1.
         22    1    1    2    0    0 -0.82884032933E-01  0.24570172413E+00  0.25268957757E+01  0.25401656169E+01  0.00000000000E+00 0. -1.
</event>
<event>
 5    1  0.6564536E+001  0.1598125E+01  0.7818608E-02  0.3355401E+00
         11   -1    0    0    0    0  0.00000000000E+00  0.00000000000E+00  0.39999999674E+01  0.40000000000E+01  0.51100000000E-03 0. -1.
    9000002   -1    0    0    0    0 -0.00000000000E+00 -0.00000000000E+00  0.00000000000E+00  0.93800000000E+00  0.93800000000E+00 0. -1.
         11    1    1    2    0    0  0.54818000036E-01  0.60222875995E-01  0.76542672555E+00  0.76974680333E+00  0.51100000000E-03 0. -1.
    9000002    1    1    2    0    0 -0.38427286141E+00 -0.14631854904E+00  0.11551384628E+00  0.10306610493E+01  0.93800000000E+00 0. -1.
         22    1    1    2    0    0  0.32945486138E+00  0.86095673043E-01  0.31190593955E+01  0.31375921474E+01  0.00000000000E+00 0. -1.
</event>
<event>
 5    1  0.6564536E+001  0.1599582E+01  0.7818608E-02  0.3353818E+00
         11   -1    0    0    0    0  0.00000000000E+00  0.00000000000E+00  0.39999999674E+01  0.40000000000E+01  0.51100000000E-03 0.  1.
    9000002   -1    0    0    0    0 -0.00000000000E+00 -0.00000000000E+00  0.00000000000E+00  0.93800000000E+00  0.93800000000E+00 0.  1.
         11    1    1    2    0    0 -0.67249874097E-01  0.12044119219E+00  0.13264889880E+01  0.13336423519E+01  0.51100000000E-03 0.  1.
    9000002    1    1    2    0    0  0.17249921890E+00 -0.33374072786E+00  0.94992713888E-01  0.10148923439E+01  0.93800000000E+00 0.  1.
         22    1    1    2    0    0 -0.10524934480E+00  0.21329953567E+00  0.25785182655E+01  0.25894653043E+01  0.00000000000E+00 0.  1.
</event>
<event>
 5    1  0.6564536E+001  0.1459509E+01  0.7818608E-02  0.3521549E+00
         11   -1    0    0    0    0  0.00000000000E+00  0.00000000000E+00  0.39999999674E+01  0.40000000000E+01  0.51100000000E-03 0. -1.
    9000002   -1    0    0    0    0 -0.00000000000E+00 -0.00000000000E+00  0.00000000000E+00  0.93800000000E+00  0.93800000000E+00 0. -1.
         11    1    1    2    0    0 -0.44998827700E+00 -0.70189973257E-01  0.13031437933E+01  0.13804347464E+01  0.51100000000E-03 0. -1.
    9000002    1    1    2    0    0  0.75458842457E-01  0.62377211246E-01  0.11662170294E+00  0.95027868280E+00  0.93800000000E+00 0. -1.
         22    1    1    2    0    0  0.37452943454E+00  0.78127620105E-02  0.25802344711E+01  0.26072865708E+01  0.00000000000E+00 0. -1.
</event>
<event>
 5    1  0.6564536E+001  0.1599677E+01  0.7818608E-02  0.3353714E+00
         11   -1    0    0    0    0  0.00000000000E+00  0.00000000000E+00  0.39999999674E+01  0.40000000000E+01  0.51100000000E-03 0. -1.
    9000002   -1    0    0    0    0 -0.00000000000E+00 -0.00000000000E+00  0.00000000000E+00  0.93800000000E+00  0.93800000000E+00 0.  1.
         11    1    1    2    0    0 -0.12478184198E+00 -0.94288971687E-01  0.12945918638E+01  0.13040050894E+01  0.51100000000E-03 0. -1.
    9000002    1    1    2    0    0  0.37177235610E+00  0.27933214359E+00  0.14719993673E+00  0.10572383613E+01  0.93800000000E+00 0.  1.
         22    1    1    2    0    0 -0.24699051412E+00 -0.18504317190E+00  0.25582081669E+01  0.25767565493E+01  0.00000000000E+00 0. -1.
</event>
<event>
 5    1  0.6564536E+001  0.1587113E+01  0.7818608E-02  0.3367470E+00
         11   -1    0    0    0    0  0.00000000000E+00  0.00000000000E+00  0.39999999674E+01  0.40000000000E+01  0.51100000000E-03 0. -1.
    9000002   -1    0    0    0    0 -0.00000000000E+00 -0.00000000000E+00  0.00000000000E+00  0.93800000000E+00  0.93800000000E+00 0. -1.
         11    1    1    2    0    0 -0.87386128749E-01 -0.18508838012E-01  0.47681428930E+00  0.48510930746E+00  0.51100000000E-03 0. -1.
    9000002    1    1    2    0    0  0.15269530076E+00 -0.30385325697E+00  0.87580677670E-01  0.10015772720E+01  0.93800000000E+00 0. -1.
         22    1    1    2    0    0 -0.65309172015E-01  0.32236209498E+00  0.34356050004E+01  0.34513134206E+01  0.00000000000E+00 0. -1.
</event>
<event>
 5    1  0.6564536E+001  0.1584425E+01  0.7818608E-02  0.3370443E+00
         11   -1    0    0    0    0  0.00000000000E+00  0.00000000000E+00  0.39999999674E+01  0.40000000000E+01  0.51100000000E-03 0.  1.
    9000002   -1    0    0    0    0 -0.00000000000E+00 -0.00000000000E+00  0.00000000000E+00  0.93800000000E+00  0.93800000000E+00 0.  1.
         11    1    1    2    0    0 -0.43198506020E-01  0.46656424645E-01  0.76251267336E+00  0.76515931088E+00  0.51100000000E-03 0.  1.
    9000002    1    1    2    0    0  0.16961733547E+00  0.36167132842E+00  0.12042600734E+00  0.10266073317E+01  0.93800000000E+00 0.  1.
         22    1    1    2    0    0 -0.12641882945E+00 -0.40832775307E+00  0.31170612867E+01  0.31462333574E+01  0.00000000000E+00 0.  1.
</event>
<event>
 5    1  0.6564536E+001  0.1599658E+01  0.7818608E-02  0.3353735E+00
         11   -1    0    0    0    0  0.00000000000E+00  0.00000000000E+00  0.39999999674E+01  0.40000000000E+01  0.51100000000E-03 0.  1.
    9000002   -1    0    0    0    0 -0.00000000000E+00 -0.00000000000E+00  0.00000000000E+00  0.93800000000E+00  0.93800000000E+00 0.  1.
         11    1    1    2    0    0  0.13271195422E+00 -0.14684678867E-01  0.12131576001E+01  0.12204833987E+01  0.51100000000E-03 0.  1.
    9000002    1    1    2    0    0 -0.42101043108E+00  0.62186354826E-01  0.12259995847E+00  0.10373001859E+01  0.93800000000E+00 0.  1.
         22    1    1    2    0    0  0.28829847686E+00 -0.47501675959E-01  0.26642424087E+01  0.26802164154E+01  0.00000000000E+00 0. -1.
</event>
<event>
 5    1  0.6564536E+001  0.1599567E+01  0.7818608E-02  0.3353833E+00
         11   -1    0    0    0    0  0.00000000000E+00  0.00000000000E+00  0.39999999674E+01  0.40000000000E+01  0.51100000000E-03 0.  1.
    9000002   -1    0    0    0    0 -0.00000000000E+00 -0.00000000000E+00  0.00000000000E+00  0.93800000000E+00  0.93800000000E+00 0. -1.
         11    1    1    2    0    0  0.67051646656E-02  0.32062592118E-01  0.34184375180E+00  0.34340993115E+00  0.51100000000E-03 0.  1.
    9000002    1    1    2    0    0 -0.15731285693E+00 -0.37030491340E+00  0.10931100314E+00  0.10264823229E+01  0.93800000000E+00 0. -1.
         22    1    1    2    0    0  0.15060769226E+00  0.33824232129E+00  0.35488452124E+01  0.35681077459E+01  0.00000000000E+00 0.  1.
</event>
<event>
 5    1  0.6564536E+001  0.1597358E+01  0.7818608E-02  0.3356236E+00
         11   -1    0    0    0    0  0.00000000000E+00  0.00000000000E+00  0.39999999674E+01  0.40000000000E+01  0.51100000000E-03 0. -1.
    9000002   -1    0    0    0    0 -0.00000000000E+00 -0.00000000000E+00  0.00000000000E+00  0.93800000000E+00  0.93800000000E+00 0. -1.
         11    1    1    2    0    0 -0.53561244965E-02  0.97676385183E-02  0.51147010849E+00  0.51159166122E+00  0.51100000000E-03 0. -1.
    9000002    1    1    2    0    0  0.24917205083E+00 -0.28883406524E+00  0.99831184502E-01  0.10175077855E+01  0.93800000000E+00 0. -1.
         22    1    1    2    0    0 -0.24381592633E+00  0.27906642672E+00  0.33886986744E+01  0.34089005533E+01  0.00000000000E+00 0. -1.
</event>
<event>
 5    1  0.6564536E+001  0.1599576E+01  0.7818608E-02  0.3353824E+00
         11   -1    0    0    0    0  0.00000000000E+00  0.00000000000E+00  0.39999999674E+01  0.40000000000E+01  0.51100000000E-03 0. -1.
    9000002   -1    0    0    0    0 -0.00000000000E+00 -0.00000000000E+00  0.00000000000E+00  0.93800000000E+00  0.93800000000E+00 0.  1.
         11    1    1    2    0    0  0.75052762806E-02  0.18161808243E-01  0.20818088454E+00  0.20910696368E+00  0.51100000000E-03 0. -1.
    9000002    1    1    2    0    0 -0.49403302360E-01 -0.38455991264E+00  0.10132490464E+00  0.10200185042E+01  0.93800000000E+00 0.  1.
         22    1    1    2    0    0  0.41898026079E-01  0.36639810440E+00  0.36904941782E+01  0.37088745321E+01  0.00000000000E+00 0. -1.
</event>
<event>
 5    1  0.6564536E+001  0.1577049E+01  0.7818608E-02  0.3378656E+00
         11   -1    0    0    0    0  0.00000000000E+00  0.00000000000E+00  0.39999999674E+01  0.40000000000E+01  0.51100000000E-03 0. -1.
    9000002   -1    0    0    0    0 -0.00000000000E+00 -0.00000000000E+00  0.00000000000E+00  0.93800000000E+00  0.93800000000E+00 0. -1.
         11    1    1    2    0    0 -0.16776707369E+00  0.16781216539E+00  0.14291698360E+01  0.14487351018E+01  0.51100000000E-03 0. -1.
    9000002    1    1    2    0    0  0.38476749485E+00  0.13418320169E-01  0.11866866269E+00  0.10208586229E+01  0.93800000000E+00 0. -1.
         22    1    1    2    0    0 -0.21700042116E+00 -0.18123048556E+00  0.24521614686E+01  0.24684062753E+01  0.00000000000E+00 0. -1.
</event>
<event>
 5    1  0.6564536E+001  0.1587832E+01  0.7818608E-02  0.3366676E+00
         11   -1    0    0    0    0  0.00000000000E+00  0.00000000000E+00  0.39999999674E+01  0.40000000000E+01  0.51100000000E-03 0.  1.
    9000002   -1    0    0    0    0 -0.00000000000E+00 -0.00000000000E+00  0.00000000000E+00  0.93800000000E+00  0.93800000000E+00 0. -1.
         11    1    1    2    0    0  0.30210875020E-01  0.11647386181E+00  0.40803884356E+00  0.42541134968E+00  0.51100000000E-03 0.  1.
    9000002    1    1    2    0    0  0.66950998930E-01 -0.41569016234E+00  0.12998710823E+00  0.10363500353E+01  0.93800000000E+00 0. -1.
         22    1    1    2    0    0 -0.97161873950E-01  0.29921630053E+00  0.34619740156E+01  0.34762386150E+01  0.00000000000E+00 0.  1.
</event>
<event>
 5    1  0.6564536E+001  0.1599527E+01  0.7818608E-02  0.3353877E+00
         11   -1    0    0    0    0  0.00000000000E+00  0.00000000000E+00  0.39999999674E+01  0.40000000000E+01  0.51100000000E-03 0. -1.
    9000002   -1    0    0    0    0 -0.00000000000E+00 -0.00000000000E+00  0.00000000000E+00  0.93800000000E+00  0.93800000000E+00 0.  1.
         11    1    1    2    0    0  0.45140407419E-01 -0.49399724858E-01  0.43043857779E+00  0.43560948058E+00  0.51100000000E-03 0. -1.
    9000002    1    1    2    0    0 -0.36432195002E+00  0.36303743417E+00  0.18166412337E+00  0.10850679774E+01  0.93800000000E+00 0.  1.
         22    1    1    2    0    0  0.31918154260E+00 -0.31363770931E+00  0.33878972662E+01  0.34173225420E+01  0.00000000000E+00 0. -1.
</event>
<event>
 5    1  0.6564536E+001  0.1599665E+01  0.7818608E-02  0.3353727E+00
         11   -1    0    0    0    0  0.00000000000E+00  0.00000000000E+00  0.39999999674E+01  0.40000000000E+01  0.51100000000E-03 0. -1.
    9000002   -1    0    0    0    0 -0.00000000000E+00 -0.00000000000E+00  0.00000000000E+00  0.93800000000E+00  0.93800000000E+00 0.  1.
         11    1    1    2    0    0  0.11205819303E+00  0.10123992966E+00  0.12786467277E+01  0.12875341849E+01  0.51100000000E-03 0. -1.
    9000002    1    1    2    0    0 -0.32653984327E+00 -0.30629514210E+00  0.13610395770E+00  0.10482429445E+01  0.93800000000E+00 0.  1.
         22    1    1    2    0    0  0.21448165024E+00  0.20505521244E+00  0.25852492819E+01  0.26022228706E+01  0.00000000000E+00 0. -1.
</event>
<event>
 5    1  0.6564536E+001  0.1590275E+01  0.7818608E-02  0.3363986E+00
         11   -1    0    0    0    0  0.00000000000E+00  0.00000000000E+00  0.39999999674E+01  0.40000000000E+01  0.51100000000E-03 0.  1.
    9000002   -1    0    0    0    0 -0.00000000000E+00 -0.00000000000E+00  0.00000000000E+00  0.93800000000E+00  0.93800000000E+00 0.  1.
         11    1    1    2    0    0  0.43486548453E-01  0.59676059366E-01  0.12420133893E+01  0.12442065071E+01  0.51100000000E-03 0.  1.
    9000002    1    1    2    0    0 -0.46533522779E+00 -0.11373132444E+00  0.16491179304E+00  0.10660729749E+01  0.93800000000E+00 0.  1.
         22    1    1    2    0    0  0.42184867934E+00  0.54055265071E-01  0.25930747850E+01  0.26277205180E+01  0.00000000000E+00 0.  1.
</event>
<event>
 5    1  0.6564536E+001  0.1599675E+01  0.7818608E-02  0.3353716E+00
         11   -1    0    0    0    0  0.00000000000E+00  0.00000000000E+00  0.39999999674E+01  0.40000000000E+01  0.51100000000E-03 0.  1.
    9000002   -1    0    0    0    0 -0.00000000000E+00 -0.00000000000E+00  0.00000000000E+00  0.93800000000E+00  0.93800000000E+00 0.  1.
         11    1    1    2    0    0  0.10337941530E-01  0.10494434063E-02  0.77203445417E-01  0.77901267460E-01  0.51100000000E-03 0. -1.
    9000002    1    1    2    0    0 -0.51304445742E+00 -0.56281823588E-01  0.18285997252E+00  0.10861233947E+01  0.93800000000E+00 0.  1.
         22    1    1    2    0    0  0.50270651589E+00  0.55232380182E-01  0.37399365494E+01  0.37739753378E+01  0.00000000000E+00 0.  1.
</event>
<event>
 5    1  0.6564536E+001  0.1583218E+01  0.7818608E-02  0.3371782E+00
         11   -1    0    0    0    0  0.00000000000E+00  0.00000000000E+00  0.39999999674E+01  0.40000000000E+01  0.51100000000E-03 0.  1.
    9000002   -1    0    0    0    0 -0.00000000000E+00 -0.00000000000E+00  0.00000000000E+00  0.93800000000E+00  0.93800000000E+00 0.  1.
         11    1    1    2    0    0 -0.38333682607E-01 -0.58209416545E-01  0.47351904027E+00  0.47862130125E+00  0.51100000000E-03 0.  1.
    9000002    1    1    2    0    0 -0.76330770896E-01 -0.25181185484E+00  0.58800907979E-01  0.97598009385E+00  0.93800000000E+00 0.  1.
         22    1    1    2    0    0  0.11466445350E+00  0.31002127138E+00  0.34676800191E+01  0.34833986049E+01  0.00000000000E+00 0.  1.
</event>
<event>
 5    1  0.6564536E+001  0.1599630E+01  0.7818608E-02  0.3353765E+00
         11   -1    0    0    0    0  0.00000000000E+00  0.00000000000E+00  0.39999999674E+01  0.40000000000E+01  0.51100000000E-03 0.  1.
    9000002   -1    0    0    0    0 -0.00000000000E+00 -0.00000000000E+00  0.00000000000E+00  0.93800000000E+00  0.93800000000E+00 0. -1.
         11    1    1    2    0    0  0.53608202039E-01 -0.63947677296E-01  0.70837463170E+00  0.71327275618E+00  0.51100000000E-03 0.  1.
    9000002    1    1    2    0    0 -0.27455361889E+00  0.37794995410E+00  0.14864050852E+00  0.10583779373E+01  0.93800000000E+00 0. -1.
         22    1    1    2    0    0  0.22094541685E+00 -0.31400227681E+00  0.31429848271E+01  0.31663493065E+01  0.00000000000E+00 0.  1.
</event>
<event>
 5    1  0.6564536E+001  0.1599615E+01  0.7818608E-02  0.3353782E+00
         11   -1    0    0    0    0  0.00000000000E+00  0.00000000000E+00  0.39999999674E+01  0.40000000000E+01  0.51100000000E-03 0. -1.
    9000002   -1    0    0    0    0 -0.00000000000E+00 -0.00000000000E+00  0.00000000000E+00  0.93800000000E+00  0.93800000000E+00 0.  1.
         11    1    1    2    0    0 -0.69775709492E-03  0.43986947446E-04  0.14838205194E-01  0.14863453643E-01  0.51100000000E-03 0.  1.
    9000002    1    1    2    0    0  0.44590307559E+00 -0.92878926309E-01  0.14106958613E+00  0.10522360362E+01  0.93800000000E+00 0.  1.
         22    1    1    2    0    0 -0.44520531849E+00  0.92834939362E-01  0.38440921760E+01  0.38709005101E+01  0.00000000000E+00 0. -1.
</event>
<event>
 5    1  0.6564536E+001  0.1599677E+01  0.7818608E-02  0.3353714E+00
         11   -1    0    0    0    0  0.00000000000E+00  0.00000000000E+00  0.39999999674E+01  0.40000000000E+01  0.51100000000E-03 0. -1.
    9000002   -1    0    0    0    0 -0.00000000000E+00 -0.00000000000E+00  0.00000000000E+00  0.93800000000E+00  0.93800000000E+00 0.  1.
         11    1    1    2    0    0  0.84677633701E-01 -0.30482957216E-01  0.79929319943E+00  0.80434407569E+00  0.51100000000E-03 0.  1.
    9000002    1    1    2    0    0 -0.40928487288E+00  0.14991109045E+00  0.12877330391E+00  0.10423118564E+01  0.93800000000E+00 0.  1.
         22    1    1    2    0    0  0.32460723918E+00 -0.11942813324E+00  0.30719334640E+01  0.30913440679E+01  0.00000000000E+00 0. -1.
</event>
<event>
 5    1  0.6564536E+001  0.1599602E+01  0.7818608E-02  0.3353796E+00
         11   -1    0    0    0    0  0.00000000000E+00  0.00000000000E+00  0.39999999674E+01  0.40000000000E+01  0.51100000000E-03 0.  1.
    9000002   -1    0    0    0    0 -0.00000000000E+00 -0.00000000000E+00  0.00000000000E+00  0.93800000000E+00  0.93800000000E+00 0.  1.
         11    1    1    2    0    0  0.12779115919E-01  0.70530800861E-02  0.15825038022E+00  0.15892292378E+00  0.51100000000E-03 0.  1.
    9000002    1    1    2    0    0 -0.35835449187E+00 -0.82883717886E-01  0.90956389094E-01  0.10116346758E+01  0.93800000000E+00 0.  1.
         22    1    1    2    0    0  0.34557537595E+00  0.75830637800E-01  0.37507931980E+01  0.37674424004E+01  0.00000000000E+00 0.  1.
</event>
<event>
 5    1  0.6564536E+001  0.1599673E+01  0.7818608E-02  0.3353719E+00
         11   -1    0    0    0    0  0.00000000000E+00  0.00000000000E+00  0.39999999674E+01  0.40000000000E+01  0.51100000000E-03 0.  1.
    9000002   -1    0    0    0    0 -0.00000000000E+00 -0.00000000000E+00  0.00000000000E+00  0.93800000000E+00  0.93800000000E+00 0. -1.
         11    1    1    2    0    0  0.62426479764E-01 -0.29789142385E-01  0.43381459312E+00  0.43929468549E+00  0.51100000000E-03 0.  1.
    9000002    1    1    2    0    0 -0.54855826816E+00  0.24736600314E+00  0.25274025539E+00  0.11427282047E+01  0.93800000000E+00 0. -1.
         22    1    1    2    0    0  0.48613178840E+00 -0.21757686075E+00  0.33134451189E+01  0.33559771098E+01  0.00000000000E+00 0.  1.
</event>
<event>
 5    1  0.6564536E+001  0.1599629E+01  0.7818608E-02  0.3353767E+00
         11   -1    0    0    0    0  0.00000000000E+00  0.00000000000E+00  0.39999999674E+01  0.40000000000E+01  0.51100000000E-03 0.  1.
    9000002   -1    0    0    0    0 -0.00000000000E+00 -0.00000000000E+00  0.00000000000E+00  0.93800000000E+00  0.93800000000E+00 0. -1.
         11    1    1    2    0    0  0.96743462325E-01 -0.36075917333E-01  0.10726022937E+01  0.10775605370E+01  0.51100000000E-03 0.  1.
    9000002    1    1    2    0    0 -0.37361612303E+00  0.11525832550E+00  0.10303860186E+00  0.10214374393E+01  0.93800000000E+00 0. -1.
         22    1    1    2    0    0  0.27687266070E+00 -0.79182408168E-01  0.28243590718E+01  0.28390020237E+01  0.00000000000E+00 0.  1.
</event>
<event>
 5    1  0.6564536E+001  0.1599105E+01  0.7818608E-02  0.3354335E+00
         11   -1    0    0    0    0  0.00000000000E+00  0.00000000000E+00  0.39999999674E+01  0.40000000000E+01  0.51100000000E-03 0.  1.
    9000002   -1    0    0    0    0 -0.00000000000E+00 -0.00000000000E+00  0.00000000000E+00  0.93800000000E+00  0.93800000000E+00 0.  1.
         11    1    1    2    0    0 -0.22374809589E+00 -0.39480933074E-01  0.14720073517E+01  0.14894387731E+01  0.51100000000E-03 0.  1.
    9000002    1    1    2    0    0  0.62340491249E+00  0.56748493437E-01  0.27555104543E+00  0.11608731434E+01  0.93800000000E+00 0.  1.
         22    1    1    2    0    0 -0.39965681660E+00 -0.17267560363E-01  0.22524415703E+01  0.22876880835E+01  0.00000000000E+00 0.  1.
</event>
<event>
 5    1  0.6564536E+001  0.1599597E+01  0.7818608E-02  0.3353801E+00
         11   -1    0    0    0    0  0.00000000000E+00  0.00000000000E+00  0.39999999674E+01  0.40000000000E+01  0.51100000000E-03 0.  1.
    9000002   -1    0    0    0    0 -0.00000000000E+00 -0.00000000000E+00  0.00000000000E+00  0.93800000000E+00  0.93800000000E+00 0. -1.
         11    1    1    2    0    0 -0.32423772109E-01  0.15200541299E+00  0.14211263104E+01  0.14296003630E+01  0.51100000000E-03 0.  1.
    9000002    1    1    2    0    0  0.11310231955E+00 -0.40103322985E+00  0.11743453802E+00  0.10330801793E+01  0.93800000000E+00 0. -1.
         22    1    1    2    0    0 -0.80678547440E-01  0.24902781685E+00  0.24614391189E+01  0.24753194577E+01  0.00000000000E+00 0.  1.
</event>
<event>
 5    1  0.6564536E+001  0.1599551E+01  0.7818608E-02  0.3353850E+00
         11   -1    0    0    0    0  0.00000000000E+00  0.00000000000E+00  0.39999999674E+01  0.40000000000E+01  0.51100000000E-03 0. -1.
    9000002   -1    0    0    0    0 -0.00000000000E+00 -0.00000000000E+00  0.00000000000E+00  0.93800000000E+00  0.93800000000E+00 0.  1.
         11    1    1    2    0    0 -0.41561129363E-01 -0.13655440538E+00  0.12140398985E+01  0.12224023762E+01  0.51100000000E-03 0. -1.
    9000002    1    1    2    0    0  0.96325628140E-01  0.45127823107E+00  0.14497665642E+00  0.10553638706E+01  0.93800000000E+00 0.  1.
         22    1    1    2    0    0 -0.54764498777E-01 -0.31472382569E+00  0.26409834124E+01  0.26602337531E+01  0.00000000000E+00 0. -1.
</event>
<event>
 5    1  0.6564536E+001  0.1599676E+01  0.7818608E-02  0.3353715E+00
         11   -1    0    0    0    0  0.00000000000E+00  0.00000000000E+00  0.39999999674E+01  0.40000000000E+01  0.51100000000E-03 0. -1.
    9000002   -1    0    0    0    0 -0.00000000000E+00 -0.00000000000E+00  0.00000000000E+00  0.93800000000E+00  0.93800000000E+00 0.  1.
         11    1    1    2    0    0  0.20617306071E-01  0.29060764179E-01  0.33196700941E+00  0.33387416459E+00  0.51100000000E-03 0. -1.
    9000002    1    1    2    0    0 -0.23726622079E+00 -0.33781817995E+00  0.11514264948E+00  0.10312701935E+01  0.93800000000E+00 0.  1.
         22    1    1    2    0    0  0.21664891472E+00  0.30875741577E+00  0.35528903085E+01  0.35728556419E+01  0.00000000000E+00 0. -1.
</event>
<event>
 5    1  0.6564536E+001  0.1599454E+01  0.7818608E-02  0.3353956E+00
         11   -1    0    0    0    0  0.00000000000E+00  0.00000000000E+00  0.39999999674E+01  0.40000000000E+01  0.51100000000E-03 0. -1.
    9000002   -1    0    0    0    0 -0.00000000000E+00 -0.00000000000E+00  0.00000000000E+00  0.93800000000E+00  0.93800000000E+00 0.  1.
         11    1    1    2    0    0 -0.74278972270E-01  0.69314379042E-01  0.97021414717E+00  0.97551914454E+00  0.51100000000E-03 0. -1.
    9000002    1    1    2    0    0  0.31653675761E+00 -0.21882574579E+00  0.99876195837E-01  0.10187735177E+01  0.93800000000E+00 0.  1.
         22    1    1    2    0    0 -0.24225778534E+00  0.14951136675E+00  0.29299096244E+01  0.29437073377E+01  0.00000000000E+00 0. -1.
</event>
<event>
 5    1  0.6564536E+001  0.1594718E+01  0.7818608E-02  0.3359117E+00
         11   -1    0    0    0    0  0.00000000000E+00  0.00000000000E+00  0.39999999674E+01  0.40000000000E+01  0.51100000000E-03 0. -1.
    9000002   -1    0    0    0    0 -0.00000000000E+00 -0.00000000000E+00  0.00000000000E+00  0.93800000000E+00  0.93800000000E+00 0. -1.
         11    1    1    2    0    0 -0.24496385912E-01 -0.40932399384E-01  0.16300494309E+00  0.16984229990E+00  0.51100000000E-03 0. -1.
    9000002    1    1    2    0    0  0.32979548107E+00  0.19613114553E+00  0.10320028364E+00  0.10186887572E+01  0.93800000000E+00 0. -1.
         22    1    1    2    0    0 -0.30529909516E+00 -0.15519874615E+00  0.37337947406E+01  0.37494689429E+01  0.00000000000E+00 0. -1.
</event>
<event>
 5    1  0.6564536E+001  0.1598046E+01  0.7818608E-02  0.3355487E+00
         11   -1    0    0    0    0  0.00000000000E+00  0.00000000000E+00  0.39999999674E+01  0.40000000000E+01  0.51100000000E-03 0. -1.
    9000002   -1    0    0    0    0 -0.00000000000E+00 -0.00000000000E+00  0.00000000000E+00  0.93800000000E+00  0.93800000000E+00 0. -1.
         11    1    1    2    0    0 -0.10330372468E-02  0.39887125364E-02  0.11648793599E+00  0.11656190349E+00  0.51100000000E-03 0. -1.
    9000002    1    1    2    0    0  0.10789828974E+00  0.41460987297E+00  0.12566143109E+00  0.10388350124E+01  0.93800000000E+00 0. -1.
         22    1    1    2    0    0 -0.10686525250E+00 -0.41859858551E+00  0.37578506003E+01  0.37826030841E+01  0.00000000000E+00 0. -1.
</event>
<event>
 5    1  0.6564536E+001  0.1599677E+01  0.7818608E-02  0.3353714E+00
         11   -1    0    0    0    0  0.00000000000E+00  0.00000000000E+00  0.39999999674E+01  0.40000000000E+01  0.51100000000E-03 0.  1.
    9000002   -1    0    0    0    0 -0.00000000000E+00 -0.00000000000E+00  0.00000000000E+00  0.93800000000E+00  0.93800000000E+00 0. -1.
         11    1    1    2    0    0  0.15096856438E+00 -0.46230608296E-01  0.13639750425E+01  0.13730830107E+01  0.51100000000E-03 0.  1.
    9000002    1    1    2    0    0 -0.42921733676E+00  0.13098735090E+00  0.13675289521E+00  0.10487757447E+01  0.93800000000E+00 0. -1.
         22    1    1    2    0    0  0.27824877238E+00 -0.84756742609E-01  0.24992720296E+01  0.25161412446E+01  0.00000000000E+00 0.  1.
</event>
<event>
 5    1  0.6564536E+001  0.1599643E+01  0.7818608E-02  0.3353751E+00
         11   -1    0    0    0    0  0.00000000000E+00  0.00000000000E+00  0.39999999674E+01  0.40000000000E+01  0.51100000000E-03 0. -1.
    9000002   -1    0    0    0    0 -0.00000000000E+00 -0.00000000000E+00  0.00000000000E+00  0.93800000000E+00  0.93800000000E+00 0.  1.
         11    1    1    2    0    0 -0.52078598618E-02  0.59780339722E-01  0.55595384108E+00  0.55918310539E+00  0.51100000000E-03 0. -1.
    9000002    1    1    2    0    0  0.56308332727E-01 -0.39041506090E+00  0.10490614870E+00  0.10229583805E+01  0.93800000000E+00 0.  1.
         22    1    1    2    0    0 -0.51100472865E-01  0.33063472118E+00  0.33391399776E+01  0.33558585142E+01  0.00000000000E+00 0. -1.
</event>
<event>
 5    1  0.6564536E+001  0.1599677E+01  0.7818608E-02  0.3353715E+00
         11   -1    0    0    0    0  0.00000000000E+00  0.00000000000E+00  0.39999999674E+01  0.40000000000E+01  0.51100000000E-03 0.  1.
    9000002   -1    0    0    0    0 -0.00000000000E+00 -0.00000000000E+00  0.00000000000E+00  0.93800000000E+00  0.93800000000E+00 0.  1.
         11    1    1    2    0    0 -0.74036239476E-01 -0.11618234715E+00  0.94351370384E+00  0.95351878481E+00  0.51100000000E-03 0.  1.
    9000002    1    1    2    0    0  0.29512883650E+00  0.46808437112E+00  0.21163120270E+00  0.11094303829E+01  0.93800000000E+00 0.  1.
         22    1    1    2    0    0 -0.22109259702E+00 -0.35190202397E+00  0.28448550608E+01  0.28750508323E+01  0.00000000000E+00 0.  1.
</event>
<event>
 5    1  0.6564536E+001  0.1599675E+01  0.7818608E-02  0.3353717E+00
         11   -1    0    0    0    0  0.00000000000E+00  0.00000000000E+00  0.39999999674E+01  0.40000000000E+01  0.51100000000E-03 0. -1.
    9000002   -1    0    0    0    0 -0.00000000000E+00 -0.00000000000E+00  0.00000000000E+00  0.93800000000E+00  0.93800000000E+00 0.  1.
         11    1    1    2    0    0 -0.14210470127E+00  0.48094499343E-01  0.10129776350E+01  0.10240267463E+01  0.51100000000E-03 0. -1.
    9000002    1    1    2    0    0  0.52655650823E+00 -0.17575924858E+00  0.21305197255E+00  0.11105801244E+01  0.93800000000E+00 0.  1.
         22    1    1    2    0    0 -0.38445180696E+00  0.12766474923E+00  0.27739703598E+01  0.28033931292E+01  0.00000000000E+00 0. -1.
</event>
<event>
 5    1  0.6564536E+001  0.1591166E+01  0.7818608E-02  0.3363007E+00
         11   -1    0    0    0    0  0.00000000000E+00  0.00000000000E+00  0.39999999674E+01  0.40000000000E+01  0.51100000000E-03 0. -1.
    9000002   -1    0    0    0    0 -0.00000000000E+00 -0.00000000000E+00  0.00000000000E+00  0.93800000000E+00  0.93800000000E+00 0.  1.
         11    1    1    2    0    0 -0.55301362904E-02  0.68686733432E-01  0.91794965251E+00  0.92053260422E+00  0.51100000000E-03 0. -1.
    9000002    1    1    2    0    0  0.31891828504E+00 -0.21060768042E-01  0.75038808704E-01  0.99379437073E+00  0.93800000000E+00 0.  1.
         22    1    1    2    0    0 -0.31338814875E+00 -0.47625965390E-01  0.30070115061E+01  0.30236730251E+01  0.00000000000E+00 0. -1.
</event>
<event>
 5    1  0.6564536E+001  0.1599676E+01  0.7818608E-02  0.3353715E+00
         11   -1    0    0    0    0  0.00000000000E+00  0.00000000000E+00  0.39999999674E+01  0.40000000000E+01  0.51100000000E-03 0. -1.
    9000002   -1    0    0    0    0 -0.00000000000E+00 -0.00000000000E+00  0.00000000000E+00  0.93800000000E+00  0.93800000000E+00 0.  1.
         11    1    1    2    0    0  0.12507857747E+00  0.30404139455E-01  0.12622395259E+01  0.12687860120E+01  0.51100000000E-03 0. -1.
    9000002    1    1    2    0    0 -0.38705807440E+00 -0.96974560398E-01  0.10738311120E+00  0.10249844637E+01  0.93800000000E+00 0.  1.
         22    1    1    2    0    0  0.26197949692E+00  0.66570420943E-01  0.26303773302E+01  0.26442295243E+01  0.00000000000E+00 0. -1.
</event>
<event>
 5    1  0.6564536E+001  0.1585819E+01  0.7818608E-02  0.3368900E+00
         11   -1    0    0    0    0  0.00000000000E+00  0.00000000000E+00  0.39999999674E+01  0.40000000000E+01  0.51100000000E-03 0. -1.
    9000002   -1    0    0    0    0 -0.00000000000E+00 -0.00000000000E+00  0.00000000000E+00  0.93800000000E+00  0.93800000000E+00 0.  1.
         11    1    1    2    0    0 -0.17216572811E-01  0.35177615024E-01  0.85717265552E+00  0.85806707049E+00  0.51100000000E-03 0. -1.
    9000002    1    1    2    0    0 -0.44577507755E+00 -0.70855814020E-01  0.15048344046E+00  0.10517724241E+01  0.93800000000E+00 0.  1.
         22    1    1    2    0    0  0.46299165037E+00  0.35678198996E-01  0.29923438714E+01  0.30281605055E+01  0.00000000000E+00 0. -1.
</event>
<event>
 5    1  0.6564536E+001  0.1593083E+01  0.7818608E-02  0.3360905E+00
         11   -1    0    0    0    0  0.00000000000E+00  0.00000000000E+00  0.39999999674E+01  0.40000000000E+01  0.51100000000E-03 0.  1.
    9000002   -1    0    0    0    0 -0.00000000000E+00 -0.00000000000E+00  0.00000000000E+00  0.93800000000E+00  0.93800000000E+00 0.  1.
         11    1    1    2    0    0  0.32635167800E+00  0.13224217038E+00  0.10989244880E+01  0.11539621747E+01  0.51100000000E-03 0.  1.
    9000002    1    1    2    0    0 -0.76920238999E+00 -0.58217284695E+00  0.74620097636E+00  0.15385894311E+01  0.93800000000E+00 0.  1.
         22    1    1    2    0    0  0.44285071199E+00  0.44993067657E+00  0.21548745030E+01  0.22454483941E+01  0.00000000000E+00 0.  1.
</event>
<event>
 5    1  0.6564536E+001  0.1489367E+01  0.7818608E-02  0.3482950E+00
         11   -1    0    0    0    0  0.00000000000E+00  0.00000000000E+00  0.39999999674E+01  0.40000000000E+01  0.51100000000E-03 0. -1.
    9000002   -1    0    0    0    0 -0.00000000000E+00 -0.00000000000E+00  0.00000000000E+00  0.93800000000E+00  0.93800000000E+00 0. -1.
         11    1    1    2    0    0 -0.29099711666E-01  0.31437640927E+00  0.73437962085E+00  0.79937038259E+00  0.51100000000E-03 0. -1.
    9000002    1    1    2    0    0  0.29566081752E-01  0.38004786388E-02  0.85199790015E-01  0.94233306269E+00  0.93800000000E+00 0.  1.
         22    1    1    2    0    0 -0.46637008631E-03 -0.31817688791E+00  0.31804205565E+01  0.31962965547E+01  0.00000000000E+00 0. -1.
</event>
<event>
 5    1  0.6564536E+001  0.1542202E+01  0.7818608E-02  0.3418588E+00
         11   -1    0    0    0    0  0.00000000000E+00  0.00000000000E+00  0.39999999674E+01  0.40000000000E+01  0.51100000000E-03 0. -1.
    9000002   -1    0    0    0    0 -0.00000000000E+00 -0.00000000000E+00  0.00000000000E+00  0.93800000000E+00  0.93800000000E+00 0.  1.
         11    1    1    2    0    0  0.14171930153E+00 -0.29066958487E+00  0.10602789972E+01  0.11084967213E+01  0.51100000000E-03 0. -1.
    9000002    1    1    2    0    0 -0.34430794500E+00  0.12945441393E+00  0.13928978917E+00  0.10171293190E+01  0.93800000000E+00 0.  1.
         22    1    1    2    0    0  0.20258864347E+00  0.16121517094E+00  0.28004311810E+01  0.28123739597E+01  0.00000000000E+00 0. -1.
</event>
<event>
 5    1  0.6564536E+001  0.1597364E+01  0.7818608E-02  0.3356229E+00
         11   -1    0    0    0    0  0.00000000000E+00  0.00000000000E+00  0.39999999674E+01  0.40000000000E+01  0.51100000000E-03 0.  1.
    9000002   -1    0    0    0    0 -0.00000000000E+00 -0.00000000000E+00  0.00000000000E+00  0.93800000000E+00  0.93800000000E+00 0.  1.
         11    1    1    2    0    0  0.92634560816E-01 -0.42952566931E-01  0.99153121363E+00  0.99677504663E+00  0.51100000000E-03 0.  1.
    9000002    1    1    2    0    0 -0.27450939994E+00  0.34455832202E+00  0.13361712204E+00  0.10448796023E+01  0.93800000000E+00 0.  1.
         22    1    1    2    0    0  0.18187483913E+00 -0.30160575509E+00  0.28748516317E+01  0.28963453511E+01  0.00000000000E+00 0.  1.
</event>
<event>
 5    1  0.6564536E+001  0.1599034E+01  0.7818608E-02  0.3354412E+00
         11   -1    0    0    0    0  0.00000000000E+00  0.00000000000E+00  0.39999999674E+01  0.40000000000E+01  0.51100000000E-03 0. -1.
    9000002   -1    0    0    0    0 -0.00000000000E+00 -0.00000000000E+00  0.00000000000E+00  0.93800000000E+00  0.93800000000E+00 0. -1.
         11    1    1    2    0    0 -0.22725721843E-01 -0.92121270128E-01  0.11388506011E+01  0.11427964558E+01  0.51100000000E-03 0. -1.
    9000002    1    1    2    0    0 -0.11405987758E-01  0.34946883755E+00  0.82490031762E-01  0.10044437119E+01  0.93800000000E+00 0. -1.
         22    1    1    2    0    0  0.34131709601E-01 -0.25734756742E+00  0.27786593345E+01  0.27907598323E+01  0.00000000000E+00 0. -1.
</event>
<event>
 5    1  0.6564536E+001  0.1599676E+01  0.7818608E-02  0.3353715E+00
         11   -1    0    0    0    0  0.00000000000E+00  0.00000000000E+00  0.39999999674E+01  0.40000000000E+01  0.51100000000E-03 0. -1.
    9000002   -1    0    0    0    0 -0.00000000000E+00 -0.00000000000E+00  0.00000000000E+00  0.93800000000E+00  0.93800000000E+00 0. -1.
         11    1    1    2    0    0  0.97038387247E-01 -0.38596003806E-01  0.86286340523E+00  0.86916029438E+00  0.51100000000E-03 0. -1.
    9000002    1    1    2    0    0 -0.43110498779E+00  0.17592503701E+00  0.14759546563E+00  0.10575582966E+01  0.93800000000E+00 0. -1.
         22    1    1    2    0    0  0.33406660055E+00 -0.13732903320E+00  0.29895410965E+01  0.30112814091E+01  0.00000000000E+00 0. -1.
</event>
<event>
 5    1  0.6564536E+001  0.1599676E+01  0.7818608E-02  0.3353715E+00
         11   -1    0    0    0    0  0.00000000000E+00  0.00000000000E+00  0.39999999674E+01  0.40000000000E+01  0.51100000000E-03 0. -1.
    9000002   -1    0    0    0    0 -0.00000000000E+00 -0.00000000000E+00  0.00000000000E+00  0.93800000000E+00  0.93800000000E+00 0. -1.
         11    1    1    2    0    0 -0.90457913373E-01  0.11260386692E+00  0.13352844157E+01  0.13430737124E+01  0.51100000000E-03 0. -1.
    9000002    1    1    2    0    0  0.26110393164E+00 -0.32551797603E+00  0.11772723972E+00  0.10333638850E+01  0.93800000000E+00 0. -1.
         22    1    1    2    0    0 -0.17064601827E+00  0.21291410912E+00  0.25469883119E+01  0.25615624026E+01  0.00000000000E+00 0. -1.
</event>
<event>
 5    1  0.6564536E+001  0.1599642E+01  0.7818608E-02  0.3353753E+00
         11   -1    0    0    0    0  0.00000000000E+00  0.00000000000E+00  0.39999999674E+01  0.40000000000E+01  0.51100000000E-03 0. -1.
    9000002   -1    0    0    0    0 -0.00000000000E+00 -0.00000000000E+00  0.00000000000E+00  0.93800000000E+00  0.93800000000E+00 0.  1.
         11    1    1    2    0    0  0.60917265349E-01 -0.84686336890E-01  0.12327529668E+01  0.12371591762E+01  0.51100000000E-03 0. -1.
    9000002    1    1    2    0    0 -0.21303354033E+00  0.27762877453E+00  0.82139421869E-01  0.10045157591E+01  0.93800000000E+00 0.  1.
         22    1    1    2    0    0  0.15211627498E+00 -0.19294243764E+00  0.26851075787E+01  0.26963250647E+01  0.00000000000E+00 0. -1.
</event>
<event>
 5    1  0.6564536E+001  0.1502101E+01  0.7818608E-02  0.3466993E+00
         11   -1    0    0    0    0  0.00000000000E+00  0.00000000000E+00  0.39999999674E+01  0.40000000000E+01  0.51100000000E-03 0. -1.
    9000002   -1    0    0    0    0 -0.00000000000E+00 -0.00000000000E+00  0.00000000000E+00  0.93800000000E+00  0.93800000000E+00 0.  1.
         11    1    1    2    0    0 -0.11615675323E+00  0.37098644101E+00  0.82147533716E+00  0.90881533955E+00  0.51100000000E-03 0. -1.
    9000002    1    1    2    0    0  0.62377280032E+00 -0.22235296296E+00  0.42345586808E+00  0.12238023610E+01  0.93800000000E+00 0.  1.
         22    1    1    2    0    0 -0.50761604709E+00 -0.14863347805E+00  0.27550687621E+01  0.28053822995E+01  0.00000000000E+00 0. -1.
</event>
<event>
 5    1  0.8710379E+001  0.1599674E+01  0.7818608E-02  0.3353717E+00
         11   -1    0    0    0    0  0.00000000000E+00  0.00000000000E+00  0.39999999674E+01  0.40000000000E+01  0.51100000000E-03 0.  1.
    9000002   -1    0    0    0    0 -0.00000000000E+00 -0.00000000000E+00  0.00000000000E+00  0.93800000000E+00  0.93800000000E+00 0.  1.
         11    1    1    2    0    0 -0.21663233991E+00  0.12373433295E+00  0.14754728994E+01  0.14964158158E+01  0.51100000000E-03 0.  1.
    9000002    1    1    2    0    0  0.54935984839E+00 -0.31552244923E+00  0.28211902838E+00  0.11665272415E+01  0.93800000000E+00 0.  1.
         22    1    1    2    0    0 -0.33272750848E+00  0.19178811628E+00  0.22424080396E+01  0.22750569427E+01  0.00000000000E+00 0.  1.
</event>
<event>
 5    1  0.6564536E+001  0.1599676E+01  0.7818608E-02  0.3353715E+00
         11   -1    0    0    0    0  0.00000000000E+00  0.00000000000E+00  0.39999999674E+01  0.40000000000E+01  0.51100000000E-03 0. -1.
    9000002   -1    0    0    0    0 -0.00000000000E+00 -0.00000000000E+00  0.00000000000E+00  0.93800000000E+00  0.93800000000E+00 0.  1.
         11    1    1    2    0    0  0.16582360959E+00 -0.61852447227E-01  0.12348713231E+01  0.12474897356E+01  0.51100000000E-03 0. -1.
    9000002    1    1    2    0    0 -0.51240843024E+00  0.18907539486E+00  0.20589632744E+00  0.11047846858E+01  0.93800000000E+00 0.  1.
         22    1    1    2    0    0  0.34658482065E+00 -0.12722294763E+00  0.25592323169E+01  0.25857255786E+01  0.00000000000E+00 0. -1.
</event>
<event>
 5    1  0.6564536E+001  0.1599618E+01  0.7818608E-02  0.3353778E+00
         11   -1    0    0    0    0  0.00000000000E+00  0.00000000000E+00  0.39999999674E+01  0.40000000000E+01  0.51100000000E-03 0.  1.
    9000002   -1    0    0    0    0 -0.00000000000E+00 -0.00000000000E+00  0.00000000000E+00  0.93800000000E+00  0.93800000000E+00 0.  1.
         11    1    1    2    0    0 -0.33110113088E-01 -0.73722875456E-02  0.25456188575E+00  0.25681247051E+00  0.51100000000E-03 0.  1.
    9000002    1    1    2    0    0  0.43302647917E+00  0.11968430494E+00  0.13712019559E+00  0.10490387088E+01  0.93800000000E+00 0.  1.
         22    1    1    2    0    0 -0.39991636608E+00 -0.11231201740E+00  0.36083178860E+01  0.36321488207E+01  0.00000000000E+00 0.  1.
</event>
<event>
 5    1  0.6564536E+001  0.1599653E+01  0.7818608E-02  0.3353741E+00
         11   -1    0    0    0    0  0.00000000000E+00  0.00000000000E+00  0.39999999674E+01  0.40000000000E+01  0.51100000000E-03 0.  1.
    9000002   -1    0    0    0    0 -0.00000000000E+00 -0.00000000000E+00  0.00000000000E+00  0.93800000000E+00  0.93800000000E+00 0. -1.
         11    1    1    2    0    0 -0.14270772478E+00 -0.53054875085E-01  0.11080987018E+01  0.11185094137E+01  0.51100000000E-03 0.  1.
    9000002    1    1    2    0    0  0.49892577796E+00  0.16578176297E+00  0.19008772569E+00  0.10919651406E+01  0.93800000000E+00 0. -1.
         22    1    1    2    0    0 -0.35621805317E+00 -0.11272688789E+00  0.27018135399E+01  0.27275254457E+01  0.00000000000E+00 0.  1.
</event>
<event>
 5    1  0.6564536E+001  0.1592556E+01  0.7818608E-02  0.3361482E+00
         11   -1    0    0    0    0  0.00000000000E+00  0.00000000000E+00  0.39999999674E+01  0.40000000000E+01  0.51100000000E-03 0. -1.
    9000002   -1    0    0    0    0 -0.00000000000E+00 -0.00000000000E+00  0.00000000000E+00  0.93800000000E+00  0.93800000000E+00 0. -1.
         11    1    1    2    0    0 -0.13210968806E-01  0.27527021578E-01  0.55552644816E+00  0.55636513400E+00  0.51100000000E-03 0. -1.
    9000002    1    1    2    0    0 -0.21521395376E+00  0.19952680979E+00  0.62997896353E-01  0.98485568926E+00  0.93800000000E+00 0. -1.
         22    1    1    2    0    0  0.22842492257E+00 -0.22705383137E+00  0.33814756229E+01  0.33967791767E+01  0.00000000000E+00 0. -1.
</event>
<event>
 5    1  0.6564536E+001  0.1573457E+01  0.7818608E-02  0.3382686E+00
         11   -1    0    0    0    0  0.00000000000E+00  0.00000000000E+00  0.39999999674E+01  0.40000000000E+01  0.51100000000E-03 0.  1.
    9000002   -1    0    0    0    0 -0.00000000000E+00 -0.00000000000E+00  0.00000000000E+00  0.93800000000E+00  0.93800000000E+00 0.  1.
         11    1    1    2    0    0  0.13897103151E+00 -0.18431096296E+00  0.14520128543E+01  0.14702466014E+01  0.51100000000E-03 0.  1.
    9000002    1    1    2    0    0 -0.38139574382E+00 -0.11387801640E-01  0.11984573474E+00  0.10197055436E+01  0.93800000000E+00 0.  1.
         22    1    1    2    0    0  0.24242471231E+00  0.19569876460E+00  0.24281413783E+01  0.24480478550E+01  0.00000000000E+00 0.  1.
</event>
<event>
 5    1  0.6564536E+001  0.1599676E+01  0.7818608E-02  0.3353715E+00
         11   -1    0    0    0    0  0.00000000000E+00  0.00000000000E+00  0.39999999674E+01  0.40000000000E+01  0.51100000000E-03 0.  1.
    9000002   -1    0    0    0    0 -0.00000000000E+00 -0.00000000000E+00  0.00000000000E+00  0.93800000000E+00  0.93800000000E+00 0. -1.
         11    1    1    2    0    0 -0.17607326695E+00 -0.84720800917E-01  0.11268573524E+01  0.11436726644E+01  0.51100000000E-03 0.  1.
    9000002    1    1    2    0    0  0.58088390752E+00  0.28105705178E+00  0.29351739843E+00  0.11757617291E+01  0.93800000000E+00 0. -1.
         22    1    1    2    0    0 -0.40481064057E+00 -0.19633625087E+00  0.25796252165E+01  0.26185656065E+01  0.00000000000E+00 0. -1.
</event>
<event>
 5    1  0.6564536E+001  0.1596808E+01  0.7818608E-02  0.3356835E+00
         11   -1    0    0    0    0  0.00000000000E+00  0.00000000000E+00  0.39999999674E+01  0.40000000000E+01  0.51100000000E-03 0. -1.
    9000002   -1    0    0    0    0 -0.00000000000E+00 -0.00000000000E+00  0.00000000000E+00  0.93800000000E+00  0.93800000000E+00 0.  1.
         11    1    1    2    0    0 -0.53303976357E-03  0.12039752315E+00  0.51748123169E+00  0.53130305286E+00  0.51100000000E-03 0. -1.
    9000002    1    1    2    0    0  0.21832156565E-01 -0.55215501063E+00  0.21373031515E+00  0.11094487128E+01  0.93800000000E+00 0.  1.
         22    1    1    2    0    0 -0.21299116802E-01  0.43175748747E+00  0.32687884205E+01  0.32972482343E+01  0.00000000000E+00 0. -1.
</event>
<event>
 5    1  0.6564536E+001  0.1599674E+01  0.7818608E-02  0.3353717E+00
         11   -1    0    0    0    0  0.00000000000E+00  0.00000000000E+00  0.39999999674E+01  0.40000000000E+01  0.51100000000E-03 0. -1.
    9000002   -1    0    0    0    0 -0.00000000000E+00 -0.00000000000E+00  0.00000000000E+00  0.93800000000E+00  0.93800000000E+00 0. -1.
         11    1    1    2    0    0  0.18185394172E+00  0.62947992416E-02  0.12829510165E+01  0.12957908985E+01  0.51100000000E-03 0. -1.
    9000002    1    1    2    0    0 -0.54296329895E+00 -0.16221000317E-01  0.20354846352E+00  0.11028817896E+01  0.93800000000E+00 0. -1.
         22    1    1    2    0    0  0.36110935722E+00  0.99262010755E-02  0.25135004873E+01  0.25393273119E+01  0.00000000000E+00 0. -1.
</event>
<event>
 5    1  0.6564536E+001  0.1595631E+01  0.7818608E-02  0.3358119E+00
         11   -1    0    0    0    0  0.00000000000E+00  0.00000000000E+00  0.39999999674E+01  0.40000000000E+01  0.51100000000E-03 0.  1.
    9000002   -1    0    0    0    0 -0.00000000000E+00 -0.00000000000E+00  0.00000000000E+00  0.93800000000E+00  0.93800000000E+00 0.  1.
         11    1    1    2    0    0 -0.12582453630E-01  0.13872426260E-01  0.33420268434E+00  0.33472743791E+00  0.51100000000E-03 0.  1.
    9000002    1    1    2    0    0 -0.34911473712E+00 -0.95381770490E-01  0.91229390877E-01  0.10095274061E+01  0.93800000000E+00 0.  1.
         22    1    1    2    0    0  0.36169719075E+00  0.81509344230E-01  0.35745678921E+01  0.35937451560E+01  0.00000000000E+00 0.  1.
</event>
<event>
 5    1  0.6564536E+001  0.1583978E+01  0.7818608E-02  0.3370938E+00
         11   -1    0    0    0    0  0.00000000000E+00  0.00000000000E+00  0.39999999674E+01  0.40000000000E+01  0.51100000000E-03 0.  1.
    9000002   -1    0    0    0    0 -0.00000000000E+00 -0.00000000000E+00  0.00000000000E+00  0.93800000000E+00  0.93800000000E+00 0.  1.
         11    1    1    2    0    0 -0.14382398224E+00 -0.14022024597E+00  0.81796296059E+00  0.84226523213E+00  0.51100000000E-03 0.  1.
    9000002    1    1    2    0    0  0.59898979086E+00  0.71145134309E-01  0.26986538491E+00  0.11473978062E+01  0.93800000000E+00 0.  1.
         22    1    1    2    0    0 -0.45516580861E+00  0.69075111663E-01  0.29121716219E+01  0.29483369617E+01  0.00000000000E+00 0.  1.
</event>
<event>
 5    1  0.6564536E+001  0.1599677E+01  0.7818608E-02  0.3353714E+00
         11   -1    0    0    0    0  0.00000000000E+00  0.00000000000E+00  0.39999999674E+01  0.40000000000E+01  0.51100000000E-03 0. -1.
    9000002   -1    0    0    0    0 -0.00000000000E+00 -0.00000000000E+00  0.00000000000E+00  0.93800000000E+00  0.93800000000E+00 0. -1.
         11    1    1    2    0    0 -0.82620276501E-01  0.61384453751E-01  0.10085071122E+01  0.10137460322E+01  0.51100000000E-03 0.  1.
    9000002    1    1    2    0    0  0.31994431850E+00 -0.23580610289E+00  0.10651863315E+00  0.10242846793E+01  0.93800000000E+00 0. -1.
         22    1    1    2    0    0 -0.23732404200E+00  0.17442164914E+00  0.28849742220E+01  0.28999692885E+01  0.00000000000E+00 0. -1.
</event>
<event>
 5    1  0.6564536E+001  0.1605312E+01  0.7818608E-02  0.3347618E+00
         11   -1    0    0    0    0  0.00000000000E+00  0.00000000000E+00  0.39999999674E+01  0.40000000000E+01  0.51100000000E-03 0. -1.
    9000002   -1    0    0    0    0 -0.00000000000E+00 -0.00000000000E+00  0.00000000000E+00  0.93800000000E+00  0.93800000000E+00 0. -1.
         11    1    1    2    0    0 -0.23676838594E+00 -0.18623516503E-01  0.24802000737E-01  0.23879175930E+00  0.51100000000E-03 0. -1.
    9000002    1    1    2    0    0 -0.27544226021E+00  0.19160843735E+00  0.38417300398E+00  0.10677149100E+01  0.93800000000E+00 0. -1.
         22    1    1    2    0    0  0.51221064615E+00 -0.17298492084E+00  0.35910249626E+01  0.36314933307E+01  0.00000000000E+00 0. -1.
</event>
<event>
 5    1  0.6564536E+001  0.1524956E+01  0.7818608E-02  0.3439070E+00
         11   -1    0    0    0    0  0.00000000000E+00  0.00000000000E+00  0.39999999674E+01  0.40000000000E+01  0.51100000000E-03 0. -1.
    9000002   -1    0    0    0    0 -0.00000000000E+00 -0.00000000000E+00  0.00000000000E+00  0.93800000000E+00  0.93800000000E+00 0.  1.
         11    1    1    2    0    0  0.21182348435E-01  0.27575902294E+00  0.37229735248E+00  0.46378584541E+00  0.51100000000E-03 0. -1.
    9000002    1    1    2    0    0 -0.26492189036E+00 -0.59117920927E+00  0.37925022076E+00  0.12013955200E+01  0.93800000000E+00 0.  1.
         22    1    1    2    0    0  0.24373954193E+00  0.31542018633E+00  0.32484523941E+01  0.32728186346E+01  0.00000000000E+00 0. -1.
</event>
<event>
 5    1  0.6800832E+001  0.1594358E+01  0.7818608E-02  0.3359510E+00
         11   -1    0    0    0    0  0.00000000000E+00  0.00000000000E+00  0.39999999674E+01  0.40000000000E+01  0.51100000000E-03 0. -1.
    9000002   -1    0    0    0    0 -0.00000000000E+00 -0.00000000000E+00  0.00000000000E+00  0.93800000000E+00  0.93800000000E+00 0.  1.
         11    1    1    2    0    0 -0.27890184013E-01 -0.10551749901E+00  0.14330801872E+01  0.14372302839E+01  0.51100000000E-03 0. -1.
    9000002    1    1    2    0    0  0.28319235028E+00  0.18526214788E+00  0.80955940807E-01  0.10004588123E+01  0.93800000000E+00 0.  1.
         22    1    1    2    0    0 -0.25530216627E+00 -0.79744648875E-01  0.24859638394E+01  0.25003109038E+01  0.00000000000E+00 0. -1.
</event>
<event>
 5    1  0.6564536E+001  0.1599673E+01  0.7818608E-02  0.3353718E+00
         11   -1    0    0    0    0  0.00000000000E+00  0.00000000000E+00  0.39999999674E+01  0.40000000000E+01  0.51100000000E-03 0.  1.
    9000002   -1    0    0    0    0 -0.00000000000E+00 -0.00000000000E+00  0.00000000000E+00  0.93800000000E+00  0.93800000000E+00 0.  1.
         11    1    1    2    0    0 -0.39946521432E-01 -0.56834590826E-01  0.60539075790E+00  0.60936370597E+00  0.51100000000E-03 0.  1.
    9000002    1    1    2    0    0  0.26363925524E+00  0.35601423792E+00  0.13315841038E+00  0.10458618249E+01  0.93800000000E+00 0.  1.
         22    1    1    2    0    0 -0.22369273381E+00 -0.29917964710E+00  0.32614507991E+01  0.32827744691E+01  0.00000000000E+00 0.  1.
</event>
<event>
 5    1  0.6564536E+001  0.1599660E+01  0.7818608E-02  0.3353733E+00
         11   -1    0    0    0    0  0.00000000000E+00  0.00000000000E+00  0.39999999674E+01  0.40000000000E+01  0.51100000000E-03 0.  1.
    9000002   -1    0    0    0    0 -0.00000000000E+00 -0.00000000000E+00  0.00000000000E+00  0.93800000000E+00  0.93800000000E+00 0.  1.
         11    1    1    2    0    0  0.67482235995E-01 -0.42128619229E-01  0.72828465277E+00  0.73261686393E+00  0.51100000000E-03 0.  1.
    9000002    1    1    2    0    0 -0.34065006203E+00  0.23212884678E+00  0.11481618599E+00  0.10309961313E+01  0.93800000000E+00 0.  1.
         22    1    1    2    0    0  0.27316782604E+00 -0.19000022755E+00  0.31568991286E+01  0.31743870047E+01  0.00000000000E+00 0.  1.
</event>
<event>
 5    1  0.6564536E+001  0.1599677E+01  0.7818608E-02  0.3353714E+00
         11   -1    0    0    0    0  0.00000000000E+00  0.00000000000E+00  0.39999999674E+01  0.40000000000E+01  0.51100000000E-03 0. -1.
    9000002   -1    0    0    0    0 -0.00000000000E+00 -0.00000000000E+00  0.00000000000E+00  0.93800000000E+00  0.93800000000E+00 0. -1.
         11    1    1    2    0    0  0.10916777004E-04 -0.13861392089E+00  0.13861934061E+01  0.13931066863E+01  0.51100000000E-03 0.  1.
    9000002    1    1    2    0    0 -0.20521150842E-03  0.38836304627E+00  0.10158595490E+00  0.10202889807E+01  0.93800000000E+00 0. -1.
         22    1    1    2    0    0  0.19429473142E-03 -0.24974912538E+00  0.25122206064E+01  0.25246043330E+01  0.00000000000E+00 0. -1.
</event>
<event>
 5    1  0.6564536E+001  0.1594462E+01  0.7818608E-02  0.3359397E+00
         11   -1    0    0    0    0  0.00000000000E+00  0.00000000000E+00  0.39999999674E+01  0.40000000000E+01  0.51100000000E-03 0. -1.
    9000002   -1    0    0    0    0 -0.00000000000E+00 -0.00000000000E+00  0.00000000000E+00  0.93800000000E+00  0.93800000000E+00 0.  1.
         11    1    1    2    0    0 -0.93203066430E-01 -0.11553108735E+00  0.67937285346E+00  0.69540058878E+00  0.51100000000E-03 0. -1.
    9000002    1    1    2    0    0  0.30348677621E+00  0.34819996519E+00  0.14972235726E+00  0.10562235669E+01  0.93800000000E+00 0.  1.
         22    1    1    2    0    0 -0.21028370978E+00 -0.23266887784E+00  0.31709047566E+01  0.31863758443E+01  0.00000000000E+00 0. -1.
</event>
<event>
 5    1  0.6564536E+001  0.1597975E+01  0.7818608E-02  0.3355564E+00
         11   -1    0    0    0    0  0.00000000000E+00  0.00000000000E+00  0.39999999674E+01  0.40000000000E+01  0.51100000000E-03 0.  1.
    9000002   -1    0    0    0    0 -0.00000000000E+00 -0.00000000000E+00  0.00000000000E+00  0.93800000000E+00  0.93800000000E+00 0.  1.
         11    1    1    2    0    0 -0.23396769958E-01 -0.81248543493E-01  0.69621718412E+00  0.70133256252E+00  0.51100000000E-03 0.  1.
    9000002    1    1    2    0    0 -0.66670341256E-01  0.37560705620E+00  0.99332689312E-01  0.10174657627E+01  0.93800000000E+00 0.  1.
         22    1    1    2    0    0  0.90067111214E-01 -0.29435851271E+00  0.32044500939E+01  0.32192016748E+01  0.00000000000E+00 0.  1.
</event>
<event>
 5    1  0.6564536E+001  0.1599488E+01  0.7818608E-02  0.3353919E+00
         11   -1    0    0    0    0  0.00000000000E+00  0.00000000000E+00  0.39999999674E+01  0.40000000000E+01  0.51100000000E-03 0.  1.
    9000002   -1    0    0    0    0 -0.00000000000E+00 -0.00000000000E+00  0.00000000000E+00  0.93800000000E+00  0.93800000000E+00 0.  1.
         11    1    1    2    0    0  0.19732657771E-01 -0.50818320462E-01  0.41891536737E+00  0.42244789692E+00  0.51100000000E-03 0.  1.
    9000002    1    1    2    0    0 -0.16338377062E+00  0.37768990224E+00  0.11455608820E+00  0.10306847317E+01  0.93800000000E+00 0.  1.
         22    1    1    2    0    0  0.14365111285E+00 -0.32687158178E+00  0.34665285118E+01  0.34848673714E+01  0.00000000000E+00 0.  1.
</event>
<event>
 5    1  0.6564536E+001  0.1592419E+01  0.7818608E-02  0.3361633E+00
         11   -1    0    0    0    0  0.00000000000E+00  0.00000000000E+00  0.39999999674E+01  0.40000000000E+01  0.51100000000E-03 0.  1.
    9000002   -1    0    0    0    0 -0.00000000000E+00 -0.00000000000E+00  0.00000000000E+00  0.93800000000E+00  0.93800000000E+00 0.  1.
         11    1    1    2    0    0  0.45593040562E-01  0.64177279226E-01  0.34640821900E+00  0.35524127551E+00  0.51100000000E-03 0.  1.
    9000002    1    1    2    0    0 -0.41067330770E+00 -0.67456923101E-01  0.12321230120E+00  0.10335512921E+01  0.93800000000E+00 0.  1.
         22    1    1    2    0    0  0.36508026714E+00  0.32796438753E-02  0.35303794472E+01  0.35492074324E+01  0.00000000000E+00 0.  1.
</event>
<event>
 5    1  0.6564536E+001  0.1597853E+01  0.7818608E-02  0.3355697E+00
         11   -1    0    0    0    0  0.00000000000E+00  0.00000000000E+00  0.39999999674E+01  0.40000000000E+01  0.51100000000E-03 0. -1.
    9000002   -1    0    0    0    0 -0.00000000000E+00 -0.00000000000E+00  0.00000000000E+00  0.93800000000E+00  0.93800000000E+00 0. -1.
         11    1    1    2    0    0 -0.11656469941E+00 -0.76096213379E-01  0.90544892195E+00  0.91608731801E+00  0.51100000000E-03 0. -1.
    9000002    1    1    2    0    0  0.31245527151E+00  0.30359702737E+00  0.13020087791E+00  0.10423990216E+01  0.93800000000E+00 0. -1.
         22    1    1    2    0    0 -0.19589057210E+00 -0.22750081399E+00  0.29643501675E+01  0.29795136603E+01  0.00000000000E+00 0. -1.
</event>
<event>
 5    1  0.6564536E+001  0.1599675E+01  0.7818608E-02  0.3353716E+00
         11   -1    0    0    0    0  0.00000000000E+00  0.00000000000E+00  0.39999999674E+01  0.40000000000E+01  0.51100000000E-03 0.  1.
    9000002   -1    0    0    0    0 -0.00000000000E+00 -0.00000000000E+00  0.00000000000E+00  0.93800000000E+00  0.93800000000E+00 0.  1.
         11    1    1    2    0    0 -0.86918174301E-01  0.51032620007E-01  0.10142620757E+01  0.10192580227E+01  0.51100000000E-03 0.  1.
    9000002    1    1    2    0    0  0.33547117209E+00 -0.20091188472E+00  0.10302269929E+00  0.10214519907E+01  0.93800000000E+00 0.  1.
         22    1    1    2    0    0 -0.24855299779E+00  0.14987926471E+00  0.28827151923E+01  0.28972899867E+01  0.00000000000E+00 0. -1.
</event>
<event>
 5    1  0.6564536E+001  0.1599592E+01  0.7818608E-02  0.3353806E+00
         11   -1    0    0    0    0  0.00000000000E+00  0.00000000000E+00  0.39999999674E+01  0.40000000000E+01  0.51100000000E-03 0. -1.
    9000002   -1    0    0    0    0 -0.00000000000E+00 -0.00000000000E+00  0.00000000000E+00  0.93800000000E+00  0.93800000000E+00 0. -1.
         11    1    1    2    0    0  0.12761051740E+00 -0.15865834939E-01  0.13255247950E+01  0.13317478786E+01  0.51100000000E-03 0. -1.
    9000002    1    1    2    0    0 -0.40520375266E+00  0.44898512871E-01  0.11229205998E+00  0.10289117865E+01  0.93800000000E+00 0. -1.
         22    1    1    2    0    0  0.27759323526E+00 -0.29032677931E-01  0.25621831124E+01  0.25773403349E+01  0.00000000000E+00 0. -1.
</event>
<event>
 5    1  0.6564536E+001  0.1599671E+01  0.7818608E-02  0.3353720E+00
         11   -1    0    0    0    0  0.00000000000E+00  0.00000000000E+00  0.39999999674E+01  0.40000000000E+01  0.51100000000E-03 0. -1.
    9000002   -1    0    0    0    0 -0.00000000000E+00 -0.00000000000E+00  0.00000000000E+00  0.93800000000E+00  0.93800000000E+00 0. -1.
         11    1    1    2    0    0 -0.12747204878E+00  0.56292596061E-01  0.10638661837E+01  0.10729536325E+01  0.51100000000E-03 0. -1.
    9000002    1    1    2    0    0  0.45882129271E+00 -0.21173494698E+00  0.17496302587E+00  0.10797243754E+01  0.93800000000E+00 0. -1.
         22    1    1    2    0    0 -0.33134924392E+00  0.15544235092E+00  0.27611707578E+01  0.27853219921E+01  0.00000000000E+00 0. -1.
</event>
<event>
 5    1  0.6564536E+001  0.1599629E+01  0.7818608E-02  0.3353766E+00
         11   -1    0    0    0    0  0.00000000000E+00  0.00000000000E+00  0.39999999674E+01  0.40000000000E+01  0.51100000000E-03 0. -1.
    9000002   -1    0    0    0    0 -0.00000000000E+00 -0.00000000000E+00  0.00000000000E+00  0.93800000000E+00  0.93800000000E+00 0.  1.
         11    1    1    2    0    0 -0.18455190121E+00 -0.28821526795E-01  0.14611401205E+01  0.14730311597E+01  0.51100000000E-03 0. -1.
    9000002    1    1    2    0    0  0.49342977954E+00  0.94285382425E-01  0.17286839793E+00  0.10780028588E+01  0.93800000000E+00 0.  1.
         22    1    1    2    0    0 -0.30887787833E+00 -0.65463855630E-01  0.23659914489E+01  0.23869659814E+01  0.00000000000E+00 0. -1.
</event>
<event>
 5    1  0.6564536E+001  0.1589415E+01  0.7818608E-02  0.3364932E+00
         11   -1    0    0    0    0  0.00000000000E+00  0.00000000000E+00  0.39999999674E+01  0.40000000000E+01  0.51100000000E-03 0.  1.
    9000002   -1    0    0    0    0 -0.00000000000E+00 -0.00000000000E+00  0.00000000000E+00  0.93800000000E+00  0.93800000000E+00 0.  1.
         11    1    1    2    0    0  0.28912918649E-01 -0.32147548646E-01  0.16703676143E+00  0.17254263977E+00  0.51100000000E-03 0.  1.
    9000002    1    1    2    0    0 -0.18940208725E+00 -0.29892739526E+00  0.92333647998E-01  0.10067771555E+01  0.93800000000E+00 0.  1.
         22    1    1    2    0    0  0.16048916861E+00  0.33107494391E+00  0.37406295579E+01  0.37586802047E+01  0.00000000000E+00 0.  1.
</event>
<event>
 5    1  0.6564536E+001  0.1596409E+01  0.7818608E-02  0.3357270E+00
         11   -1    0    0    0    0  0.00000000000E+00  0.00000000000E+00  0.39999999674E+01  0.40000000000E+01  0.51100000000E-03 0. -1.
    9000002   -1    0    0    0    0 -0.00000000000E+00 -0.00000000000E+00  0.00000000000E+00  0.93800000000E+00  0.93800000000E+00 0. -1.
         11    1    1    2    0    0 -0.12496607664E-01  0.25064300636E-02  0.92237072303E-01  0.93114907629E-01  0.51100000000E-03 0. -1.
    9000002    1    1    2    0    0 -0.59787253515E-01  0.55243710435E+00  0.21660068742E+00  0.11115399803E+01  0.93800000000E+00 0. -1.
         22    1    1    2    0    0  0.72283861179E-01 -0.55494353441E+00  0.36911622076E+01  0.37333451121E+01  0.00000000000E+00 0. -1.
</event>
<event>
 5    1  0.6564536E+001  0.1597540E+01  0.7818608E-02  0.3356037E+00
         11   -1    0    0    0    0  0.00000000000E+00  0.00000000000E+00  0.39999999674E+01  0.40000000000E+01  0.51100000000E-03 0.  1.
    9000002   -1    0    0    0    0 -0.00000000000E+00 -0.00000000000E+00  0.00000000000E+00  0.93800000000E+00  0.93800000000E+00 0. -1.
         11    1    1    2    0    0 -0.14424283066E-01  0.65592557924E-02  0.45872361381E-01  0.48534713743E-01  0.51100000000E-03 0.  1.
    9000002    1    1    2    0    0  0.16393308186E+00 -0.65413946682E+00  0.32516514227E+00  0.12001453525E+01  0.93800000000E+00 0. -1.
         22    1    1    2    0    0 -0.14950879879E+00  0.64758021103E+00  0.36289624637E+01  0.36893199338E+01  0.00000000000E+00 0.  1.
</event>
<event>
 5    1  0.6564536E+001  0.1589726E+01  0.7818608E-02  0.3364591E+00
         11   -1    0    0    0    0  0.00000000000E+00  0.00000000000E+00  0.39999999674E+01  0.40000000000E+01  0.51100000000E-03 0.  1.
    9000002   -1    0    0    0    0 -0.00000000000E+00 -0.00000000000E+00  0.00000000000E+00  0.93800000000E+00  0.93800000000E+00 0.  1.
         11    1    1    2    0    0  0.90670724393E-01 -0.43812686830E-01  0.33854681350E+00  0.35320665033E+00  0.51100000000E-03 0.  1.
    9000002    1    1    2    0    0 -0.23769485032E+00  0.50669805113E+00  0.22630488335E+00  0.11154818049E+01  0.93800000000E+00 0.  1.
         22    1    1    2    0    0  0.14702412593E+00 -0.46288536430E+00  0.34351482705E+01  0.34693115447E+01  0.00000000000E+00 0.  1.
</event>
<event>
 5    1  0.6564536E+001  0.1597548E+01  0.7818608E-02  0.3356029E+00
         11   -1    0    0    0    0  0.00000000000E+00  0.00000000000E+00  0.39999999674E+01  0.40000000000E+01  0.51100000000E-03 0. -1.
    9000002   -1    0    0    0    0 -0.00000000000E+00 -0.00000000000E+00  0.00000000000E+00  0.93800000000E+00  0.93800000000E+00 0. -1.
         11    1    1    2    0    0  0.28533343103E-01  0.39528584543E-01  0.32826134259E+00  0.33186206596E+00  0.51100000000E-03 0. -1.
    9000002    1    1    2    0    0 -0.47972330687E+00 -0.12949667324E+00  0.17084647952E+00  0.10751448084E+01  0.93800000000E+00 0. -1.
         22    1    1    2    0    0  0.45118996377E+00  0.89968088693E-01  0.35008921453E+01  0.35309931256E+01  0.00000000000E+00 0. -1.
</event>
<event>
 5    1  0.6564536E+001  0.1570052E+01  0.7818608E-02  0.3386523E+00
         11   -1    0    0    0    0  0.00000000000E+00  0.00000000000E+00  0.39999999674E+01  0.40000000000E+01  0.51100000000E-03 0. -1.
    9000002   -1    0    0    0    0 -0.00000000000E+00 -0.00000000000E+00  0.00000000000E+00  0.93800000000E+00  0.93800000000E+00 0.  1.
         11    1    1    2    0    0  0.86882689621E-01 -0.88265385010E-01  0.22716563285E+00  0.25873512675E+00  0.51100000000E-03 0. -1.
    9000002    1    1    2    0    0 -0.43986560180E+00  0.10980423400E+00  0.16578967510E+00  0.10549260324E+01  0.93800000000E+00 0.  1.
         22    1    1    2    0    0  0.35298291218E+00 -0.21538848989E-01  0.36070446594E+01  0.36243388409E+01  0.00000000000E+00 0. -1.
</event>
<event>
 5    1  0.6564536E+001  0.1474272E+01  0.7818608E-02  0.3502253E+00
         11   -1    0    0    0    0  0.00000000000E+00  0.00000000000E+00  0.39999999674E+01  0.40000000000E+01  0.51100000000E-03 0.  1.
    9000002   -1    0    0    0    0 -0.00000000000E+00 -0.00000000000E+00  0.00000000000E+00  0.93800000000E+00  0.93800000000E+00 0. -1.
         11    1    1    2    0    0 -0.45131169055E+00  0.34107524547E-01  0.12785443664E+01  0.13562896163E+01  0.51100000000E-03 0.  1.
    9000002    1    1    2    0    0 -0.86660180125E-01 -0.12852547290E+00  0.16175520467E+00  0.96438453443E+00  0.93800000000E+00 0. -1.
         22    1    1    2    0    0  0.53797187068E+00  0.94417948352E-01  0.25597003963E+01  0.26173258493E+01  0.00000000000E+00 0.  1.
</event>
<event>
 5    1  0.6564536E+001  0.1585178E+01  0.7818608E-02  0.3369610E+00
         11   -1    0    0    0    0  0.00000000000E+00  0.00000000000E+00  0.39999999674E+01  0.40000000000E+01  0.51100000000E-03 0. -1.
    9000002   -1    0    0    0    0 -0.00000000000E+00 -0.00000000000E+00  0.00000000000E+00  0.93800000000E+00  0.93800000000E+00 0.  1.
         11    1    1    2    0    0 -0.78547476107E-01  0.12178804070E-01  0.13804941541E+01  0.13827806767E+01  0.51100000000E-03 0. -1.
    9000002    1    1    2    0    0 -0.16600748746E+00  0.28071124228E-01  0.29567113748E-01  0.95344883876E+00  0.93800000000E+00 0.  1.
         22    1    1    2    0    0  0.24455496357E+00 -0.40249928298E-01  0.25899386995E+01  0.26017704845E+01  0.00000000000E+00 0. -1.
</event>
<event>
 5    1  0.6564536E+001  0.1599556E+01  0.7818608E-02  0.3353845E+00
         11   -1    0    0    0    0  0.00000000000E+00  0.00000000000E+00  0.39999999674E+01  0.40000000000E+01  0.51100000000E-03 0.  1.
    9000002   -1    0    0    0    0 -0.00000000000E+00 -0.00000000000E+00  0.00000000000E+00  0.93800000000E+00  0.93800000000E+00 0. -1.
         11    1    1    2    0    0 -0.77266047106E-01 -0.11973961272E+00  0.12389362997E+01  0.12471050609E+01  0.51100000000E-03 0.  1.
    9000002    1    1    2    0    0  0.23306129867E+00  0.33788401102E+00  0.11390147865E+00  0.10301945062E+01  0.93800000000E+00 0. -1.
         22    1    1    2    0    0 -0.15579525157E+00 -0.21814439830E+00  0.26471621890E+01  0.26607004329E+01  0.00000000000E+00 0.  1.
</event>
<event>
 5    1  0.6564536E+001  0.1599676E+01  0.7818608E-02  0.3353715E+00
         11   -1    0    0    0    0  0.00000000000E+00  0.00000000000E+00  0.39999999674E+01  0.40000000000E+01  0.51100000000E-03 0. -1.
    9000002   -1    0    0    0    0 -0.00000000000E+00 -0.00000000000E+00  0.00000000000E+00  0.93800000000E+00  0.93800000000E+00 0.  1.
         11    1    1    2    0    0  0.16347951166E-02  0.17863360944E-01  0.19026180096E+00  0.19110621718E+00  0.51100000000E-03 0.  1.
    9000002    1    1    2    0    0 -0.37037340768E-01 -0.36080470924E+00  0.88334040789E-01  0.10095537160E+01  0.93800000000E+00 0.  1.
         22    1    1    2    0    0  0.35402545651E-01  0.34294134829E+00  0.37214041256E+01  0.37373400668E+01  0.00000000000E+00 0. -1.
</event>
<event>
 5    1  0.6564536E+001  0.1599235E+01  0.7818608E-02  0.3354195E+00
         11   -1    0    0    0    0  0.00000000000E+00  0.00000000000E+00  0.39999999674E+01  0.40000000000E+01  0.51100000000E-03 0. -1.
    9000002   -1    0    0    0    0 -0.00000000000E+00 -0.00000000000E+00  0.00000000000E+00  0.93800000000E+00  0.93800000000E+00 0.  1.
         11    1    1    2    0    0 -0.63386846739E-02  0.39778922579E-01  0.26780079454E+00  0.27081371509E+00  0.51100000000E-03 0. -1.
    9000002    1    1    2    0    0 -0.20145702287E-01 -0.42626768584E+00  0.12365115165E+00  0.10379034621E+01  0.93800000000E+00 0.  1.
         22    1    1    2    0    0  0.26484386961E-01  0.38648876326E+00  0.36085480212E+01  0.36292828228E+01  0.00000000000E+00 0. -1.
</event>
<event>
 5    1  0.6564536E+001  0.1598890E+01  0.7818608E-02  0.3354569E+00
         11   -1    0    0    0    0  0.00000000000E+00  0.00000000000E+00  0.39999999674E+01  0.40000000000E+01  0.51100000000E-03 0. -1.
    9000002   -1    0    0    0    0 -0.00000000000E+00 -0.00000000000E+00  0.00000000000E+00  0.93800000000E+00  0.93800000000E+00 0.  1.
         11    1    1    2    0    0 -0.41644930697E-01 -0.88064934603E-01  0.13947218975E+01  0.13981198680E+01  0.51100000000E-03 0. -1.
    9000002    1    1    2    0    0  0.12722672037E+00  0.33742178549E+00  0.87935019253E-01  0.10087698783E+01  0.93800000000E+00 0.  1.
         22    1    1    2    0    0 -0.85581789677E-01 -0.24935685089E+00  0.25173430507E+01  0.25311102537E+01  0.00000000000E+00 0. -1.
</event>
<event>
 5    1  0.6564536E+001  0.1599094E+01  0.7818608E-02  0.3354348E+00
         11   -1    0    0    0    0  0.00000000000E+00  0.00000000000E+00  0.39999999674E+01  0.40000000000E+01  0.51100000000E-03 0.  1.
    9000002   -1    0    0    0    0 -0.00000000000E+00 -0.00000000000E+00  0.00000000000E+00  0.93800000000E+00  0.93800000000E+00 0.  1.
         11    1    1    2    0    0 -0.50051445901E-01  0.10761723650E+00  0.75592990420E+00  0.76519075923E+00  0.51100000000E-03 0.  1.
    9000002    1    1    2    0    0  0.33354047777E+00 -0.45683288608E+00  0.22221559308E+00  0.11176624293E+01  0.93800000000E+00 0.  1.
         22    1    1    2    0    0 -0.28348903187E+00  0.34921564959E+00  0.30218544701E+01  0.30551468114E+01  0.00000000000E+00 0.  1.
</event>
<event>
 5    1  0.6564536E+001  0.1580395E+01  0.7818608E-02  0.3374921E+00
         11   -1    0    0    0    0  0.00000000000E+00  0.00000000000E+00  0.39999999674E+01  0.40000000000E+01  0.51100000000E-03 0. -1.
    9000002   -1    0    0    0    0 -0.00000000000E+00 -0.00000000000E+00  0.00000000000E+00  0.93800000000E+00  0.93800000000E+00 0. -1.
         11    1    1    2    0    0  0.11653879260E+00 -0.26912409130E-01  0.95919360975E+00  0.96662206164E+00  0.51100000000E-03 0. -1.
    9000002    1    1    2    0    0 -0.20125844023E-02 -0.23544187061E+00  0.51577654085E-01  0.96847363378E+00  0.93800000000E+00 0. -1.
         22    1    1    2    0    0 -0.11452620819E+00  0.26235427974E+00  0.29892287035E+01  0.30029043046E+01  0.00000000000E+00 0. -1.
</event>
<event>
 5    1  0.6564536E+001  0.1599663E+01  0.7818608E-02  0.3353729E+00
         11   -1    0    0    0    0  0.00000000000E+00  0.00000000000E+00  0.39999999674E+01  0.40000000000E+01  0.51100000000E-03 0.  1.
    9000002   -1    0    0    0    0 -0.00000000000E+00 -0.00000000000E+00  0.00000000000E+00  0.93800000000E+00  0.93800000000E+00 0. -1.
         11    1    1    2    0    0 -0.46907122943E-01  0.19846841960E-01  0.39651133579E+00  0.39976952841E+00  0.51100000000E-03 0.  1.
    9000002    1    1    2    0    0  0.42965888161E+00 -0.18844923694E+00  0.14994814706E+00  0.10594566137E+01  0.93800000000E+00 0. -1.
         22    1    1    2    0    0 -0.38275175866E+00  0.16860239498E+00  0.34535404845E+01  0.34787738579E+01  0.00000000000E+00 0.  1.
</event>
<event>
 5    1  0.6564536E+001  0.1599677E+01  0.7818608E-02  0.3353714E+00
         11   -1    0    0    0    0  0.00000000000E+00  0.00000000000E+00  0.39999999674E+01  0.40000000000E+01  0.51100000000E-03 0. -1.
    9000002   -1    0    0    0    0 -0.00000000000E+00 -0.00000000000E+00  0.00000000000E+00  0.93800000000E+00  0.93800000000E+00 0.  1.
         11    1    1    2    0    0  0.10154201531E-01  0.76504998693E-01  0.71088358452E+00  0.71506073483E+00  0.51100000000E-03 0. -1.
    9000002    1    1    2    0    0 -0.56654305511E-01 -0.41962157090E+00  0.12131303909E+00  0.10362687038E+01  0.93800000000E+00 0.  1.
         22    1    1    2    0    0  0.46500103980E-01  0.34311657221E+00  0.31678033437E+01  0.31866705613E+01  0.00000000000E+00 0. -1.
</event>
<event>
 5    1  0.6564536E+001  0.1589338E+01  0.7818608E-02  0.3365017E+00
         11   -1    0    0    0    0  0.00000000000E+00  0.00000000000E+00  0.39999999674E+01  0.40000000000E+01  0.51100000000E-03 0.  1.
    9000002   -1    0    0    0    0 -0.00000000000E+00 -0.00000000000E+00  0.00000000000E+00  0.93800000000E+00  0.93800000000E+00 0. -1.
         11    1    1    2    0    0  0.83440089289E-02 -0.40540865593E-01  0.10425783969E+00  0.11217460732E+00  0.51100000000E-03 0.  1.
    9000002    1    1    2    0    0  0.36968323795E+00  0.17582135894E+00  0.12188376217E+00  0.10306689566E+01  0.93800000000E+00 0. -1.
         22    1    1    2    0    0 -0.37802724688E+00 -0.13528049334E+00  0.37738583655E+01  0.37951564361E+01  0.00000000000E+00 0.  1.
</event>
<event>
 5    1  0.6564536E+001  0.1474810E+01  0.7818608E-02  0.3501556E+00
         11   -1    0    0    0    0  0.00000000000E+00  0.00000000000E+00  0.39999999674E+01  0.40000000000E+01  0.51100000000E-03 0.  1.
    9000002   -1    0    0    0    0 -0.00000000000E+00 -0.00000000000E+00  0.00000000000E+00  0.93800000000E+00  0.93800000000E+00 0. -1.
         11    1    1    2    0    0  0.39568198603E+00  0.18531578058E+00  0.10904629803E+01  0.11747407991E+01  0.51100000000E-03 0.  1.
    9000002    1    1    2    0    0 -0.16077436990E+00 -0.79465792751E-01  0.12074892111E+00  0.96259415757E+00  0.93800000000E+00 0. -1.
         22    1    1    2    0    0 -0.23490761613E+00 -0.10584998783E+00  0.27887880659E+01  0.28006650433E+01  0.00000000000E+00 0.  1.
</event>
<event>
 5    1  0.6564536E+001  0.1599635E+01  0.7818608E-02  0.3353759E+00
         11   -1    0    0    0    0  0.00000000000E+00  0.00000000000E+00  0.39999999674E+01  0.40000000000E+01  0.51100000000E-03 0.  1.
    9000002   -1    0    0    0    0 -0.00000000000E+00 -0.00000000000E+00  0.00000000000E+00  0.93800000000E+00  0.93800000000E+00 0.  1.
         11    1    1    2    0    0 -0.48811047873E-02 -0.16146278970E-01  0.12139141757E+00  0.12255882216E+00  0.51100000000E-03 0.  1.
    9000002    1    1    2    0    0  0.20092198499E+00  0.43994490017E+00  0.15973915410E+00  0.10673714239E+01  0.93800000000E+00 0.  1.
         22    1    1    2    0    0 -0.19604088020E+00 -0.42379862120E+00  0.37188693957E+01  0.37480697539E+01  0.00000000000E+00 0.  1.
</event>
<event>
 5    1  0.6564536E+001  0.1591117E+01  0.7818608E-02  0.3363062E+00
         11   -1    0    0    0    0  0.00000000000E+00  0.00000000000E+00  0.39999999674E+01  0.40000000000E+01  0.51100000000E-03 0. -1.
    9000002   -1    0    0    0    0 -0.00000000000E+00 -0.00000000000E+00  0.00000000000E+00  0.93800000000E+00  0.93800000000E+00 0.  1.
         11    1    1    2    0    0  0.37716001137E-01 -0.11825834153E+00  0.11023114531E+01  0.11092782937E+01  0.51100000000E-03 0. -1.
    9000002    1    1    2    0    0  0.19341850450E+00  0.28097521081E+00  0.84831397813E-01  0.10016976355E+01  0.93800000000E+00 0.  1.
         22    1    1    2    0    0 -0.23113450564E+00 -0.16271686928E+00  0.28128571165E+01  0.28270240708E+01  0.00000000000E+00 0. -1.
</event>
<event>
 5    1  0.6564536E+001  0.1599663E+01  0.7818608E-02  0.3353729E+00
         11   -1    0    0    0    0  0.00000000000E+00  0.00000000000E+00  0.39999999674E+01  0.40000000000E+01  0.51100000000E-03 0. -1.
    9000002   -1    0    0    0    0 -0.00000000000E+00 -0.00000000000E+00  0.00000000000E+00  0.93800000000E+00  0.93800000000E+00 0.  1.
         11    1    1    2    0    0 -0.12192888274E+00  0.81798857477E-01  0.14564081909E+01  0.14637905537E+01  0.51100000000E-03 0. -1.
    9000002    1    1    2    0    0  0.32076921236E+00 -0.20904922710E+00  0.98680516525E-01  0.10179274588E+01  0.93800000000E+00 0.  1.
         22    1    1    2    0    0 -0.19884032962E+00  0.12725036963E+00  0.24449112600E+01  0.24562819875E+01  0.00000000000E+00 0. -1.
</event>
<event>
 5    1  0.6564536E+001  0.1557942E+01  0.7818608E-02  0.3400316E+00
         11   -1    0    0    0    0  0.00000000000E+00  0.00000000000E+00  0.39999999674E+01  0.40000000000E+01  0.51100000000E-03 0. -1.
    9000002   -1    0    0    0    0 -0.00000000000E+00 -0.00000000000E+00  0.00000000000E+00  0.93800000000E+00  0.93800000000E+00 0. -1.
         11    1    1    2    0    0  0.53144321876E+00 -0.41811195614E-01  0.88098458167E+00  0.10297155749E+01  0.51100000000E-03 0. -1.
    9000002    1    1    2    0    0 -0.47809910426E-02  0.51571028817E-01  0.22403685315E+00  0.96577375221E+00  0.93800000000E+00 0. -1.
         22    1    1    2    0    0 -0.52666222772E+00 -0.97598332032E-02  0.28949785325E+01  0.29425106729E+01  0.00000000000E+00 0. -1.
</event>
<event>
 5    1  0.6564536E+001  0.1563086E+01  0.7818608E-02  0.3394430E+00
         11   -1    0    0    0    0  0.00000000000E+00  0.00000000000E+00  0.39999999674E+01  0.40000000000E+01  0.51100000000E-03 0.  1.
    9000002   -1    0    0    0    0 -0.00000000000E+00 -0.00000000000E+00  0.00000000000E+00  0.93800000000E+00  0.93800000000E+00 0. -1.
         11    1    1    2    0    0 -0.13417742047E-01  0.16722035983E-03 -0.10598109810E-01  0.17106864612E-01  0.51100000000E-03 0.  1.
    9000002    1    1    2    0    0  0.14994020783E+00  0.36195188127E+00  0.13434599564E+00  0.10253702145E+01  0.93800000000E+00 0. -1.
         22    1    1    2    0    0 -0.13652246579E+00 -0.36211910163E+00  0.38762520815E+01  0.38955229209E+01  0.00000000000E+00 0.  1.
</event>
<event>
 5    1  0.6564536E+001  0.1599675E+01  0.7818608E-02  0.3353716E+00
         11   -1    0    0    0    0  0.00000000000E+00  0.00000000000E+00  0.39999999674E+01  0.40000000000E+01  0.51100000000E-03 0. -1.
    9000002   -1    0    0    0    0 -0.00000000000E+00 -0.00000000000E+00  0.00000000000E+00  0.93800000000E+00  0.93800000000E+00 0. -1.
         11    1    1    2    0    0 -0.52009462683E-01  0.10000597089E+00  0.12236453505E+01  0.12288264253E+01  0.51100000000E-03 0. -1.
    9000002    1    1    2    0    0  0.17024006262E+00 -0.31769593127E+00  0.87210848892E-01  0.10086437011E+01  0.93800000000E+00 0. -1.
         22    1    1    2    0    0 -0.11823059994E+00  0.21768996038E+00  0.26891437679E+01  0.27005298736E+01  0.00000000000E+00 0. -1.
</event>
<event>
 5    1  0.6564536E+001  0.1599244E+01  0.7818608E-02  0.3354185E+00
         11   -1    0    0    0    0  0.00000000000E+00  0.00000000000E+00  0.39999999674E+01  0.40000000000E+01  0.51100000000E-03 0. -1.
    9000002   -1    0    0    0    0 -0.00000000000E+00 -0.00000000000E+00  0.00000000000E+00  0.93800000000E+00  0.93800000000E+00 0. -1.
         11    1    1    2    0    0 -0.10156841655E+00 -0.16543471775E+00  0.14200783097E+01  0.14332855459E+01  0.51100000000E-03 0. -1.
    9000002    1    1    2    0    0  0.21180005746E+00  0.42941111716E+00  0.15677713356E+00  0.10647423357E+01  0.93800000000E+00 0. -1.
         22    1    1    2    0    0 -0.11023164091E+00 -0.26397639941E+00  0.24231445241E+01  0.24399721184E+01  0.00000000000E+00 0. -1.
</event>
<event>
 5    1  0.6564536E+001  0.1589805E+01  0.7818608E-02  0.3364503E+00
         11   -1    0    0    0    0  0.00000000000E+00  0.00000000000E+00  0.39999999674E+01  0.40000000000E+01  0.51100000000E-03 0.  1.
    9000002   -1    0    0    0    0 -0.00000000000E+00 -0.00000000000E+00  0.00000000000E+00  0.93800000000E+00  0.93800000000E+00 0.  1.
         11    1    1    2    0    0 -0.87155815812E-02  0.39146802481E-01  0.12805518960E+01  0.12811798676E+01  0.51100000000E-03 0.  1.
    9000002    1    1    2    0    0 -0.23723472244E+00  0.10183985126E+00  0.51914095446E-01  0.97426420551E+00  0.93800000000E+00 0.  1.
         22    1    1    2    0    0  0.24595030402E+00 -0.14098665374E+00  0.26675339759E+01  0.26825559269E+01  0.00000000000E+00 0.  1.
</event>
<event>
 5    1  0.6564536E+001  0.1572143E+01  0.7818608E-02  0.3384164E+00
         11   -1    0    0    0    0  0.00000000000E+00  0.00000000000E+00  0.39999999674E+01  0.40000000000E+01  0.51100000000E-03 0. -1.
    9000002   -1    0    0    0    0 -0.00000000000E+00 -0.00000000000E+00  0.00000000000E+00  0.93800000000E+00  0.93800000000E+00 0.  1.
         11    1    1    2    0    0  0.20460175237E-01  0.21619992212E+00  0.12133077844E+01  0.12325895772E+01  0.51100000000E-03 0. -1.
    9000002    1    1    2    0    0  0.39724918599E+00 -0.32050255267E+00  0.20414274936E+00  0.10872198785E+01  0.93800000000E+00 0.  1.
         22    1    1    2    0    0 -0.41770936123E+00  0.10430263055E+00  0.25825494336E+01  0.26181905443E+01  0.00000000000E+00 0. -1.
</event>
<event>
 5    1  0.6597278E+001  0.1597776E+01  0.7818608E-02  0.3355780E+00
         11   -1    0    0    0    0  0.00000000000E+00  0.00000000000E+00  0.39999999674E+01  0.40000000000E+01  0.51100000000E-03 0.  1.
    9000002   -1    0    0    0    0 -0.00000000000E+00 -0.00000000000E+00  0.00000000000E+00  0.93800000000E+00  0.93800000000E+00 0. -1.
         11    1    1    2    0    0 -0.12445091356E+00 -0.15353185605E+00  0.13979552746E+01  0.14118566753E+01  0.51100000000E-03 0.  1.
    9000002    1    1    2    0    0  0.30127123597E+00  0.29259434374E+00  0.12088922556E+00  0.10348110999E+01  0.93800000000E+00 0. -1.
         22    1    1    2    0    0 -0.17682032241E+00 -0.13906248769E+00  0.24811554672E+01  0.24913322248E+01  0.00000000000E+00 0.  1.
</event>
<event>
 5    1  0.6564536E+001  0.1563148E+01  0.7818608E-02  0.3394359E+00
         11   -1    0    0    0    0  0.00000000000E+00  0.00000000000E+00  0.39999999674E+01  0.40000000000E+01  0.51100000000E-03 0.  1.
    9000002   -1    0    0    0    0 -0.00000000000E+00 -0.00000000000E+00  0.00000000000E+00  0.93800000000E+00  0.93800000000E+00 0. -1.
         11    1    1    2    0    0  0.46140612930E-01  0.11439271061E+00  0.11231435791E+01  0.11298966363E+01  0.51100000000E-03 0.  1.
    9000002    1    1    2    0    0  0.33291583499E+00  0.13154108470E+00  0.11616651563E+00  0.10106803003E+01  0.93800000000E+00 0. -1.
         22    1    1    2    0    0 -0.37905644792E+00 -0.24593379530E+00  0.27606898727E+01  0.27974230634E+01  0.00000000000E+00 0.  1.
</event>
<event>
 5    1  0.6564536E+001  0.1599677E+01  0.7818608E-02  0.3353714E+00
         11   -1    0    0    0    0  0.00000000000E+00  0.00000000000E+00  0.39999999674E+01  0.40000000000E+01  0.51100000000E-03 0.  1.
    9000002   -1    0    0    0    0 -0.00000000000E+00 -0.00000000000E+00  0.00000000000E+00  0.93800000000E+00  0.93800000000E+00 0. -1.
         11    1    1    2    0    0  0.11692440254E+00  0.86676003529E-01  0.11490281025E+01  0.11582097767E+01  0.51100000000E-03 0. -1.
    9000002    1    1    2    0    0 -0.39022879978E+00 -0.28997051471E+00  0.16143393788E+00  0.10687686054E+01  0.93800000000E+00 0. -1.
         22    1    1    2    0    0  0.27330439724E+00  0.20329451118E+00  0.26895379270E+01  0.27110216179E+01  0.00000000000E+00 0.  1.
</event>
<event>
 5    1  0.6564536E+001  0.1599636E+01  0.7818608E-02  0.3353759E+00
         11   -1    0    0    0    0  0.00000000000E+00  0.00000000000E+00  0.39999999674E+01  0.40000000000E+01  0.51100000000E-03 0.  1.
    9000002   -1    0    0    0    0 -0.00000000000E+00 -0.00000000000E+00  0.00000000000E+00  0.93800000000E+00  0.93800000000E+00 0.  1.
         11    1    1    2    0    0  0.52185997012E-01 -0.20661604340E-01  0.55164169084E+00  0.55448994253E+00  0.51100000000E-03 0.  1.
    9000002    1    1    2    0    0 -0.34992381913E+00  0.11388991777E+00  0.91017987353E-01  0.10117044364E+01  0.93800000000E+00 0.  1.
         22    1    1    2    0    0  0.29773782212E+00 -0.93228313427E-01  0.33573402892E+01  0.33718056211E+01  0.00000000000E+00 0.  1.
</event>
<event>
 5    1  0.6564536E+001  0.1559616E+01  0.7818608E-02  0.3398396E+00
         11   -1    0    0    0    0  0.00000000000E+00  0.00000000000E+00  0.39999999674E+01  0.40000000000E+01  0.51100000000E-03 0.  1.
    9000002   -1    0    0    0    0 -0.00000000000E+00 -0.00000000000E+00  0.00000000000E+00  0.93800000000E+00  0.93800000000E+00 0.  1.
         11    1    1    2    0    0  0.26316218424E+00  0.60411022427E-01  0.12447694213E+01  0.12737170016E+01  0.51100000000E-03 0.  1.
    9000002    1    1    2    0    0 -0.43626046549E+00 -0.73465248084E+00  0.60785960060E+00  0.14069025394E+01  0.93800000000E+00 0.  1.
         22    1    1    2    0    0  0.17309828125E+00  0.67424145841E+00  0.21473709455E+01  0.22573804590E+01  0.00000000000E+00 0.  1.
</event>
<event>
 5    1  0.6564536E+001  0.1599672E+01  0.7818608E-02  0.3353720E+00
         11   -1    0    0    0    0  0.00000000000E+00  0.00000000000E+00  0.39999999674E+01  0.40000000000E+01  0.51100000000E-03 0. -1.
    9000002   -1    0    0    0    0 -0.00000000000E+00 -0.00000000000E+00  0.00000000000E+00  0.93800000000E+00  0.93800000000E+00 0.  1.
         11    1    1    2    0    0  0.10447151103E+00  0.27009006410E-01  0.57796791931E+00  0.58795489615E+00  0.51100000000E-03 0. -1.
    9000002    1    1    2    0    0 -0.67369401153E+00 -0.17149616300E+00  0.34494509247E+00  0.12174176243E+01  0.93800000000E+00 0.  1.
         22    1    1    2    0    0  0.56922250050E+00  0.14448715659E+00  0.30770869556E+01  0.31326274796E+01  0.00000000000E+00 0. -1.
</event>
<event>
 5    1  0.6564536E+001  0.1598276E+01  0.7818608E-02  0.3355237E+00
         11   -1    0    0    0    0  0.00000000000E+00  0.00000000000E+00  0.39999999674E+01  0.40000000000E+01  0.51100000000E-03 0.  1.
    9000002   -1    0    0    0    0 -0.00000000000E+00 -0.00000000000E+00  0.00000000000E+00  0.93800000000E+00  0.93800000000E+00 0.  1.
         11    1    1    2    0    0 -0.69193697359E-01 -0.47918436972E-01  0.97740738227E+00  0.98102466656E+00  0.51100000000E-03 0.  1.
    9000002    1    1    2    0    0  0.40382226145E+00  0.26932624178E+00  0.16214672175E+00  0.10685244980E+01  0.93800000000E+00 0. -1.
         22    1    1    2    0    0 -0.33462856409E+00 -0.22140780481E+00  0.28604458633E+01  0.28884508355E+01  0.00000000000E+00 0.  1.
</event>
<event>
 5    1  0.6564536E+001  0.1598763E+01  0.7818608E-02  0.3354707E+00
         11   -1    0    0    0    0  0.00000000000E+00  0.00000000000E+00  0.39999999674E+01  0.40000000000E+01  0.51100000000E-03 0. -1.
    9000002   -1    0    0    0    0 -0.00000000000E+00 -0.00000000000E+00  0.00000000000E+00  0.93800000000E+00  0.93800000000E+00 0. -1.
         11    1    1    2    0    0 -0.19802246678E-01  0.79529503604E-01  0.87441402495E+00  0.87824667325E+00  0.51100000000E-03 0. -1.
    9000002    1    1    2    0    0  0.49395263941E-01 -0.47872240233E+00  0.15887745442E+00  0.10661618433E+01  0.93800000000E+00 0. -1.
         22    1    1    2    0    0 -0.29593017264E-01  0.39919289873E+00  0.29667084880E+01  0.29935914834E+01  0.00000000000E+00 0. -1.
</event>
<event>
 5    1  0.6564536E+001  0.1596087E+01  0.7818608E-02  0.3357621E+00
         11   -1    0    0    0    0  0.00000000000E+00  0.00000000000E+00  0.39999999674E+01  0.40000000000E+01  0.51100000000E-03 0. -1.
    9000002   -1    0    0    0    0 -0.00000000000E+00 -0.00000000000E+00  0.00000000000E+00  0.93800000000E+00  0.93800000000E+00 0. -1.
         11    1    1    2    0    0  0.36092853526E+00 -0.93275845438E-01  0.10067796103E+01  0.10735805679E+01  0.51100000000E-03 0. -1.
    9000002    1    1    2    0    0 -0.11150052337E+01  0.85229670989E-01  0.11034545422E+01  0.18297422482E+01  0.93800000000E+00 0. -1.
         22    1    1    2    0    0  0.75407669841E+00  0.80461744498E-02  0.18897658149E+01  0.20346771840E+01  0.00000000000E+00 0. -1.
</event>
<event>
 5    1  0.6564536E+001  0.1599675E+01  0.7818608E-02  0.3353716E+00
         11   -1    0    0    0    0  0.00000000000E+00  0.00000000000E+00  0.39999999674E+01  0.40000000000E+01  0.51100000000E-03 0. -1.
    9000002   -1    0    0    0    0 -0.00000000000E+00 -0.00000000000E+00  0.00000000000E+00  0.93800000000E+00  0.93800000000E+00 0. -1.
         11    1    1    2    0    0  0.16514138189E-01 -0.43796262740E-01  0.43927849095E+00  0.44176541639E+00  0.51100000000E-03 0. -1.
    9000002    1    1    2    0    0 -0.15421478585E+00  0.38276106853E+00  0.11505491439E+00  0.10311982686E+01  0.93800000000E+00 0. -1.
         22    1    1    2    0    0  0.13770064767E+00 -0.33896480579E+00  0.34456665620E+01  0.34650363150E+01  0.00000000000E+00 0. -1.
</event>
<event>
 5    1  0.6564536E+001  0.1551494E+01  0.7818608E-02  0.3407754E+00
         11   -1    0    0    0    0  0.00000000000E+00  0.00000000000E+00  0.39999999674E+01  0.40000000000E+01  0.51100000000E-03 0.  1.
    9000002   -1    0    0    0    0 -0.00000000000E+00 -0.00000000000E+00  0.00000000000E+00  0.93800000000E+00  0.93800000000E+00 0. -1.
         11    1    1    2    0    0  0.15853886719E+00  0.40027015302E-01  0.64027827563E+00  0.66082771259E+00  0.51100000000E-03 0.  1.
    9000002    1    1    2    0    0  0.22922948232E+00 -0.29731214144E+00  0.13531814432E+00  0.10193604197E+01  0.93800000000E+00 0. -1.
         22    1    1    2    0    0 -0.38776834951E+00  0.25728512614E+00  0.32244035474E+01  0.32578118677E+01  0.00000000000E+00 0.  1.
</event>
<event>
 5    1  0.6564536E+001  0.1599180E+01  0.7818608E-02  0.3354254E+00
         11   -1    0    0    0    0  0.00000000000E+00  0.00000000000E+00  0.39999999674E+01  0.40000000000E+01  0.51100000000E-03 0.  1.
    9000002   -1    0    0    0    0 -0.00000000000E+00 -0.00000000000E+00  0.00000000000E+00  0.93800000000E+00  0.93800000000E+00 0. -1.
         11    1    1    2    0    0 -0.79338710078E-01  0.65777181338E-01  0.70095168583E+00  0.70848768196E+00  0.51100000000E-03 0.  1.
    9000002    1    1    2    0    0  0.32141183590E+00 -0.37752961485E+00  0.16861567688E+00  0.10742948500E+01  0.93800000000E+00 0. -1.
         22    1    1    2    0    0 -0.24207312582E+00  0.31175243352E+00  0.31304326046E+01  0.31552174680E+01  0.00000000000E+00 0.  1.
</event>
<event>
 5    1  0.6564536E+001  0.1577464E+01  0.7818608E-02  0.3378192E+00
         11   -1    0    0    0    0  0.00000000000E+00  0.00000000000E+00  0.39999999674E+01  0.40000000000E+01  0.51100000000E-03 0.  1.
    9000002   -1    0    0    0    0 -0.00000000000E+00 -0.00000000000E+00  0.00000000000E+00  0.93800000000E+00  0.93800000000E+00 0.  1.
         11    1    1    2    0    0  0.11766079043E+00  0.14260929181E+00  0.84693556243E+00  0.86688037223E+00  0.51100000000E-03 0.  1.
    9000002    1    1    2    0    0  0.85908053620E-01 -0.38241987522E+00  0.12213112740E+00  0.10239068155E+01  0.93800000000E+00 0.  1.
         22    1    1    2    0    0 -0.20356884405E+00  0.23981058340E+00  0.30309332775E+01  0.30472128122E+01  0.00000000000E+00 0.  1.
</event>
<event>
 5    1  0.6564536E+001  0.1549654E+01  0.7818608E-02  0.3409888E+00
         11   -1    0    0    0    0  0.00000000000E+00  0.00000000000E+00  0.39999999674E+01  0.40000000000E+01  0.51100000000E-03 0. -1.
    9000002   -1    0    0    0    0 -0.00000000000E+00 -0.00000000000E+00  0.00000000000E+00  0.93800000000E+00  0.93800000000E+00 0. -1.
         11    1    1    2    0    0  0.42370582201E+00  0.29647228687E+00  0.66635272725E+00  0.84347416008E+00  0.51100000000E-03 0. -1.
    9000002    1    1    2    0    0 -0.36233808504E+00  0.20514450580E+00  0.37437942210E+00  0.10924180097E+01  0.93800000000E+00 0. -1.
         22    1    1    2    0    0 -0.61367736971E-01 -0.50161679267E+00  0.29592678180E+01  0.30021078303E+01  0.00000000000E+00 0. -1.
</event>
<event>
 5    1  0.6564536E+001  0.1599579E+01  0.7818608E-02  0.3353821E+00
         11   -1    0    0    0    0  0.00000000000E+00  0.00000000000E+00  0.39999999674E+01  0.40000000000E+01  0.51100000000E-03 0.  1.
    9000002   -1    0    0    0    0 -0.00000000000E+00 -0.00000000000E+00  0.00000000000E+00  0.93800000000E+00  0.93800000000E+00 0.  1.
         11    1    1    2    0    0  0.60276933875E-01 -0.20080413505E+00  0.11219860789E+01  0.11414064271E+01  0.51100000000E-03 0.  1.
    9000002    1    1    2    0    0 -0.21917202631E+00  0.67804356642E+00  0.36425797953E+00  0.12330074334E+01  0.93800000000E+00 0.  1.
         22    1    1    2    0    0  0.15889509243E+00 -0.47723943137E+00  0.25137559089E+01  0.25635861395E+01  0.00000000000E+00 0.  1.
</event>
<event>
 5    1  0.1427793E+002  0.1597095E+01  0.7818608E-02  0.3356523E+00
         11   -1    0    0    0    0  0.00000000000E+00  0.00000000000E+00  0.39999999674E+01  0.40000000000E+01  0.51100000000E-03 0. -1.
    9000002   -1    0    0    0    0 -0.00000000000E+00 -0.00000000000E+00  0.00000000000E+00  0.93800000000E+00  0.93800000000E+00 0. -1.
         11    1    1    2    0    0 -0.86209836396E-02 -0.52846371990E-01  0.14824826265E+01  0.14834493788E+01  0.51100000000E-03 0. -1.
    9000002    1    1    2    0    0 -0.84965835893E-01  0.25614856648E+00  0.50451610224E-01  0.97735390026E+00  0.93800000000E+00 0. -1.
         22    1    1    2    0    0  0.93586819532E-01 -0.20330219449E+00  0.24670657306E+01  0.24771967209E+01  0.00000000000E+00 0.  1.
</event>
<event>
 5    1  0.6564536E+001  0.1454014E+01  0.7818608E-02  0.3528840E+00
         11   -1    0    0    0    0  0.00000000000E+00  0.00000000000E+00  0.39999999674E+01  0.40000000000E+01  0.51100000000E-03 0. -1.
    9000002   -1    0    0    0    0 -0.00000000000E+00 -0.00000000000E+00  0.00000000000E+00  0.93800000000E+00  0.93800000000E+00 0.  1.
         11    1    1    2    0    0  0.43097407199E-01  0.33234335087E+00  0.93043017858E+00  0.98894391536E+00  0.51100000000E-03 0. -1.
    9000002    1    1    2    0    0  0.19912705356E-02  0.31792060823E+00  0.20518974576E+00  0.10114466422E+01  0.93800000000E+00 0.  1.
         22    1    1    2    0    0 -0.45088677735E-01 -0.65026395911E+00  0.28643800430E+01  0.29376094424E+01  0.00000000000E+00 0. -1.
</event>
<event>
 5    1  0.6564536E+001  0.1570783E+01  0.7818608E-02  0.3385698E+00
         11   -1    0    0    0    0  0.00000000000E+00  0.00000000000E+00  0.39999999674E+01  0.40000000000E+01  0.51100000000E-03 0. -1.
    9000002   -1    0    0    0    0 -0.00000000000E+00 -0.00000000000E+00  0.00000000000E+00  0.93800000000E+00  0.93800000000E+00 0.  1.
         11    1    1    2    0    0 -0.12233397642E+00  0.13915635963E+00  0.10736854287E+01  0.10895553016E+01  0.51100000000E-03 0. -1.
    9000002    1    1    2    0    0  0.42985303139E+00  0.15900217963E+00  0.16841277782E+00  0.10574791655E+01  0.93800000000E+00 0.  1.
         22    1    1    2    0    0 -0.30751905497E+00 -0.29815853926E+00  0.27579017608E+01  0.27909655329E+01  0.00000000000E+00 0. -1.
</event>
<event>
 5    1  0.6564536E+001  0.1599614E+01  0.7818608E-02  0.3353783E+00
         11   -1    0    0    0    0  0.00000000000E+00  0.00000000000E+00  0.39999999674E+01  0.40000000000E+01  0.51100000000E-03 0.  1.
    9000002   -1    0    0    0    0 -0.00000000000E+00 -0.00000000000E+00  0.00000000000E+00  0.93800000000E+00  0.93800000000E+00 0.  1.
         11    1    1    2    0    0  0.53862684198E-01 -0.71340178601E-01  0.88669432419E+00  0.89118892246E+00  0.51100000000E-03 0.  1.
    9000002    1    1    2    0    0 -0.24522468557E+00  0.34604235294E+00  0.12177620347E+00  0.10366069169E+01  0.93800000000E+00 0.  1.
         22    1    1    2    0    0  0.19136200137E+00 -0.27470217434E+00  0.29915294397E+01  0.30102041606E+01  0.00000000000E+00 0.  1.
</event>
<event>
 5    1  0.6564536E+001  0.1599657E+01  0.7818608E-02  0.3353736E+00
         11   -1    0    0    0    0  0.00000000000E+00  0.00000000000E+00  0.39999999674E+01  0.40000000000E+01  0.51100000000E-03 0. -1.
    9000002   -1    0    0    0    0 -0.00000000000E+00 -0.00000000000E+00  0.00000000000E+00  0.93800000000E+00  0.93800000000E+00 0. -1.
         11    1    1    2    0    0  0.11824857506E+00  0.64574203969E-01  0.14179557290E+01  0.14243423969E+01  0.51100000000E-03 0. -1.
    9000002    1    1    2    0    0 -0.32119171760E+00 -0.19137022347E+00  0.94001408885E-01  0.10141335941E+01  0.93800000000E+00 0. -1.
         22    1    1    2    0    0  0.20294314254E+00  0.12679601950E+00  0.24880428295E+01  0.24995240089E+01  0.00000000000E+00 0. -1.
</event>
<event>
 5    1  0.6564536E+001  0.1599677E+01  0.7818608E-02  0.3353714E+00
         11   -1    0    0    0    0  0.00000000000E+00  0.00000000000E+00  0.39999999674E+01  0.40000000000E+01  0.51100000000E-03 0.  1.
    9000002   -1    0    0    0    0 -0.00000000000E+00 -0.00000000000E+00  0.00000000000E+00  0.93800000000E+00  0.93800000000E+00 0.  1.
         11    1    1    2    0    0  0.14527658592E+00 -0.44211230545E-01  0.14922892937E+01  0.14999958389E+01  0.51100000000E-03 0.  1.
    9000002    1    1    2    0    0 -0.38052597617E+00  0.11457530891E+00  0.10649011970E+00  0.10242615220E+01  0.93800000000E+00 0.  1.
         22    1    1    2    0    0  0.23524939025E+00 -0.70364078370E-01  0.24012205539E+01  0.24137426391E+01  0.00000000000E+00 0. -1.
</event>
<event>
 5    1  0.6564536E+001  0.1599666E+01  0.7818608E-02  0.3353726E+00
         11   -1    0    0    0    0  0.00000000000E+00  0.00000000000E+00  0.39999999674E+01  0.40000000000E+01  0.51100000000E-03 0.  1.
    9000002   -1    0    0    0    0 -0.00000000000E+00 -0.00000000000E+00  0.00000000000E+00  0.93800000000E+00  0.93800000000E+00 0. -1.
         11    1    1    2    0    0 -0.38900440579E-02  0.59846706571E-02  0.71556952730E-01  0.71913888302E-01  0.51100000000E-03 0.  1.
    9000002    1    1    2    0    0  0.19729345245E+00 -0.37435138561E+00  0.12116305123E+00  0.10361409901E+01  0.93800000000E+00 0. -1.
         22    1    1    2    0    0 -0.19340340839E+00  0.36836671495E+00  0.38072799634E+01  0.38299451216E+01  0.00000000000E+00 0.  1.
</event>
<event>
 5    1  0.6564536E+001  0.1599600E+01  0.7818608E-02  0.3353797E+00
         11   -1    0    0    0    0  0.00000000000E+00  0.00000000000E+00  0.39999999674E+01  0.40000000000E+01  0.51100000000E-03 0. -1.
    9000002   -1    0    0    0    0 -0.00000000000E+00 -0.00000000000E+00  0.00000000000E+00  0.93800000000E+00  0.93800000000E+00 0.  1.
         11    1    1    2    0    0 -0.15924918725E+00 -0.14324091719E-01  0.14227616586E+01  0.14317180175E+01  0.51100000000E-03 0. -1.
    9000002    1    1    2    0    0  0.45765899688E+00  0.48192735443E-01  0.14411964393E+00  0.10546984256E+01  0.93800000000E+00 0.  1.
         22    1    1    2    0    0 -0.29840980963E+00 -0.33868643725E-01  0.24331186648E+01  0.24515835569E+01  0.00000000000E+00 0. -1.
</event>
<event>
 5    1  0.6564536E+001  0.1599667E+01  0.7818608E-02  0.3353725E+00
         11   -1    0    0    0    0  0.00000000000E+00  0.00000000000E+00  0.39999999674E+01  0.40000000000E+01  0.51100000000E-03 0. -1.
    9000002   -1    0    0    0    0 -0.00000000000E+00 -0.00000000000E+00  0.00000000000E+00  0.93800000000E+00  0.93800000000E+00 0.  1.
         11    1    1    2    0    0 -0.10034153069E+00 -0.87111376754E-01  0.11898947641E+01  0.11972913703E+01  0.51100000000E-03 0. -1.
    9000002    1    1    2    0    0  0.31708532273E+00  0.28988879777E+00  0.12500553271E+00  0.10392540595E+01  0.93800000000E+00 0.  1.
         22    1    1    2    0    0 -0.21674379205E+00 -0.20277742102E+00  0.26850996706E+01  0.27014545702E+01  0.00000000000E+00 0. -1.
</event>
<event>
 5    1  0.6564536E+001  0.1599639E+01  0.7818608E-02  0.3353755E+00
         11   -1    0    0    0    0  0.00000000000E+00  0.00000000000E+00  0.39999999674E+01  0.40000000000E+01  0.51100000000E-03 0. -1.
    9000002   -1    0    0    0    0 -0.00000000000E+00 -0.00000000000E+00  0.00000000000E+00  0.93800000000E+00  0.93800000000E+00 0. -1.
         11    1    1    2    0    0 -0.93287509550E-01  0.56850732817E-01  0.94369943275E+00  0.95000181355E+00  0.51100000000E-03 0. -1.
    9000002    1    1    2    0    0  0.35778569845E+00 -0.23989588357E+00  0.12571390075E+00  0.10398118223E+01  0.93800000000E+00 0. -1.
         22    1    1    2    0    0 -0.26449818890E+00  0.18304515076E+00  0.29305866339E+01  0.29481863641E+01  0.00000000000E+00 0. -1.
</event>
<event>
 5    1  0.6564536E+001  0.1532350E+01  0.7818608E-02  0.3430228E+00
         11   -1    0    0    0    0  0.00000000000E+00  0.00000000000E+00  0.39999999674E+01  0.40000000000E+01  0.51100000000E-03 0. -1.
    9000002   -1    0    0    0    0 -0.00000000000E+00 -0.00000000000E+00  0.00000000000E+00  0.93800000000E+00  0.93800000000E+00 0. -1.
         11    1    1    2    0    0  0.24208011943E-01  0.94141492298E-01  0.93444933074E-01  0.13483643815E+00  0.51100000000E-03 0. -1.
    9000002    1    1    2    0    0 -0.10764344263E+00  0.30414451150E+00  0.12500377585E+00  0.99978044519E+00  0.93800000000E+00 0. -1.
         22    1    1    2    0    0  0.83435430690E-01 -0.39828600380E+00  0.37815512584E+01  0.38033831167E+01  0.00000000000E+00 0. -1.
</event>
<event>
 5    1  0.6564536E+001  0.1587550E+01  0.7818608E-02  0.3366988E+00
         11   -1    0    0    0    0  0.00000000000E+00  0.00000000000E+00  0.39999999674E+01  0.40000000000E+01  0.51100000000E-03 0. -1.
    9000002   -1    0    0    0    0 -0.00000000000E+00 -0.00000000000E+00  0.00000000000E+00  0.93800000000E+00  0.93800000000E+00 0. -1.
         11    1    1    2    0    0 -0.34780566537E-01 -0.10378315157E+00  0.12490424911E+01  0.12538293488E+01  0.51100000000E-03 0. -1.
    9000002    1    1    2    0    0  0.46061666194E+00  0.17639917959E+00  0.17729392418E+00  0.10745052421E+01  0.93800000000E+00 0. -1.
         22    1    1    2    0    0 -0.42583609540E+00 -0.72616028021E-01  0.25736635521E+01  0.26096654090E+01  0.00000000000E+00 0. -1.
</event>
<event>
 5    1  0.6564536E+001  0.1599378E+01  0.7818608E-02  0.3354039E+00
         11   -1    0    0    0    0  0.00000000000E+00  0.00000000000E+00  0.39999999674E+01  0.40000000000E+01  0.51100000000E-03 0.  1.
    9000002   -1    0    0    0    0 -0.00000000000E+00 -0.00000000000E+00  0.00000000000E+00  0.93800000000E+00  0.93800000000E+00 0. -1.
         11    1    1    2    0    0 -0.10151960931E+00  0.16385073591E+00  0.14690781435E+01  0.14816693786E+01  0.51100000000E-03 0.  1.
    9000002    1    1    2    0    0  0.30756023315E+00 -0.39640096098E+00  0.17264143823E+00  0.10776716035E+01  0.93800000000E+00 0. -1.
         22    1    1    2    0    0 -0.20604062384E+00  0.23255022507E+00  0.23582803856E+01  0.23786590178E+01  0.00000000000E+00 0.  1.
</event>
<event>
 5    1  0.6564536E+001  0.1562201E+01  0.7818608E-02  0.3395440E+00
         11   -1    0    0    0    0  0.00000000000E+00  0.00000000000E+00  0.39999999674E+01  0.40000000000E+01  0.51100000000E-03 0. -1.
    9000002   -1    0    0    0    0 -0.00000000000E+00 -0.00000000000E+00  0.00000000000E+00  0.93800000000E+00  0.93800000000E+00 0. -1.
         11    1    1    2    0    0 -0.14228542384E+00  0.78902498035E-01  0.13229191748E+01  0.13328863981E+01  0.51100000000E-03 0. -1.
    9000002    1    1    2    0    0 -0.22166291432E+00 -0.12253102276E+00  0.71875611729E-01  0.97424760851E+00  0.93800000000E+00 0. -1.
         22    1    1    2    0    0  0.36394833816E+00  0.43628524728E-01  0.26052051808E+01  0.26308659934E+01  0.00000000000E+00 0. -1.
</event>
<event>
 5    1  0.6564536E+001  0.1591793E+01  0.7818608E-02  0.3362320E+00
         11   -1    0    0    0    0  0.00000000000E+00  0.00000000000E+00  0.39999999674E+01  0.40000000000E+01  0.51100000000E-03 0.  1.
    9000002   -1    0    0    0    0 -0.00000000000E+00 -0.00000000000E+00  0.00000000000E+00  0.93800000000E+00  0.93800000000E+00 0. -1.
         11    1    1    2    0    0 -0.15972997133E+00  0.75476143903E-01  0.93679412096E+00  0.95330677026E+00  0.51100000000E-03 0.  1.
    9000002    1    1    2    0    0  0.28091477224E+00 -0.35381173781E+00  0.14550572509E+00  0.10512429648E+01  0.93800000000E+00 0. -1.
         22    1    1    2    0    0 -0.12118480091E+00  0.27833559391E+00  0.29177001213E+01  0.29334502649E+01  0.00000000000E+00 0.  1.
</event>
<event>
 5    1  0.6564536E+001  0.1599677E+01  0.7818608E-02  0.3353714E+00
         11   -1    0    0    0    0  0.00000000000E+00  0.00000000000E+00  0.39999999674E+01  0.40000000000E+01  0.51100000000E-03 0. -1.
    9000002   -1    0    0    0    0 -0.00000000000E+00 -0.00000000000E+00  0.00000000000E+00  0.93800000000E+00  0.93800000000E+00 0. -1.
         11    1    1    2    0    0 -0.41516391575E+00  0.16741696517E+00  0.91965233085E+00  0.10228148356E+01  0.51100000000E-03 0. -1.
    9000002    1    1    2    0    0  0.11355361150E+01 -0.45829663998E+00  0.14870606148E+01  0.21425852027E+01  0.93800000000E+00 0. -1.
         22    1    1    2    0    0 -0.72037219927E+00  0.29087967481E+00  0.15932870217E+01  0.17725999617E+01  0.00000000000E+00 0. -1.
</event>
<event>
 5    1  0.6564536E+001  0.1599663E+01  0.7818608E-02  0.3353729E+00
         11   -1    0    0    0    0  0.00000000000E+00  0.00000000000E+00  0.39999999674E+01  0.40000000000E+01  0.51100000000E-03 0.  1.
    9000002   -1    0    0    0    0 -0.00000000000E+00 -0.00000000000E+00  0.00000000000E+00  0.93800000000E+00  0.93800000000E+00 0. -1.
         11    1    1    2    0    0 -0.13687886034E-01  0.95763251911E-02  0.19815226378E+00  0.19885583972E+00  0.51100000000E-03 0.  1.
    9000002    1    1    2    0    0  0.29676937759E+00 -0.21636571476E+00  0.90631330353E-01  0.10114070516E+01  0.93800000000E+00 0. -1.
         22    1    1    2    0    0 -0.28308149155E+00  0.20678938956E+00  0.37112163732E+01  0.37277371087E+01  0.00000000000E+00 0.  1.
</event>
<event>
 5    1  0.6564536E+001  0.1599675E+01  0.7818608E-02  0.3353716E+00
         11   -1    0    0    0    0  0.00000000000E+00  0.00000000000E+00  0.39999999674E+01  0.40000000000E+01  0.51100000000E-03 0. -1.
    9000002   -1    0    0    0    0 -0.00000000000E+00 -0.00000000000E+00  0.00000000000E+00  0.93800000000E+00  0.93800000000E+00 0.  1.
         11    1    1    2    0    0 -0.48055968624E-01  0.12504726266E+00  0.84471070830E+00  0.85526758144E+00  0.51100000000E-03 0. -1.
    9000002    1    1    2    0    0  0.21933969845E+00 -0.55451306720E+00  0.24790542668E+00  0.11388133059E+01  0.93800000000E+00 0.  1.
         22    1    1    2    0    0 -0.17128372983E+00  0.42946580454E+00  0.29073838324E+01  0.29439191127E+01  0.00000000000E+00 0. -1.
</event>
<event>
 5    1  0.6564536E+001  0.1518269E+01  0.7818608E-02  0.3447146E+00
         11   -1    0    0    0    0  0.00000000000E+00  0.00000000000E+00  0.39999999674E+01  0.40000000000E+01  0.51100000000E-03 0. -1.
    9000002   -1    0    0    0    0 -0.00000000000E+00 -0.00000000000E+00  0.00000000000E+00  0.93800000000E+00  0.93800000000E+00 0.  1.
         11    1    1    2    0    0  0.14527353307E+00 -0.62358635956E-01  0.29026464752E+00  0.33052507561E+00  0.51100000000E-03 0. -1.
    9000002    1    1    2    0    0  0.29904615235E+00 -0.19225083240E+00  0.15377525224E+00  0.10148299424E+01  0.93800000000E+00 0.  1.
         22    1    1    2    0    0 -0.44431968542E+00  0.25460946836E+00  0.35559600676E+01  0.35926449820E+01  0.00000000000E+00 0. -1.
</event>
<event>
 5    1  0.6564536E+001  0.1571718E+01  0.7818608E-02  0.3384643E+00
         11   -1    0    0    0    0  0.00000000000E+00  0.00000000000E+00  0.39999999674E+01  0.40000000000E+01  0.51100000000E-03 0.  1.
    9000002   -1    0    0    0    0 -0.00000000000E+00 -0.00000000000E+00  0.00000000000E+00  0.93800000000E+00  0.93800000000E+00 0. -1.
         11    1    1    2    0    0 -0.24851100930E+00 -0.41774547237E-01  0.89685828031E+00  0.93158889572E+00  0.51100000000E-03 0.  1.
    9000002    1    1    2    0    0  0.43806515200E+00 -0.21379868216E+00  0.18767023606E+00  0.10736270635E+01  0.93800000000E+00 0. -1.
         22    1    1    2    0    0 -0.18955414270E+00  0.25557322939E+00  0.29154714510E+01  0.29327840408E+01  0.00000000000E+00 0.  1.
</event>
<event>
 5    1  0.6564536E+001  0.1599492E+01  0.7818608E-02  0.3353915E+00
         11   -1    0    0    0    0  0.00000000000E+00  0.00000000000E+00  0.39999999674E+01  0.40000000000E+01  0.51100000000E-03 0. -1.
    9000002   -1    0    0    0    0 -0.00000000000E+00 -0.00000000000E+00  0.00000000000E+00  0.93800000000E+00  0.93800000000E+00 0.  1.
         11    1    1    2    0    0  0.91452237143E-01 -0.13221301731E-01  0.11270775970E+01  0.11308591801E+01  0.51100000000E-03 0. -1.
    9000002    1    1    2    0    0 -0.34096647540E+00  0.91986188377E-01  0.83804281129E-01  0.10057766918E+01  0.93800000000E+00 0.  1.
         22    1    1    2    0    0  0.24951423826E+00 -0.78764886646E-01  0.27891180892E+01  0.28013641281E+01  0.00000000000E+00 0. -1.
</event>
<event>
 5    1  0.6564536E+001  0.1599508E+01  0.7818608E-02  0.3353898E+00
         11   -1    0    0    0    0  0.00000000000E+00  0.00000000000E+00  0.39999999674E+01  0.40000000000E+01  0.51100000000E-03 0.  1.
    9000002   -1    0    0    0    0 -0.00000000000E+00 -0.00000000000E+00  0.00000000000E+00  0.93800000000E+00  0.93800000000E+00 0.  1.
         11    1    1    2    0    0 -0.36368832783E-03 -0.46492963207E-03  0.54684479153E-02  0.55239001045E-02  0.51100000000E-03 0.  1.
    9000002    1    1    2    0    0  0.61257087092E-01 -0.39523621349E+00  0.10803937228E+00  0.10254172815E+01  0.93800000000E+00 0.  1.
         22    1    1    2    0    0 -0.60893398764E-01  0.39570114312E+00  0.38864921472E+01  0.39070588184E+01  0.00000000000E+00 0.  1.
</event>
<event>
 5    1  0.6564536E+001  0.1597339E+01  0.7818608E-02  0.3356257E+00
         11   -1    0    0    0    0  0.00000000000E+00  0.00000000000E+00  0.39999999674E+01  0.40000000000E+01  0.51100000000E-03 0. -1.
    9000002   -1    0    0    0    0 -0.00000000000E+00 -0.00000000000E+00  0.00000000000E+00  0.93800000000E+00  0.93800000000E+00 0.  1.
         11    1    1    2    0    0  0.34127460017E-01 -0.12373609848E-02  0.16351966373E+00  0.16704836467E+00  0.51100000000E-03 0. -1.
    9000002    1    1    2    0    0 -0.32384395404E+00 -0.24326303184E+00  0.11268315184E+00  0.10279072438E+01  0.93800000000E+00 0.  1.
         22    1    1    2    0    0  0.28971649403E+00  0.24450039283E+00  0.37237971518E+01  0.37430443915E+01  0.00000000000E+00 0. -1.
</event>
<event>
 5    1  0.6564536E+001  0.1599092E+01  0.7818608E-02  0.3354350E+00
         11   -1    0    0    0    0  0.00000000000E+00  0.00000000000E+00  0.39999999674E+01  0.40000000000E+01  0.51100000000E-03 0. -1.
    9000002   -1    0    0    0    0 -0.00000000000E+00 -0.00000000000E+00  0.00000000000E+00  0.93800000000E+00  0.93800000000E+00 0. -1.
         11    1    1    2    0    0 -0.34028958676E-01  0.51377621923E-01  0.46484136887E+00  0.46890872182E+00  0.51100000000E-03 0. -1.
    9000002    1    1    2    0    0  0.30287065263E+00 -0.27233647619E+00  0.11249695837E+00  0.10287844060E+01  0.93800000000E+00 0. -1.
         22    1    1    2    0    0 -0.26884169395E+00  0.22095885427E+00  0.34226616401E+01  0.34403068721E+01  0.00000000000E+00 0. -1.
</event>
<event>
 5    1  0.6564536E+001  0.1589728E+01  0.7818608E-02  0.3364588E+00
         11   -1    0    0    0    0  0.00000000000E+00  0.00000000000E+00  0.39999999674E+01  0.40000000000E+01  0.51100000000E-03 0.  1.
    9000002   -1    0    0    0    0 -0.00000000000E+00 -0.00000000000E+00  0.00000000000E+00  0.93800000000E+00  0.93800000000E+00 0.  1.
         11    1    1    2    0    0  0.10112344701E+00 -0.10482752738E+00  0.10702286631E+01  0.10800946322E+01  0.51100000000E-03 0.  1.
    9000002    1    1    2    0    0  0.20424927570E-01  0.41973217041E+00  0.12788086591E+00  0.10357556606E+01  0.93800000000E+00 0.  1.
         22    1    1    2    0    0 -0.12154837458E+00 -0.31490464303E+00  0.28018904384E+01  0.28221497072E+01  0.00000000000E+00 0.  1.
</event>
<event>
 5    1  0.6564536E+001  0.1556074E+01  0.7818608E-02  0.3402464E+00
         11   -1    0    0    0    0  0.00000000000E+00  0.00000000000E+00  0.39999999674E+01  0.40000000000E+01  0.51100000000E-03 0.  1.
    9000002   -1    0    0    0    0 -0.00000000000E+00 -0.00000000000E+00  0.00000000000E+00  0.93800000000E+00  0.93800000000E+00 0.  1.
         11    1    1    2    0    0 -0.43461324163E+00 -0.13632938021E+00  0.10740183861E+01  0.11666148141E+01  0.51100000000E-03 0.  1.
    9000002    1    1    2    0    0  0.85839184828E+00 -0.12606039413E+00  0.63500679608E+00  0.14268165331E+01  0.93800000000E+00 0.  1.
         22    1    1    2    0    0 -0.42377860665E+00  0.26238977434E+00  0.22909747852E+01  0.23445686527E+01  0.00000000000E+00 0.  1.
</event>
<event>
 5    1  0.6564536E+001  0.1598601E+01  0.7818608E-02  0.3354883E+00
         11   -1    0    0    0    0  0.00000000000E+00  0.00000000000E+00  0.39999999674E+01  0.40000000000E+01  0.51100000000E-03 0. -1.
    9000002   -1    0    0    0    0 -0.00000000000E+00 -0.00000000000E+00  0.00000000000E+00  0.93800000000E+00  0.93800000000E+00 0.  1.
         11    1    1    2    0    0 -0.72269439087E-01 -0.55345711923E-01  0.29298019715E+00  0.30679582249E+00  0.51100000000E-03 0. -1.
    9000002    1    1    2    0    0  0.63827632540E+00  0.51246623018E+00  0.49816856127E+00  0.13409079834E+01  0.93800000000E+00 0.  1.
         22    1    1    2    0    0 -0.56600688631E+00 -0.45712051826E+00  0.32088512089E+01  0.32902961941E+01  0.00000000000E+00 0. -1.
</event>
<event>
 5    1  0.6564536E+001  0.1599619E+01  0.7818608E-02  0.3353777E+00
         11   -1    0    0    0    0  0.00000000000E+00  0.00000000000E+00  0.39999999674E+01  0.40000000000E+01  0.51100000000E-03 0.  1.
    9000002   -1    0    0    0    0 -0.00000000000E+00 -0.00000000000E+00  0.00000000000E+00  0.93800000000E+00  0.93800000000E+00 0. -1.
         11    1    1    2    0    0 -0.11522982112E+00 -0.29898355188E-01  0.74580527218E+00  0.75524670701E+00  0.51100000000E-03 0.  1.
    9000002    1    1    2    0    0  0.60656343054E+00  0.16843977082E+00  0.27836252526E+00  0.11634521250E+01  0.93800000000E+00 0. -1.
         22    1    1    2    0    0 -0.49133360942E+00 -0.13854141563E+00  0.29758321699E+01  0.30193011680E+01  0.00000000000E+00 0.  1.
</event>
<event>
 5    1  0.6564536E+001  0.1517969E+01  0.7818608E-02  0.3447511E+00
         11   -1    0    0    0    0  0.00000000000E+00  0.00000000000E+00  0.39999999674E+01  0.40000000000E+01  0.51100000000E-03 0.  1.
    9000002   -1    0    0    0    0 -0.00000000000E+00 -0.00000000000E+00  0.00000000000E+00  0.93800000000E+00  0.93800000000E+00 0. -1.
         11    1    1    2    0    0 -0.17793128744E+00 -0.15182392619E+00  0.52446699725E+00  0.57426121229E+00  0.51100000000E-03 0.  1.
    9000002    1    1    2    0    0  0.20903143206E+00 -0.25512623082E+00  0.14091075651E+00  0.10042327293E+01  0.93800000000E+00 0. -1.
         22    1    1    2    0    0 -0.31100144623E-01  0.40695015701E+00  0.33346222136E+01  0.33595060584E+01  0.00000000000E+00 0.  1.
</event>
<event>
 5    1  0.6564536E+001  0.1599438E+01  0.7818608E-02  0.3353973E+00
         11   -1    0    0    0    0  0.00000000000E+00  0.00000000000E+00  0.39999999674E+01  0.40000000000E+01  0.51100000000E-03 0.  1.
    9000002   -1    0    0    0    0 -0.00000000000E+00 -0.00000000000E+00  0.00000000000E+00  0.93800000000E+00  0.93800000000E+00 0.  1.
         11    1    1    2    0    0  0.20042316973E-01 -0.29052066623E-01  0.25926187581E+00  0.26165377585E+00  0.51100000000E-03 0.  1.
    9000002    1    1    2    0    0 -0.16021249192E+00  0.44957772624E+00  0.15556764698E+00  0.10638766222E+01  0.93800000000E+00 0.  1.
         22    1    1    2    0    0  0.14017017495E+00 -0.42052565962E+00  0.35851704446E+01  0.36124696019E+01  0.00000000000E+00 0.  1.
</event>
<event>
 5    1  0.6564536E+001  0.1599246E+01  0.7818608E-02  0.3354182E+00
         11   -1    0    0    0    0  0.00000000000E+00  0.00000000000E+00  0.39999999674E+01  0.40000000000E+01  0.51100000000E-03 0. -1.
    9000002   -1    0    0    0    0 -0.00000000000E+00 -0.00000000000E+00  0.00000000000E+00  0.93800000000E+00  0.93800000000E+00 0.  1.
         11    1    1    2    0    0  0.61773934428E-02  0.12382105145E+00  0.14502379074E+01  0.14555274172E+01  0.51100000000E-03 0. -1.
    9000002    1    1    2    0    0  0.27468144228E-01 -0.38102612415E+00  0.98569429855E-01  0.10175929141E+01  0.93800000000E+00 0.  1.
         22    1    1    2    0    0 -0.33645537671E-01  0.25720507270E+00  0.24511926301E+01  0.24648796687E+01  0.00000000000E+00 0. -1.
</event>
<event>
 5    1  0.6564536E+001  0.1599612E+01  0.7818608E-02  0.3353784E+00
         11   -1    0    0    0    0  0.00000000000E+00  0.00000000000E+00  0.39999999674E+01  0.40000000000E+01  0.51100000000E-03 0. -1.
    9000002   -1    0    0    0    0 -0.00000000000E+00 -0.00000000000E+00  0.00000000000E+00  0.93800000000E+00  0.93800000000E+00 0.  1.
         11    1    1    2    0    0 -0.59058460762E-01  0.11446106790E+00  0.66596363219E+00  0.67830454692E+00  0.51100000000E-03 0. -1.
    9000002    1    1    2    0    0  0.36256265040E+00 -0.62245626771E+00  0.37300553357E+00  0.12401131435E+01  0.93800000000E+00 0.  1.
         22    1    1    2    0    0 -0.30350418963E+00  0.50799519981E+00  0.29610308016E+01  0.30195823096E+01  0.00000000000E+00 0. -1.
</event>
<event>
 5    1  0.6564536E+001  0.1599528E+01  0.7818608E-02  0.3353876E+00
         11   -1    0    0    0    0  0.00000000000E+00  0.00000000000E+00  0.39999999674E+01  0.40000000000E+01  0.51100000000E-03 0. -1.
    9000002   -1    0    0    0    0 -0.00000000000E+00 -0.00000000000E+00  0.00000000000E+00  0.93800000000E+00  0.93800000000E+00 0.  1.
         11    1    1    2    0    0 -0.26472988721E-01 -0.92554413486E-01  0.97432556168E+00  0.97906981358E+00  0.51100000000E-03 0. -1.
    9000002    1    1    2    0    0  0.82877934552E-01  0.41414517319E+00  0.12080740369E+00  0.10357718886E+01  0.93800000000E+00 0.  1.
         22    1    1    2    0    0 -0.56404945831E-01 -0.32159075971E+00  0.29048670020E+01  0.29231582978E+01  0.00000000000E+00 0. -1.
</event>
<event>
 5    1  0.6574530E+001  0.1595198E+01  0.7818608E-02  0.3358592E+00
         11   -1    0    0    0    0  0.00000000000E+00  0.00000000000E+00  0.39999999674E+01  0.40000000000E+01  0.51100000000E-03 0.  1.
    9000002   -1    0    0    0    0 -0.00000000000E+00 -0.00000000000E+00  0.00000000000E+00  0.93800000000E+00  0.93800000000E+00 0.  1.
         11    1    1    2    0    0  0.18594696921E+00  0.12575475400E+00  0.12232476333E+01  0.12436742206E+01  0.51100000000E-03 0.  1.
    9000002    1    1    2    0    0 -0.39195008562E+00 -0.25577674177E+00  0.15311456583E+00  0.10594029835E+01  0.93800000000E+00 0.  1.
         22    1    1    2    0    0  0.20600311640E+00  0.13002198777E+00  0.26236377682E+01  0.26349227958E+01  0.00000000000E+00 0. -1.
</event>
<event>
 5    1  0.6564536E+001  0.1568181E+01  0.7818608E-02  0.3388639E+00
         11   -1    0    0    0    0  0.00000000000E+00  0.00000000000E+00  0.39999999674E+01  0.40000000000E+01  0.51100000000E-03 0.  1.
    9000002   -1    0    0    0    0 -0.00000000000E+00 -0.00000000000E+00  0.00000000000E+00  0.93800000000E+00  0.93800000000E+00 0.  1.
         11    1    1    2    0    0 -0.99624993321E-01  0.33889226973E-01  0.60384960055E+00  0.61295042231E+00  0.51100000000E-03 0.  1.
    9000002    1    1    2    0    0 -0.31636521698E+00  0.54272530011E-01  0.94239614154E-01  0.99587025405E+00  0.93800000000E+00 0.  1.
         22    1    1    2    0    0  0.41599021030E+00 -0.88161756984E-01  0.33019107527E+01  0.33291793236E+01  0.00000000000E+00 0.  1.
</event>
<event>
 5    1  0.6564536E+001  0.1599665E+01  0.7818608E-02  0.3353727E+00
         11   -1    0    0    0    0  0.00000000000E+00  0.00000000000E+00  0.39999999674E+01  0.40000000000E+01  0.51100000000E-03 0. -1.
    9000002   -1    0    0    0    0 -0.00000000000E+00 -0.00000000000E+00  0.00000000000E+00  0.93800000000E+00  0.93800000000E+00 0.  1.
         11    1    1    2    0    0 -0.10818905868E+00  0.81618251551E-01  0.10085906411E+01  0.10176550269E+01  0.51100000000E-03 0. -1.
    9000002    1    1    2    0    0  0.41002341125E+00 -0.32236656984E+00  0.18693142094E+00  0.10894157881E+01  0.93800000000E+00 0.  1.
         22    1    1    2    0    0 -0.30183435257E+00  0.24074831829E+00  0.28044779053E+01  0.28309291850E+01  0.00000000000E+00 0. -1.
</event>
<event>
 5    1  0.6564536E+001  0.1599657E+01  0.7818608E-02  0.3353736E+00
         11   -1    0    0    0    0  0.00000000000E+00  0.00000000000E+00  0.39999999674E+01  0.40000000000E+01  0.51100000000E-03 0.  1.
    9000002   -1    0    0    0    0 -0.00000000000E+00 -0.00000000000E+00  0.00000000000E+00  0.93800000000E+00  0.93800000000E+00 0. -1.
         11    1    1    2    0    0 -0.17046042523E-01  0.72972933939E-01  0.67387296798E+00  0.67802703099E+00  0.51100000000E-03 0.  1.
    9000002    1    1    2    0    0  0.75950574055E-01 -0.42698045614E+00  0.12745806667E+00  0.10412350159E+01  0.93800000000E+00 0. -1.
         22    1    1    2    0    0 -0.58904531533E-01  0.35400752220E+00  0.31986689327E+01  0.32187379531E+01  0.00000000000E+00 0.  1.
</event>
<event>
 5    1  0.6564536E+001  0.1599675E+01  0.7818608E-02  0.3353716E+00
         11   -1    0    0    0    0  0.00000000000E+00  0.00000000000E+00  0.39999999674E+01  0.40000000000E+01  0.51100000000E-03 0. -1.
    9000002   -1    0    0    0    0 -0.00000000000E+00 -0.00000000000E+00  0.00000000000E+00  0.93800000000E+00  0.93800000000E+00 0.  1.
         11    1    1    2    0    0 -0.60007744436E-01  0.82553798267E-01  0.66661622295E+00  0.67438379935E+00  0.51100000000E-03 0. -1.
    9000002    1    1    2    0    0  0.33240148537E+00 -0.46536375704E+00  0.22686445116E+00  0.11217689838E+01  0.93800000000E+00 0.  1.
         22    1    1    2    0    0 -0.27239374093E+00  0.38280995877E+00  0.31065192933E+01  0.31418472168E+01  0.00000000000E+00 0.  1.
</event>
<event>
 5    1  0.6564536E+001  0.1567563E+01  0.7818608E-02  0.3389340E+00
         11   -1    0    0    0    0  0.00000000000E+00  0.00000000000E+00  0.39999999674E+01  0.40000000000E+01  0.51100000000E-03 0.  1.
    9000002   -1    0    0    0    0 -0.00000000000E+00 -0.00000000000E+00  0.00000000000E+00  0.93800000000E+00  0.93800000000E+00 0.  1.
         11    1    1    2    0    0  0.14580513289E+00  0.15284888443E+00  0.11641724120E+01  0.11831819743E+01  0.51100000000E-03 0.  1.
    9000002    1    1    2    0    0  0.10135459622E+00 -0.21575512694E+00  0.62546517677E-01  0.96983457138E+00  0.93800000000E+00 0.  1.
         22    1    1    2    0    0 -0.24715972911E+00  0.62906242511E-01  0.27732810377E+01  0.27849834544E+01  0.00000000000E+00 0.  1.
</event>
<event>
 5    1  0.6564536E+001  0.1599676E+01  0.7818608E-02  0.3353715E+00
         11   -1    0    0    0    0  0.00000000000E+00  0.00000000000E+00  0.39999999674E+01  0.40000000000E+01  0.51100000000E-03 0. -1.
    9000002   -1    0    0    0    0 -0.00000000000E+00 -0.00000000000E+00  0.00000000000E+00  0.93800000000E+00  0.93800000000E+00 0.  1.
         11    1    1    2    0    0  0.73601317670E-01 -0.40425937694E-01  0.87516837041E+00  0.87918789123E+00  0.51100000000E-03 0.  1.
    9000002    1    1    2    0    0 -0.33057170546E+00  0.18389131699E+00  0.96259948546E-01  0.10159742352E+01  0.93800000000E+00 0.  1.
         22    1    1    2    0    0  0.25697038779E+00 -0.14346537929E+00  0.30285716484E+01  0.30428378736E+01  0.00000000000E+00 0. -1.
</event>
<event>
 5    1  0.8021020E+001  0.1583390E+01  0.7818608E-02  0.3371591E+00
         11   -1    0    0    0    0  0.00000000000E+00  0.00000000000E+00  0.39999999674E+01  0.40000000000E+01  0.51100000000E-03 0. -1.
    9000002   -1    0    0    0    0 -0.00000000000E+00 -0.00000000000E+00  0.00000000000E+00  0.93800000000E+00  0.93800000000E+00 0.  1.
         11    1    1    2    0    0  0.95924302773E-03  0.11299244695E+00  0.11014434856E+01  0.11072245600E+01  0.51100000000E-03 0. -1.
    9000002    1    1    2    0    0 -0.21563329199E+00  0.40740399001E-01  0.44315312862E-01  0.96434710747E+00  0.93800000000E+00 0.  1.
         22    1    1    2    0    0  0.21467404896E+00 -0.15373284595E+00  0.28542411689E+01  0.28664283325E+01  0.00000000000E+00 0. -1.
</event>
<event>
 5    1  0.6564536E+001  0.1599598E+01  0.7818608E-02  0.3353800E+00
         11   -1    0    0    0    0  0.00000000000E+00  0.00000000000E+00  0.39999999674E+01  0.40000000000E+01  0.51100000000E-03 0.  1.
    9000002   -1    0    0    0    0 -0.00000000000E+00 -0.00000000000E+00  0.00000000000E+00  0.93800000000E+00  0.93800000000E+00 0.  1.
         11    1    1    2    0    0  0.36210713555E-02 -0.64680848403E-01  0.63221415837E+00  0.63552476543E+00  0.51100000000E-03 0.  1.
    9000002    1    1    2    0    0 -0.50433435846E-01  0.43545302340E+00  0.13036142400E+00  0.10435520916E+01  0.93800000000E+00 0.  1.
         22    1    1    2    0    0  0.46812364491E-01 -0.37077217499E+00  0.32374243850E+01  0.32589231430E+01  0.00000000000E+00 0.  1.
</event>
<event>
 5    1  0.6564536E+001  0.1599646E+01  0.7818608E-02  0.3353748E+00
         11   -1    0    0    0    0  0.00000000000E+00  0.00000000000E+00  0.39999999674E+01  0.40000000000E+01  0.51100000000E-03 0.  1.
    9000002   -1    0    0    0    0 -0.00000000000E+00 -0.00000000000E+00  0.00000000000E+00  0.93800000000E+00  0.93800000000E+00 0.  1.
         11    1    1    2    0    0 -0.52097327373E-01 -0.13054085511E+00  0.14482579465E+01  0.14550623310E+01  0.51100000000E-03 0.  1.
    9000002    1    1    2    0    0  0.12377904710E+00  0.35710980147E+00  0.96116023838E-01  0.10158400233E+01  0.93800000000E+00 0.  1.
         22    1    1    2    0    0 -0.71681719732E-01 -0.22656894636E+00  0.24556259970E+01  0.24670976457E+01  0.00000000000E+00 0.  1.
</event>
<event>
 5    1  0.6564536E+001  0.1594102E+01  0.7818608E-02  0.3359790E+00
         11   -1    0    0    0    0  0.00000000000E+00  0.00000000000E+00  0.39999999674E+01  0.40000000000E+01  0.51100000000E-03 0. -1.
    9000002   -1    0    0    0    0 -0.00000000000E+00 -0.00000000000E+00  0.00000000000E+00  0.93800000000E+00  0.93800000000E+00 0.  1.
         11    1    1    2    0    0  0.10758564023E-01 -0.64759486655E-02  0.26759273357E-01  0.29563566134E-01  0.51100000000E-03 0. -1.
    9000002    1    1    2    0    0  0.35879716742E+00 -0.10670057045E+00  0.98786960440E-01  0.10147528185E+01  0.93800000000E+00 0.  1.
         22    1    1    2    0    0 -0.36955573144E+00  0.11317651911E+00  0.38744537336E+01  0.38936836154E+01  0.00000000000E+00 0. -1.
</event>
<event>
 5    1  0.6564536E+001  0.1599666E+01  0.7818608E-02  0.3353725E+00
         11   -1    0    0    0    0  0.00000000000E+00  0.00000000000E+00  0.39999999674E+01  0.40000000000E+01  0.51100000000E-03 0. -1.
    9000002   -1    0    0    0    0 -0.00000000000E+00 -0.00000000000E+00  0.00000000000E+00  0.93800000000E+00  0.93800000000E+00 0. -1.
         11    1    1    2    0    0 -0.74415172413E-01 -0.33847277912E-01  0.73330323200E+00  0.73784628975E+00  0.51100000000E-03 0. -1.
    9000002    1    1    2    0    0  0.40385953956E+00  0.18960385031E+00  0.13512588376E+00  0.10474517422E+01  0.93800000000E+00 0. -1.
         22    1    1    2    0    0 -0.32944436715E+00 -0.15575657239E+00  0.31315708516E+01  0.31527019681E+01  0.00000000000E+00 0. -1.
</event>
<event>
 5    1  0.6564536E+001  0.1599630E+01  0.7818608E-02  0.3353765E+00
         11   -1    0    0    0    0  0.00000000000E+00  0.00000000000E+00  0.39999999674E+01  0.40000000000E+01  0.51100000000E-03 0.  1.
    9000002   -1    0    0    0    0 -0.00000000000E+00 -0.00000000000E+00  0.00000000000E+00  0.93800000000E+00  0.93800000000E+00 0. -1.
         11    1    1    2    0    0 -0.34434525707E-02 -0.45071019448E-03  0.26856675138E-01  0.27085099700E-01  0.51100000000E-03 0.  1.
    9000002    1    1    2    0    0  0.62035213039E+00 -0.49691810257E-01  0.27159813409E+00  0.11579790966E+01  0.93800000000E+00 0. -1.
         22    1    1    2    0    0 -0.61690867782E+00  0.50142520452E-01  0.37015451581E+01  0.37529358037E+01  0.00000000000E+00 0.  1.
</event>
<event>
 5    1  0.6564536E+001  0.1578589E+01  0.7818608E-02  0.3376936E+00
         11   -1    0    0    0    0  0.00000000000E+00  0.00000000000E+00  0.39999999674E+01  0.40000000000E+01  0.51100000000E-03 0.  1.
    9000002   -1    0    0    0    0 -0.00000000000E+00 -0.00000000000E+00  0.00000000000E+00  0.93800000000E+00  0.93800000000E+00 0.  1.
         11    1    1    2    0    0  0.11462823365E+00  0.83342723195E-01  0.75081664408E+00  0.76407560857E+00  0.51100000000E-03 0.  1.
    9000002    1    1    2    0    0  0.11783438767E+00 -0.51863798437E+00  0.21455073559E+00  0.10994299977E+01  0.93800000000E+00 0.  1.
         22    1    1    2    0    0 -0.23246262132E+00  0.43529526117E+00  0.30346325877E+01  0.30744943937E+01  0.00000000000E+00 0.  1.
</event>
<event>
 5    1  0.6564536E+001  0.1599665E+01  0.7818608E-02  0.3353727E+00
         11   -1    0    0    0    0  0.00000000000E+00  0.00000000000E+00  0.39999999674E+01  0.40000000000E+01  0.51100000000E-03 0.  1.
    9000002   -1    0    0    0    0 -0.00000000000E+00 -0.00000000000E+00  0.00000000000E+00  0.93800000000E+00  0.93800000000E+00 0.  1.
         11    1    1    2    0    0  0.32906447667E-01 -0.27561194328E-01  0.45254196232E+00  0.45457336317E+00  0.51100000000E-03 0.  1.
    9000002    1    1    2    0    0 -0.26225430814E+00  0.24467142740E+00  0.86349067566E-01  0.10079392794E+01  0.93800000000E+00 0.  1.
         22    1    1    2    0    0  0.22934786047E+00 -0.21711023307E+00  0.34611089375E+01  0.34754873574E+01  0.00000000000E+00 0.  1.
</event>
<event>
 5    1  0.6564536E+001  0.1599676E+01  0.7818608E-02  0.3353716E+00
         11   -1    0    0    0    0  0.00000000000E+00  0.00000000000E+00  0.39999999674E+01  0.40000000000E+01  0.51100000000E-03 0.  1.
    9000002   -1    0    0    0    0 -0.00000000000E+00 -0.00000000000E+00  0.00000000000E+00  0.93800000000E+00  0.93800000000E+00 0.  1.
         11    1    1    2    0    0 -0.12981325209E+00 -0.41237539799E-01  0.97196466028E+00  0.98146195905E+00  0.51100000000E-03 0.  1.
    9000002    1    1    2    0    0  0.50663691191E+00  0.15688990108E+00  0.19358658611E+00  0.10948128461E+01  0.93800000000E+00 0.  1.
         22    1    1    2    0    0 -0.37682365983E+00 -0.11565236128E+00  0.28344487210E+01  0.28617251949E+01  0.00000000000E+00 0.  1.
</event>
<event>
 5    1  0.6564536E+001  0.1599472E+01  0.7818608E-02  0.3353937E+00
         11   -1    0    0    0    0  0.00000000000E+00  0.00000000000E+00  0.39999999674E+01  0.40000000000E+01  0.51100000000E-03 0. -1.
    9000002   -1    0    0    0    0 -0.00000000000E+00 -0.00000000000E+00  0.00000000000E+00  0.93800000000E+00  0.93800000000E+00 0.  1.
         11    1    1    2    0    0  0.54034148672E-02  0.18436290337E-01  0.19858065172E+00  0.19950847113E+00  0.51100000000E-03 0. -1.
    9000002    1    1    2    0    0 -0.22649751842E+00 -0.27525108401E+00  0.85425272776E-01  0.10070778333E+01  0.93800000000E+00 0.  1.
         22    1    1    2    0    0  0.22109410355E+00  0.25681479368E+00  0.37159940429E+01  0.37314136956E+01  0.00000000000E+00 0. -1.
</event>
<event>
 5    1  0.6564536E+001  0.1592325E+01  0.7818608E-02  0.3361736E+00
         11   -1    0    0    0    0  0.00000000000E+00  0.00000000000E+00  0.39999999674E+01  0.40000000000E+01  0.51100000000E-03 0. -1.
    9000002   -1    0    0    0    0 -0.00000000000E+00 -0.00000000000E+00  0.00000000000E+00  0.93800000000E+00  0.93800000000E+00 0.  1.
         11    1    1    2    0    0  0.22068770710E+00  0.48451639929E-01  0.87390608907E+00  0.90264208805E+00  0.51100000000E-03 0. -1.
    9000002    1    1    2    0    0 -0.56446686438E+00 -0.20719065171E+00  0.25967862753E+00  0.11440401202E+01  0.93800000000E+00 0.  1.
         22    1    1    2    0    0  0.34377915728E+00  0.15873901178E+00  0.28664152508E+01  0.28913177917E+01  0.00000000000E+00 0. -1.
</event>
<event>
 5    1  0.6564536E+001  0.1584722E+01  0.7818608E-02  0.3370114E+00
         11   -1    0    0    0    0  0.00000000000E+00  0.00000000000E+00  0.39999999674E+01  0.40000000000E+01  0.51100000000E-03 0.  1.
    9000002   -1    0    0    0    0 -0.00000000000E+00 -0.00000000000E+00  0.00000000000E+00  0.93800000000E+00  0.93800000000E+00 0. -1.
         11    1    1    2    0    0  0.44339806752E-01  0.11182610369E-01  0.13710963973E+01  0.13718588342E+01  0.51100000000E-03 0.  1.
    9000002    1    1    2    0    0 -0.33872839910E+00 -0.36267158005E+00  0.18202950809E+00  0.10766830291E+01  0.93800000000E+00 0. -1.
         22    1    1    2    0    0  0.29438859235E+00  0.35148896968E+00  0.24468740620E+01  0.24894581367E+01  0.00000000000E+00 0.  1.
</event>
<event>
 5    1  0.7095952E+001  0.1553229E+01  0.7818608E-02  0.3405745E+00
         11   -1    0    0    0    0  0.00000000000E+00  0.00000000000E+00  0.39999999674E+01  0.40000000000E+01  0.51100000000E-03 0.  1.
    9000002   -1    0    0    0    0 -0.00000000000E+00 -0.00000000000E+00  0.00000000000E+00  0.93800000000E+00  0.93800000000E+00 0. -1.
         11    1    1    2    0    0 -0.71554048346E-01 -0.19862347612E+00  0.13065930198E+01  0.13235395150E+01  0.51100000000E-03 0.  1.
    9000002    1    1    2    0    0 -0.12680934293E+00 -0.52670664458E-01  0.47427382049E-01  0.94918289329E+00  0.93800000000E+00 0. -1.
         22    1    1    2    0    0  0.19836339127E+00  0.25129414057E+00  0.26459795655E+01  0.26652775917E+01  0.00000000000E+00 0.  1.
</event>
<event>
 5    1  0.6564536E+001  0.1599513E+01  0.7818608E-02  0.3353892E+00
         11   -1    0    0    0    0  0.00000000000E+00  0.00000000000E+00  0.39999999674E+01  0.40000000000E+01  0.51100000000E-03 0. -1.
    9000002   -1    0    0    0    0 -0.00000000000E+00 -0.00000000000E+00  0.00000000000E+00  0.93800000000E+00  0.93800000000E+00 0. -1.
         11    1    1    2    0    0 -0.16676075048E-01  0.10709936622E+00  0.97455768159E+00  0.98056682668E+00  0.51100000000E-03 0. -1.
    9000002    1    1    2    0    0  0.10416324674E+00 -0.45972735932E+00  0.15154849275E+00  0.10606649671E+01  0.93800000000E+00 0. -1.
         22    1    1    2    0    0 -0.87487171695E-01  0.35262799310E+00  0.28738937930E+01  0.28967682062E+01  0.00000000000E+00 0. -1.
</event>
<event>
 5    1  0.6564536E+001  0.1596064E+01  0.7818608E-02  0.3357646E+00
         11   -1    0    0    0    0  0.00000000000E+00  0.00000000000E+00  0.39999999674E+01  0.40000000000E+01  0.51100000000E-03 0. -1.
    9000002   -1    0    0    0    0 -0.00000000000E+00 -0.00000000000E+00  0.00000000000E+00  0.93800000000E+00  0.93800000000E+00 0. -1.
         11    1    1    2    0    0 -0.23523447448E-01  0.13616342656E+00  0.13430215932E+01  0.13501115110E+01  0.51100000000E-03 0. -1.
    9000002    1    1    2    0    0  0.22797146031E+00 -0.27580295721E+00  0.88854533174E-01  0.10078578203E+01  0.93800000000E+00 0. -1.
         22    1    1    2    0    0 -0.20444801286E+00  0.13963953065E+00  0.25681238410E+01  0.25800306686E+01  0.00000000000E+00 0. -1.
</event>
<event>
 5    1  0.6564536E+001  0.1599587E+01  0.7818608E-02  0.3353812E+00
         11   -1    0    0    0    0  0.00000000000E+00  0.00000000000E+00  0.39999999674E+01  0.40000000000E+01  0.51100000000E-03 0.  1.
    9000002   -1    0    0    0    0 -0.00000000000E+00 -0.00000000000E+00  0.00000000000E+00  0.93800000000E+00  0.93800000000E+00 0.  1.
         11    1    1    2    0    0 -0.31537863163E-01  0.32800417687E-01  0.26397379008E+00  0.26786736864E+00  0.51100000000E-03 0.  1.
    9000002    1    1    2    0    0  0.36748960104E+00 -0.45246962561E+00  0.23630256155E+00  0.11293627715E+01  0.93800000000E+00 0.  1.
         22    1    1    2    0    0 -0.33595173787E+00  0.41966920792E+00  0.34997236157E+01  0.35407698599E+01  0.00000000000E+00 0.  1.
</event>
<event>
 5    1  0.6564536E+001  0.1583731E+01  0.7818608E-02  0.3371213E+00
         11   -1    0    0    0    0  0.00000000000E+00  0.00000000000E+00  0.39999999674E+01  0.40000000000E+01  0.51100000000E-03 0. -1.
    9000002   -1    0    0    0    0 -0.00000000000E+00 -0.00000000000E+00  0.00000000000E+00  0.93800000000E+00  0.93800000000E+00 0. -1.
         11    1    1    2    0    0  0.53636123844E-01  0.11963852897E+00  0.11125251748E+01  0.11202244137E+01  0.51100000000E-03 0. -1.
    9000002    1    1    2    0    0  0.29003399007E+00 -0.39987931701E+00  0.18130981414E+00  0.10755186806E+01  0.93800000000E+00 0. -1.
         22    1    1    2    0    0 -0.34367011392E+00  0.28024078804E+00  0.27061649784E+01  0.27422569057E+01  0.00000000000E+00 0. -1.
</event>
<event>
 5    1  0.1140041E+002  0.1594681E+01  0.7818608E-02  0.3359157E+00
         11   -1    0    0    0    0  0.00000000000E+00  0.00000000000E+00  0.39999999674E+01  0.40000000000E+01  0.51100000000E-03 0.  1.
    9000002   -1    0    0    0    0 -0.00000000000E+00 -0.00000000000E+00  0.00000000000E+00  0.93800000000E+00  0.93800000000E+00 0. -1.
         11    1    1    2    0    0 -0.69924356951E-01 -0.68622614725E-02  0.14611317301E+01  0.14628201189E+01  0.51100000000E-03 0.  1.
    9000002    1    1    2    0    0  0.14237806233E+00  0.23558615842E+00  0.54309639863E-01  0.97906378120E+00  0.93800000000E+00 0. -1.
         22    1    1    2    0    0 -0.72453705382E-01 -0.22872389695E+00  0.24845585974E+01  0.24961160999E+01  0.00000000000E+00 0. -1.
</event>
<event>
 5    1  0.6918650E+001  0.1593713E+01  0.7818608E-02  0.3360216E+00
         11   -1    0    0    0    0  0.00000000000E+00  0.00000000000E+00  0.39999999674E+01  0.40000000000E+01  0.51100000000E-03 0. -1.
    9000002   -1    0    0    0    0 -0.00000000000E+00 -0.00000000000E+00  0.00000000000E+00  0.93800000000E+00  0.93800000000E+00 0.  1.
         11    1    1    2    0    0 -0.16794384510E-01 -0.43222018515E-01  0.53454029966E+00  0.53654802890E+00  0.51100000000E-03 0. -1.
    9000002    1    1    2    0    0 -0.29193827575E+00  0.10138846430E+00  0.68474067227E-01  0.98996983561E+00  0.93800000000E+00 0.  1.
         22    1    1    2    0    0  0.30873266026E+00 -0.58166445781E-01  0.33969856005E+01  0.34114821355E+01  0.00000000000E+00 0. -1.
</event>
<event>
 5    1  0.6564536E+001  0.1599668E+01  0.7818608E-02  0.3353723E+00
         11   -1    0    0    0    0  0.00000000000E+00  0.00000000000E+00  0.39999999674E+01  0.40000000000E+01  0.51100000000E-03 0.  1.
    9000002   -1    0    0    0    0 -0.00000000000E+00 -0.00000000000E+00  0.00000000000E+00  0.93800000000E+00  0.93800000000E+00 0. -1.
         11    1    1    2    0    0  0.10399308514E+00  0.11674764882E+00  0.14658177901E+01  0.14741325009E+01  0.51100000000E-03 0.  1.
    9000002    1    1    2    0    0 -0.28417913290E+00 -0.31087575958E+00  0.12000414874E+00  0.10352036095E+01  0.93800000000E+00 0. -1.
         22    1    1    2    0    0  0.18018604776E+00  0.19412811075E+00  0.24141780285E+01  0.24286638896E+01  0.00000000000E+00 0.  1.
</event>
<event>
 5    1  0.6564536E+001  0.1599675E+01  0.7818608E-02  0.3353716E+00
         11   -1    0    0    0    0  0.00000000000E+00  0.00000000000E+00  0.39999999674E+01  0.40000000000E+01  0.51100000000E-03 0.  1.
    9000002   -1    0    0    0    0 -0.00000000000E+00 -0.00000000000E+00  0.00000000000E+00  0.93800000000E+00  0.93800000000E+00 0.  1.
         11    1    1    2    0    0  0.11746678860E+00 -0.10730445093E-02  0.81434182272E+00  0.82277120951E+00  0.51100000000E-03 0.  1.
    9000002    1    1    2    0    0 -0.54566666753E+00 -0.83371904862E-03  0.20549162193E+00  0.11044562526E+01  0.93800000000E+00 0.  1.
         22    1    1    2    0    0  0.42819987893E+00  0.19067635580E-02  0.29801665227E+01  0.30107725379E+01  0.00000000000E+00 0.  1.
</event>
<event>
 5    1  0.6564536E+001  0.1597553E+01  0.7818608E-02  0.3356023E+00
         11   -1    0    0    0    0  0.00000000000E+00  0.00000000000E+00  0.39999999674E+01  0.40000000000E+01  0.51100000000E-03 0.  1.
    9000002   -1    0    0    0    0 -0.00000000000E+00 -0.00000000000E+00  0.00000000000E+00  0.93800000000E+00  0.93800000000E+00 0. -1.
         11    1    1    2    0    0 -0.23263241214E+00  0.38185495420E-01  0.12303150960E+01  0.12526976761E+01  0.51100000000E-03 0.  1.
    9000002    1    1    2    0    0  0.57944319561E+00 -0.25567390026E-01  0.23580299666E+00  0.11277655615E+01  0.93800000000E+00 0. -1.
         22    1    1    2    0    0 -0.34681078347E+00 -0.12618105393E-01  0.25338818747E+01  0.25575367624E+01  0.00000000000E+00 0.  1.
</event>
<event>
 5    1  0.6564536E+001  0.1472293E+01  0.7818608E-02  0.3504814E+00
         11   -1    0    0    0    0  0.00000000000E+00  0.00000000000E+00  0.39999999674E+01  0.40000000000E+01  0.51100000000E-03 0.  1.
    9000002   -1    0    0    0    0 -0.00000000000E+00 -0.00000000000E+00  0.00000000000E+00  0.93800000000E+00  0.93800000000E+00 0. -1.
         11    1    1    2    0    0  0.14175886532E+00 -0.11152686421E+00  0.17840289324E+00  0.25369602041E+00  0.51100000000E-03 0.  1.
    9000002    1    1    2    0    0  0.20718689345E+00 -0.21390149184E+00  0.16641119997E+00  0.99810667992E+00  0.93800000000E+00 0. -1.
         22    1    1    2    0    0 -0.34894575877E+00  0.32542835605E+00  0.36551858742E+01  0.36861972997E+01  0.00000000000E+00 0.  1.
</event>
<event>
 5    1  0.6564536E+001  0.1536934E+01  0.7818608E-02  0.3424792E+00
         11   -1    0    0    0    0  0.00000000000E+00  0.00000000000E+00  0.39999999674E+01  0.40000000000E+01  0.51100000000E-03 0. -1.
    9000002   -1    0    0    0    0 -0.00000000000E+00 -0.00000000000E+00  0.00000000000E+00  0.93800000000E+00  0.93800000000E+00 0. -1.
         11    1    1    2    0    0  0.98703336240E-01  0.25549427113E+00  0.14018883199E+01  0.14283944811E+01  0.51100000000E-03 0. -1.
    9000002    1    1    2    0    0  0.88943594047E-01  0.57919963240E-02  0.52433754779E-01  0.94368310824E+00  0.93800000000E+00 0. -1.
         22    1    1    2    0    0 -0.18764693029E+00 -0.26128626746E+00  0.25456778927E+01  0.25659224106E+01  0.00000000000E+00 0.  1.
</event>
<event>
 5    1  0.6564536E+001  0.1597023E+01  0.7818608E-02  0.3356601E+00
         11   -1    0    0    0    0  0.00000000000E+00  0.00000000000E+00  0.39999999674E+01  0.40000000000E+01  0.51100000000E-03 0. -1.
    9000002   -1    0    0    0    0 -0.00000000000E+00 -0.00000000000E+00  0.00000000000E+00  0.93800000000E+00  0.93800000000E+00 0. -1.
         11    1    1    2    0    0 -0.21574751957E+00  0.16069832278E+00  0.90409471794E+00  0.94327009030E+00  0.51100000000E-03 0. -1.
    9000002    1    1    2    0    0  0.74817618925E+00 -0.41385398751E+00  0.55312083612E+00  0.13844960789E+01  0.93800000000E+00 0. -1.
         22    1    1    2    0    0 -0.53242866968E+00  0.25315566473E+00  0.25427844133E+01  0.26102338308E+01  0.00000000000E+00 0. -1.
</event>
<event>
 5    1  0.6890383E+001  0.1591470E+01  0.7818608E-02  0.3362674E+00
         11   -1    0    0    0    0  0.00000000000E+00  0.00000000000E+00  0.39999999674E+01  0.40000000000E+01  0.51100000000E-03 0.  1.
    9000002   -1    0    0    0    0 -0.00000000000E+00 -0.00000000000E+00  0.00000000000E+00  0.93800000000E+00  0.93800000000E+00 0.  1.
         11    1    1    2    0    0  0.43045083795E-01  0.27634047704E-01  0.12049082143E+01  0.12059936093E+01  0.51100000000E-03 0.  1.
    9000002    1    1    2    0    0 -0.97011425808E-01  0.23568636611E+00  0.49479825583E-01  0.97326847943E+00  0.93800000000E+00 0.  1.
         22    1    1    2    0    0  0.53966342013E-01 -0.26332041382E+00  0.27456119275E+01  0.27587379112E+01  0.00000000000E+00 0.  1.
</event>
<event>
 5    1  0.6564536E+001  0.1593142E+01  0.7818608E-02  0.3360841E+00
         11   -1    0    0    0    0  0.00000000000E+00  0.00000000000E+00  0.39999999674E+01  0.40000000000E+01  0.51100000000E-03 0. -1.
    9000002   -1    0    0    0    0 -0.00000000000E+00 -0.00000000000E+00  0.00000000000E+00  0.93800000000E+00  0.93800000000E+00 0. -1.
         11    1    1    2    0    0 -0.65933288175E-01 -0.12753835853E+00  0.13897468747E+01  0.13971434673E+01  0.51100000000E-03 0. -1.
    9000002    1    1    2    0    0 -0.74714954572E-01  0.38675031863E+00  0.11001056879E+00  0.10232812217E+01  0.93800000000E+00 0. -1.
         22    1    1    2    0    0  0.14064824275E+00 -0.25921196010E+00  0.25002425239E+01  0.25175753110E+01  0.00000000000E+00 0. -1.
</event>
<event>
 5    1  0.6564536E+001  0.1595357E+01  0.7818608E-02  0.3358418E+00
         11   -1    0    0    0    0  0.00000000000E+00  0.00000000000E+00  0.39999999674E+01  0.40000000000E+01  0.51100000000E-03 0. -1.
    9000002   -1    0    0    0    0 -0.00000000000E+00 -0.00000000000E+00  0.00000000000E+00  0.93800000000E+00  0.93800000000E+00 0. -1.
         11    1    1    2    0    0  0.48705471779E-01 -0.18630778420E-01  0.24765189983E+00  0.25308309603E+00  0.51100000000E-03 0. -1.
    9000002    1    1    2    0    0 -0.40671669305E+00 -0.20367484651E+00  0.14438067635E+00  0.10524218219E+01  0.93800000000E+00 0. -1.
         22    1    1    2    0    0  0.35801122128E+00  0.22230562493E+00  0.36079673912E+01  0.36324950821E+01  0.00000000000E+00 0. -1.
</event>
<event>
 5    1  0.6564536E+001  0.1592731E+01  0.7818608E-02  0.3361290E+00
         11   -1    0    0    0    0  0.00000000000E+00  0.00000000000E+00  0.39999999674E+01  0.40000000000E+01  0.51100000000E-03 0. -1.
    9000002   -1    0    0    0    0 -0.00000000000E+00 -0.00000000000E+00  0.00000000000E+00  0.93800000000E+00  0.93800000000E+00 0.  1.
         11    1    1    2    0    0 -0.10573391626E-02  0.99157928845E-02  0.62399809013E-02  0.11774523229E-01  0.51100000000E-03 0. -1.
    9000002    1    1    2    0    0 -0.63047380640E+00 -0.17354627322E+00  0.30941327126E+00  0.11845657862E+01  0.93800000000E+00 0.  1.
         22    1    1    2    0    0  0.63153114557E+00  0.16363048033E+00  0.36843467152E+01  0.37416596905E+01  0.00000000000E+00 0. -1.
</event>
<event>
 5    1  0.6564536E+001  0.1599364E+01  0.7818608E-02  0.3354054E+00
         11   -1    0    0    0    0  0.00000000000E+00  0.00000000000E+00  0.39999999674E+01  0.40000000000E+01  0.51100000000E-03 0. -1.
    9000002   -1    0    0    0    0 -0.00000000000E+00 -0.00000000000E+00  0.00000000000E+00  0.93800000000E+00  0.93800000000E+00 0. -1.
         11    1    1    2    0    0  0.10823109558E+00 -0.62424133494E-01  0.13652782219E+01  0.13709834524E+01  0.51100000000E-03 0. -1.
    9000002    1    1    2    0    0 -0.35212272423E+00  0.21544712209E+00  0.11539924219E+00  0.10312947495E+01  0.93800000000E+00 0. -1.
         22    1    1    2    0    0  0.24389162865E+00 -0.15302298859E+00  0.25193225033E+01  0.25357217981E+01  0.00000000000E+00 0.  1.
</event>
<event>
 5    1  0.6564536E+001  0.1599651E+01  0.7818608E-02  0.3353742E+00
         11   -1    0    0    0    0  0.00000000000E+00  0.00000000000E+00  0.39999999674E+01  0.40000000000E+01  0.51100000000E-03 0. -1.
    9000002   -1    0    0    0    0 -0.00000000000E+00 -0.00000000000E+00  0.00000000000E+00  0.93800000000E+00  0.93800000000E+00 0. -1.
         11    1    1    2    0    0  0.92282337965E-01  0.18833052713E-01  0.55446706194E+00  0.56240972402E+00  0.51100000000E-03 0. -1.
    9000002    1    1    2    0    0 -0.64416828952E+00 -0.12799840919E+00  0.30489716885E+00  0.11849652575E+01  0.93800000000E+00 0. -1.
         22    1    1    2    0    0  0.55188595155E+00  0.10916535647E+00  0.31406357366E+01  0.31906250185E+01  0.00000000000E+00 0. -1.
</event>
<event>
 5    1  0.6564536E+001  0.1599672E+01  0.7818608E-02  0.3353720E+00
         11   -1    0    0    0    0  0.00000000000E+00  0.00000000000E+00  0.39999999674E+01  0.40000000000E+01  0.51100000000E-03 0.  1.
    9000002   -1    0    0    0    0 -0.00000000000E+00 -0.00000000000E+00  0.00000000000E+00  0.93800000000E+00  0.93800000000E+00 0.  1.
         11    1    1    2    0    0  0.11858592751E+00 -0.16090461918E+00  0.11602972203E+01  0.11773881345E+01  0.51100000000E-03 0.  1.
    9000002    1    1    2    0    0 -0.38444438053E+00  0.51973846752E+00  0.29466559053E+00  0.11766891546E+01  0.93800000000E+00 0.  1.
         22    1    1    2    0    0  0.26585845303E+00 -0.35883384834E+00  0.25450371565E+01  0.25839227109E+01  0.00000000000E+00 0. -1.
</event>
<event>
 5    1  0.6564536E+001  0.1589002E+01  0.7818608E-02  0.3365388E+00
         11   -1    0    0    0    0  0.00000000000E+00  0.00000000000E+00  0.39999999674E+01  0.40000000000E+01  0.51100000000E-03 0. -1.
    9000002   -1    0    0    0    0 -0.00000000000E+00 -0.00000000000E+00  0.00000000000E+00  0.93800000000E+00  0.93800000000E+00 0.  1.
         11    1    1    2    0    0 -0.35739392219E-01  0.38231774323E-02  0.26587360548E+00  0.26829266865E+00  0.51100000000E-03 0. -1.
    9000002    1    1    2    0    0 -0.33367706385E+00  0.27436275679E+00  0.13556687271E+00  0.10415554149E+01  0.93800000000E+00 0.  1.
         22    1    1    2    0    0  0.36941645607E+00 -0.27818593423E+00  0.35985594892E+01  0.36281519165E+01  0.00000000000E+00 0. -1.
</event>
<event>
 5    1  0.6564536E+001  0.1505720E+01  0.7818608E-02  0.3462511E+00
         11   -1    0    0    0    0  0.00000000000E+00  0.00000000000E+00  0.39999999674E+01  0.40000000000E+01  0.51100000000E-03 0.  1.
    9000002   -1    0    0    0    0 -0.00000000000E+00 -0.00000000000E+00  0.00000000000E+00  0.93800000000E+00  0.93800000000E+00 0.  1.
         11    1    1    2    0    0  0.15052905105E+00  0.19119196458E+00  0.14981995088E+00  0.28576151129E+00  0.51100000000E-03 0.  1.
    9000002    1    1    2    0    0  0.33342696705E-01  0.21466022476E+00  0.21073207608E+00  0.98561795611E+00  0.93800000000E+00 0.  1.
         22    1    1    2    0    0 -0.18387174776E+00 -0.40585218934E+00  0.36394479404E+01  0.36666205326E+01  0.00000000000E+00 0.  1.
</event>
<event>
 5    1  0.6564536E+001  0.1597418E+01  0.7818608E-02  0.3356170E+00
         11   -1    0    0    0    0  0.00000000000E+00  0.00000000000E+00  0.39999999674E+01  0.40000000000E+01  0.51100000000E-03 0.  1.
    9000002   -1    0    0    0    0 -0.00000000000E+00 -0.00000000000E+00  0.00000000000E+00  0.93800000000E+00  0.93800000000E+00 0.  1.
         11    1    1    2    0    0 -0.70522340917E-01  0.73035237640E-01  0.82063737599E+00  0.82689389313E+00  0.51100000000E-03 0.  1.
    9000002    1    1    2    0    0  0.35504220035E+00 -0.12633602372E+00  0.97369964131E-01  0.10155494399E+01  0.93800000000E+00 0.  1.
         22    1    1    2    0    0 -0.28451985943E+00  0.53300786082E-01  0.30819926272E+01  0.30955566670E+01  0.00000000000E+00 0.  1.
</event>
<event>
 5    1  0.6564536E+001  0.1599675E+01  0.7818608E-02  0.3353716E+00
         11   -1    0    0    0    0  0.00000000000E+00  0.00000000000E+00  0.39999999674E+01  0.40000000000E+01  0.51100000000E-03 0. -1.
    9000002   -1    0    0    0    0 -0.00000000000E+00 -0.00000000000E+00  0.00000000000E+00  0.93800000000E+00  0.93800000000E+00 0.  1.
         11    1    1    2    0    0 -0.49907248418E-01 -0.15710797482E-01  0.44437844111E+00  0.44744834635E+00  0.51100000000E-03 0. -1.
    9000002    1    1    2    0    0  0.44109581321E+00  0.13522788741E+00  0.14481340738E+00  0.10553042315E+01  0.93800000000E+00 0.  1.
         22    1    1    2    0    0 -0.39118856479E+00 -0.11951708993E+00  0.34108081189E+01  0.34352474222E+01  0.00000000000E+00 0. -1.
</event>
<event>
 5    1  0.6564536E+001  0.1545834E+01  0.7818608E-02  0.3414337E+00
         11   -1    0    0    0    0  0.00000000000E+00  0.00000000000E+00  0.39999999674E+01  0.40000000000E+01  0.51100000000E-03 0. -1.
    9000002   -1    0    0    0    0 -0.00000000000E+00 -0.00000000000E+00  0.00000000000E+00  0.93800000000E+00  0.93800000000E+00 0. -1.
         11    1    1    2    0    0 -0.29154867547E-01 -0.19745771035E+00  0.68640512985E+00  0.71483691642E+00  0.51100000000E-03 0. -1.
    9000002    1    1    2    0    0  0.22050123203E+00 -0.88579984951E-01  0.79589941386E-01  0.97089946227E+00  0.93800000000E+00 0. -1.
         22    1    1    2    0    0 -0.19134636448E+00  0.28603769530E+00  0.32340048961E+01  0.32522636213E+01  0.00000000000E+00 0. -1.
</event>
<event>
 5    1  0.6564536E+001  0.1598519E+01  0.7818608E-02  0.3354973E+00
         11   -1    0    0    0    0  0.00000000000E+00  0.00000000000E+00  0.39999999674E+01  0.40000000000E+01  0.51100000000E-03 0. -1.
    9000002   -1    0    0    0    0 -0.00000000000E+00 -0.00000000000E+00  0.00000000000E+00  0.93800000000E+00  0.93800000000E+00 0.  1.
         11    1    1    2    0    0 -0.23016475020E-03 -0.11523105853E+00  0.81145479549E+00  0.81959587363E+00  0.51100000000E-03 0. -1.
    9000002    1    1    2    0    0 -0.33852623515E-01  0.39602485576E+00  0.10748985387E+00  0.10243923834E+01  0.93800000000E+00 0.  1.
         22    1    1    2    0    0  0.34082788265E-01 -0.28079379722E+00  0.30810553180E+01  0.30940117430E+01  0.00000000000E+00 0. -1.
</event>
<event>
 5    1  0.6564536E+001  0.1597975E+01  0.7818608E-02  0.3355564E+00
         11   -1    0    0    0    0  0.00000000000E+00  0.00000000000E+00  0.39999999674E+01  0.40000000000E+01  0.51100000000E-03 0.  1.
    9000002   -1    0    0    0    0 -0.00000000000E+00 -0.00000000000E+00  0.00000000000E+00  0.93800000000E+00  0.93800000000E+00 0. -1.
         11    1    1    2    0    0 -0.78681830712E-01 -0.26464932938E-01  0.11202395413E+01  0.11233112277E+01  0.51100000000E-03 0.  1.
    9000002    1    1    2    0    0  0.27106789461E+00  0.24907224888E+00  0.92438486007E-01  0.10118812491E+01  0.93800000000E+00 0. -1.
         22    1    1    2    0    0 -0.19238606390E+00 -0.22260731594E+00  0.27873219400E+01  0.28028075232E+01  0.00000000000E+00 0.  1.
</event>
<event>
 5    1  0.6564536E+001  0.1599581E+01  0.7818608E-02  0.3353818E+00
         11   -1    0    0    0    0  0.00000000000E+00  0.00000000000E+00  0.39999999674E+01  0.40000000000E+01  0.51100000000E-03 0.  1.
    9000002   -1    0    0    0    0 -0.00000000000E+00 -0.00000000000E+00  0.00000000000E+00  0.93800000000E+00  0.93800000000E+00 0.  1.
         11    1    1    2    0    0 -0.11192348650E+00  0.42649551978E-01  0.10367133917E+01  0.10436094906E+01  0.51100000000E-03 0.  1.
    9000002    1    1    2    0    0  0.41694095558E+00 -0.19742059469E+00  0.14486880481E+00  0.10552940928E+01  0.93800000000E+00 0.  1.
         22    1    1    2    0    0 -0.30501746908E+00  0.15477104271E+00  0.28184177709E+01  0.28390964167E+01  0.00000000000E+00 0.  1.
</event>
<event>
 5    1  0.1163232E+002  0.1577359E+01  0.7818608E-02  0.3378310E+00
         11   -1    0    0    0    0  0.00000000000E+00  0.00000000000E+00  0.39999999674E+01  0.40000000000E+01  0.51100000000E-03 0.  1.
    9000002   -1    0    0    0    0 -0.00000000000E+00 -0.00000000000E+00  0.00000000000E+00  0.93800000000E+00  0.93800000000E+00 0. -1.
         11    1    1    2    0    0 -0.85950412908E-01  0.10275266847E+00  0.11786262700E+01  0.11862148751E+01  0.51100000000E-03 0.  1.
    9000002    1    1    2    0    0  0.37696902410E-01  0.14658735671E+00  0.31790155237E-01  0.95066477981E+00  0.93800000000E+00 0. -1.
         22    1    1    2    0    0  0.48253510499E-01 -0.24934002518E+00  0.27895835421E+01  0.28011203451E+01  0.00000000000E+00 0.  1.
</event>
<event>
 5    1  0.6564536E+001  0.1599673E+01  0.7818608E-02  0.3353719E+00
         11   -1    0    0    0    0  0.00000000000E+00  0.00000000000E+00  0.39999999674E+01  0.40000000000E+01  0.51100000000E-03 0.  1.
    9000002   -1    0    0    0    0 -0.00000000000E+00 -0.00000000000E+00  0.00000000000E+00  0.93800000000E+00  0.93800000000E+00 0.  1.
         11    1    1    2    0    0  0.12532273355E+00  0.13898447841E+00  0.13787080298E+01  0.13913513450E+01  0.51100000000E-03 0.  1.
    9000002    1    1    2    0    0 -0.34096797966E+00 -0.38730884895E+00  0.18277928560E+00  0.10860568930E+01  0.93800000000E+00 0.  1.
         22    1    1    2    0    0  0.21564524612E+00  0.24832437054E+00  0.24385126520E+01  0.24605917620E+01  0.00000000000E+00 0.  1.
</event>
<event>
 5    1  0.6564536E+001  0.1537435E+01  0.7818608E-02  0.3424200E+00
         11   -1    0    0    0    0  0.00000000000E+00  0.00000000000E+00  0.39999999674E+01  0.40000000000E+01  0.51100000000E-03 0.  1.
    9000002   -1    0    0    0    0 -0.00000000000E+00 -0.00000000000E+00  0.00000000000E+00  0.93800000000E+00  0.93800000000E+00 0.  1.
         11    1    1    2    0    0 -0.26227961810E+00 -0.81297391062E-01  0.14953266739E+00  0.31266618557E+00  0.51100000000E-03 0.  1.
    9000002    1    1    2    0    0 -0.76493520699E-01 -0.54114191813E-01  0.20890130611E+00  0.96553786055E+00  0.93800000000E+00 0.  1.
         22    1    1    2    0    0  0.33877313880E+00  0.13541158287E+00  0.36415659939E+01  0.36597959539E+01  0.00000000000E+00 0.  1.
</event>
<event>
 5    1  0.6564536E+001  0.1585543E+01  0.7818608E-02  0.3369206E+00
         11   -1    0    0    0    0  0.00000000000E+00  0.00000000000E+00  0.39999999674E+01  0.40000000000E+01  0.51100000000E-03 0.  1.
    9000002   -1    0    0    0    0 -0.00000000000E+00 -0.00000000000E+00  0.00000000000E+00  0.93800000000E+00  0.93800000000E+00 0.  1.
         11    1    1    2    0    0 -0.91185962988E-01 -0.15529886525E-01  0.10938932635E+01  0.10977972446E+01  0.51100000000E-03 0.  1.
    9000002    1    1    2    0    0 -0.21303051637E-02 -0.26614842399E+00  0.58078626816E-01  0.97675823451E+00  0.93800000000E+00 0.  1.
         22    1    1    2    0    0  0.93316268152E-01  0.28167831052E+00  0.28480280770E+01  0.28634445209E+01  0.00000000000E+00 0.  1.
</event>
<event>
 5    1  0.6564536E+001  0.1599540E+01  0.7818608E-02  0.3353863E+00
         11   -1    0    0    0    0  0.00000000000E+00  0.00000000000E+00  0.39999999674E+01  0.40000000000E+01  0.51100000000E-03 0.  1.
    9000002   -1    0    0    0    0 -0.00000000000E+00 -0.00000000000E+00  0.00000000000E+00  0.93800000000E+00  0.93800000000E+00 0.  1.
         11    1    1    2    0    0 -0.21350373824E-01  0.78046146886E-01  0.84594275250E+00  0.84980376625E+00  0.51100000000E-03 0.  1.
    9000002    1    1    2    0    0  0.12999434262E+00 -0.40080428014E+00  0.12021058955E+00  0.10352956998E+01  0.93800000000E+00 0.  1.
         22    1    1    2    0    0 -0.10864396880E+00  0.32275813325E+00  0.30338466253E+01  0.30529005340E+01  0.00000000000E+00 0.  1.
</event>
<event>
 5    1  0.6802071E+001  0.1596168E+01  0.7818608E-02  0.3357533E+00
         11   -1    0    0    0    0  0.00000000000E+00  0.00000000000E+00  0.39999999674E+01  0.40000000000E+01  0.51100000000E-03 0.  1.
    9000002   -1    0    0    0    0 -0.00000000000E+00 -0.00000000000E+00  0.00000000000E+00  0.93800000000E+00  0.93800000000E+00 0. -1.
         11    1    1    2    0    0 -0.22075687614E+00  0.16896991690E-01  0.12602630457E+01  0.12795633287E+01  0.51100000000E-03 0.  1.
    9000002    1    1    2    0    0  0.46932258593E+00 -0.25827502257E-01  0.15359483785E+00  0.10603613175E+01  0.93800000000E+00 0. -1.
         22    1    1    2    0    0 -0.24856570978E+00  0.89305105664E-02  0.25861420839E+01  0.25980753538E+01  0.00000000000E+00 0.  1.
</event>
<event>
 5    1  0.6564536E+001  0.1599629E+01  0.7818608E-02  0.3353766E+00
         11   -1    0    0    0    0  0.00000000000E+00  0.00000000000E+00  0.39999999674E+01  0.40000000000E+01  0.51100000000E-03 0. -1.
    9000002   -1    0    0    0    0 -0.00000000000E+00 -0.00000000000E+00  0.00000000000E+00  0.93800000000E+00  0.93800000000E+00 0. -1.
         11    1    1    2    0    0  0.10563942443E+00  0.46716664174E-01  0.84025923421E+00  0.84816152737E+00  0.51100000000E-03 0. -1.
    9000002    1    1    2    0    0 -0.45015536752E+00 -0.21046704734E+00  0.16899774478E+00  0.10748676526E+01  0.93800000000E+00 0. -1.
         22    1    1    2    0    0  0.34451594309E+00  0.16375038317E+00  0.29907429884E+01  0.30149708200E+01  0.00000000000E+00 0. -1.
</event>
<event>
 5    1  0.6564536E+001  0.1599675E+01  0.7818608E-02  0.3353717E+00
         11   -1    0    0    0    0  0.00000000000E+00  0.00000000000E+00  0.39999999674E+01  0.40000000000E+01  0.51100000000E-03 0. -1.
    9000002   -1    0    0    0    0 -0.00000000000E+00 -0.00000000000E+00  0.00000000000E+00  0.93800000000E+00  0.93800000000E+00 0. -1.
         11    1    1    2    0    0 -0.68007489061E-01 -0.12874616752E+00  0.13793613924E+01  0.13870251282E+01  0.51100000000E-03 0. -1.
    9000002    1    1    2    0    0  0.18679854554E+00  0.36203341681E+00  0.11205386131E+00  0.10287672037E+01  0.93800000000E+00 0. -1.
         22    1    1    2    0    0 -0.11879105648E+00 -0.23328724928E+00  0.25085847136E+01  0.25222076681E+01  0.00000000000E+00 0. -1.
</event>
<event>
 5    1  0.6564536E+001  0.1596996E+01  0.7818608E-02  0.3356630E+00
         11   -1    0    0    0    0  0.00000000000E+00  0.00000000000E+00  0.39999999674E+01  0.40000000000E+01  0.51100000000E-03 0. -1.
    9000002   -1    0    0    0    0 -0.00000000000E+00 -0.00000000000E+00  0.00000000000E+00  0.93800000000E+00  0.93800000000E+00 0.  1.
         11    1    1    2    0    0  0.36964032807E-01 -0.13496909538E+00  0.11608180777E+01  0.11692227619E+01  0.51100000000E-03 0. -1.
    9000002    1    1    2    0    0  0.64657807392E-01  0.41990560377E+00  0.12442920013E+00  0.10372212753E+01  0.93800000000E+00 0.  1.
         22    1    1    2    0    0 -0.10162184020E+00 -0.28493650839E+00  0.27147526895E+01  0.27315559627E+01  0.00000000000E+00 0. -1.
</event>
<event>
 5    1  0.6564536E+001  0.1592454E+01  0.7818608E-02  0.3361594E+00
         11   -1    0    0    0    0  0.00000000000E+00  0.00000000000E+00  0.39999999674E+01  0.40000000000E+01  0.51100000000E-03 0.  1.
    9000002   -1    0    0    0    0 -0.00000000000E+00 -0.00000000000E+00  0.00000000000E+00  0.93800000000E+00  0.93800000000E+00 0. -1.
         11    1    1    2    0    0 -0.15401437753E+00  0.72579877563E-01  0.69460746818E+00  0.71516995398E+00  0.51100000000E-03 0.  1.
    9000002    1    1    2    0    0  0.60958974802E+00 -0.17910065213E-01  0.26733570838E+00  0.11503185699E+01  0.93800000000E+00 0. -1.
         22    1    1    2    0    0 -0.45557537049E+00 -0.54669812349E-01  0.30380567908E+01  0.30725114761E+01  0.00000000000E+00 0.  1.
</event>
<event>
 5    1  0.6564536E+001  0.1599590E+01  0.7818608E-02  0.3353808E+00
         11   -1    0    0    0    0  0.00000000000E+00  0.00000000000E+00  0.39999999674E+01  0.40000000000E+01  0.51100000000E-03 0.  1.
    9000002   -1    0    0    0    0 -0.00000000000E+00 -0.00000000000E+00  0.00000000000E+00  0.93800000000E+00  0.93800000000E+00 0. -1.
         11    1    1    2    0    0 -0.27251511231E-01 -0.13349627990E+00  0.82390933017E+00  0.83509924385E+00  0.51100000000E-03 0.  1.
    9000002    1    1    2    0    0  0.14052855412E+00  0.56974684396E+00  0.23967915548E+00  0.11320997475E+01  0.93800000000E+00 0. -1.
         22    1    1    2    0    0 -0.11327704288E+00 -0.43625056406E+00  0.29364114817E+01  0.29708010087E+01  0.00000000000E+00 0.  1.
</event>
<event>
 5    1  0.6564536E+001  0.1576101E+01  0.7818608E-02  0.3379718E+00
         11   -1    0    0    0    0  0.00000000000E+00  0.00000000000E+00  0.39999999674E+01  0.40000000000E+01  0.51100000000E-03 0.  1.
    9000002   -1    0    0    0    0 -0.00000000000E+00 -0.00000000000E+00  0.00000000000E+00  0.93800000000E+00  0.93800000000E+00 0.  1.
         11    1    1    2    0    0 -0.31417948790E-01  0.14129037429E+00  0.14231584139E+01  0.14304999789E+01  0.51100000000E-03 0.  1.
    9000002    1    1    2    0    0 -0.10828792017E+00  0.59661824539E-01  0.27577820589E-01  0.94651484043E+00  0.93800000000E+00 0.  1.
         22    1    1    2    0    0  0.13970586896E+00 -0.20095219883E+00  0.25492637329E+01  0.25609851807E+01  0.00000000000E+00 0.  1.
</event>
<event>
 5    1  0.6564536E+001  0.1599642E+01  0.7818608E-02  0.3353752E+00
         11   -1    0    0    0    0  0.00000000000E+00  0.00000000000E+00  0.39999999674E+01  0.40000000000E+01  0.51100000000E-03 0. -1.
    9000002   -1    0    0    0    0 -0.00000000000E+00 -0.00000000000E+00  0.00000000000E+00  0.93800000000E+00  0.93800000000E+00 0.  1.
         11    1    1    2    0    0 -0.26136624269E-01 -0.16289821886E+00  0.14161992120E+01  0.14257767785E+01  0.51100000000E-03 0. -1.
    9000002    1    1    2    0    0  0.89463661416E-01  0.44817651937E+00  0.14203738098E+00  0.10530358763E+01  0.93800000000E+00 0.  1.
         22    1    1    2    0    0 -0.63327037147E-01 -0.28527830051E+00  0.24417633744E+01  0.24591873452E+01  0.00000000000E+00 0. -1.
</event>
<event>
 5    1  0.6564536E+001  0.1599674E+01  0.7818608E-02  0.3353717E+00
         11   -1    0    0    0    0  0.00000000000E+00  0.00000000000E+00  0.39999999674E+01  0.40000000000E+01  0.51100000000E-03 0.  1.
    9000002   -1    0    0    0    0 -0.00000000000E+00 -0.00000000000E+00  0.00000000000E+00  0.93800000000E+00  0.93800000000E+00 0. -1.
         11    1    1    2    0    0 -0.68278133979E-01  0.57697053637E-01  0.50544106680E+00  0.51328528783E+00  0.51100000000E-03 0.  1.
    9000002    1    1    2    0    0  0.49365213335E+00 -0.41558835509E+00  0.29350993328E+00  0.11757543071E+01  0.93800000000E+00 0. -1.
         22    1    1    2    0    0 -0.42537399937E+00  0.35789130145E+00  0.32010489673E+01  0.32489604051E+01  0.00000000000E+00 0.  1.
</event>
<event>
 5    1  0.6564536E+001  0.1465754E+01  0.7818608E-02  0.3513335E+00
         11   -1    0    0    0    0  0.00000000000E+00  0.00000000000E+00  0.39999999674E+01  0.40000000000E+01  0.51100000000E-03 0. -1.
    9000002   -1    0    0    0    0 -0.00000000000E+00 -0.00000000000E+00  0.00000000000E+00  0.93800000000E+00  0.93800000000E+00 0.  1.
         11    1    1    2    0    0  0.24817256692E+00 -0.40717054098E-01  0.24799800716E+00  0.35320075615E+00  0.51100000000E-03 0. -1.
    9000002    1    1    2    0    0  0.18922205168E+00  0.10613060678E+00  0.17251842946E+00  0.97809779626E+00  0.93800000000E+00 0.  1.
         22    1    1    2    0    0 -0.43739461860E+00 -0.65413552677E-01  0.35794835307E+01  0.36067014476E+01  0.00000000000E+00 0. -1.
</event>
<event>
 5    1  0.6564536E+001  0.1599624E+01  0.7818608E-02  0.3353772E+00
         11   -1    0    0    0    0  0.00000000000E+00  0.00000000000E+00  0.39999999674E+01  0.40000000000E+01  0.51100000000E-03 0. -1.
    9000002   -1    0    0    0    0 -0.00000000000E+00 -0.00000000000E+00  0.00000000000E+00  0.93800000000E+00  0.93800000000E+00 0. -1.
         11    1    1    2    0    0  0.94142321888E-01  0.55388544904E-01  0.70920170225E+00  0.71756392278E+00  0.51100000000E-03 0. -1.
    9000002    1    1    2    0    0 -0.46688461176E+00 -0.30446446832E+00  0.21494108158E+00  0.11120807173E+01  0.93800000000E+00 0. -1.
         22    1    1    2    0    0  0.37274228988E+00  0.24907592342E+00  0.30758571835E+01  0.31083553600E+01  0.00000000000E+00 0. -1.
</event>
<event>
 5    1  0.8594007E+001  0.1590936E+01  0.7818608E-02  0.3363260E+00
         11   -1    0    0    0    0  0.00000000000E+00  0.00000000000E+00  0.39999999674E+01  0.40000000000E+01  0.51100000000E-03 0. -1.
    9000002   -1    0    0    0    0 -0.00000000000E+00 -0.00000000000E+00  0.00000000000E+00  0.93800000000E+00  0.93800000000E+00 0.  1.
         11    1    1    2    0    0  0.64278519642E-01 -0.19457144365E-01  0.94983783711E+00  0.95220926612E+00  0.51100000000E-03 0. -1.
    9000002    1    1    2    0    0  0.10251711678E+00  0.23303025854E+00  0.49793325664E-01  0.97320924570E+00  0.93800000000E+00 0.  1.
         22    1    1    2    0    0 -0.16679563642E+00 -0.21357311417E+00  0.30003688046E+01  0.30125814882E+01  0.00000000000E+00 0. -1.
</event>
<event>
 5    1  0.6564536E+001  0.1568973E+01  0.7818608E-02  0.3387743E+00
         11   -1    0    0    0    0  0.00000000000E+00  0.00000000000E+00  0.39999999674E+01  0.40000000000E+01  0.51100000000E-03 0.  1.
    9000002   -1    0    0    0    0 -0.00000000000E+00 -0.00000000000E+00  0.00000000000E+00  0.93800000000E+00  0.93800000000E+00 0. -1.
         11    1    1    2    0    0  0.10491096290E+00  0.46939876483E-01  0.79391169425E+00  0.80218807117E+00  0.51100000000E-03 0.  1.
    9000002    1    1    2    0    0  0.18044100838E+00  0.22905411740E+00  0.81002006399E-01  0.98561152146E+00  0.93800000000E+00 0. -1.
         22    1    1    2    0    0 -0.28535197128E+00 -0.27599399388E+00  0.31250862667E+01  0.31502004074E+01  0.00000000000E+00 0.  1.
</event>
<event>
 5    1  0.6564536E+001  0.1599018E+01  0.7818608E-02  0.3354430E+00
         11   -1    0    0    0    0  0.00000000000E+00  0.00000000000E+00  0.39999999674E+01  0.40000000000E+01  0.51100000000E-03 0. -1.
    9000002   -1    0    0    0    0 -0.00000000000E+00 -0.00000000000E+00  0.00000000000E+00  0.93800000000E+00  0.93800000000E+00 0.  1.
         11    1    1    2    0    0 -0.42862356982E-03 -0.22210674631E-02  0.94016359860E-02  0.96834259977E-02  0.51100000000E-03 0. -1.
    9000002    1    1    2    0    0  0.58362223369E+00 -0.26042428446E+00  0.28815270444E+00  0.11710301878E+01  0.93800000000E+00 0.  1.
         22    1    1    2    0    0 -0.58319361012E+00  0.26264535192E+00  0.37024456269E+01  0.37572863862E+01  0.00000000000E+00 0. -1.
</event>
<event>
 5    1  0.6564536E+001  0.1599526E+01  0.7818608E-02  0.3353878E+00
         11   -1    0    0    0    0  0.00000000000E+00  0.00000000000E+00  0.39999999674E+01  0.40000000000E+01  0.51100000000E-03 0. -1.
    9000002   -1    0    0    0    0 -0.00000000000E+00 -0.00000000000E+00  0.00000000000E+00  0.93800000000E+00  0.93800000000E+00 0.  1.
         11    1    1    2    0    0 -0.24413554179E-01  0.70471528808E-02  0.14853915399E+00  0.15069779487E+00  0.51100000000E-03 0. -1.
    9000002    1    1    2    0    0  0.50639802803E+00 -0.27066327943E+00  0.22894762088E+00  0.11233693011E+01  0.93800000000E+00 0.  1.
         22    1    1    2    0    0 -0.48198447385E+00  0.26361612655E+00  0.36225131925E+01  0.36639329040E+01  0.00000000000E+00 0. -1.
</event>
<event>
 5    1  0.6564536E+001  0.1599673E+01  0.7818608E-02  0.3353718E+00
         11   -1    0    0    0    0  0.00000000000E+00  0.00000000000E+00  0.39999999674E+01  0.40000000000E+01  0.51100000000E-03 0.  1.
    9000002   -1    0    0    0    0 -0.00000000000E+00 -0.00000000000E+00  0.00000000000E+00  0.93800000000E+00  0.93800000000E+00 0.  1.
         11    1    1    2    0    0 -0.11539603510E-01  0.19430035827E-01  0.20524698814E+00  0.20648795607E+00  0.51100000000E-03 0.  1.
    9000002    1    1    2    0    0  0.21350586603E+00 -0.38374721933E+00  0.13077516619E+00  0.10439314284E+01  0.93800000000E+00 0.  1.
         22    1    1    2    0    0 -0.20196626252E+00  0.36431718350E+00  0.36639778130E+01  0.36875806155E+01  0.00000000000E+00 0.  1.
</event>
<event>
 5    1  0.6564536E+001  0.1599677E+01  0.7818608E-02  0.3353714E+00
         11   -1    0    0    0    0  0.00000000000E+00  0.00000000000E+00  0.39999999674E+01  0.40000000000E+01  0.51100000000E-03 0.  1.
    9000002   -1    0    0    0    0 -0.00000000000E+00 -0.00000000000E+00  0.00000000000E+00  0.93800000000E+00  0.93800000000E+00 0.  1.
         11    1    1    2    0    0 -0.39744365670E-01  0.16776963742E+00  0.14703743655E+01  0.14804483449E+01  0.51100000000E-03 0.  1.
    9000002    1    1    2    0    0  0.10325286868E+00 -0.43996360307E+00  0.13874866952E+00  0.10503924601E+01  0.93800000000E+00 0.  1.
         22    1    1    2    0    0 -0.63508503014E-01  0.27219396565E+00  0.23908769323E+01  0.24071591951E+01  0.00000000000E+00 0.  1.
</event>
<event>
 5    1  0.6564536E+001  0.1549650E+01  0.7818608E-02  0.3409892E+00
         11   -1    0    0    0    0  0.00000000000E+00  0.00000000000E+00  0.39999999674E+01  0.40000000000E+01  0.51100000000E-03 0. -1.
    9000002   -1    0    0    0    0 -0.00000000000E+00 -0.00000000000E+00  0.00000000000E+00  0.93800000000E+00  0.93800000000E+00 0.  1.
         11    1    1    2    0    0 -0.21416132148E+00  0.99121485150E-01  0.14748800752E+01  0.14936403978E+01  0.51100000000E-03 0. -1.
    9000002    1    1    2    0    0 -0.11425551721E+00 -0.37422920212E+00  0.14576079145E+00  0.10267385389E+01  0.93800000000E+00 0.  1.
         22    1    1    2    0    0  0.32841683869E+00  0.27510771697E+00  0.23793591007E+01  0.24176210633E+01  0.00000000000E+00 0. -1.
</event>
<event>
 5    1  0.6564536E+001  0.1599666E+01  0.7818608E-02  0.3353726E+00
         11   -1    0    0    0    0  0.00000000000E+00  0.00000000000E+00  0.39999999674E+01  0.40000000000E+01  0.51100000000E-03 0. -1.
    9000002   -1    0    0    0    0 -0.00000000000E+00 -0.00000000000E+00  0.00000000000E+00  0.93800000000E+00  0.93800000000E+00 0. -1.
         11    1    1    2    0    0  0.34300471058E-03 -0.74250818153E-02  0.81459202363E-01  0.81799219206E-01  0.51100000000E-03 0. -1.
    9000002    1    1    2    0    0  0.42867691919E-02  0.40039832972E+00  0.10816585150E+00  0.10256125244E+01  0.93800000000E+00 0. -1.
         22    1    1    2    0    0 -0.46297739025E-02 -0.39297324791E+00  0.38103749135E+01  0.38305882564E+01  0.00000000000E+00 0. -1.
</event>
<event>
 5    1  0.6564536E+001  0.1573056E+01  0.7818608E-02  0.3383136E+00
         11   -1    0    0    0    0  0.00000000000E+00  0.00000000000E+00  0.39999999674E+01  0.40000000000E+01  0.51100000000E-03 0. -1.
    9000002   -1    0    0    0    0 -0.00000000000E+00 -0.00000000000E+00  0.00000000000E+00  0.93800000000E+00  0.93800000000E+00 0. -1.
         11    1    1    2    0    0 -0.37951721647E-01  0.11386669630E+00  0.14685226394E+01  0.14734194791E+01  0.51100000000E-03 0. -1.
    9000002    1    1    2    0    0  0.14998627376E+00  0.20170430973E+00  0.62614557338E-01  0.97311103872E+00  0.93800000000E+00 0. -1.
         22    1    1    2    0    0 -0.11203455212E+00 -0.31557100604E+00  0.24688627706E+01  0.24914694822E+01  0.00000000000E+00 0. -1.
</event>
<event>
 5    1  0.6564536E+001  0.1578908E+01  0.7818608E-02  0.3376579E+00
         11   -1    0    0    0    0  0.00000000000E+00  0.00000000000E+00  0.39999999674E+01  0.40000000000E+01  0.51100000000E-03 0.  1.
    9000002   -1    0    0    0    0 -0.00000000000E+00 -0.00000000000E+00  0.00000000000E+00  0.93800000000E+00  0.93800000000E+00 0. -1.
         11    1    1    2    0    0  0.59311387329E-01  0.10868022907E+00  0.13462958797E+01  0.13519771040E+01  0.51100000000E-03 0.  1.
    9000002    1    1    2    0    0  0.15338463280E+00  0.35356387429E-01  0.31885099260E-01  0.95164992474E+00  0.93800000000E+00 0. -1.
         22    1    1    2    0    0 -0.21269602013E+00 -0.14403661650E+00  0.26218189884E+01  0.26343729713E+01  0.00000000000E+00 0.  1.
</event>
<event>
 5    1  0.6564536E+001  0.1599544E+01  0.7818608E-02  0.3353858E+00
         11   -1    0    0    0    0  0.00000000000E+00  0.00000000000E+00  0.39999999674E+01  0.40000000000E+01  0.51100000000E-03 0.  1.
    9000002   -1    0    0    0    0 -0.00000000000E+00 -0.00000000000E+00  0.00000000000E+00  0.93800000000E+00  0.93800000000E+00 0. -1.
         11    1    1    2    0    0 -0.51170170994E-01 -0.31518823503E-01  0.58709719443E+00  0.59016540009E+00  0.51100000000E-03 0.  1.
    9000002    1    1    2    0    0  0.39675542199E+00  0.23244935928E+00  0.14393860395E+00  0.10545187960E+01  0.93800000000E+00 0. -1.
         22    1    1    2    0    0 -0.34558525100E+00 -0.20093053577E+00  0.32689641690E+01  0.32933158039E+01  0.00000000000E+00 0.  1.
</event>
<event>
 5    1  0.6564536E+001  0.1585591E+01  0.7818608E-02  0.3369153E+00
         11   -1    0    0    0    0  0.00000000000E+00  0.00000000000E+00  0.39999999674E+01  0.40000000000E+01  0.51100000000E-03 0. -1.
    9000002   -1    0    0    0    0 -0.00000000000E+00 -0.00000000000E+00  0.00000000000E+00  0.93800000000E+00  0.93800000000E+00 0. -1.
         11    1    1    2    0    0 -0.77100864380E-01  0.39508276508E-01  0.83151521075E+00  0.83601630010E+00  0.51100000000E-03 0. -1.
    9000002    1    1    2    0    0  0.31131310715E+00  0.35907449295E+00  0.16651192172E+00  0.10646222627E+01  0.93800000000E+00 0. -1.
         22    1    1    2    0    0 -0.23421224277E+00 -0.39858276946E+00  0.30019728349E+01  0.30373614372E+01  0.00000000000E+00 0. -1.
</event>
<event>
 5    1  0.6564536E+001  0.1569521E+01  0.7818608E-02  0.3387124E+00
         11   -1    0    0    0    0  0.00000000000E+00  0.00000000000E+00  0.39999999674E+01  0.40000000000E+01  0.51100000000E-03 0. -1.
    9000002   -1    0    0    0    0 -0.00000000000E+00 -0.00000000000E+00  0.00000000000E+00  0.93800000000E+00  0.93800000000E+00 0. -1.
         11    1    1    2    0    0 -0.15827836768E+00 -0.61439432682E-01  0.14439132727E+01  0.14538612884E+01  0.51100000000E-03 0. -1.
    9000002    1    1    2    0    0 -0.10439424518E+00  0.48931977524E-01  0.31178429432E-01  0.94557315492E+00  0.93800000000E+00 0. -1.
         22    1    1    2    0    0  0.26267261286E+00  0.12507455157E-01  0.25249082652E+01  0.25385655567E+01  0.00000000000E+00 0.  1.
</event>
<event>
 5    1  0.6564536E+001  0.1599677E+01  0.7818608E-02  0.3353714E+00
         11   -1    0    0    0    0  0.00000000000E+00  0.00000000000E+00  0.39999999674E+01  0.40000000000E+01  0.51100000000E-03 0. -1.
    9000002   -1    0    0    0    0 -0.00000000000E+00 -0.00000000000E+00  0.00000000000E+00  0.93800000000E+00  0.93800000000E+00 0. -1.
         11    1    1    2    0    0 -0.49868919989E+00  0.42608686915E-01  0.12249577679E+01  0.13232642263E+01  0.51100000000E-03 0. -1.
    9000002    1    1    2    0    0  0.11451873737E+01 -0.96905303162E-01  0.11890936309E+01  0.19012186675E+01  0.93800000000E+00 0. -1.
         22    1    1    2    0    0 -0.64649817377E+00  0.54296616248E-01  0.15859485685E+01  0.17135171062E+01  0.00000000000E+00 0. -1.
</event>
<event>
 5    1  0.6564536E+001  0.1599673E+01  0.7818608E-02  0.3353719E+00
         11   -1    0    0    0    0  0.00000000000E+00  0.00000000000E+00  0.39999999674E+01  0.40000000000E+01  0.51100000000E-03 0. -1.
    9000002   -1    0    0    0    0 -0.00000000000E+00 -0.00000000000E+00  0.00000000000E+00  0.93800000000E+00  0.93800000000E+00 0. -1.
         11    1    1    2    0    0  0.13335268476E+00 -0.14554493667E+00  0.13932041700E+01  0.14071191803E+01  0.51100000000E-03 0. -1.
    9000002    1    1    2    0    0 -0.35804206519E+00  0.39459398730E+00  0.19546769520E+00  0.10963348736E+01  0.93800000000E+00 0. -1.
         22    1    1    2    0    0  0.22468938043E+00 -0.24904905063E+00  0.24113281021E+01  0.24345459460E+01  0.00000000000E+00 0. -1.
</event>
<event>
 5    1  0.9357782E+001  0.1594563E+01  0.7818608E-02  0.3359285E+00
         11   -1    0    0    0    0  0.00000000000E+00  0.00000000000E+00  0.39999999674E+01  0.40000000000E+01  0.51100000000E-03 0.  1.
    9000002   -1    0    0    0    0 -0.00000000000E+00 -0.00000000000E+00  0.00000000000E+00  0.93800000000E+00  0.93800000000E+00 0.  1.
         11    1    1    2    0    0  0.19199336041E-01 -0.38729033483E-01  0.12722173868E+01  0.12729516460E+01  0.51100000000E-03 0.  1.
    9000002    1    1    2    0    0  0.18075467058E+00  0.18859207647E+00  0.49308312076E-01  0.97494334804E+00  0.93800000000E+00 0.  1.
         22    1    1    2    0    0 -0.19995400662E+00 -0.14986304299E+00  0.26784742684E+01  0.26901050060E+01  0.00000000000E+00 0.  1.
</event>
<event>
 5    1  0.6564536E+001  0.1599625E+01  0.7818608E-02  0.3353770E+00
         11   -1    0    0    0    0  0.00000000000E+00  0.00000000000E+00  0.39999999674E+01  0.40000000000E+01  0.51100000000E-03 0. -1.
    9000002   -1    0    0    0    0 -0.00000000000E+00 -0.00000000000E+00  0.00000000000E+00  0.93800000000E+00  0.93800000000E+00 0. -1.
         11    1    1    2    0    0 -0.52396968034E-01 -0.39267117423E-01  0.38012066070E+00  0.38571923284E+00  0.51100000000E-03 0. -1.
    9000002    1    1    2    0    0  0.50048172787E+00  0.33752380332E+00  0.25449592626E+00  0.11441225696E+01  0.93800000000E+00 0. -1.
         22    1    1    2    0    0 -0.44808475983E+00 -0.29825668589E+00  0.33653833804E+01  0.34081581976E+01  0.00000000000E+00 0. -1.
</event>
<event>
 5    1  0.6564536E+001  0.1598002E+01  0.7818608E-02  0.3355535E+00
         11   -1    0    0    0    0  0.00000000000E+00  0.00000000000E+00  0.39999999674E+01  0.40000000000E+01  0.51100000000E-03 0. -1.
    9000002   -1    0    0    0    0 -0.00000000000E+00 -0.00000000000E+00  0.00000000000E+00  0.93800000000E+00  0.93800000000E+00 0. -1.
         11    1    1    2    0    0 -0.12151020030E+00  0.29281114300E+00  0.10623051423E+01  0.11086007265E+01  0.51100000000E-03 0. -1.
    9000002    1    1    2    0    0  0.30096774722E+00 -0.82067478117E+00  0.58100444529E+00  0.14076572192E+01  0.93800000000E+00 0. -1.
         22    1    1    2    0    0 -0.17945754691E+00  0.52786363817E+00  0.23566903797E+01  0.24217420543E+01  0.00000000000E+00 0. -1.
</event>
<event>
 5    1  0.6564536E+001  0.1598314E+01  0.7818608E-02  0.3355195E+00
         11   -1    0    0    0    0  0.00000000000E+00  0.00000000000E+00  0.39999999674E+01  0.40000000000E+01  0.51100000000E-03 0. -1.
    9000002   -1    0    0    0    0 -0.00000000000E+00 -0.00000000000E+00  0.00000000000E+00  0.93800000000E+00  0.93800000000E+00 0. -1.
         11    1    1    2    0    0 -0.16750405801E+00 -0.12490093130E+00  0.12495171489E+01  0.12668666933E+01  0.51100000000E-03 0. -1.
    9000002    1    1    2    0    0  0.40866419068E+00  0.30532455411E+00  0.17968836086E+00  0.10827563951E+01  0.93800000000E+00 0. -1.
         22    1    1    2    0    0 -0.24116013267E+00 -0.18042362282E+00  0.25707944576E+01  0.25883769116E+01  0.00000000000E+00 0. -1.
</event>
<event>
 5    1  0.6564536E+001  0.1596896E+01  0.7818608E-02  0.3356739E+00
         11   -1    0    0    0    0  0.00000000000E+00  0.00000000000E+00  0.39999999674E+01  0.40000000000E+01  0.51100000000E-03 0. -1.
    9000002   -1    0    0    0    0 -0.00000000000E+00 -0.00000000000E+00  0.00000000000E+00  0.93800000000E+00  0.93800000000E+00 0. -1.
         11    1    1    2    0    0 -0.11843377859E+00  0.77177238273E-01  0.14443415006E+01  0.14512427493E+01  0.51100000000E-03 0. -1.
    9000002    1    1    2    0    0  0.33380896946E+00 -0.36721791922E+00  0.17098598428E+00  0.10748756370E+01  0.93800000000E+00 0. -1.
         22    1    1    2    0    0 -0.21537519086E+00  0.29004068095E+00  0.23846724825E+01  0.24118816137E+01  0.00000000000E+00 0.  1.
</event>
<event>
 5    1  0.6564536E+001  0.1599439E+01  0.7818608E-02  0.3353972E+00
         11   -1    0    0    0    0  0.00000000000E+00  0.00000000000E+00  0.39999999674E+01  0.40000000000E+01  0.51100000000E-03 0. -1.
    9000002   -1    0    0    0    0 -0.00000000000E+00 -0.00000000000E+00  0.00000000000E+00  0.93800000000E+00  0.93800000000E+00 0.  1.
         11    1    1    2    0    0 -0.12320803941E+00 -0.39957362731E-01  0.10952574720E+01  0.11028898417E+01  0.51100000000E-03 0. -1.
    9000002    1    1    2    0    0  0.38733312570E+00  0.17496695908E+00  0.12245323762E+00  0.10370531242E+01  0.93800000000E+00 0.  1.
         22    1    1    2    0    0 -0.26412508629E+00 -0.13500959635E+00  0.27822892578E+01  0.27980570341E+01  0.00000000000E+00 0. -1.
</event>
<event>
 5    1  0.6564536E+001  0.1450355E+01  0.7818608E-02  0.3533729E+00
         11   -1    0    0    0    0  0.00000000000E+00  0.00000000000E+00  0.39999999674E+01  0.40000000000E+01  0.51100000000E-03 0. -1.
    9000002   -1    0    0    0    0 -0.00000000000E+00 -0.00000000000E+00  0.00000000000E+00  0.93800000000E+00  0.93800000000E+00 0.  1.
         11    1    1    2    0    0 -0.32654190666E-01  0.53039383792E-01 -0.44124188610E-01  0.76332676768E-01  0.51100000000E-03 0. -1.
    9000002    1    1    2    0    0 -0.15176578974E+00 -0.37086891320E+00  0.25054119099E+00  0.10503292313E+01  0.93800000000E+00 0.  1.
         22    1    1    2    0    0  0.18441998040E+00  0.31782952941E+00  0.37935829650E+01  0.38113380919E+01  0.00000000000E+00 0. -1.
</event>
<event>
 5    1  0.6564536E+001  0.1599652E+01  0.7818608E-02  0.3353741E+00
         11   -1    0    0    0    0  0.00000000000E+00  0.00000000000E+00  0.39999999674E+01  0.40000000000E+01  0.51100000000E-03 0.  1.
    9000002   -1    0    0    0    0 -0.00000000000E+00 -0.00000000000E+00  0.00000000000E+00  0.93800000000E+00  0.93800000000E+00 0. -1.
         11    1    1    2    0    0  0.11736041378E+00  0.56045998231E-01  0.12438348604E+01  0.12506158649E+01  0.51100000000E-03 0.  1.
    9000002    1    1    2    0    0 -0.36069233529E+00 -0.15931797226E+00  0.10481988130E+00  0.10228941219E+01  0.93800000000E+00 0. -1.
         22    1    1    2    0    0  0.24333192151E+00  0.10327197403E+00  0.26513452257E+01  0.26644900132E+01  0.00000000000E+00 0. -1.
</event>
<event>
 5    1  0.6564536E+001  0.1450461E+01  0.7818608E-02  0.3533587E+00
         11   -1    0    0    0    0  0.00000000000E+00  0.00000000000E+00  0.39999999674E+01  0.40000000000E+01  0.51100000000E-03 0. -1.
    9000002   -1    0    0    0    0 -0.00000000000E+00 -0.00000000000E+00  0.00000000000E+00  0.93800000000E+00  0.93800000000E+00 0. -1.
         11    1    1    2    0    0  0.11984194600E+00 -0.10317174603E+00  0.93529538375E-01  0.18372407808E+00  0.51100000000E-03 0. -1.
    9000002    1    1    2    0    0  0.38801171947E+00 -0.23619522370E+00  0.28335564619E+00  0.10800350459E+01  0.93800000000E+00 0. -1.
         22    1    1    2    0    0 -0.50785366547E+00  0.33936696972E+00  0.36231147828E+01  0.36742408760E+01  0.00000000000E+00 0. -1.
</event>
<event>
 5    1  0.6564536E+001  0.1599588E+01  0.7818608E-02  0.3353811E+00
         11   -1    0    0    0    0  0.00000000000E+00  0.00000000000E+00  0.39999999674E+01  0.40000000000E+01  0.51100000000E-03 0. -1.
    9000002   -1    0    0    0    0 -0.00000000000E+00 -0.00000000000E+00  0.00000000000E+00  0.93800000000E+00  0.93800000000E+00 0. -1.
         11    1    1    2    0    0 -0.40820204682E-02  0.43956433863E-02  0.62075644304E-01  0.62366908763E-01  0.51100000000E-03 0. -1.
    9000002    1    1    2    0    0  0.22059069951E+00 -0.44343263870E+00  0.16786408695E+00  0.10739250968E+01  0.93800000000E+00 0. -1.
         22    1    1    2    0    0 -0.21650867904E+00  0.43903699532E+00  0.37700602361E+01  0.38017079945E+01  0.00000000000E+00 0. -1.
</event>
<event>
 5    1  0.6564536E+001  0.1575135E+01  0.7818608E-02  0.3380801E+00
         11   -1    0    0    0    0  0.00000000000E+00  0.00000000000E+00  0.39999999674E+01  0.40000000000E+01  0.51100000000E-03 0.  1.
    9000002   -1    0    0    0    0 -0.00000000000E+00 -0.00000000000E+00  0.00000000000E+00  0.93800000000E+00  0.93800000000E+00 0. -1.
         11    1    1    2    0    0 -0.83946836681E-01  0.87699067390E-01  0.10174797561E+01  0.10246967908E+01  0.51100000000E-03 0.  1.
    9000002    1    1    2    0    0  0.19377837385E+00  0.28536382943E+00  0.99704001570E-01  0.10043741640E+01  0.93800000000E+00 0. -1.
         22    1    1    2    0    0 -0.10983153717E+00 -0.37306289682E+00  0.28828162097E+01  0.29089290452E+01  0.00000000000E+00 0. -1.
</event>
<event>
 5    1  0.6564536E+001  0.1599666E+01  0.7818608E-02  0.3353726E+00
         11   -1    0    0    0    0  0.00000000000E+00  0.00000000000E+00  0.39999999674E+01  0.40000000000E+01  0.51100000000E-03 0. -1.
    9000002   -1    0    0    0    0 -0.00000000000E+00 -0.00000000000E+00  0.00000000000E+00  0.93800000000E+00  0.93800000000E+00 0. -1.
         11    1    1    2    0    0 -0.16611589402E+00 -0.40057708385E-01  0.95373364905E+00  0.96892065965E+00  0.51100000000E-03 0. -1.
    9000002    1    1    2    0    0  0.63557257071E+00  0.14467163573E+00  0.29996177407E+00  0.11809756309E+01  0.93800000000E+00 0. -1.
         22    1    1    2    0    0 -0.46945667669E+00 -0.10461392734E+00  0.27463045442E+01  0.27881037095E+01  0.00000000000E+00 0. -1.
</event>
<event>
 5    1  0.6564536E+001  0.1598658E+01  0.7818608E-02  0.3354821E+00
         11   -1    0    0    0    0  0.00000000000E+00  0.00000000000E+00  0.39999999674E+01  0.40000000000E+01  0.51100000000E-03 0.  1.
    9000002   -1    0    0    0    0 -0.00000000000E+00 -0.00000000000E+00  0.00000000000E+00  0.93800000000E+00  0.93800000000E+00 0.  1.
         11    1    1    2    0    0  0.18154563957E-01  0.64421990407E-01  0.31956475101E+00  0.32649911523E+00  0.51100000000E-03 0.  1.
    9000002    1    1    2    0    0 -0.78008257700E-01 -0.54706222545E+00  0.21198305299E+00  0.11091182000E+01  0.93800000000E+00 0.  1.
         22    1    1    2    0    0  0.59853693744E-01  0.48264023504E+00  0.34684521634E+01  0.35023826848E+01  0.00000000000E+00 0.  1.
</event>
<event>
 5    1  0.6564536E+001  0.1598771E+01  0.7818608E-02  0.3354698E+00
         11   -1    0    0    0    0  0.00000000000E+00  0.00000000000E+00  0.39999999674E+01  0.40000000000E+01  0.51100000000E-03 0.  1.
    9000002   -1    0    0    0    0 -0.00000000000E+00 -0.00000000000E+00  0.00000000000E+00  0.93800000000E+00  0.93800000000E+00 0. -1.
         11    1    1    2    0    0  0.26043973759E-02  0.59274903548E-01  0.50966429527E+00  0.51310647245E+00  0.51100000000E-03 0.  1.
    9000002    1    1    2    0    0  0.12708783427E+00 -0.33893976646E+00  0.88711354213E-01  0.10093290778E+01  0.93800000000E+00 0. -1.
         22    1    1    2    0    0 -0.12969223165E+00  0.27966486291E+00  0.34016243179E+01  0.34155644498E+01  0.00000000000E+00 0.  1.
</event>
<event>
 5    1  0.6564536E+001  0.1594138E+01  0.7818608E-02  0.3359751E+00
         11   -1    0    0    0    0  0.00000000000E+00  0.00000000000E+00  0.39999999674E+01  0.40000000000E+01  0.51100000000E-03 0.  1.
    9000002   -1    0    0    0    0 -0.00000000000E+00 -0.00000000000E+00  0.00000000000E+00  0.93800000000E+00  0.93800000000E+00 0. -1.
         11    1    1    2    0    0  0.25726054460E-02  0.48696222765E-01  0.11066807175E+01  0.11077546714E+01  0.51100000000E-03 0.  1.
    9000002    1    1    2    0    0 -0.29360080247E+00 -0.19709043567E+00  0.88361921314E-01  0.10063289225E+01  0.93800000000E+00 0. -1.
         22    1    1    2    0    0  0.29102819702E+00  0.14839421290E+00  0.28049573286E+01  0.28239164062E+01  0.00000000000E+00 0.  1.
</event>
<event>
 5    1  0.6564536E+001  0.1599675E+01  0.7818608E-02  0.3353716E+00
         11   -1    0    0    0    0  0.00000000000E+00  0.00000000000E+00  0.39999999674E+01  0.40000000000E+01  0.51100000000E-03 0.  1.
    9000002   -1    0    0    0    0 -0.00000000000E+00 -0.00000000000E+00  0.00000000000E+00  0.93800000000E+00  0.93800000000E+00 0.  1.
         11    1    1    2    0    0 -0.10915648997E-01  0.29810309762E-01  0.30564241470E+00  0.30728708522E+00  0.51100000000E-03 0.  1.
    9000002    1    1    2    0    0  0.13916092258E+00 -0.36973051393E+00  0.10520518346E+00  0.10232196958E+01  0.93800000000E+00 0.  1.
         22    1    1    2    0    0 -0.12824527359E+00  0.33992020417E+00  0.35891523692E+01  0.36074932190E+01  0.00000000000E+00 0.  1.
</event>
