<event>
 5    1  0.1160133E+000  0.1583040E+01  0.7818608E-02  0.3371980E+00
         11   -1    0    0    0    0  0.00000000000E+00  0.00000000000E+00  0.39999999674E+01  0.40000000000E+01  0.51100000000E-03 0. -1.
    9000002   -1    0    0    0    0 -0.00000000000E+00 -0.00000000000E+00  0.00000000000E+00  0.93800000000E+00  0.93800000000E+00 0.  1.
         11    1    1    2    0    0  0.89753739643E-01  0.10990935725E+00  0.12526864627E+01  0.12606979954E+01  0.51100000000E-03 0. -1.
    9000002    1    1    2    0    0 -0.40718159294E+00 -0.69982726718E+00  0.50673651508E+00  0.13387236269E+01  0.93800000000E+00 0.  1.
         22    1    1    2    0    0  0.31742785330E+00  0.58991790993E+00  0.22405769896E+01  0.23385783777E+01  0.00000000000E+00 0. -1.
</event>
<event>
 5    1  0.1160133E+000  0.1599644E+01  0.7818608E-02  0.3353750E+00
         11   -1    0    0    0    0  0.00000000000E+00  0.00000000000E+00  0.39999999674E+01  0.40000000000E+01  0.51100000000E-03 0. -1.
    9000002   -1    0    0    0    0 -0.00000000000E+00 -0.00000000000E+00  0.00000000000E+00  0.93800000000E+00  0.93800000000E+00 0.  1.
         11    1    1    2    0    0 -0.50824116280E+00 -0.41633796207E+00  0.12414819843E+01  0.14046081862E+01  0.51100000000E-03 0. -1.
    9000002    1    1    2    0    0  0.97174780669E+00  0.78427743379E+00  0.16199774905E+01  0.22502346461E+01  0.93800000000E+00 0.  1.
         22    1    1    2    0    0 -0.46350664388E+00 -0.36793947172E+00  0.11385404925E+01  0.12831571677E+01  0.00000000000E+00 0. -1.
</event>
<event>
 5    1  0.1160133E+000  0.1599142E+01  0.7818608E-02  0.3354295E+00
         11   -1    0    0    0    0  0.00000000000E+00  0.00000000000E+00  0.39999999674E+01  0.40000000000E+01  0.51100000000E-03 0. -1.
    9000002   -1    0    0    0    0 -0.00000000000E+00 -0.00000000000E+00  0.00000000000E+00  0.93800000000E+00  0.93800000000E+00 0. -1.
         11    1    1    2    0    0 -0.13284995767E+00  0.28706222573E-01  0.33393757157E+00  0.36053809964E+00  0.51100000000E-03 0. -1.
    9000002    1    1    2    0    0  0.10982859110E+01 -0.38782351228E+00  0.12432611627E+01  0.19447831081E+01  0.93800000000E+00 0. -1.
         22    1    1    2    0    0 -0.96543595337E+00  0.35911728971E+00  0.24228012331E+01  0.26326787922E+01  0.00000000000E+00 0. -1.
</event>
<event>
 5    1  0.1160133E+000  0.1599677E+01  0.7818608E-02  0.3353714E+00
         11   -1    0    0    0    0  0.00000000000E+00  0.00000000000E+00  0.39999999674E+01  0.40000000000E+01  0.51100000000E-03 0. -1.
    9000002   -1    0    0    0    0 -0.00000000000E+00 -0.00000000000E+00  0.00000000000E+00  0.93800000000E+00  0.93800000000E+00 0. -1.
         11    1    1    2    0    0 -0.28168353882E+00 -0.22773413415E+00  0.13527679010E+01  0.14004248309E+01  0.51100000000E-03 0. -1.
    9000002    1    1    2    0    0  0.70347749291E+00  0.56887901925E+00  0.62778731830E+00  0.14465354605E+01  0.93800000000E+00 0. -1.
         22    1    1    2    0    0 -0.42179395409E+00 -0.34114488510E+00  0.20194447481E+01  0.20910397086E+01  0.00000000000E+00 0. -1.
</event>
<event>
 5    1  0.1160133E+000  0.1599677E+01  0.7818608E-02  0.3353714E+00
         11   -1    0    0    0    0  0.00000000000E+00  0.00000000000E+00  0.39999999674E+01  0.40000000000E+01  0.51100000000E-03 0.  1.
    9000002   -1    0    0    0    0 -0.00000000000E+00 -0.00000000000E+00  0.00000000000E+00  0.93800000000E+00  0.93800000000E+00 0.  1.
         11    1    1    2    0    0 -0.24148574388E+00 -0.30749175179E+00  0.91463865774E+00  0.99470130053E+00  0.51100000000E-03 0. -1.
    9000002    1    1    2    0    0  0.72282195907E+00  0.92064015404E+00  0.12617779451E+01  0.19600962886E+01  0.93800000000E+00 0.  1.
         22    1    1    2    0    0 -0.48133621520E+00 -0.61314840225E+00  0.18235833645E+01  0.19832024109E+01  0.00000000000E+00 0.  1.
</event>
<event>
 5    1  0.1160133E+000  0.1599651E+01  0.7818608E-02  0.3353742E+00
         11   -1    0    0    0    0  0.00000000000E+00  0.00000000000E+00  0.39999999674E+01  0.40000000000E+01  0.51100000000E-03 0. -1.
    9000002   -1    0    0    0    0 -0.00000000000E+00 -0.00000000000E+00  0.00000000000E+00  0.93800000000E+00  0.93800000000E+00 0. -1.
         11    1    1    2    0    0  0.45693063450E-02  0.91310485975E-02  0.24341711311E-01  0.26401413590E-01  0.51100000000E-03 0. -1.
    9000002    1    1    2    0    0 -0.60916476830E+00 -0.96988138672E+00  0.11763018126E+01  0.18908414988E+01  0.93800000000E+00 0. -1.
         22    1    1    2    0    0  0.60459546195E+00  0.96075033813E+00  0.27993564435E+01  0.30207570876E+01  0.00000000000E+00 0. -1.
</event>
<event>
 5    1  0.1160133E+000  0.1599677E+01  0.7818608E-02  0.3353714E+00
         11   -1    0    0    0    0  0.00000000000E+00  0.00000000000E+00  0.39999999674E+01  0.40000000000E+01  0.51100000000E-03 0.  1.
    9000002   -1    0    0    0    0 -0.00000000000E+00 -0.00000000000E+00  0.00000000000E+00  0.93800000000E+00  0.93800000000E+00 0. -1.
         11    1    1    2    0    0 -0.48448664956E+00  0.69851639022E-01  0.13951502171E+01  0.14785299978E+01  0.51100000000E-03 0.  1.
    9000002    1    1    2    0    0  0.10570058122E+01 -0.15097033163E+00  0.95775413396E+00  0.17138233016E+01  0.93800000000E+00 0. -1.
         22    1    1    2    0    0 -0.57251916265E+00  0.81118692611E-01  0.16470956163E+01  0.17456467005E+01  0.00000000000E+00 0. -1.
</event>
<event>
 5    1  0.1160133E+000  0.1599675E+01  0.7818608E-02  0.3353716E+00
         11   -1    0    0    0    0  0.00000000000E+00  0.00000000000E+00  0.39999999674E+01  0.40000000000E+01  0.51100000000E-03 0. -1.
    9000002   -1    0    0    0    0 -0.00000000000E+00 -0.00000000000E+00  0.00000000000E+00  0.93800000000E+00  0.93800000000E+00 0. -1.
         11    1    1    2    0    0  0.25911325485E+00  0.23219434338E-01  0.66446625282E+00  0.71357864544E+00  0.51100000000E-03 0. -1.
    9000002    1    1    2    0    0 -0.11197341320E+01 -0.10263402330E+00  0.11115468328E+01  0.18384011071E+01  0.93800000000E+00 0. -1.
         22    1    1    2    0    0  0.86062087716E+00  0.79414588963E-01  0.22239868817E+01  0.23860202474E+01  0.00000000000E+00 0. -1.
</event>
<event>
 5    1  0.1160133E+000  0.1599645E+01  0.7818608E-02  0.3353749E+00
         11   -1    0    0    0    0  0.00000000000E+00  0.00000000000E+00  0.39999999674E+01  0.40000000000E+01  0.51100000000E-03 0.  1.
    9000002   -1    0    0    0    0 -0.00000000000E+00 -0.00000000000E+00  0.00000000000E+00  0.93800000000E+00  0.93800000000E+00 0.  1.
         11    1    1    2    0    0  0.84537984789E-02 -0.73133107459E-01  0.26958627319E+00  0.27945829372E+00  0.51100000000E-03 0.  1.
    9000002    1    1    2    0    0 -0.14959919972E+00  0.91402187137E+00  0.66439586309E+00  0.14761713196E+01  0.93800000000E+00 0.  1.
         22    1    1    2    0    0  0.14114540125E+00 -0.84088876391E+00  0.30660178311E+01  0.31823703867E+01  0.00000000000E+00 0.  1.
</event>
<event>
 5    1  0.1160133E+000  0.1599485E+01  0.7818608E-02  0.3353922E+00
         11   -1    0    0    0    0  0.00000000000E+00  0.00000000000E+00  0.39999999674E+01  0.40000000000E+01  0.51100000000E-03 0. -1.
    9000002   -1    0    0    0    0 -0.00000000000E+00 -0.00000000000E+00  0.00000000000E+00  0.93800000000E+00  0.93800000000E+00 0.  1.
         11    1    1    2    0    0 -0.52607748040E-02  0.12025847495E+00  0.31040127129E+00  0.33292489677E+00  0.51100000000E-03 0. -1.
    9000002    1    1    2    0    0  0.41527387483E-01 -0.10704805932E+01  0.96706374154E+00  0.17212523070E+01  0.93800000000E+00 0.  1.
         22    1    1    2    0    0 -0.36266612679E-01  0.95022211824E+00  0.27225349545E+01  0.28838227962E+01  0.00000000000E+00 0. -1.
</event>
<event>
 5    1  0.1160133E+000  0.1599677E+01  0.7818608E-02  0.3353714E+00
         11   -1    0    0    0    0  0.00000000000E+00  0.00000000000E+00  0.39999999674E+01  0.40000000000E+01  0.51100000000E-03 0. -1.
    9000002   -1    0    0    0    0 -0.00000000000E+00 -0.00000000000E+00  0.00000000000E+00  0.93800000000E+00  0.93800000000E+00 0. -1.
         11    1    1    2    0    0  0.37024738666E+00 -0.96265483655E-01  0.96029389037E+00  0.10336898895E+01  0.51100000000E-03 0. -1.
    9000002    1    1    2    0    0 -0.10990964577E+01  0.28538293503E+00  0.11453170560E+01  0.18657576482E+01  0.93800000000E+00 0. -1.
         22    1    1    2    0    0  0.72884907105E+00 -0.18911745137E+00  0.18943890210E+01  0.20385524623E+01  0.00000000000E+00 0. -1.
</event>
<event>
 5    1  0.1160133E+000  0.1577681E+01  0.7818608E-02  0.3377949E+00
         11   -1    0    0    0    0  0.00000000000E+00  0.00000000000E+00  0.39999999674E+01  0.40000000000E+01  0.51100000000E-03 0. -1.
    9000002   -1    0    0    0    0 -0.00000000000E+00 -0.00000000000E+00  0.00000000000E+00  0.93800000000E+00  0.93800000000E+00 0. -1.
         11    1    1    2    0    0  0.31800724531E-01  0.65537773122E-02  0.67488183656E-01  0.74894286377E-01  0.51100000000E-03 0. -1.
    9000002    1    1    2    0    0  0.91772886507E+00 -0.66996479934E+00  0.12175612810E+01  0.19113813264E+01  0.93800000000E+00 0. -1.
         22    1    1    2    0    0 -0.94952958960E+00  0.66341102202E+00  0.27149505027E+01  0.29517243872E+01  0.00000000000E+00 0. -1.
</event>
<event>
 5    1  0.1160133E+000  0.1563620E+01  0.7818608E-02  0.3393821E+00
         11   -1    0    0    0    0  0.00000000000E+00  0.00000000000E+00  0.39999999674E+01  0.40000000000E+01  0.51100000000E-03 0. -1.
    9000002   -1    0    0    0    0 -0.00000000000E+00 -0.00000000000E+00  0.00000000000E+00  0.93800000000E+00  0.93800000000E+00 0. -1.
         11    1    1    2    0    0 -0.45143141267E+00  0.36070594294E-01  0.13924853139E+01  0.14642769610E+01  0.51100000000E-03 0. -1.
    9000002    1    1    2    0    0  0.11346135748E+01  0.27901749986E+00  0.13976539428E+01  0.20490191003E+01  0.93800000000E+00 0. -1.
         22    1    1    2    0    0 -0.68318216215E+00 -0.31508809416E+00  0.12098607107E+01  0.14247039387E+01  0.00000000000E+00 0. -1.
</event>
<event>
 5    1  0.1160133E+000  0.1531545E+01  0.7818608E-02  0.3431187E+00
         11   -1    0    0    0    0  0.00000000000E+00  0.00000000000E+00  0.39999999674E+01  0.40000000000E+01  0.51100000000E-03 0. -1.
    9000002   -1    0    0    0    0 -0.00000000000E+00 -0.00000000000E+00  0.00000000000E+00  0.93800000000E+00  0.93800000000E+00 0. -1.
         11    1    1    2    0    0  0.51819293054E+00 -0.99815699130E-01  0.40682481494E+00  0.66632858128E+00  0.51100000000E-03 0. -1.
    9000002    1    1    2    0    0 -0.11696914739E+01 -0.30876766711E+00  0.21970297379E+01  0.26777414523E+01  0.93800000000E+00 0. -1.
         22    1    1    2    0    0  0.65149854339E+00  0.40858336624E+00  0.13961454145E+01  0.15939299664E+01  0.00000000000E+00 0. -1.
</event>
<event>
 5    1  0.1160133E+000  0.1599668E+01  0.7818608E-02  0.3353723E+00
         11   -1    0    0    0    0  0.00000000000E+00  0.00000000000E+00  0.39999999674E+01  0.40000000000E+01  0.51100000000E-03 0. -1.
    9000002   -1    0    0    0    0 -0.00000000000E+00 -0.00000000000E+00  0.00000000000E+00  0.93800000000E+00  0.93800000000E+00 0. -1.
         11    1    1    2    0    0 -0.61609453788E+00 -0.36464568838E+00  0.10610366050E+01  0.12799757404E+01  0.51100000000E-03 0. -1.
    9000002    1    1    2    0    0  0.11164126283E+01  0.65347795588E+00  0.20812960393E+01  0.26239374609E+01  0.93800000000E+00 0. -1.
         22    1    1    2    0    0 -0.50031809039E+00 -0.28883226749E+00  0.85766732305E+00  0.10340867987E+01  0.00000000000E+00 0. -1.
</event>
<event>
 5    1  0.1160133E+000  0.1599677E+01  0.7818608E-02  0.3353714E+00
         11   -1    0    0    0    0  0.00000000000E+00  0.00000000000E+00  0.39999999674E+01  0.40000000000E+01  0.51100000000E-03 0. -1.
    9000002   -1    0    0    0    0 -0.00000000000E+00 -0.00000000000E+00  0.00000000000E+00  0.93800000000E+00  0.93800000000E+00 0. -1.
         11    1    1    2    0    0 -0.45817177252E-01  0.41661229787E+00  0.11543550998E+01  0.12280883430E+01  0.51100000000E-03 0. -1.
    9000002    1    1    2    0    0  0.11853579204E+00 -0.10794815067E+01  0.10042335132E+01  0.17514736670E+01  0.93800000000E+00 0. -1.
         22    1    1    2    0    0 -0.72718614790E-01  0.66286920880E+00  0.18414113543E+01  0.19584379900E+01  0.00000000000E+00 0. -1.
</event>
<event>
 5    1  0.1160133E+000  0.1577905E+01  0.7818608E-02  0.3377700E+00
         11   -1    0    0    0    0  0.00000000000E+00  0.00000000000E+00  0.39999999674E+01  0.40000000000E+01  0.51100000000E-03 0. -1.
    9000002   -1    0    0    0    0 -0.00000000000E+00 -0.00000000000E+00  0.00000000000E+00  0.93800000000E+00  0.93800000000E+00 0. -1.
         11    1    1    2    0    0 -0.30202594526E+00  0.29144396744E+00  0.13266598567E+01  0.13914689699E+01  0.51100000000E-03 0. -1.
    9000002    1    1    2    0    0  0.97314572969E+00 -0.37280883662E+00  0.94537158994E+00  0.16910264584E+01  0.93800000000E+00 0. -1.
         22    1    1    2    0    0 -0.67111978442E+00  0.81364869175E-01  0.17279685207E+01  0.18555045717E+01  0.00000000000E+00 0.  1.
</event>
<event>
 5    1  0.1160133E+000  0.1594797E+01  0.7818608E-02  0.3359030E+00
         11   -1    0    0    0    0  0.00000000000E+00  0.00000000000E+00  0.39999999674E+01  0.40000000000E+01  0.51100000000E-03 0. -1.
    9000002   -1    0    0    0    0 -0.00000000000E+00 -0.00000000000E+00  0.00000000000E+00  0.93800000000E+00  0.93800000000E+00 0. -1.
         11    1    1    2    0    0  0.17024519447E-01 -0.79644474426E-02  0.99913515473E-01  0.10166729258E+00  0.51100000000E-03 0. -1.
    9000002    1    1    2    0    0 -0.22269904836E+00  0.10936486559E+01  0.11007202894E+01  0.18267707585E+01  0.93800000000E+00 0. -1.
         22    1    1    2    0    0  0.20567452891E+00 -0.10856842085E+01  0.27993661625E+01  0.30095619489E+01  0.00000000000E+00 0. -1.
</event>
<event>
 5    1  0.1160133E+000  0.1598619E+01  0.7818608E-02  0.3354864E+00
         11   -1    0    0    0    0  0.00000000000E+00  0.00000000000E+00  0.39999999674E+01  0.40000000000E+01  0.51100000000E-03 0. -1.
    9000002   -1    0    0    0    0 -0.00000000000E+00 -0.00000000000E+00  0.00000000000E+00  0.93800000000E+00  0.93800000000E+00 0.  1.
         11    1    1    2    0    0 -0.20212271187E+00  0.90792471217E-01  0.58018695786E+00  0.62105879808E+00  0.51100000000E-03 0. -1.
    9000002    1    1    2    0    0  0.91150588119E+00 -0.50659636316E+00  0.90041482861E+00  0.16667554440E+01  0.93800000000E+00 0.  1.
         22    1    1    2    0    0 -0.70938316932E+00  0.41580389194E+00  0.25193981809E+01  0.26501857579E+01  0.00000000000E+00 0. -1.
</event>
<event>
 5    1  0.1160133E+000  0.1517562E+01  0.7818608E-02  0.3448005E+00
         11   -1    0    0    0    0  0.00000000000E+00  0.00000000000E+00  0.39999999674E+01  0.40000000000E+01  0.51100000000E-03 0. -1.
    9000002   -1    0    0    0    0 -0.00000000000E+00 -0.00000000000E+00  0.00000000000E+00  0.93800000000E+00  0.93800000000E+00 0. -1.
         11    1    1    2    0    0 -0.92945393270E-01  0.13782317557E+00  0.10154073153E+01  0.10289248519E+01  0.51100000000E-03 0. -1.
    9000002    1    1    2    0    0  0.55665606315E-01  0.58309058325E+00  0.32408824940E+00  0.11523760156E+01  0.93800000000E+00 0. -1.
         22    1    1    2    0    0  0.37279786955E-01 -0.72091375881E+00  0.26605044027E+01  0.27566991324E+01  0.00000000000E+00 0. -1.
</event>
<event>
 5    1  0.1640800E+000  0.1550217E+01  0.7818608E-02  0.3409234E+00
         11   -1    0    0    0    0  0.00000000000E+00  0.00000000000E+00  0.39999999674E+01  0.40000000000E+01  0.51100000000E-03 0.  1.
    9000002   -1    0    0    0    0 -0.00000000000E+00 -0.00000000000E+00  0.00000000000E+00  0.93800000000E+00  0.93800000000E+00 0.  1.
         11    1    1    2    0    0  0.85566610231E-01  0.12215212856E+00  0.11494679222E+01  0.11591029086E+01  0.51100000000E-03 0.  1.
    9000002    1    1    2    0    0  0.51751186418E+00 -0.42739622754E+00  0.37512869929E+00  0.12128691627E+01  0.93800000000E+00 0.  1.
         22    1    1    2    0    0 -0.60307847441E+00  0.30524409898E+00  0.24754033458E+01  0.25660279287E+01  0.00000000000E+00 0.  1.
</event>
<event>
 5    1  0.1160133E+000  0.1598500E+01  0.7818608E-02  0.3354993E+00
         11   -1    0    0    0    0  0.00000000000E+00  0.00000000000E+00  0.39999999674E+01  0.40000000000E+01  0.51100000000E-03 0. -1.
    9000002   -1    0    0    0    0 -0.00000000000E+00 -0.00000000000E+00  0.00000000000E+00  0.93800000000E+00  0.93800000000E+00 0. -1.
         11    1    1    2    0    0 -0.22206714302E-01  0.31231336405E+00  0.74742659404E+00  0.81035766803E+00  0.51100000000E-03 0. -1.
    9000002    1    1    2    0    0 -0.35211660921E-01 -0.11873847073E+01  0.13316139971E+01  0.20159767214E+01  0.93800000000E+00 0. -1.
         22    1    1    2    0    0  0.57418375223E-01  0.87507134323E+00  0.19209593762E+01  0.21116656105E+01  0.00000000000E+00 0. -1.
</event>
<event>
 5    1  0.1160133E+000  0.1599667E+01  0.7818608E-02  0.3353725E+00
         11   -1    0    0    0    0  0.00000000000E+00  0.00000000000E+00  0.39999999674E+01  0.40000000000E+01  0.51100000000E-03 0.  1.
    9000002   -1    0    0    0    0 -0.00000000000E+00 -0.00000000000E+00  0.00000000000E+00  0.93800000000E+00  0.93800000000E+00 0.  1.
         11    1    1    2    0    0 -0.40162000628E-01 -0.29470576022E-01  0.15570336406E+00  0.16347874432E+00  0.51100000000E-03 0.  1.
    9000002    1    1    2    0    0  0.81388086376E+00  0.62643445018E+00  0.86241881333E+00  0.16365916993E+01  0.93800000000E+00 0.  1.
         22    1    1    2    0    0 -0.77371886313E+00 -0.59696387415E+00  0.29818777900E+01  0.31379295563E+01  0.00000000000E+00 0.  1.
</event>
<event>
 5    1  0.1160133E+000  0.1138421E+01  0.7818608E-02  0.4146873E+00
         11   -1    0    0    0    0  0.00000000000E+00  0.00000000000E+00  0.39999999674E+01  0.40000000000E+01  0.51100000000E-03 0. -1.
    9000002   -1    0    0    0    0 -0.00000000000E+00 -0.00000000000E+00  0.00000000000E+00  0.93800000000E+00  0.93800000000E+00 0. -1.
         11    1    1    2    0    0  0.58546784221E+00  0.49351977884E+00  0.14517378442E+00  0.77936516164E+00  0.51100000000E-03 0. -1.
    9000002    1    1    2    0    0 -0.13517461624E+00 -0.49525295744E+00  0.22389082927E+01  0.24811493328E+01  0.93800000000E+00 0. -1.
         22    1    1    2    0    0 -0.45029322597E+00  0.17331786024E-02  0.16159178902E+01  0.16774855055E+01  0.00000000000E+00 0. -1.
</event>
<event>
 5    1  0.1160133E+000  0.1598184E+01  0.7818608E-02  0.3355336E+00
         11   -1    0    0    0    0  0.00000000000E+00  0.00000000000E+00  0.39999999674E+01  0.40000000000E+01  0.51100000000E-03 0. -1.
    9000002   -1    0    0    0    0 -0.00000000000E+00 -0.00000000000E+00  0.00000000000E+00  0.93800000000E+00  0.93800000000E+00 0.  1.
         11    1    1    2    0    0  0.13599042397E+00  0.40991289713E+00  0.12395402134E+01  0.13126241581E+01  0.51100000000E-03 0. -1.
    9000002    1    1    2    0    0 -0.33907941652E+00 -0.10692256834E+01  0.11076967284E+01  0.18344084754E+01  0.93800000000E+00 0.  1.
         22    1    1    2    0    0  0.20308899256E+00  0.65931278625E+00  0.16527630256E+01  0.17909673665E+01  0.00000000000E+00 0. -1.
</event>
<event>
 5    1  0.1160133E+000  0.1599676E+01  0.7818608E-02  0.3353715E+00
         11   -1    0    0    0    0  0.00000000000E+00  0.00000000000E+00  0.39999999674E+01  0.40000000000E+01  0.51100000000E-03 0. -1.
    9000002   -1    0    0    0    0 -0.00000000000E+00 -0.00000000000E+00  0.00000000000E+00  0.93800000000E+00  0.93800000000E+00 0. -1.
         11    1    1    2    0    0  0.24192875592E+00  0.26680237178E+00  0.11639370716E+01  0.12183853234E+01  0.51100000000E-03 0. -1.
    9000002    1    1    2    0    0 -0.66415861830E+00 -0.73701614741E+00  0.78832781798E+00  0.15765799125E+01  0.93800000000E+00 0. -1.
         22    1    1    2    0    0  0.42222986238E+00  0.47021377563E+00  0.20477350778E+01  0.21430347642E+01  0.00000000000E+00 0. -1.
</event>
<event>
 5    1  0.1160133E+000  0.1522527E+01  0.7818608E-02  0.3441995E+00
         11   -1    0    0    0    0  0.00000000000E+00  0.00000000000E+00  0.39999999674E+01  0.40000000000E+01  0.51100000000E-03 0.  1.
    9000002   -1    0    0    0    0 -0.00000000000E+00 -0.00000000000E+00  0.00000000000E+00  0.93800000000E+00  0.93800000000E+00 0.  1.
         11    1    1    2    0    0  0.26497425040E+00 -0.23937028688E+00  0.12797549671E+01  0.13286393509E+01  0.51100000000E-03 0.  1.
    9000002    1    1    2    0    0  0.68125521111E-01  0.95909838999E+00  0.88095166377E+00  0.16063718879E+01  0.93800000000E+00 0.  1.
         22    1    1    2    0    0 -0.33309977151E+00 -0.71972810311E+00  0.18392933364E+01  0.20029887612E+01  0.00000000000E+00 0.  1.
</event>
<event>
 5    1  0.1160133E+000  0.1599677E+01  0.7818608E-02  0.3353715E+00
         11   -1    0    0    0    0  0.00000000000E+00  0.00000000000E+00  0.39999999674E+01  0.40000000000E+01  0.51100000000E-03 0.  1.
    9000002   -1    0    0    0    0 -0.00000000000E+00 -0.00000000000E+00  0.00000000000E+00  0.93800000000E+00  0.93800000000E+00 0. -1.
         11    1    1    2    0    0 -0.32721951462E-02 -0.13813168134E+00  0.46392203551E+00  0.48406093088E+00  0.51100000000E-03 0.  1.
    9000002    1    1    2    0    0  0.23278838170E-01  0.96727719220E+00  0.73991293811E+00  0.15373621001E+01  0.93800000000E+00 0. -1.
         22    1    1    2    0    0 -0.20006643024E-01 -0.82914551087E+00  0.27961649937E+01  0.29165769690E+01  0.00000000000E+00 0.  1.
</event>
<event>
 5    1  0.1160133E+000  0.1503549E+01  0.7818608E-02  0.3465196E+00
         11   -1    0    0    0    0  0.00000000000E+00  0.00000000000E+00  0.39999999674E+01  0.40000000000E+01  0.51100000000E-03 0.  1.
    9000002   -1    0    0    0    0 -0.00000000000E+00 -0.00000000000E+00  0.00000000000E+00  0.93800000000E+00  0.93800000000E+00 0.  1.
         11    1    1    2    0    0 -0.20057839099E+00 -0.42496718887E+00  0.57684157802E+00  0.74402639053E+00  0.51100000000E-03 0.  1.
    9000002    1    1    2    0    0 -0.76234887677E+00  0.64090608212E+00  0.14857395388E+01  0.20197035409E+01  0.93800000000E+00 0.  1.
         22    1    1    2    0    0  0.96292726775E+00 -0.21593889324E+00  0.19374188506E+01  0.21742700686E+01  0.00000000000E+00 0.  1.
</event>
<event>
 5    1  0.1160133E+000  0.1594769E+01  0.7818608E-02  0.3359060E+00
         11   -1    0    0    0    0  0.00000000000E+00  0.00000000000E+00  0.39999999674E+01  0.40000000000E+01  0.51100000000E-03 0. -1.
    9000002   -1    0    0    0    0 -0.00000000000E+00 -0.00000000000E+00  0.00000000000E+00  0.93800000000E+00  0.93800000000E+00 0.  1.
         11    1    1    2    0    0 -0.85930013886E-01 -0.93430111523E-01  0.23937144196E+00  0.27094667625E+00  0.51100000000E-03 0. -1.
    9000002    1    1    2    0    0  0.44806965895E+00  0.10423101487E+01  0.11569979891E+01  0.18723421728E+01  0.93800000000E+00 0.  1.
         22    1    1    2    0    0 -0.36213964507E+00 -0.94888003717E+00  0.26036305363E+01  0.27947111509E+01  0.00000000000E+00 0. -1.
</event>
<event>
 5    1  0.1160133E+000  0.1599676E+01  0.7818608E-02  0.3353715E+00
         11   -1    0    0    0    0  0.00000000000E+00  0.00000000000E+00  0.39999999674E+01  0.40000000000E+01  0.51100000000E-03 0. -1.
    9000002   -1    0    0    0    0 -0.00000000000E+00 -0.00000000000E+00  0.00000000000E+00  0.93800000000E+00  0.93800000000E+00 0.  1.
         11    1    1    2    0    0  0.29300267050E+00  0.27419149843E+00  0.12461391543E+01  0.13091579721E+01  0.51100000000E-03 0. -1.
    9000002    1    1    2    0    0 -0.74439516825E+00 -0.69540133766E+00  0.84405361924E+00  0.16217205983E+01  0.93800000000E+00 0.  1.
         22    1    1    2    0    0  0.45139249776E+00  0.42120983924E+00  0.19098071938E+01  0.20071214296E+01  0.00000000000E+00 0. -1.
</event>
<event>
 5    1  0.1160133E+000  0.1546314E+01  0.7818608E-02  0.3413776E+00
         11   -1    0    0    0    0  0.00000000000E+00  0.00000000000E+00  0.39999999674E+01  0.40000000000E+01  0.51100000000E-03 0. -1.
    9000002   -1    0    0    0    0 -0.00000000000E+00 -0.00000000000E+00  0.00000000000E+00  0.93800000000E+00  0.93800000000E+00 0.  1.
         11    1    1    2    0    0 -0.23369182851E+00  0.25687857713E+00  0.60933197383E+00  0.70134455837E+00  0.51100000000E-03 0. -1.
    9000002    1    1    2    0    0  0.36552278716E-01 -0.10527934392E+01  0.10555095367E+01  0.17617191822E+01  0.93800000000E+00 0. -1.
         22    1    1    2    0    0  0.19713954979E+00  0.79591486211E+00  0.23351584568E+01  0.24749362595E+01  0.00000000000E+00 0. -1.
</event>
<event>
 5    1  0.1160133E+000  0.1590049E+01  0.7818608E-02  0.3364235E+00
         11   -1    0    0    0    0  0.00000000000E+00  0.00000000000E+00  0.39999999674E+01  0.40000000000E+01  0.51100000000E-03 0. -1.
    9000002   -1    0    0    0    0 -0.00000000000E+00 -0.00000000000E+00  0.00000000000E+00  0.93800000000E+00  0.93800000000E+00 0. -1.
         11    1    1    2    0    0 -0.17676909546E+00  0.66933865513E-01  0.12165867636E+01  0.12311827931E+01  0.51100000000E-03 0. -1.
    9000002    1    1    2    0    0  0.81515830195E+00 -0.26960587836E+00  0.56861987030E+00  0.13929619319E+01  0.93800000000E+00 0. -1.
         22    1    1    2    0    0 -0.63838920649E+00  0.20267201285E+00  0.22147933334E+01  0.23138552750E+01  0.00000000000E+00 0.  1.
</event>
<event>
 5    1  0.1160133E+000  0.1599663E+01  0.7818608E-02  0.3353729E+00
         11   -1    0    0    0    0  0.00000000000E+00  0.00000000000E+00  0.39999999674E+01  0.40000000000E+01  0.51100000000E-03 0.  1.
    9000002   -1    0    0    0    0 -0.00000000000E+00 -0.00000000000E+00  0.00000000000E+00  0.93800000000E+00  0.93800000000E+00 0.  1.
         11    1    1    2    0    0 -0.38353479830E-01  0.27098888218E+00  0.92916205663E+00  0.96863220693E+00  0.51100000000E-03 0.  1.
    9000002    1    1    2    0    0  0.12611397375E+00 -0.96138554907E+00  0.74389883143E+00  0.15405831298E+01  0.93800000000E+00 0.  1.
         22    1    1    2    0    0 -0.87760493922E-01  0.69039666689E+00  0.23269390793E+01  0.24287846633E+01  0.00000000000E+00 0.  1.
</event>
<event>
 5    1  0.1160133E+000  0.1567692E+01  0.7818608E-02  0.3389194E+00
         11   -1    0    0    0    0  0.00000000000E+00  0.00000000000E+00  0.39999999674E+01  0.40000000000E+01  0.51100000000E-03 0.  1.
    9000002   -1    0    0    0    0 -0.00000000000E+00 -0.00000000000E+00  0.00000000000E+00  0.93800000000E+00  0.93800000000E+00 0.  1.
         11    1    1    2    0    0  0.43392741066E+00  0.61440857753E-01  0.70888628499E+00  0.83341946395E+00  0.51100000000E-03 0.  1.
    9000002    1    1    2    0    0 -0.10017716158E+01 -0.33107704482E+00  0.10031987794E+01  0.17318805302E+01  0.93800000000E+00 0.  1.
         22    1    1    2    0    0  0.56784420514E+00  0.26963618706E+00  0.22879149029E+01  0.23727000058E+01  0.00000000000E+00 0.  1.
</event>
<event>
 5    1  0.1160133E+000  0.1599651E+01  0.7818608E-02  0.3353743E+00
         11   -1    0    0    0    0  0.00000000000E+00  0.00000000000E+00  0.39999999674E+01  0.40000000000E+01  0.51100000000E-03 0. -1.
    9000002   -1    0    0    0    0 -0.00000000000E+00 -0.00000000000E+00  0.00000000000E+00  0.93800000000E+00  0.93800000000E+00 0. -1.
         11    1    1    2    0    0 -0.33746713639E-01  0.14917124280E+00  0.53682861982E+00  0.55819004697E+00  0.51100000000E-03 0. -1.
    9000002    1    1    2    0    0  0.20950736459E+00 -0.89917342919E+00  0.65930424395E+00  0.14720503652E+01  0.93800000000E+00 0. -1.
         22    1    1    2    0    0 -0.17576065095E+00  0.75000218640E+00  0.28038671036E+01  0.29077595878E+01  0.00000000000E+00 0. -1.
</event>
<event>
 5    1  0.1160133E+000  0.1588345E+01  0.7818608E-02  0.3366112E+00
         11   -1    0    0    0    0  0.00000000000E+00  0.00000000000E+00  0.39999999674E+01  0.40000000000E+01  0.51100000000E-03 0. -1.
    9000002   -1    0    0    0    0 -0.00000000000E+00 -0.00000000000E+00  0.00000000000E+00  0.93800000000E+00  0.93800000000E+00 0. -1.
         11    1    1    2    0    0 -0.23784085928E+00  0.45981374100E+00  0.70373739859E+00  0.87363810474E+00  0.51100000000E-03 0. -1.
    9000002    1    1    2    0    0  0.82043083982E+00 -0.97390331451E+00  0.24437157577E+01  0.29108736032E+01  0.93800000000E+00 0. -1.
         22    1    1    2    0    0 -0.58258998054E+00  0.51408957351E+00  0.85254681103E+00  0.11534882921E+01  0.00000000000E+00 0. -1.
</event>
<event>
 5    1  0.1225085E+000  0.1550681E+01  0.7818608E-02  0.3408696E+00
         11   -1    0    0    0    0  0.00000000000E+00  0.00000000000E+00  0.39999999674E+01  0.40000000000E+01  0.51100000000E-03 0.  1.
    9000002   -1    0    0    0    0 -0.00000000000E+00 -0.00000000000E+00  0.00000000000E+00  0.93800000000E+00  0.93800000000E+00 0. -1.
         11    1    1    2    0    0  0.70664158402E-01 -0.68830438671E-01  0.12064054281E+01  0.12104318942E+01  0.51100000000E-03 0.  1.
    9000002    1    1    2    0    0  0.47449888610E+00  0.52127347075E+00  0.41317116253E+00  0.12439572476E+01  0.93800000000E+00 0. -1.
         22    1    1    2    0    0 -0.54516304450E+00 -0.45244303208E+00  0.23804233768E+01  0.24836108582E+01  0.00000000000E+00 0.  1.
</event>
<event>
 5    1  0.1160133E+000  0.1599648E+01  0.7818608E-02  0.3353745E+00
         11   -1    0    0    0    0  0.00000000000E+00  0.00000000000E+00  0.39999999674E+01  0.40000000000E+01  0.51100000000E-03 0.  1.
    9000002   -1    0    0    0    0 -0.00000000000E+00 -0.00000000000E+00  0.00000000000E+00  0.93800000000E+00  0.93800000000E+00 0.  1.
         11    1    1    2    0    0 -0.12815324122E+00 -0.27018004635E+00  0.95162887319E+00  0.99750603211E+00  0.51100000000E-03 0.  1.
    9000002    1    1    2    0    0  0.44233802003E+00  0.91193292563E+00  0.83305693415E+00  0.16127964659E+01  0.93800000000E+00 0.  1.
         22    1    1    2    0    0 -0.31418477881E+00 -0.64175287928E+00  0.22153141600E+01  0.23276975020E+01  0.00000000000E+00 0.  1.
</event>
<event>
 5    1  0.1160133E+000  0.1458148E+01  0.7818608E-02  0.3523349E+00
         11   -1    0    0    0    0  0.00000000000E+00  0.00000000000E+00  0.39999999674E+01  0.40000000000E+01  0.51100000000E-03 0. -1.
    9000002   -1    0    0    0    0 -0.00000000000E+00 -0.00000000000E+00  0.00000000000E+00  0.93800000000E+00  0.93800000000E+00 0.  1.
         11    1    1    2    0    0 -0.28352011358E+00  0.29613311335E+00  0.97541001957E+00  0.10580658973E+01  0.51100000000E-03 0. -1.
    9000002    1    1    2    0    0 -0.44166131625E+00 -0.49825117232E+00  0.51582224410E+00  0.12606488554E+01  0.93800000000E+00 0.  1.
         22    1    1    2    0    0  0.72518142983E+00  0.20211805897E+00  0.25087677037E+01  0.26192852474E+01  0.00000000000E+00 0. -1.
</event>
<event>
 5    1  0.1160133E+000  0.1473422E+01  0.7818608E-02  0.3503352E+00
         11   -1    0    0    0    0  0.00000000000E+00  0.00000000000E+00  0.39999999674E+01  0.40000000000E+01  0.51100000000E-03 0. -1.
    9000002   -1    0    0    0    0 -0.00000000000E+00 -0.00000000000E+00  0.00000000000E+00  0.93800000000E+00  0.93800000000E+00 0.  1.
         11    1    1    2    0    0 -0.27004057333E+00 -0.21714401175E+00  0.12968491059E+01  0.13423454465E+01  0.51100000000E-03 0. -1.
    9000002    1    1    2    0    0  0.55064367775E-01 -0.55740870005E+00  0.41204962573E+00  0.11676324069E+01  0.93800000000E+00 0.  1.
         22    1    1    2    0    0  0.21497620556E+00  0.77455271180E+00  0.22911012357E+01  0.24280221467E+01  0.00000000000E+00 0. -1.
</event>
<event>
 5    1  0.1160133E+000  0.1596079E+01  0.7818608E-02  0.3357631E+00
         11   -1    0    0    0    0  0.00000000000E+00  0.00000000000E+00  0.39999999674E+01  0.40000000000E+01  0.51100000000E-03 0. -1.
    9000002   -1    0    0    0    0 -0.00000000000E+00 -0.00000000000E+00  0.00000000000E+00  0.93800000000E+00  0.93800000000E+00 0.  1.
         11    1    1    2    0    0 -0.35030877426E+00  0.74400306853E-01  0.11402111746E+01  0.11951290419E+01  0.51100000000E-03 0. -1.
    9000002    1    1    2    0    0  0.87944749590E+00 -0.36548822435E+00  0.71757513420E+00  0.15171577418E+01  0.93800000000E+00 0.  1.
         22    1    1    2    0    0 -0.52913872164E+00  0.29108791750E+00  0.21422136586E+01  0.22257132163E+01  0.00000000000E+00 0. -1.
</event>
<event>
 5    1  0.1160133E+000  0.1599677E+01  0.7818608E-02  0.3353714E+00
         11   -1    0    0    0    0  0.00000000000E+00  0.00000000000E+00  0.39999999674E+01  0.40000000000E+01  0.51100000000E-03 0.  1.
    9000002   -1    0    0    0    0 -0.00000000000E+00 -0.00000000000E+00  0.00000000000E+00  0.93800000000E+00  0.93800000000E+00 0.  1.
         11    1    1    2    0    0  0.27383782429E+00 -0.28563888100E+00  0.45854470428E+00  0.60567337014E+00  0.51100000000E-03 0.  1.
    9000002    1    1    2    0    0 -0.88830829368E+00  0.92617286132E+00  0.25160743786E+01  0.29761320656E+01  0.93800000000E+00 0.  1.
         22    1    1    2    0    0  0.61447046940E+00 -0.64053398032E+00  0.10253808845E+01  0.13561945642E+01  0.00000000000E+00 0.  1.
</event>
<event>
 5    1  0.1160133E+000  0.1599676E+01  0.7818608E-02  0.3353715E+00
         11   -1    0    0    0    0  0.00000000000E+00  0.00000000000E+00  0.39999999674E+01  0.40000000000E+01  0.51100000000E-03 0. -1.
    9000002   -1    0    0    0    0 -0.00000000000E+00 -0.00000000000E+00  0.00000000000E+00  0.93800000000E+00  0.93800000000E+00 0. -1.
         11    1    1    2    0    0 -0.61588821456E-01  0.18916395431E+00  0.55122474165E+00  0.58602488127E+00  0.51100000000E-03 0. -1.
    9000002    1    1    2    0    0  0.33016279695E+00 -0.10321567311E+01  0.99824904279E+00  0.17466253581E+01  0.93800000000E+00 0. -1.
         22    1    1    2    0    0 -0.26857397549E+00  0.84299277681E+00  0.24505261829E+01  0.26053497606E+01  0.00000000000E+00 0. -1.
</event>
<event>
 5    1  0.1160133E+000  0.1524490E+01  0.7818608E-02  0.3439631E+00
         11   -1    0    0    0    0  0.00000000000E+00  0.00000000000E+00  0.39999999674E+01  0.40000000000E+01  0.51100000000E-03 0. -1.
    9000002   -1    0    0    0    0 -0.00000000000E+00 -0.00000000000E+00  0.00000000000E+00  0.93800000000E+00  0.93800000000E+00 0. -1.
         11    1    1    2    0    0 -0.42398086414E+00 -0.15373025066E+00  0.10960663835E+01  0.11852234141E+01  0.51100000000E-03 0. -1.
    9000002    1    1    2    0    0 -0.35235107652E+00  0.52167314606E+00  0.56912951943E+00  0.12649294693E+01  0.93800000000E+00 0. -1.
         22    1    1    2    0    0  0.77633194066E+00 -0.36794289540E+00  0.23348040644E+01  0.24878471166E+01  0.00000000000E+00 0.  1.
</event>
<event>
 5    1  0.1160133E+000  0.1599657E+01  0.7818608E-02  0.3353736E+00
         11   -1    0    0    0    0  0.00000000000E+00  0.00000000000E+00  0.39999999674E+01  0.40000000000E+01  0.51100000000E-03 0. -1.
    9000002   -1    0    0    0    0 -0.00000000000E+00 -0.00000000000E+00  0.00000000000E+00  0.93800000000E+00  0.93800000000E+00 0. -1.
         11    1    1    2    0    0 -0.30715364224E-01  0.13787543266E+00  0.34028599890E+00  0.36843980607E+00  0.51100000000E-03 0. -1.
    9000002    1    1    2    0    0  0.27775097147E+00 -0.11285836735E+01  0.12328349715E+01  0.19366395579E+01  0.93800000000E+00 0. -1.
         22    1    1    2    0    0 -0.24703560724E+00  0.99070824085E+00  0.24268789970E+01  0.26329206360E+01  0.00000000000E+00 0. -1.
</event>
<event>
 5    1  0.1160133E+000  0.1599673E+01  0.7818608E-02  0.3353718E+00
         11   -1    0    0    0    0  0.00000000000E+00  0.00000000000E+00  0.39999999674E+01  0.40000000000E+01  0.51100000000E-03 0.  1.
    9000002   -1    0    0    0    0 -0.00000000000E+00 -0.00000000000E+00  0.00000000000E+00  0.93800000000E+00  0.93800000000E+00 0.  1.
         11    1    1    2    0    0 -0.20558463269E-01 -0.17157553219E-01  0.69932659773E-01  0.74885713380E-01  0.51100000000E-03 0.  1.
    9000002    1    1    2    0    0  0.85876173662E+00  0.72739471842E+00  0.11145160153E+01  0.18408054609E+01  0.93800000000E+00 0.  1.
         22    1    1    2    0    0 -0.83820327335E+00 -0.71023716520E+00  0.28155512923E+01  0.30223088257E+01  0.00000000000E+00 0.  1.
</event>
<event>
 5    1  0.1160133E+000  0.1599674E+01  0.7818608E-02  0.3353717E+00
         11   -1    0    0    0    0  0.00000000000E+00  0.00000000000E+00  0.39999999674E+01  0.40000000000E+01  0.51100000000E-03 0.  1.
    9000002   -1    0    0    0    0 -0.00000000000E+00 -0.00000000000E+00  0.00000000000E+00  0.93800000000E+00  0.93800000000E+00 0. -1.
         11    1    1    2    0    0 -0.35598667520E+00 -0.16883569099E+00  0.13314408277E+01  0.13885124926E+01  0.51100000000E-03 0.  1.
    9000002    1    1    2    0    0  0.87049024614E+00  0.41808826638E+00  0.73634386425E+00  0.15344697304E+01  0.93800000000E+00 0. -1.
         22    1    1    2    0    0 -0.51450357094E+00 -0.24925257539E+00  0.19322152754E+01  0.20150177770E+01  0.00000000000E+00 0. -1.
</event>
<event>
 5    1  0.1160133E+000  0.1599676E+01  0.7818608E-02  0.3353715E+00
         11   -1    0    0    0    0  0.00000000000E+00  0.00000000000E+00  0.39999999674E+01  0.40000000000E+01  0.51100000000E-03 0.  1.
    9000002   -1    0    0    0    0 -0.00000000000E+00 -0.00000000000E+00  0.00000000000E+00  0.93800000000E+00  0.93800000000E+00 0.  1.
         11    1    1    2    0    0 -0.34626375994E-01  0.27658120265E+00  0.90861022751E+00  0.95040462658E+00  0.51100000000E-03 0.  1.
    9000002    1    1    2    0    0  0.12282240925E+00 -0.97758950030E+00  0.77455075800E+00  0.15654198964E+01  0.93800000000E+00 0.  1.
         22    1    1    2    0    0 -0.88196033260E-01  0.70100829765E+00  0.23168389819E+01  0.24221754770E+01  0.00000000000E+00 0.  1.
</event>
<event>
 5    1  0.1160133E+000  0.1590595E+01  0.7818608E-02  0.3363635E+00
         11   -1    0    0    0    0  0.00000000000E+00  0.00000000000E+00  0.39999999674E+01  0.40000000000E+01  0.51100000000E-03 0. -1.
    9000002   -1    0    0    0    0 -0.00000000000E+00 -0.00000000000E+00  0.00000000000E+00  0.93800000000E+00  0.93800000000E+00 0.  1.
         11    1    1    2    0    0 -0.16518446519E+00 -0.17621010464E+00  0.69236247953E+00  0.73328164623E+00  0.51100000000E-03 0. -1.
    9000002    1    1    2    0    0  0.37598093898E+00  0.10087146066E+01  0.10019951301E+01  0.17443351355E+01  0.93800000000E+00 0.  1.
         22    1    1    2    0    0 -0.21079647380E+00 -0.83250450197E+00  0.23056423577E+01  0.24603832183E+01  0.00000000000E+00 0. -1.
</event>
<event>
 5    1  0.1160133E+000  0.1593798E+01  0.7818608E-02  0.3360122E+00
         11   -1    0    0    0    0  0.00000000000E+00  0.00000000000E+00  0.39999999674E+01  0.40000000000E+01  0.51100000000E-03 0.  1.
    9000002   -1    0    0    0    0 -0.00000000000E+00 -0.00000000000E+00  0.00000000000E+00  0.93800000000E+00  0.93800000000E+00 0.  1.
         11    1    1    2    0    0 -0.23247908356E+00 -0.53376921981E+00  0.11702737092E+01  0.13070948397E+01  0.51100000000E-03 0.  1.
    9000002    1    1    2    0    0  0.49586963026E+00  0.11703325420E+01  0.18408664215E+01  0.24257366162E+01  0.93800000000E+00 0.  1.
         22    1    1    2    0    0 -0.26339054670E+00 -0.63656332224E+00  0.98885983662E+00  0.12051685441E+01  0.00000000000E+00 0.  1.
</event>
<event>
 5    1  0.1160133E+000  0.1599477E+01  0.7818608E-02  0.3353931E+00
         11   -1    0    0    0    0  0.00000000000E+00  0.00000000000E+00  0.39999999674E+01  0.40000000000E+01  0.51100000000E-03 0. -1.
    9000002   -1    0    0    0    0 -0.00000000000E+00 -0.00000000000E+00  0.00000000000E+00  0.93800000000E+00  0.93800000000E+00 0.  1.
         11    1    1    2    0    0 -0.38192910607E+00  0.22973002278E+00  0.12443476446E+01  0.13217590730E+01  0.51100000000E-03 0. -1.
    9000002    1    1    2    0    0  0.95259767539E+00 -0.53699045122E+00  0.10247731498E+01  0.17679946506E+01  0.93800000000E+00 0.  1.
         22    1    1    2    0    0 -0.57066856932E+00  0.30726042844E+00  0.17308791729E+01  0.18482462764E+01  0.00000000000E+00 0. -1.
</event>
<event>
 5    1  0.1160133E+000  0.1599190E+01  0.7818608E-02  0.3354243E+00
         11   -1    0    0    0    0  0.00000000000E+00  0.00000000000E+00  0.39999999674E+01  0.40000000000E+01  0.51100000000E-03 0. -1.
    9000002   -1    0    0    0    0 -0.00000000000E+00 -0.00000000000E+00  0.00000000000E+00  0.93800000000E+00  0.93800000000E+00 0. -1.
         11    1    1    2    0    0  0.31054652032E+00  0.55281151802E+00  0.85507205940E+00  0.10645131299E+01  0.51100000000E-03 0. -1.
    9000002    1    1    2    0    0 -0.64891036034E+00 -0.11206182526E+01  0.21642804540E+01  0.26908778878E+01  0.93800000000E+00 0. -1.
         22    1    1    2    0    0  0.33836384002E+00  0.56780673456E+00  0.98064745397E+00  0.11826089823E+01  0.00000000000E+00 0. -1.
</event>
<event>
 5    1  0.1160133E+000  0.1599657E+01  0.7818608E-02  0.3353736E+00
         11   -1    0    0    0    0  0.00000000000E+00  0.00000000000E+00  0.39999999674E+01  0.40000000000E+01  0.51100000000E-03 0.  1.
    9000002   -1    0    0    0    0 -0.00000000000E+00 -0.00000000000E+00  0.00000000000E+00  0.93800000000E+00  0.93800000000E+00 0. -1.
         11    1    1    2    0    0 -0.59782925184E-01 -0.41718893392E+00  0.10630585182E+01  0.11435533564E+01  0.51100000000E-03 0.  1.
    9000002    1    1    2    0    0  0.14712322226E+00  0.11248615651E+01  0.11419693925E+01  0.18630343198E+01  0.93800000000E+00 0. -1.
         22    1    1    2    0    0 -0.87340297074E-01 -0.70767263120E+00  0.17949720566E+01  0.19314123238E+01  0.00000000000E+00 0.  1.
</event>
<event>
 5    1  0.1160133E+000  0.1599662E+01  0.7818608E-02  0.3353730E+00
         11   -1    0    0    0    0  0.00000000000E+00  0.00000000000E+00  0.39999999674E+01  0.40000000000E+01  0.51100000000E-03 0.  1.
    9000002   -1    0    0    0    0 -0.00000000000E+00 -0.00000000000E+00  0.00000000000E+00  0.93800000000E+00  0.93800000000E+00 0. -1.
         11    1    1    2    0    0  0.89002852239E-01  0.12364289749E+00  0.41510229664E+00  0.44217558911E+00  0.51100000000E-03 0.  1.
    9000002    1    1    2    0    0 -0.64880444846E+00 -0.87004726280E+00  0.10025803312E+01  0.17501259304E+01  0.93800000000E+00 0. -1.
         22    1    1    2    0    0  0.55980159623E+00  0.74640436531E+00  0.25823173395E+01  0.27456984805E+01  0.00000000000E+00 0.  1.
</event>
<event>
 5    1  0.1160133E+000  0.1589930E+01  0.7818608E-02  0.3364366E+00
         11   -1    0    0    0    0  0.00000000000E+00  0.00000000000E+00  0.39999999674E+01  0.40000000000E+01  0.51100000000E-03 0. -1.
    9000002   -1    0    0    0    0 -0.00000000000E+00 -0.00000000000E+00  0.00000000000E+00  0.93800000000E+00  0.93800000000E+00 0. -1.
         11    1    1    2    0    0 -0.97153271264E-02  0.21000167306E+00  0.89512858197E+00  0.91948383871E+00  0.51100000000E-03 0. -1.
    9000002    1    1    2    0    0  0.37976689037E-01 -0.10811065709E+01  0.10175917983E+01  0.17565792651E+01  0.93800000000E+00 0. -1.
         22    1    1    2    0    0 -0.28261361911E-01  0.87110489788E+00  0.20872795871E+01  0.22619368962E+01  0.00000000000E+00 0. -1.
</event>
<event>
 5    1  0.1160133E+000  0.1582833E+01  0.7818608E-02  0.3372209E+00
         11   -1    0    0    0    0  0.00000000000E+00  0.00000000000E+00  0.39999999674E+01  0.40000000000E+01  0.51100000000E-03 0. -1.
    9000002   -1    0    0    0    0 -0.00000000000E+00 -0.00000000000E+00  0.00000000000E+00  0.93800000000E+00  0.93800000000E+00 0. -1.
         11    1    1    2    0    0 -0.26421590938E+00  0.30401663875E+00  0.28139419227E+00  0.49134419297E+00  0.51100000000E-03 0. -1.
    9000002    1    1    2    0    0 -0.66213648472E+00 -0.46479398278E+00  0.10724397377E+01  0.16384227665E+01  0.93800000000E+00 0. -1.
         22    1    1    2    0    0  0.92635239410E+00  0.16077734403E+00  0.26461660374E+01  0.28082330405E+01  0.00000000000E+00 0. -1.
</event>
<event>
 5    1  0.1160133E+000  0.1599676E+01  0.7818608E-02  0.3353715E+00
         11   -1    0    0    0    0  0.00000000000E+00  0.00000000000E+00  0.39999999674E+01  0.40000000000E+01  0.51100000000E-03 0.  1.
    9000002   -1    0    0    0    0 -0.00000000000E+00 -0.00000000000E+00  0.00000000000E+00  0.93800000000E+00  0.93800000000E+00 0. -1.
         11    1    1    2    0    0  0.26145380483E+00 -0.19873520854E+00  0.12052409903E+01  0.12491836858E+01  0.51100000000E-03 0.  1.
    9000002    1    1    2    0    0 -0.72665016325E+00  0.55170930756E+00  0.64061630766E+00  0.14569272025E+01  0.93800000000E+00 0. -1.
         22    1    1    2    0    0  0.46519635842E+00 -0.35297409902E+00  0.21541426694E+01  0.22318891116E+01  0.00000000000E+00 0.  1.
</event>
<event>
 5    1  0.1160133E+000  0.1587446E+01  0.7818608E-02  0.3367102E+00
         11   -1    0    0    0    0  0.00000000000E+00  0.00000000000E+00  0.39999999674E+01  0.40000000000E+01  0.51100000000E-03 0. -1.
    9000002   -1    0    0    0    0 -0.00000000000E+00 -0.00000000000E+00  0.00000000000E+00  0.93800000000E+00  0.93800000000E+00 0. -1.
         11    1    1    2    0    0 -0.45821115626E+00 -0.12451448322E-01  0.11761597238E+01  0.12623250213E+01  0.51100000000E-03 0. -1.
    9000002    1    1    2    0    0  0.97338967415E+00 -0.19987274432E+00  0.81518815896E+00  0.15911669636E+01  0.93800000000E+00 0. -1.
         22    1    1    2    0    0 -0.51517851789E+00  0.21232419264E+00  0.20086520846E+01  0.20845080151E+01  0.00000000000E+00 0. -1.
</event>
<event>
 5    1  0.1160133E+000  0.1588763E+01  0.7818608E-02  0.3365651E+00
         11   -1    0    0    0    0  0.00000000000E+00  0.00000000000E+00  0.39999999674E+01  0.40000000000E+01  0.51100000000E-03 0.  1.
    9000002   -1    0    0    0    0 -0.00000000000E+00 -0.00000000000E+00  0.00000000000E+00  0.93800000000E+00  0.93800000000E+00 0.  1.
         11    1    1    2    0    0 -0.51426432787E+00  0.33067071453E-01  0.81849360006E+00  0.96720900770E+00  0.51100000000E-03 0.  1.
    9000002    1    1    2    0    0  0.12212723448E+01  0.12021484162E+00  0.15604428884E+01  0.21956283283E+01  0.93800000000E+00 0.  1.
         22    1    1    2    0    0 -0.70700801690E+00 -0.15328191308E+00  0.16210634790E+01  0.17751626640E+01  0.00000000000E+00 0.  1.
</event>
<event>
 5    1  0.1160133E+000  0.1599677E+01  0.7818608E-02  0.3353714E+00
         11   -1    0    0    0    0  0.00000000000E+00  0.00000000000E+00  0.39999999674E+01  0.40000000000E+01  0.51100000000E-03 0.  1.
    9000002   -1    0    0    0    0 -0.00000000000E+00 -0.00000000000E+00  0.00000000000E+00  0.93800000000E+00  0.93800000000E+00 0.  1.
         11    1    1    2    0    0  0.13739791762E+00  0.31782677509E-01  0.50671070560E+00  0.52596989139E+00  0.51100000000E-03 0.  1.
    9000002    1    1    2    0    0 -0.90491898455E+00 -0.20748603532E+00  0.66821865507E+00  0.14792866505E+01  0.93800000000E+00 0.  1.
         22    1    1    2    0    0  0.76752106693E+00  0.17570335781E+00  0.28250706067E+01  0.29327434581E+01  0.00000000000E+00 0.  1.
</event>
<event>
 5    1  0.1160133E+000  0.1599641E+01  0.7818608E-02  0.3353753E+00
         11   -1    0    0    0    0  0.00000000000E+00  0.00000000000E+00  0.39999999674E+01  0.40000000000E+01  0.51100000000E-03 0. -1.
    9000002   -1    0    0    0    0 -0.00000000000E+00 -0.00000000000E+00  0.00000000000E+00  0.93800000000E+00  0.93800000000E+00 0. -1.
         11    1    1    2    0    0  0.72895813281E-01  0.38372424261E+00  0.12280188233E+01  0.12886382679E+01  0.51100000000E-03 0. -1.
    9000002    1    1    2    0    0 -0.20602676580E+00 -0.98738355947E+00  0.82264300473E+00  0.16043562058E+01  0.93800000000E+00 0. -1.
         22    1    1    2    0    0  0.13313095252E+00  0.60365931686E+00  0.19493381393E+01  0.20450055263E+01  0.00000000000E+00 0. -1.
</event>
<event>
 5    1  0.1160133E+000  0.1599668E+01  0.7818608E-02  0.3353724E+00
         11   -1    0    0    0    0  0.00000000000E+00  0.00000000000E+00  0.39999999674E+01  0.40000000000E+01  0.51100000000E-03 0. -1.
    9000002   -1    0    0    0    0 -0.00000000000E+00 -0.00000000000E+00  0.00000000000E+00  0.93800000000E+00  0.93800000000E+00 0.  1.
         11    1    1    2    0    0  0.46598187420E-01 -0.21708765986E+00  0.58953735903E+00  0.62996269886E+00  0.51100000000E-03 0. -1.
    9000002    1    1    2    0    0 -0.24615229084E+00  0.10785894848E+01  0.10593276260E+01  0.17960972263E+01  0.93800000000E+00 0.  1.
         22    1    1    2    0    0  0.19955410342E+00 -0.86150182495E+00  0.23511349823E+01  0.25119400749E+01  0.00000000000E+00 0. -1.
</event>
<event>
 5    1  0.1160133E+000  0.1599049E+01  0.7818608E-02  0.3354396E+00
         11   -1    0    0    0    0  0.00000000000E+00  0.00000000000E+00  0.39999999674E+01  0.40000000000E+01  0.51100000000E-03 0.  1.
    9000002   -1    0    0    0    0 -0.00000000000E+00 -0.00000000000E+00  0.00000000000E+00  0.93800000000E+00  0.93800000000E+00 0.  1.
         11    1    1    2    0    0 -0.29897191881E+00 -0.27374758381E+00  0.12800612380E+01  0.13427132910E+01  0.51100000000E-03 0.  1.
    9000002    1    1    2    0    0  0.73697654183E+00  0.62432100080E+00  0.73781106871E+00  0.15352916037E+01  0.93800000000E+00 0.  1.
         22    1    1    2    0    0 -0.43800462302E+00 -0.35057341699E+00  0.19821276607E+01  0.20599951053E+01  0.00000000000E+00 0. -1.
</event>
<event>
 5    1  0.1160133E+000  0.1599674E+01  0.7818608E-02  0.3353717E+00
         11   -1    0    0    0    0  0.00000000000E+00  0.00000000000E+00  0.39999999674E+01  0.40000000000E+01  0.51100000000E-03 0.  1.
    9000002   -1    0    0    0    0 -0.00000000000E+00 -0.00000000000E+00  0.00000000000E+00  0.93800000000E+00  0.93800000000E+00 0.  1.
         11    1    1    2    0    0 -0.35802602514E+00  0.12904814296E+00  0.11570379661E+01  0.12180201862E+01  0.51100000000E-03 0.  1.
    9000002    1    1    2    0    0  0.97055704502E+00 -0.34400075878E+00  0.86834797494E+00  0.16413987039E+01  0.93800000000E+00 0.  1.
         22    1    1    2    0    0 -0.61253101988E+00  0.21495261583E+00  0.19746140264E+01  0.20785811099E+01  0.00000000000E+00 0.  1.
</event>
<event>
 5    1  0.1160133E+000  0.1599503E+01  0.7818608E-02  0.3353903E+00
         11   -1    0    0    0    0  0.00000000000E+00  0.00000000000E+00  0.39999999674E+01  0.40000000000E+01  0.51100000000E-03 0.  1.
    9000002   -1    0    0    0    0 -0.00000000000E+00 -0.00000000000E+00  0.00000000000E+00  0.93800000000E+00  0.93800000000E+00 0. -1.
         11    1    1    2    0    0  0.29174526304E-01 -0.13201767532E-01  0.13237948089E+00  0.13619848653E+00  0.51100000000E-03 0.  1.
    9000002    1    1    2    0    0 -0.88137064085E+00  0.35936932484E+00  0.71062598738E+00  0.15135368552E+01  0.93800000000E+00 0. -1.
         22    1    1    2    0    0  0.85219611455E+00 -0.34616755731E+00  0.31569944991E+01  0.32882646582E+01  0.00000000000E+00 0.  1.
</event>
<event>
 5    1  0.1160133E+000  0.1575462E+01  0.7818608E-02  0.3380434E+00
         11   -1    0    0    0    0  0.00000000000E+00  0.00000000000E+00  0.39999999674E+01  0.40000000000E+01  0.51100000000E-03 0. -1.
    9000002   -1    0    0    0    0 -0.00000000000E+00 -0.00000000000E+00  0.00000000000E+00  0.93800000000E+00  0.93800000000E+00 0. -1.
         11    1    1    2    0    0  0.69059530002E-03  0.34151990122E-01  0.48388631687E+00  0.48509077926E+00  0.51100000000E-03 0. -1.
    9000002    1    1    2    0    0  0.75781220981E+00 -0.67825684120E+00  0.89122529388E+00  0.16457333358E+01  0.93800000000E+00 0. -1.
         22    1    1    2    0    0 -0.75850280511E+00  0.64410485108E+00  0.26248883566E+01  0.28071758850E+01  0.00000000000E+00 0. -1.
</event>
<event>
 5    1  0.1160133E+000  0.1599675E+01  0.7818608E-02  0.3353716E+00
         11   -1    0    0    0    0  0.00000000000E+00  0.00000000000E+00  0.39999999674E+01  0.40000000000E+01  0.51100000000E-03 0. -1.
    9000002   -1    0    0    0    0 -0.00000000000E+00 -0.00000000000E+00  0.00000000000E+00  0.93800000000E+00  0.93800000000E+00 0.  1.
         11    1    1    2    0    0 -0.33651130021E-01 -0.36227938880E+00  0.11481791908E+01  0.12044477861E+01  0.51100000000E-03 0. -1.
    9000002    1    1    2    0    0  0.89717055887E-01  0.10020683888E+01  0.81715239845E+00  0.15999288260E+01  0.93800000000E+00 0.  1.
         22    1    1    2    0    0 -0.56065925865E-01 -0.63978900001E+00  0.20346683781E+01  0.21336233879E+01  0.00000000000E+00 0.  1.
</event>
<event>
 5    1  0.1160133E+000  0.1468736E+01  0.7818608E-02  0.3509439E+00
         11   -1    0    0    0    0  0.00000000000E+00  0.00000000000E+00  0.39999999674E+01  0.40000000000E+01  0.51100000000E-03 0. -1.
    9000002   -1    0    0    0    0 -0.00000000000E+00 -0.00000000000E+00  0.00000000000E+00  0.93800000000E+00  0.93800000000E+00 0. -1.
         11    1    1    2    0    0  0.24760645102E+00 -0.17831164717E-01  0.50902528297E+00  0.56633373981E+00  0.51100000000E-03 0. -1.
    9000002    1    1    2    0    0  0.72293525074E+00 -0.15802611067E+00  0.64103248876E+00  0.13558666159E+01  0.93800000000E+00 0. -1.
         22    1    1    2    0    0 -0.97054170176E+00  0.17585727539E+00  0.28499421956E+01  0.30157996443E+01  0.00000000000E+00 0. -1.
</event>
<event>
 5    1  0.1160133E+000  0.1579840E+01  0.7818608E-02  0.3375540E+00
         11   -1    0    0    0    0  0.00000000000E+00  0.00000000000E+00  0.39999999674E+01  0.40000000000E+01  0.51100000000E-03 0. -1.
    9000002   -1    0    0    0    0 -0.00000000000E+00 -0.00000000000E+00  0.00000000000E+00  0.93800000000E+00  0.93800000000E+00 0.  1.
         11    1    1    2    0    0 -0.32727591745E+00  0.42696826197E+00  0.10677366084E+01  0.11956057665E+01  0.51100000000E-03 0. -1.
    9000002    1    1    2    0    0  0.77074116878E+00 -0.73903989905E+00  0.10060877923E+01  0.17413438970E+01  0.93800000000E+00 0.  1.
         22    1    1    2    0    0 -0.44346525132E+00  0.31207163708E+00  0.19261755666E+01  0.20010503365E+01  0.00000000000E+00 0. -1.
</event>
<event>
 5    1  0.1160133E+000  0.1524989E+01  0.7818608E-02  0.3439030E+00
         11   -1    0    0    0    0  0.00000000000E+00  0.00000000000E+00  0.39999999674E+01  0.40000000000E+01  0.51100000000E-03 0. -1.
    9000002   -1    0    0    0    0 -0.00000000000E+00 -0.00000000000E+00  0.00000000000E+00  0.93800000000E+00  0.93800000000E+00 0. -1.
         11    1    1    2    0    0  0.19153138523E+00 -0.41819967275E+00  0.10929058547E+01  0.11857565965E+01  0.51100000000E-03 0. -1.
    9000002    1    1    2    0    0  0.69492380993E+00  0.23341538425E+00  0.73534216868E+00  0.13992762230E+01  0.93800000000E+00 0. -1.
         22    1    1    2    0    0 -0.88645519515E+00  0.18478428850E+00  0.21717519440E+01  0.23529671805E+01  0.00000000000E+00 0. -1.
</event>
<event>
 5    1  0.1160133E+000  0.1599474E+01  0.7818608E-02  0.3353934E+00
         11   -1    0    0    0    0  0.00000000000E+00  0.00000000000E+00  0.39999999674E+01  0.40000000000E+01  0.51100000000E-03 0.  1.
    9000002   -1    0    0    0    0 -0.00000000000E+00 -0.00000000000E+00  0.00000000000E+00  0.93800000000E+00  0.93800000000E+00 0.  1.
         11    1    1    2    0    0  0.56810227352E+00  0.54578253677E-01  0.12272673194E+01  0.13534785973E+01  0.51100000000E-03 0.  1.
    9000002    1    1    2    0    0 -0.12070174793E+01 -0.80676900064E-01  0.14187056936E+01  0.20870960214E+01  0.93800000000E+00 0.  1.
         22    1    1    2    0    0  0.63891520575E+00  0.26098646387E-01  0.13540269544E+01  0.14974253813E+01  0.00000000000E+00 0.  1.
</event>
<event>
 5    1  0.1160133E+000  0.1599661E+01  0.7818608E-02  0.3353731E+00
         11   -1    0    0    0    0  0.00000000000E+00  0.00000000000E+00  0.39999999674E+01  0.40000000000E+01  0.51100000000E-03 0.  1.
    9000002   -1    0    0    0    0 -0.00000000000E+00 -0.00000000000E+00  0.00000000000E+00  0.93800000000E+00  0.93800000000E+00 0.  1.
         11    1    1    2    0    0 -0.20776459288E+00 -0.45372266458E-01  0.78394462259E+00  0.81227717007E+00  0.51100000000E-03 0.  1.
    9000002    1    1    2    0    0  0.89273143396E+00  0.17725033162E+00  0.63692262073E+00  0.14539262423E+01  0.93800000000E+00 0.  1.
         22    1    1    2    0    0 -0.68496684108E+00 -0.13187806516E+00  0.25791327240E+01  0.26717965876E+01  0.00000000000E+00 0.  1.
</event>
<event>
 5    1  0.1160133E+000  0.1599677E+01  0.7818608E-02  0.3353715E+00
         11   -1    0    0    0    0  0.00000000000E+00  0.00000000000E+00  0.39999999674E+01  0.40000000000E+01  0.51100000000E-03 0. -1.
    9000002   -1    0    0    0    0 -0.00000000000E+00 -0.00000000000E+00  0.00000000000E+00  0.93800000000E+00  0.93800000000E+00 0.  1.
         11    1    1    2    0    0 -0.40957153627E+00  0.17416860017E+00  0.13715532565E+01  0.14419577459E+01  0.51100000000E-03 0. -1.
    9000002    1    1    2    0    0  0.94136037189E+00 -0.40049098724E+00  0.85350344810E+00  0.16293754989E+01  0.93800000000E+00 0.  1.
         22    1    1    2    0    0 -0.53178883562E+00  0.22632238707E+00  0.17749432628E+01  0.18666667551E+01  0.00000000000E+00 0. -1.
</event>
<event>
 5    1  0.1160133E+000  0.1599622E+01  0.7818608E-02  0.3353774E+00
         11   -1    0    0    0    0  0.00000000000E+00  0.00000000000E+00  0.39999999674E+01  0.40000000000E+01  0.51100000000E-03 0.  1.
    9000002   -1    0    0    0    0 -0.00000000000E+00 -0.00000000000E+00  0.00000000000E+00  0.93800000000E+00  0.93800000000E+00 0.  1.
         11    1    1    2    0    0 -0.13092221310E-02 -0.31244401903E-01  0.11592270145E+00  0.12006773315E+00  0.51100000000E-03 0.  1.
    9000002    1    1    2    0    0  0.12909716674E+00  0.91807886241E+00  0.66605177737E+00  0.14774991865E+01  0.93800000000E+00 0.  1.
         22    1    1    2    0    0 -0.12778794461E+00 -0.88683446051E+00  0.32180254885E+01  0.33404330803E+01  0.00000000000E+00 0.  1.
</event>
<event>
 5    1  0.1160133E+000  0.1599652E+01  0.7818608E-02  0.3353741E+00
         11   -1    0    0    0    0  0.00000000000E+00  0.00000000000E+00  0.39999999674E+01  0.40000000000E+01  0.51100000000E-03 0.  1.
    9000002   -1    0    0    0    0 -0.00000000000E+00 -0.00000000000E+00  0.00000000000E+00  0.93800000000E+00  0.93800000000E+00 0.  1.
         11    1    1    2    0    0  0.95690882273E-02  0.78249820908E-01  0.26265270015E+00  0.27422856149E+00  0.51100000000E-03 0.  1.
    9000002    1    1    2    0    0 -0.13754371188E+00 -0.98882701627E+00  0.80111333333E+00  0.15869227182E+01  0.93800000000E+00 0.  1.
         22    1    1    2    0    0  0.12797462365E+00  0.91057719536E+00  0.29362339339E+01  0.30768487203E+01  0.00000000000E+00 0.  1.
</event>
<event>
 5    1  0.1160133E+000  0.1593867E+01  0.7818608E-02  0.3360047E+00
         11   -1    0    0    0    0  0.00000000000E+00  0.00000000000E+00  0.39999999674E+01  0.40000000000E+01  0.51100000000E-03 0. -1.
    9000002   -1    0    0    0    0 -0.00000000000E+00 -0.00000000000E+00  0.00000000000E+00  0.93800000000E+00  0.93800000000E+00 0. -1.
         11    1    1    2    0    0  0.17753711265E+00  0.71678143348E-01  0.39527258241E+00  0.43920138675E+00  0.51100000000E-03 0. -1.
    9000002    1    1    2    0    0 -0.86844112752E+00 -0.62530641313E+00  0.97756101596E+00  0.17264610167E+01  0.93800000000E+00 0. -1.
         22    1    1    2    0    0  0.69090401488E+00  0.55362826978E+00  0.26271663690E+01  0.27723375965E+01  0.00000000000E+00 0. -1.
</event>
<event>
 5    1  0.1160133E+000  0.1496300E+01  0.7818608E-02  0.3474225E+00
         11   -1    0    0    0    0  0.00000000000E+00  0.00000000000E+00  0.39999999674E+01  0.40000000000E+01  0.51100000000E-03 0. -1.
    9000002   -1    0    0    0    0 -0.00000000000E+00 -0.00000000000E+00  0.00000000000E+00  0.93800000000E+00  0.93800000000E+00 0. -1.
         11    1    1    2    0    0  0.36050872781E-01  0.30684599641E+00  0.13052095431E+01  0.13412778770E+01  0.51100000000E-03 0. -1.
    9000002    1    1    2    0    0 -0.72419485770E+00 -0.38404507508E-01  0.51044052134E+00  0.12908627440E+01  0.93800000000E+00 0. -1.
         22    1    1    2    0    0  0.68814398492E+00 -0.26844148890E+00  0.21843499029E+01  0.23058593789E+01  0.00000000000E+00 0. -1.
</event>
<event>
 5    1  0.1160133E+000  0.1592360E+01  0.7818608E-02  0.3361697E+00
         11   -1    0    0    0    0  0.00000000000E+00  0.00000000000E+00  0.39999999674E+01  0.40000000000E+01  0.51100000000E-03 0.  1.
    9000002   -1    0    0    0    0 -0.00000000000E+00 -0.00000000000E+00  0.00000000000E+00  0.93800000000E+00  0.93800000000E+00 0.  1.
         11    1    1    2    0    0 -0.57424389846E-02  0.58556710748E+00  0.13402015786E+01  0.14625533650E+01  0.51100000000E-03 0.  1.
    9000002    1    1    2    0    0 -0.10900647652E+00 -0.10890562746E+01  0.10458328160E+01  0.17808807541E+01  0.93800000000E+00 0.  1.
         22    1    1    2    0    0  0.11474891550E+00  0.50348916711E+00  0.16139655727E+01  0.16945658809E+01  0.00000000000E+00 0.  1.
</event>
<event>
 5    1  0.1160133E+000  0.1599675E+01  0.7818608E-02  0.3353716E+00
         11   -1    0    0    0    0  0.00000000000E+00  0.00000000000E+00  0.39999999674E+01  0.40000000000E+01  0.51100000000E-03 0. -1.
    9000002   -1    0    0    0    0 -0.00000000000E+00 -0.00000000000E+00  0.00000000000E+00  0.93800000000E+00  0.93800000000E+00 0. -1.
         11    1    1    2    0    0  0.14602422666E-01  0.52180848947E-01  0.18773458298E+00  0.19539858370E+00  0.51100000000E-03 0. -1.
    9000002    1    1    2    0    0 -0.24915294938E+00 -0.91138351242E+00  0.69752230657E+00  0.15030231093E+01  0.93800000000E+00 0. -1.
         22    1    1    2    0    0  0.23455052672E+00  0.85920266347E+00  0.31147430778E+01  0.32395783070E+01  0.00000000000E+00 0. -1.
</event>
<event>
 5    1  0.1160133E+000  0.1599675E+01  0.7818608E-02  0.3353716E+00
         11   -1    0    0    0    0  0.00000000000E+00  0.00000000000E+00  0.39999999674E+01  0.40000000000E+01  0.51100000000E-03 0.  1.
    9000002   -1    0    0    0    0 -0.00000000000E+00 -0.00000000000E+00  0.00000000000E+00  0.93800000000E+00  0.93800000000E+00 0.  1.
         11    1    1    2    0    0  0.19692686178E+00  0.32785873354E+00  0.10201788500E+01  0.10895121317E+01  0.51100000000E-03 0.  1.
    9000002    1    1    2    0    0 -0.56485165447E+00 -0.94821205737E+00  0.10520222848E+01  0.17901838970E+01  0.93800000000E+00 0.  1.
         22    1    1    2    0    0  0.36792479270E+00  0.62035332382E+00  0.19277988326E+01  0.20583039713E+01  0.00000000000E+00 0.  1.
</event>
<event>
 5    1  0.1160133E+000  0.1599677E+01  0.7818608E-02  0.3353714E+00
         11   -1    0    0    0    0  0.00000000000E+00  0.00000000000E+00  0.39999999674E+01  0.40000000000E+01  0.51100000000E-03 0.  1.
    9000002   -1    0    0    0    0 -0.00000000000E+00 -0.00000000000E+00  0.00000000000E+00  0.93800000000E+00  0.93800000000E+00 0.  1.
         11    1    1    2    0    0  0.40530395257E-01  0.18305390859E+00  0.63758662459E+00  0.66458138055E+00  0.51100000000E-03 0.  1.
    9000002    1    1    2    0    0 -0.20981623041E+00 -0.93984790122E+00  0.73120299687E+00  0.15303067505E+01  0.93800000000E+00 0.  1.
         22    1    1    2    0    0  0.16928583515E+00  0.75679399263E+00  0.26312103459E+01  0.27431118690E+01  0.00000000000E+00 0.  1.
</event>
<event>
 5    1  0.1160133E+000  0.1465132E+01  0.7818608E-02  0.3514149E+00
         11   -1    0    0    0    0  0.00000000000E+00  0.00000000000E+00  0.39999999674E+01  0.40000000000E+01  0.51100000000E-03 0. -1.
    9000002   -1    0    0    0    0 -0.00000000000E+00 -0.00000000000E+00  0.00000000000E+00  0.93800000000E+00  0.93800000000E+00 0. -1.
         11    1    1    2    0    0  0.70790133339E-01  0.29916563074E+00  0.12611928502E+01  0.12981213288E+01  0.51100000000E-03 0. -1.
    9000002    1    1    2    0    0 -0.37622478134E+00  0.48214625844E+00  0.45819899114E+00  0.12098761987E+01  0.93800000000E+00 0. -1.
         22    1    1    2    0    0  0.30543464800E+00 -0.78131188918E+00  0.22806081260E+01  0.24300024726E+01  0.00000000000E+00 0. -1.
</event>
<event>
 5    1  0.1160133E+000  0.1598948E+01  0.7818608E-02  0.3354505E+00
         11   -1    0    0    0    0  0.00000000000E+00  0.00000000000E+00  0.39999999674E+01  0.40000000000E+01  0.51100000000E-03 0. -1.
    9000002   -1    0    0    0    0 -0.00000000000E+00 -0.00000000000E+00  0.00000000000E+00  0.93800000000E+00  0.93800000000E+00 0.  1.
         11    1    1    2    0    0 -0.17363686048E+00  0.10291331222E+00  0.65486713364E+00  0.68526792789E+00  0.51100000000E-03 0. -1.
    9000002    1    1    2    0    0  0.83764146581E+00 -0.39767028533E+00  0.66738751065E+00  0.14781863788E+01  0.93800000000E+00 0.  1.
         22    1    1    2    0    0 -0.66400460533E+00  0.29475697311E+00  0.26777453231E+01  0.27745456933E+01  0.00000000000E+00 0. -1.
</event>
<event>
 5    1  0.1160133E+000  0.1599676E+01  0.7818608E-02  0.3353715E+00
         11   -1    0    0    0    0  0.00000000000E+00  0.00000000000E+00  0.39999999674E+01  0.40000000000E+01  0.51100000000E-03 0.  1.
    9000002   -1    0    0    0    0 -0.00000000000E+00 -0.00000000000E+00  0.00000000000E+00  0.93800000000E+00  0.93800000000E+00 0. -1.
         11    1    1    2    0    0 -0.72326817787E-02 -0.12211676200E+00  0.38991039736E+00  0.40865045496E+00  0.51100000000E-03 0. -1.
    9000002    1    1    2    0    0  0.58399826793E-01  0.99717705284E+00  0.80217697110E+00  0.15877986357E+01  0.93800000000E+00 0. -1.
         22    1    1    2    0    0 -0.51167145014E-01 -0.87506029084E+00  0.28079125989E+01  0.29415509094E+01  0.00000000000E+00 0.  1.
</event>
<event>
 5    1  0.1160133E+000  0.1575832E+01  0.7818608E-02  0.3380020E+00
         11   -1    0    0    0    0  0.00000000000E+00  0.00000000000E+00  0.39999999674E+01  0.40000000000E+01  0.51100000000E-03 0.  1.
    9000002   -1    0    0    0    0 -0.00000000000E+00 -0.00000000000E+00  0.00000000000E+00  0.93800000000E+00  0.93800000000E+00 0.  1.
         11    1    1    2    0    0 -0.26612685224E-01  0.30407298044E-01  0.10921564929E+00  0.11645238494E+00  0.51100000000E-03 0.  1.
    9000002    1    1    2    0    0 -0.94802009902E+00  0.68250620808E-01  0.75009696027E+00  0.15316297546E+01  0.93800000000E+00 0.  1.
         22    1    1    2    0    0  0.97463278424E+00 -0.98657918852E-01  0.31406873578E+01  0.32899178605E+01  0.00000000000E+00 0.  1.
</event>
<event>
 5    1  0.1160133E+000  0.1597480E+01  0.7818608E-02  0.3356103E+00
         11   -1    0    0    0    0  0.00000000000E+00  0.00000000000E+00  0.39999999674E+01  0.40000000000E+01  0.51100000000E-03 0.  1.
    9000002   -1    0    0    0    0 -0.00000000000E+00 -0.00000000000E+00  0.00000000000E+00  0.93800000000E+00  0.93800000000E+00 0.  1.
         11    1    1    2    0    0  0.34495215535E-01  0.41403676873E-01  0.24995474340E+00  0.25569868834E+00  0.51100000000E-03 0.  1.
    9000002    1    1    2    0    0 -0.75333298301E+00 -0.72928355940E+00  0.91621422037E+00  0.16788858183E+01  0.93800000000E+00 0.  1.
         22    1    1    2    0    0  0.71883776748E+00  0.68787988253E+00  0.28338310036E+01  0.30034154934E+01  0.00000000000E+00 0.  1.
</event>
<event>
 5    1  0.1160133E+000  0.1599040E+01  0.7818608E-02  0.3354406E+00
         11   -1    0    0    0    0  0.00000000000E+00  0.00000000000E+00  0.39999999674E+01  0.40000000000E+01  0.51100000000E-03 0.  1.
    9000002   -1    0    0    0    0 -0.00000000000E+00 -0.00000000000E+00  0.00000000000E+00  0.93800000000E+00  0.93800000000E+00 0. -1.
         11    1    1    2    0    0 -0.25397647875E+00  0.29112132972E+00  0.11641083598E+01  0.12265415667E+01  0.51100000000E-03 0.  1.
    9000002    1    1    2    0    0  0.74570443832E+00 -0.75176413656E+00  0.93752085284E+00  0.16970603336E+01  0.93800000000E+00 0. -1.
         22    1    1    2    0    0 -0.49172795957E+00  0.46064280684E+00  0.18983707547E+01  0.20143980997E+01  0.00000000000E+00 0.  1.
</event>
<event>
 5    1  0.1160133E+000  0.1599672E+01  0.7818608E-02  0.3353719E+00
         11   -1    0    0    0    0  0.00000000000E+00  0.00000000000E+00  0.39999999674E+01  0.40000000000E+01  0.51100000000E-03 0.  1.
    9000002   -1    0    0    0    0 -0.00000000000E+00 -0.00000000000E+00  0.00000000000E+00  0.93800000000E+00  0.93800000000E+00 0.  1.
         11    1    1    2    0    0  0.22179722574E+00  0.17358761975E+00  0.84473473255E+00  0.89045140270E+00  0.51100000000E-03 0.  1.
    9000002    1    1    2    0    0 -0.81545581830E+00 -0.63442083160E+00  0.87611406006E+00  0.16476886324E+01  0.93800000000E+00 0.  1.
         22    1    1    2    0    0  0.59365859256E+00  0.46083321186E+00  0.22791511747E+01  0.23998599649E+01  0.00000000000E+00 0.  1.
</event>
<event>
 5    1  0.1160133E+000  0.1563395E+01  0.7818608E-02  0.3394077E+00
         11   -1    0    0    0    0  0.00000000000E+00  0.00000000000E+00  0.39999999674E+01  0.40000000000E+01  0.51100000000E-03 0.  1.
    9000002   -1    0    0    0    0 -0.00000000000E+00 -0.00000000000E+00  0.00000000000E+00  0.93800000000E+00  0.93800000000E+00 0.  1.
         11    1    1    2    0    0  0.16973156580E+00 -0.33128643721E+00  0.11007502437E+01  0.11619857435E+01  0.51100000000E-03 0.  1.
    9000002    1    1    2    0    0 -0.88001562576E+00  0.46279344030E+00  0.86572587477E+00  0.16180020273E+01  0.93800000000E+00 0.  1.
         22    1    1    2    0    0  0.71028405996E+00 -0.13150700309E+00  0.20335238489E+01  0.21580122292E+01  0.00000000000E+00 0.  1.
</event>
<event>
 5    1  0.1160133E+000  0.1599599E+01  0.7818608E-02  0.3353798E+00
         11   -1    0    0    0    0  0.00000000000E+00  0.00000000000E+00  0.39999999674E+01  0.40000000000E+01  0.51100000000E-03 0.  1.
    9000002   -1    0    0    0    0 -0.00000000000E+00 -0.00000000000E+00  0.00000000000E+00  0.93800000000E+00  0.93800000000E+00 0.  1.
         11    1    1    2    0    0  0.11634385893E+00  0.85961574937E-01  0.56699111474E+00  0.58515337407E+00  0.51100000000E-03 0.  1.
    9000002    1    1    2    0    0 -0.70698492184E+00 -0.55842289423E+00  0.62163239605E+00  0.14415042991E+01  0.93800000000E+00 0.  1.
         22    1    1    2    0    0  0.59064106291E+00  0.47246131929E+00  0.28113764566E+01  0.29113423268E+01  0.00000000000E+00 0.  1.
</event>
<event>
 5    1  0.1160133E+000  0.1536789E+01  0.7818608E-02  0.3424964E+00
         11   -1    0    0    0    0  0.00000000000E+00  0.00000000000E+00  0.39999999674E+01  0.40000000000E+01  0.51100000000E-03 0. -1.
    9000002   -1    0    0    0    0 -0.00000000000E+00 -0.00000000000E+00  0.00000000000E+00  0.93800000000E+00  0.93800000000E+00 0. -1.
         11    1    1    2    0    0  0.39211391957E+00 -0.15318355390E+00  0.62339389985E+00  0.75222253529E+00  0.51100000000E-03 0. -1.
    9000002    1    1    2    0    0  0.44863418881E+00  0.75428393105E+00  0.11219706203E+01  0.17055435957E+01  0.93800000000E+00 0. -1.
         22    1    1    2    0    0 -0.84074810839E+00 -0.60110037715E+00  0.22546354472E+01  0.24802338690E+01  0.00000000000E+00 0. -1.
</event>
<event>
 5    1  0.1160133E+000  0.1599662E+01  0.7818608E-02  0.3353730E+00
         11   -1    0    0    0    0  0.00000000000E+00  0.00000000000E+00  0.39999999674E+01  0.40000000000E+01  0.51100000000E-03 0.  1.
    9000002   -1    0    0    0    0 -0.00000000000E+00 -0.00000000000E+00  0.00000000000E+00  0.93800000000E+00  0.93800000000E+00 0.  1.
         11    1    1    2    0    0  0.84122590252E-01  0.31241985856E-01  0.29339781837E+00  0.30681462289E+00  0.51100000000E-03 0.  1.
    9000002    1    1    2    0    0 -0.94386503830E+00 -0.34147664069E+00  0.81227632270E+00  0.15959712814E+01  0.93800000000E+00 0.  1.
         22    1    1    2    0    0  0.85974244805E+00  0.31023465483E+00  0.28943258263E+01  0.30352140957E+01  0.00000000000E+00 0.  1.
</event>
<event>
 5    1  0.1160133E+000  0.1599650E+01  0.7818608E-02  0.3353743E+00
         11   -1    0    0    0    0  0.00000000000E+00  0.00000000000E+00  0.39999999674E+01  0.40000000000E+01  0.51100000000E-03 0. -1.
    9000002   -1    0    0    0    0 -0.00000000000E+00 -0.00000000000E+00  0.00000000000E+00  0.93800000000E+00  0.93800000000E+00 0. -1.
         11    1    1    2    0    0  0.79021013539E-01 -0.11214523805E+00  0.30978327920E+00  0.33880203098E+00  0.51100000000E-03 0. -1.
    9000002    1    1    2    0    0 -0.71197059061E+00  0.95156960674E+00  0.13292093838E+01  0.20147030611E+01  0.93800000000E+00 0. -1.
         22    1    1    2    0    0  0.63294957707E+00 -0.83942436869E+00  0.23610073044E+01  0.25844949080E+01  0.00000000000E+00 0. -1.
</event>
<event>
 5    1  0.1160133E+000  0.1599527E+01  0.7818608E-02  0.3353877E+00
         11   -1    0    0    0    0  0.00000000000E+00  0.00000000000E+00  0.39999999674E+01  0.40000000000E+01  0.51100000000E-03 0. -1.
    9000002   -1    0    0    0    0 -0.00000000000E+00 -0.00000000000E+00  0.00000000000E+00  0.93800000000E+00  0.93800000000E+00 0. -1.
         11    1    1    2    0    0 -0.29280451431E+00  0.12323886917E+00  0.98771900847E+00  0.10375506750E+01  0.51100000000E-03 0. -1.
    9000002    1    1    2    0    0  0.90783369993E+00 -0.42036842955E+00  0.80567050664E+00  0.15905409798E+01  0.93800000000E+00 0. -1.
         22    1    1    2    0    0 -0.61502918563E+00  0.29712956039E+00  0.22066104522E+01  0.23099083451E+01  0.00000000000E+00 0. -1.
</event>
<event>
 5    1  0.1160133E+000  0.1599676E+01  0.7818608E-02  0.3353715E+00
         11   -1    0    0    0    0  0.00000000000E+00  0.00000000000E+00  0.39999999674E+01  0.40000000000E+01  0.51100000000E-03 0. -1.
    9000002   -1    0    0    0    0 -0.00000000000E+00 -0.00000000000E+00  0.00000000000E+00  0.93800000000E+00  0.93800000000E+00 0. -1.
         11    1    1    2    0    0  0.21160318400E+00  0.21455039539E+00  0.10579002147E+01  0.10999822294E+01  0.51100000000E-03 0. -1.
    9000002    1    1    2    0    0 -0.66448808224E+00 -0.67036682362E+00  0.69582884032E+00  0.15016517122E+01  0.93800000000E+00 0. -1.
         22    1    1    2    0    0  0.45288489823E+00  0.45581642823E+00  0.22462709123E+01  0.23363660584E+01  0.00000000000E+00 0. -1.
</event>
<event>
 5    1  0.1160133E+000  0.1599675E+01  0.7818608E-02  0.3353716E+00
         11   -1    0    0    0    0  0.00000000000E+00  0.00000000000E+00  0.39999999674E+01  0.40000000000E+01  0.51100000000E-03 0.  1.
    9000002   -1    0    0    0    0 -0.00000000000E+00 -0.00000000000E+00  0.00000000000E+00  0.93800000000E+00  0.93800000000E+00 0.  1.
         11    1    1    2    0    0 -0.19434264958E+00 -0.33890201689E-01  0.63459259664E+00  0.66454919761E+00  0.51100000000E-03 0.  1.
    9000002    1    1    2    0    0  0.97726905453E+00  0.17395584726E+00  0.78936864498E+00  0.15774226762E+01  0.93800000000E+00 0.  1.
         22    1    1    2    0    0 -0.78292640495E+00 -0.14006564557E+00  0.25760387257E+01  0.26960281262E+01  0.00000000000E+00 0.  1.
</event>
<event>
 5    1  0.1160133E+000  0.1566405E+01  0.7818608E-02  0.3390653E+00
         11   -1    0    0    0    0  0.00000000000E+00  0.00000000000E+00  0.39999999674E+01  0.40000000000E+01  0.51100000000E-03 0. -1.
    9000002   -1    0    0    0    0 -0.00000000000E+00 -0.00000000000E+00  0.00000000000E+00  0.93800000000E+00  0.93800000000E+00 0. -1.
         11    1    1    2    0    0 -0.15865414731E+00  0.26486421027E-01  0.22510795358E+00  0.27667041917E+00  0.51100000000E-03 0. -1.
    9000002    1    1    2    0    0  0.60007603394E+00 -0.79115189211E+00  0.85645340421E+00  0.16122558719E+01  0.93800000000E+00 0. -1.
         22    1    1    2    0    0 -0.44142188663E+00  0.76466547109E+00  0.29184386096E+01  0.30490737089E+01  0.00000000000E+00 0. -1.
</event>
<event>
 5    1  0.1160133E+000  0.1465839E+01  0.7818608E-02  0.3513223E+00
         11   -1    0    0    0    0  0.00000000000E+00  0.00000000000E+00  0.39999999674E+01  0.40000000000E+01  0.51100000000E-03 0.  1.
    9000002   -1    0    0    0    0 -0.00000000000E+00 -0.00000000000E+00  0.00000000000E+00  0.93800000000E+00  0.93800000000E+00 0.  1.
         11    1    1    2    0    0  0.38604753973E+00 -0.79165087925E-01  0.11365460097E+01  0.12029284714E+01  0.51100000000E-03 0.  1.
    9000002    1    1    2    0    0  0.43560306338E-02 -0.54201464324E+00  0.38406978892E+00  0.11494139599E+01  0.93800000000E+00 0.  1.
         22    1    1    2    0    0 -0.39040357036E+00  0.62117973116E+00  0.24793841688E+01  0.25856575687E+01  0.00000000000E+00 0.  1.
</event>
<event>
 5    1  0.1160133E+000  0.1599571E+01  0.7818608E-02  0.3353830E+00
         11   -1    0    0    0    0  0.00000000000E+00  0.00000000000E+00  0.39999999674E+01  0.40000000000E+01  0.51100000000E-03 0.  1.
    9000002   -1    0    0    0    0 -0.00000000000E+00 -0.00000000000E+00  0.00000000000E+00  0.93800000000E+00  0.93800000000E+00 0.  1.
         11    1    1    2    0    0 -0.17737592935E+00  0.10216328884E+00  0.64769018840E+00  0.67926607392E+00  0.51100000000E-03 0.  1.
    9000002    1    1    2    0    0  0.90727011483E+00 -0.48237959416E+00  0.86370577952E+00  0.16375777257E+01  0.93800000000E+00 0.  1.
         22    1    1    2    0    0 -0.72989418547E+00  0.38021630532E+00  0.24886039994E+01  0.26211562004E+01  0.00000000000E+00 0.  1.
</event>
<event>
 5    1  0.1160133E+000  0.1564732E+01  0.7818608E-02  0.3392554E+00
         11   -1    0    0    0    0  0.00000000000E+00  0.00000000000E+00  0.39999999674E+01  0.40000000000E+01  0.51100000000E-03 0. -1.
    9000002   -1    0    0    0    0 -0.00000000000E+00 -0.00000000000E+00  0.00000000000E+00  0.93800000000E+00  0.93800000000E+00 0. -1.
         11    1    1    2    0    0  0.35963010664E+00  0.72877649660E+00  0.12519288917E+01  0.14925733505E+01  0.51100000000E-03 0. -1.
    9000002    1    1    2    0    0 -0.57696866872E+00 -0.10226964843E+01  0.14187467884E+01  0.20667577007E+01  0.93800000000E+00 0. -1.
         22    1    1    2    0    0  0.21733856208E+00  0.29391998771E+00  0.13293242873E+01  0.13786689489E+01  0.00000000000E+00 0. -1.
</event>
<event>
 5    1  0.1160133E+000  0.1599674E+01  0.7818608E-02  0.3353717E+00
         11   -1    0    0    0    0  0.00000000000E+00  0.00000000000E+00  0.39999999674E+01  0.40000000000E+01  0.51100000000E-03 0. -1.
    9000002   -1    0    0    0    0 -0.00000000000E+00 -0.00000000000E+00  0.00000000000E+00  0.93800000000E+00  0.93800000000E+00 0. -1.
         11    1    1    2    0    0 -0.10772756216E+00 -0.23097049070E+00  0.94228838301E+00  0.97614561061E+00  0.51100000000E-03 0. -1.
    9000002    1    1    2    0    0  0.37905338168E+00  0.82779562127E+00  0.63740106973E+00  0.14543215533E+01  0.93800000000E+00 0. -1.
         22    1    1    2    0    0 -0.27132581951E+00 -0.59682513057E+00  0.24203105146E+01  0.25075328361E+01  0.00000000000E+00 0. -1.
</event>
<event>
 5    1  0.1160133E+000  0.1599672E+01  0.7818608E-02  0.3353720E+00
         11   -1    0    0    0    0  0.00000000000E+00  0.00000000000E+00  0.39999999674E+01  0.40000000000E+01  0.51100000000E-03 0.  1.
    9000002   -1    0    0    0    0 -0.00000000000E+00 -0.00000000000E+00  0.00000000000E+00  0.93800000000E+00  0.93800000000E+00 0.  1.
         11    1    1    2    0    0 -0.26181937590E+00  0.48647025331E-01  0.85572879885E+00  0.89620754124E+00  0.51100000000E-03 0.  1.
    9000002    1    1    2    0    0  0.98451664202E+00 -0.18609497149E+00  0.80853414071E+00  0.15929456405E+01  0.93800000000E+00 0.  1.
         22    1    1    2    0    0 -0.72269726612E+00  0.13744794616E+00  0.23357370278E+01  0.24488468183E+01  0.00000000000E+00 0.  1.
</event>
<event>
 5    1  0.1160133E+000  0.1599676E+01  0.7818608E-02  0.3353715E+00
         11   -1    0    0    0    0  0.00000000000E+00  0.00000000000E+00  0.39999999674E+01  0.40000000000E+01  0.51100000000E-03 0. -1.
    9000002   -1    0    0    0    0 -0.00000000000E+00 -0.00000000000E+00  0.00000000000E+00  0.93800000000E+00  0.93800000000E+00 0. -1.
         11    1    1    2    0    0  0.21472994891E+00 -0.31668425099E+00  0.14216100613E+01  0.14722001540E+01  0.51100000000E-03 0. -1.
    9000002    1    1    2    0    0 -0.51101448046E+00  0.74896465707E+00  0.63108214324E+00  0.14492041017E+01  0.93800000000E+00 0. -1.
         22    1    1    2    0    0  0.29628453154E+00 -0.43228040608E+00  0.19473077628E+01  0.20165957444E+01  0.00000000000E+00 0. -1.
</event>
<event>
 5    1  0.1160133E+000  0.1599677E+01  0.7818608E-02  0.3353714E+00
         11   -1    0    0    0    0  0.00000000000E+00  0.00000000000E+00  0.39999999674E+01  0.40000000000E+01  0.51100000000E-03 0. -1.
    9000002   -1    0    0    0    0 -0.00000000000E+00 -0.00000000000E+00  0.00000000000E+00  0.93800000000E+00  0.93800000000E+00 0. -1.
         11    1    1    2    0    0 -0.26187540841E+00  0.31916546585E+00  0.14408063616E+01  0.14987890301E+01  0.51100000000E-03 0. -1.
    9000002    1    1    2    0    0  0.59910652990E+00 -0.73162082996E+00  0.69896319424E+00  0.15041912179E+01  0.93800000000E+00 0. -1.
         22    1    1    2    0    0 -0.33723112149E+00  0.41245536411E+00  0.18602304115E+01  0.19350197520E+01  0.00000000000E+00 0. -1.
</event>
<event>
 5    1  0.1160133E+000  0.1599549E+01  0.7818608E-02  0.3353853E+00
         11   -1    0    0    0    0  0.00000000000E+00  0.00000000000E+00  0.39999999674E+01  0.40000000000E+01  0.51100000000E-03 0. -1.
    9000002   -1    0    0    0    0 -0.00000000000E+00 -0.00000000000E+00  0.00000000000E+00  0.93800000000E+00  0.93800000000E+00 0. -1.
         11    1    1    2    0    0  0.24627039560E+00 -0.25934187508E+00  0.70274989817E+00  0.78852076473E+00  0.51100000000E-03 0. -1.
    9000002    1    1    2    0    0 -0.88499972749E+00  0.87213262995E+00  0.15833988386E+01  0.22205485187E+01  0.93800000000E+00 0. -1.
         22    1    1    2    0    0  0.63872933189E+00 -0.61279075487E+00  0.17138512306E+01  0.19289307166E+01  0.00000000000E+00 0. -1.
</event>
<event>
 5    1  0.1160133E+000  0.1599672E+01  0.7818608E-02  0.3353720E+00
         11   -1    0    0    0    0  0.00000000000E+00  0.00000000000E+00  0.39999999674E+01  0.40000000000E+01  0.51100000000E-03 0.  1.
    9000002   -1    0    0    0    0 -0.00000000000E+00 -0.00000000000E+00  0.00000000000E+00  0.93800000000E+00  0.93800000000E+00 0. -1.
         11    1    1    2    0    0  0.96154138063E-02 -0.72341458023E-01  0.24290118182E+00  0.25362765618E+00  0.51100000000E-03 0.  1.
    9000002    1    1    2    0    0 -0.14648755687E+00  0.96196379842E+00  0.75051143445E+00  0.15459444903E+01  0.93800000000E+00 0. -1.
         22    1    1    2    0    0  0.13687214307E+00 -0.88962234040E+00  0.30065873511E+01  0.31384278535E+01  0.00000000000E+00 0.  1.
</event>
<event>
 5    1  0.1160133E+000  0.1599677E+01  0.7818608E-02  0.3353714E+00
         11   -1    0    0    0    0  0.00000000000E+00  0.00000000000E+00  0.39999999674E+01  0.40000000000E+01  0.51100000000E-03 0.  1.
    9000002   -1    0    0    0    0 -0.00000000000E+00 -0.00000000000E+00  0.00000000000E+00  0.93800000000E+00  0.93800000000E+00 0. -1.
         11    1    1    2    0    0 -0.18808609629E+00  0.48762949141E-01  0.64494759701E+00  0.67358137507E+00  0.51100000000E-03 0. -1.
    9000002    1    1    2    0    0  0.94577879825E+00 -0.24729929424E+00  0.75931921995E+00  0.15530821466E+01  0.93800000000E+00 0. -1.
         22    1    1    2    0    0 -0.75769270196E+00  0.19853634510E+00  0.25957331504E+01  0.27113364784E+01  0.00000000000E+00 0.  1.
</event>
<event>
 5    1  0.1160133E+000  0.1599669E+01  0.7818608E-02  0.3353722E+00
         11   -1    0    0    0    0  0.00000000000E+00  0.00000000000E+00  0.39999999674E+01  0.40000000000E+01  0.51100000000E-03 0.  1.
    9000002   -1    0    0    0    0 -0.00000000000E+00 -0.00000000000E+00  0.00000000000E+00  0.93800000000E+00  0.93800000000E+00 0.  1.
         11    1    1    2    0    0 -0.19666538751E+00 -0.22760787131E+00  0.10916608996E+01  0.11323455297E+01  0.51100000000E-03 0.  1.
    9000002    1    1    2    0    0  0.60666610807E+00  0.70230168588E+00  0.66761050902E+00  0.14787897810E+01  0.93800000000E+00 0.  1.
         22    1    1    2    0    0 -0.41000072055E+00 -0.47469381456E+00  0.22407285588E+01  0.23268646893E+01  0.00000000000E+00 0. -1.
</event>
<event>
 5    1  0.1160133E+000  0.1596548E+01  0.7818608E-02  0.3357118E+00
         11   -1    0    0    0    0  0.00000000000E+00  0.00000000000E+00  0.39999999674E+01  0.40000000000E+01  0.51100000000E-03 0. -1.
    9000002   -1    0    0    0    0 -0.00000000000E+00 -0.00000000000E+00  0.00000000000E+00  0.93800000000E+00  0.93800000000E+00 0. -1.
         11    1    1    2    0    0 -0.15019794053E-01  0.57533401362E+00  0.80043955446E+00  0.98586944516E+00  0.51100000000E-03 0. -1.
    9000002    1    1    2    0    0  0.80362907632E-01 -0.12807394983E+01  0.19504945551E+01  0.25161527913E+01  0.93800000000E+00 0. -1.
         22    1    1    2    0    0 -0.65343113579E-01  0.70540548472E+00  0.12490658578E+01  0.14359777636E+01  0.00000000000E+00 0.  1.
</event>
<event>
 5    1  0.1160133E+000  0.1595594E+01  0.7818608E-02  0.3358160E+00
         11   -1    0    0    0    0  0.00000000000E+00  0.00000000000E+00  0.39999999674E+01  0.40000000000E+01  0.51100000000E-03 0.  1.
    9000002   -1    0    0    0    0 -0.00000000000E+00 -0.00000000000E+00  0.00000000000E+00  0.93800000000E+00  0.93800000000E+00 0. -1.
         11    1    1    2    0    0 -0.18159110542E+00 -0.11492808339E-01  0.79815072522E+00  0.81862827676E+00  0.51100000000E-03 0.  1.
    9000002    1    1    2    0    0  0.99887270882E+00  0.77944621907E-01  0.81640203280E+00  0.15969277791E+01  0.93800000000E+00 0. -1.
         22    1    1    2    0    0 -0.81728160340E+00 -0.66451813568E-01  0.23854472093E+01  0.25224439441E+01  0.00000000000E+00 0.  1.
</event>
<event>
 5    1  0.1160133E+000  0.1599676E+01  0.7818608E-02  0.3353715E+00
         11   -1    0    0    0    0  0.00000000000E+00  0.00000000000E+00  0.39999999674E+01  0.40000000000E+01  0.51100000000E-03 0.  1.
    9000002   -1    0    0    0    0 -0.00000000000E+00 -0.00000000000E+00  0.00000000000E+00  0.93800000000E+00  0.93800000000E+00 0.  1.
         11    1    1    2    0    0 -0.16408714885E+00  0.29765846510E+00  0.11149823500E+01  0.11656376179E+01  0.51100000000E-03 0.  1.
    9000002    1    1    2    0    0  0.47556206276E+00 -0.85993652752E+00  0.76937521308E+00  0.15612278262E+01  0.93800000000E+00 0.  1.
         22    1    1    2    0    0 -0.31147491392E+00  0.56227806243E+00  0.21156424043E+01  0.22111345559E+01  0.00000000000E+00 0. -1.
</event>
<event>
 5    1  0.1160133E+000  0.1599573E+01  0.7818608E-02  0.3353827E+00
         11   -1    0    0    0    0  0.00000000000E+00  0.00000000000E+00  0.39999999674E+01  0.40000000000E+01  0.51100000000E-03 0.  1.
    9000002   -1    0    0    0    0 -0.00000000000E+00 -0.00000000000E+00  0.00000000000E+00  0.93800000000E+00  0.93800000000E+00 0.  1.
         11    1    1    2    0    0  0.16446528934E+00 -0.11524663850E+00  0.54396592602E+00  0.57985326495E+00  0.51100000000E-03 0.  1.
    9000002    1    1    2    0    0 -0.93414770612E+00  0.60591993280E+00  0.10797659693E+01  0.18125974320E+01  0.93800000000E+00 0.  1.
         22    1    1    2    0    0  0.76968241678E+00 -0.49067329430E+00  0.23762680720E+01  0.25455493031E+01  0.00000000000E+00 0.  1.
</event>
<event>
 5    1  0.1160133E+000  0.1599675E+01  0.7818608E-02  0.3353716E+00
         11   -1    0    0    0    0  0.00000000000E+00  0.00000000000E+00  0.39999999674E+01  0.40000000000E+01  0.51100000000E-03 0.  1.
    9000002   -1    0    0    0    0 -0.00000000000E+00 -0.00000000000E+00  0.00000000000E+00  0.93800000000E+00  0.93800000000E+00 0. -1.
         11    1    1    2    0    0  0.80594737367E-01  0.78400167516E-01  0.35848223584E+00  0.37570183988E+00  0.51100000000E-03 0.  1.
    9000002    1    1    2    0    0 -0.72425389172E+00 -0.69462018645E+00  0.81178606661E+00  0.15955818754E+01  0.93800000000E+00 0. -1.
         22    1    1    2    0    0  0.64365915435E+00  0.61622001894E+00  0.28297316649E+01  0.29667162847E+01  0.00000000000E+00 0.  1.
</event>
<event>
 5    1  0.1160133E+000  0.1599675E+01  0.7818608E-02  0.3353716E+00
         11   -1    0    0    0    0  0.00000000000E+00  0.00000000000E+00  0.39999999674E+01  0.40000000000E+01  0.51100000000E-03 0. -1.
    9000002   -1    0    0    0    0 -0.00000000000E+00 -0.00000000000E+00  0.00000000000E+00  0.93800000000E+00  0.93800000000E+00 0.  1.
         11    1    1    2    0    0  0.22226723486E+00 -0.27314816708E+00  0.98242620892E+00  0.10436350713E+01  0.51100000000E-03 0. -1.
    9000002    1    1    2    0    0 -0.68238018063E+00  0.83429305171E+00  0.98314035888E+00  0.17343865118E+01  0.93800000000E+00 0.  1.
         22    1    1    2    0    0  0.46011294576E+00 -0.56114488463E+00  0.20344333996E+01  0.21599784169E+01  0.00000000000E+00 0. -1.
</event>
<event>
 5    1  0.1160133E+000  0.1583756E+01  0.7818608E-02  0.3371185E+00
         11   -1    0    0    0    0  0.00000000000E+00  0.00000000000E+00  0.39999999674E+01  0.40000000000E+01  0.51100000000E-03 0.  1.
    9000002   -1    0    0    0    0 -0.00000000000E+00 -0.00000000000E+00  0.00000000000E+00  0.93800000000E+00  0.93800000000E+00 0. -1.
         11    1    1    2    0    0  0.58669546041E-01 -0.84967799211E-01  0.48576791321E+00  0.49662095119E+00  0.51100000000E-03 0.  1.
    9000002    1    1    2    0    0  0.20007629388E+00  0.97728884258E+00  0.83070919081E+00  0.16015760253E+01  0.93800000000E+00 0. -1.
         22    1    1    2    0    0 -0.25874583992E+00 -0.89232104337E+00  0.26835228633E+01  0.28398030235E+01  0.00000000000E+00 0.  1.
</event>
<event>
 5    1  0.1160133E+000  0.1599665E+01  0.7818608E-02  0.3353727E+00
         11   -1    0    0    0    0  0.00000000000E+00  0.00000000000E+00  0.39999999674E+01  0.40000000000E+01  0.51100000000E-03 0.  1.
    9000002   -1    0    0    0    0 -0.00000000000E+00 -0.00000000000E+00  0.00000000000E+00  0.93800000000E+00  0.93800000000E+00 0. -1.
         11    1    1    2    0    0  0.31184925680E+00 -0.14078548917E+00  0.52547913384E+00  0.62705589396E+00  0.51100000000E-03 0.  1.
    9000002    1    1    2    0    0 -0.11749297690E+01  0.53159501983E+00  0.19939469230E+01  0.25531787166E+01  0.93800000000E+00 0. -1.
         22    1    1    2    0    0  0.86308051220E+00 -0.39080953066E+00  0.14805739105E+01  0.17577653894E+01  0.00000000000E+00 0.  1.
</event>
<event>
 5    1  0.1160133E+000  0.1599096E+01  0.7818608E-02  0.3354345E+00
         11   -1    0    0    0    0  0.00000000000E+00  0.00000000000E+00  0.39999999674E+01  0.40000000000E+01  0.51100000000E-03 0. -1.
    9000002   -1    0    0    0    0 -0.00000000000E+00 -0.00000000000E+00  0.00000000000E+00  0.93800000000E+00  0.93800000000E+00 0.  1.
         11    1    1    2    0    0  0.29110979184E+00 -0.54661882736E+00  0.13492484656E+01  0.14845904271E+01  0.51100000000E-03 0. -1.
    9000002    1    1    2    0    0 -0.59856525429E+00  0.10607085910E+01  0.14581595771E+01  0.21188337432E+01  0.93800000000E+00 0.  1.
         22    1    1    2    0    0  0.30745546245E+00 -0.51408976368E+00  0.11925919246E+01  0.13345758297E+01  0.00000000000E+00 0.  1.
</event>
<event>
 5    1  0.1160133E+000  0.1564584E+01  0.7818608E-02  0.3392724E+00
         11   -1    0    0    0    0  0.00000000000E+00  0.00000000000E+00  0.39999999674E+01  0.40000000000E+01  0.51100000000E-03 0.  1.
    9000002   -1    0    0    0    0 -0.00000000000E+00 -0.00000000000E+00  0.00000000000E+00  0.93800000000E+00  0.93800000000E+00 0.  1.
         11    1    1    2    0    0 -0.24317580757E+00  0.46968777093E-01  0.26605519184E+00  0.36349163077E+00  0.51100000000E-03 0.  1.
    9000002    1    1    2    0    0  0.10759373780E+01 -0.72930634983E-01  0.10759345936E+01  0.17889771850E+01  0.93800000000E+00 0.  1.
         22    1    1    2    0    0 -0.83276157038E+00  0.25961857890E-01  0.26580101819E+01  0.27855311842E+01  0.00000000000E+00 0.  1.
</event>
<event>
 5    1  0.1160133E+000  0.1597998E+01  0.7818608E-02  0.3355539E+00
         11   -1    0    0    0    0  0.00000000000E+00  0.00000000000E+00  0.39999999674E+01  0.40000000000E+01  0.51100000000E-03 0. -1.
    9000002   -1    0    0    0    0 -0.00000000000E+00 -0.00000000000E+00  0.00000000000E+00  0.93800000000E+00  0.93800000000E+00 0. -1.
         11    1    1    2    0    0 -0.67259899920E-01  0.22853253639E+00  0.81415860342E+00  0.84829564832E+00  0.51100000000E-03 0. -1.
    9000002    1    1    2    0    0  0.10328628588E+00 -0.91522254024E+00  0.65812671239E+00  0.14701275879E+01  0.93800000000E+00 0. -1.
         22    1    1    2    0    0 -0.36026385957E-01  0.68669000385E+00  0.25277146516E+01  0.26195767638E+01  0.00000000000E+00 0. -1.
</event>
<event>
 5    1  0.1160133E+000  0.1599677E+01  0.7818608E-02  0.3353714E+00
         11   -1    0    0    0    0  0.00000000000E+00  0.00000000000E+00  0.39999999674E+01  0.40000000000E+01  0.51100000000E-03 0. -1.
    9000002   -1    0    0    0    0 -0.00000000000E+00 -0.00000000000E+00  0.00000000000E+00  0.93800000000E+00  0.93800000000E+00 0.  1.
         11    1    1    2    0    0 -0.34817601244E+00  0.17581775680E+00  0.13031311647E+01  0.13602534737E+01  0.51100000000E-03 0.  1.
    9000002    1    1    2    0    0  0.86758271395E+00 -0.43888800413E+00  0.74899753242E+00  0.15447212529E+01  0.93800000000E+00 0.  1.
         22    1    1    2    0    0 -0.51940670151E+00  0.26307024734E+00  0.19478712703E+01  0.20330252733E+01  0.00000000000E+00 0. -1.
</event>
<event>
 5    1  0.1591296E+000  0.1569811E+01  0.7818608E-02  0.3386796E+00
         11   -1    0    0    0    0  0.00000000000E+00  0.00000000000E+00  0.39999999674E+01  0.40000000000E+01  0.51100000000E-03 0. -1.
    9000002   -1    0    0    0    0 -0.00000000000E+00 -0.00000000000E+00  0.00000000000E+00  0.93800000000E+00  0.93800000000E+00 0.  1.
         11    1    1    2    0    0 -0.43371696725E+00 -0.16428557361E+00  0.85760875945E+00  0.97498369360E+00  0.51100000000E-03 0. -1.
    9000002    1    1    2    0    0 -0.37527400681E+00  0.13177598488E+00  0.38490418445E+00  0.10891238321E+01  0.93800000000E+00 0.  1.
         22    1    1    2    0    0  0.80899097406E+00  0.32509588730E-01  0.27574870235E+01  0.28738924743E+01  0.00000000000E+00 0. -1.
</event>
<event>
 5    1  0.1160133E+000  0.1568989E+01  0.7818608E-02  0.3387725E+00
         11   -1    0    0    0    0  0.00000000000E+00  0.00000000000E+00  0.39999999674E+01  0.40000000000E+01  0.51100000000E-03 0.  1.
    9000002   -1    0    0    0    0 -0.00000000000E+00 -0.00000000000E+00  0.00000000000E+00  0.93800000000E+00  0.93800000000E+00 0. -1.
         11    1    1    2    0    0  0.56852152145E+00 -0.86758944137E-01  0.99401679129E+00  0.11483960455E+01  0.51100000000E-03 0.  1.
    9000002    1    1    2    0    0 -0.11159680760E+01 -0.10356792715E+00  0.11941085243E+01  0.18872864727E+01  0.93800000000E+00 0. -1.
         22    1    1    2    0    0  0.54744655455E+00  0.19032687129E+00  0.18118746518E+01  0.19023174819E+01  0.00000000000E+00 0.  1.
</event>
<event>
 5    1  0.1160133E+000  0.1599675E+01  0.7818608E-02  0.3353716E+00
         11   -1    0    0    0    0  0.00000000000E+00  0.00000000000E+00  0.39999999674E+01  0.40000000000E+01  0.51100000000E-03 0.  1.
    9000002   -1    0    0    0    0 -0.00000000000E+00 -0.00000000000E+00  0.00000000000E+00  0.93800000000E+00  0.93800000000E+00 0.  1.
         11    1    1    2    0    0  0.59563479156E-01  0.47728684295E+00  0.79138956834E+00  0.92609300208E+00  0.51100000000E-03 0.  1.
    9000002    1    1    2    0    0 -0.15586523485E+00 -0.12731545104E+01  0.18958893779E+01  0.24737536078E+01  0.93800000000E+00 0.  1.
         22    1    1    2    0    0  0.96301755697E-01  0.79586766747E+00  0.13127210211E+01  0.15381533901E+01  0.00000000000E+00 0.  1.
</event>
<event>
 5    1  0.1160133E+000  0.1599643E+01  0.7818608E-02  0.3353751E+00
         11   -1    0    0    0    0  0.00000000000E+00  0.00000000000E+00  0.39999999674E+01  0.40000000000E+01  0.51100000000E-03 0. -1.
    9000002   -1    0    0    0    0 -0.00000000000E+00 -0.00000000000E+00  0.00000000000E+00  0.93800000000E+00  0.93800000000E+00 0. -1.
         11    1    1    2    0    0  0.20530609715E+00  0.40405911486E+00  0.13173465449E+01  0.13931319185E+01  0.51100000000E-03 0. -1.
    9000002    1    1    2    0    0 -0.47838041169E+00 -0.95172292471E+00  0.95154330414E+00  0.17087723673E+01  0.93800000000E+00 0. -1.
         22    1    1    2    0    0  0.27307431454E+00  0.54766380985E+00  0.17311101183E+01  0.18360957142E+01  0.00000000000E+00 0.  1.
</event>
<event>
 5    1  0.1160133E+000  0.1594421E+01  0.7818608E-02  0.3359441E+00
         11   -1    0    0    0    0  0.00000000000E+00  0.00000000000E+00  0.39999999674E+01  0.40000000000E+01  0.51100000000E-03 0.  1.
    9000002   -1    0    0    0    0 -0.00000000000E+00 -0.00000000000E+00  0.00000000000E+00  0.93800000000E+00  0.93800000000E+00 0.  1.
         11    1    1    2    0    0 -0.13702609471E+00 -0.97400719762E-01  0.95315860384E+00  0.96787118773E+00  0.51100000000E-03 0.  1.
    9000002    1    1    2    0    0  0.65083268249E+00  0.58642208507E+00  0.58935850869E+00  0.14123248544E+01  0.93800000000E+00 0.  1.
         22    1    1    2    0    0 -0.51380658778E+00 -0.48902136531E+00  0.24574828548E+01  0.25578039579E+01  0.00000000000E+00 0.  1.
</event>
<event>
 5    1  0.1160133E+000  0.1599677E+01  0.7818608E-02  0.3353714E+00
         11   -1    0    0    0    0  0.00000000000E+00  0.00000000000E+00  0.39999999674E+01  0.40000000000E+01  0.51100000000E-03 0. -1.
    9000002   -1    0    0    0    0 -0.00000000000E+00 -0.00000000000E+00  0.00000000000E+00  0.93800000000E+00  0.93800000000E+00 0. -1.
         11    1    1    2    0    0  0.86547374479E-01  0.16214026269E+00  0.34871201086E+00  0.39418300376E+00  0.51100000000E-03 0.  1.
    9000002    1    1    2    0    0 -0.58813992956E+00 -0.11024377560E+01  0.16244489404E+01  0.22538757602E+01  0.93800000000E+00 0. -1.
         22    1    1    2    0    0  0.50159255508E+00  0.94029749329E+00  0.20268390161E+01  0.22899412360E+01  0.00000000000E+00 0. -1.
</event>
<event>
 5    1  0.1197176E+000  0.1551603E+01  0.7818608E-02  0.3407627E+00
         11   -1    0    0    0    0  0.00000000000E+00  0.00000000000E+00  0.39999999674E+01  0.40000000000E+01  0.51100000000E-03 0.  1.
    9000002   -1    0    0    0    0 -0.00000000000E+00 -0.00000000000E+00  0.00000000000E+00  0.93800000000E+00  0.93800000000E+00 0. -1.
         11    1    1    2    0    0  0.21985045432E+00 -0.16309378463E+00  0.13247837476E+01  0.13527697675E+01  0.51100000000E-03 0.  1.
    9000002    1    1    2    0    0  0.20448468041E-01  0.74764926732E+00  0.46537358362E+00  0.12867844183E+01  0.93800000000E+00 0. -1.
         22    1    1    2    0    0 -0.24029892236E+00 -0.58455548269E+00  0.22098426361E+01  0.22984458142E+01  0.00000000000E+00 0.  1.
</event>
<event>
 5    1  0.1160133E+000  0.1599546E+01  0.7818608E-02  0.3353857E+00
         11   -1    0    0    0    0  0.00000000000E+00  0.00000000000E+00  0.39999999674E+01  0.40000000000E+01  0.51100000000E-03 0. -1.
    9000002   -1    0    0    0    0 -0.00000000000E+00 -0.00000000000E+00  0.00000000000E+00  0.93800000000E+00  0.93800000000E+00 0. -1.
         11    1    1    2    0    0  0.75938421964E-01  0.50294836091E-01  0.25989227074E+00  0.27539148132E+00  0.51100000000E-03 0. -1.
    9000002    1    1    2    0    0 -0.94747204486E+00 -0.57980467061E+00  0.10722798370E+01  0.18065173071E+01  0.93800000000E+00 0. -1.
         22    1    1    2    0    0  0.87153362289E+00  0.52950983452E+00  0.26678278596E+01  0.28560912116E+01  0.00000000000E+00 0. -1.
</event>
<event>
 5    1  0.1160133E+000  0.1599598E+01  0.7818608E-02  0.3353799E+00
         11   -1    0    0    0    0  0.00000000000E+00  0.00000000000E+00  0.39999999674E+01  0.40000000000E+01  0.51100000000E-03 0.  1.
    9000002   -1    0    0    0    0 -0.00000000000E+00 -0.00000000000E+00  0.00000000000E+00  0.93800000000E+00  0.93800000000E+00 0.  1.
         11    1    1    2    0    0  0.14498027714E-02 -0.18032999315E+00  0.66036925032E+00  0.68455008308E+00  0.51100000000E-03 0.  1.
    9000002    1    1    2    0    0  0.18565032795E-01  0.93962349935E+00  0.68858215182E+00  0.14957360599E+01  0.93800000000E+00 0.  1.
         22    1    1    2    0    0 -0.20014835567E-01 -0.75929350620E+00  0.26510485652E+01  0.27577138571E+01  0.00000000000E+00 0.  1.
</event>
<event>
 5    1  0.1343040E+000  0.1599018E+01  0.7818608E-02  0.3354430E+00
         11   -1    0    0    0    0  0.00000000000E+00  0.00000000000E+00  0.39999999674E+01  0.40000000000E+01  0.51100000000E-03 0. -1.
    9000002   -1    0    0    0    0 -0.00000000000E+00 -0.00000000000E+00  0.00000000000E+00  0.93800000000E+00  0.93800000000E+00 0. -1.
         11    1    1    2    0    0  0.68345528534E-01 -0.33636789690E+00  0.14525046190E+01  0.14925094314E+01  0.51100000000E-03 0. -1.
    9000002    1    1    2    0    0 -0.20845160636E+00  0.84859365855E+00  0.57903758897E+00  0.14066598021E+01  0.93800000000E+00 0. -1.
         22    1    1    2    0    0  0.14010607783E+00 -0.51222576165E+00  0.19684577594E+01  0.20388307665E+01  0.00000000000E+00 0. -1.
</event>
<event>
 5    1  0.1160133E+000  0.1599677E+01  0.7818608E-02  0.3353714E+00
         11   -1    0    0    0    0  0.00000000000E+00  0.00000000000E+00  0.39999999674E+01  0.40000000000E+01  0.51100000000E-03 0. -1.
    9000002   -1    0    0    0    0 -0.00000000000E+00 -0.00000000000E+00  0.00000000000E+00  0.93800000000E+00  0.93800000000E+00 0. -1.
         11    1    1    2    0    0 -0.10247949871E+00 -0.10517666356E+00  0.79513100624E-01  0.16699333072E+00  0.51100000000E-03 0.  1.
    9000002    1    1    2    0    0  0.76072831951E+00  0.77812372179E+00  0.34096779679E+01  0.36999908037E+01  0.93800000000E+00 0. -1.
         22    1    1    2    0    0 -0.65824882080E+00 -0.67294705823E+00  0.51080889887E+00  0.10710158656E+01  0.00000000000E+00 0. -1.
</event>
<event>
 5    1  0.1160133E+000  0.1559825E+01  0.7818608E-02  0.3398157E+00
         11   -1    0    0    0    0  0.00000000000E+00  0.00000000000E+00  0.39999999674E+01  0.40000000000E+01  0.51100000000E-03 0. -1.
    9000002   -1    0    0    0    0 -0.00000000000E+00 -0.00000000000E+00  0.00000000000E+00  0.93800000000E+00  0.93800000000E+00 0. -1.
         11    1    1    2    0    0  0.69574423841E-01  0.32803923392E+00  0.91919800276E+00  0.97845570613E+00  0.51100000000E-03 0. -1.
    9000002    1    1    2    0    0  0.21980740310E+00 -0.12169467291E+01  0.18909947577E+01  0.24464218381E+01  0.93800000000E+00 0. -1.
         22    1    1    2    0    0 -0.28938182695E+00  0.88890749519E+00  0.11898072069E+01  0.15131224558E+01  0.00000000000E+00 0. -1.
</event>
<event>
 5    1  0.1160133E+000  0.1599647E+01  0.7818608E-02  0.3353747E+00
         11   -1    0    0    0    0  0.00000000000E+00  0.00000000000E+00  0.39999999674E+01  0.40000000000E+01  0.51100000000E-03 0.  1.
    9000002   -1    0    0    0    0 -0.00000000000E+00 -0.00000000000E+00  0.00000000000E+00  0.93800000000E+00  0.93800000000E+00 0.  1.
         11    1    1    2    0    0  0.64277401318E-01 -0.80735286339E-01  0.29258644931E+00  0.31025290043E+00  0.51100000000E-03 0.  1.
    9000002    1    1    2    0    0 -0.66024008656E+00  0.81401763119E+00  0.91050225942E+00  0.16755297790E+01  0.93800000000E+00 0.  1.
         22    1    1    2    0    0  0.59596268524E+00 -0.73328234485E+00  0.27969112586E+01  0.29522173206E+01  0.00000000000E+00 0.  1.
</event>
<event>
 5    1  0.1160133E+000  0.1578184E+01  0.7818608E-02  0.3377387E+00
         11   -1    0    0    0    0  0.00000000000E+00  0.00000000000E+00  0.39999999674E+01  0.40000000000E+01  0.51100000000E-03 0.  1.
    9000002   -1    0    0    0    0 -0.00000000000E+00 -0.00000000000E+00  0.00000000000E+00  0.93800000000E+00  0.93800000000E+00 0.  1.
         11    1    1    2    0    0  0.48501782493E+00 -0.32427613730E+00  0.13527349485E+01  0.14731902137E+01  0.51100000000E-03 0.  1.
    9000002    1    1    2    0    0 -0.69881115003E+00  0.75189439511E+00  0.90724812503E+00  0.16603088162E+01  0.93800000000E+00 0.  1.
         22    1    1    2    0    0  0.21379332510E+00 -0.42761825781E+00  0.17400168938E+01  0.18045009701E+01  0.00000000000E+00 0.  1.
</event>
<event>
 5    1  0.1160133E+000  0.1599673E+01  0.7818608E-02  0.3353718E+00
         11   -1    0    0    0    0  0.00000000000E+00  0.00000000000E+00  0.39999999674E+01  0.40000000000E+01  0.51100000000E-03 0.  1.
    9000002   -1    0    0    0    0 -0.00000000000E+00 -0.00000000000E+00  0.00000000000E+00  0.93800000000E+00  0.93800000000E+00 0. -1.
         11    1    1    2    0    0  0.31873398327E+00 -0.93535840396E-01  0.12294354209E+01  0.12735195408E+01  0.51100000000E-03 0.  1.
    9000002    1    1    2    0    0 -0.86925610763E+00  0.26110655270E+00  0.63265235560E+00  0.14504743416E+01  0.93800000000E+00 0. -1.
         22    1    1    2    0    0  0.55052212436E+00 -0.16757071231E+00  0.21379121908E+01  0.22140061176E+01  0.00000000000E+00 0.  1.
</event>
<event>
 5    1  0.1160133E+000  0.1599677E+01  0.7818608E-02  0.3353714E+00
         11   -1    0    0    0    0  0.00000000000E+00  0.00000000000E+00  0.39999999674E+01  0.40000000000E+01  0.51100000000E-03 0.  1.
    9000002   -1    0    0    0    0 -0.00000000000E+00 -0.00000000000E+00  0.00000000000E+00  0.93800000000E+00  0.93800000000E+00 0.  1.
         11    1    1    2    0    0 -0.99419156802E-01 -0.44325468526E+00  0.13254173352E+01  0.14011032290E+01  0.51100000000E-03 0. -1.
    9000002    1    1    2    0    0  0.23081562413E+00  0.10287666309E+01  0.92517453019E+00  0.16874325304E+01  0.93800000000E+00 0.  1.
         22    1    1    2    0    0 -0.13139646732E+00 -0.58551194566E+00  0.17494081020E+01  0.18494642407E+01  0.00000000000E+00 0.  1.
</event>
<event>
 5    1  0.1160133E+000  0.1534716E+01  0.7818608E-02  0.3427418E+00
         11   -1    0    0    0    0  0.00000000000E+00  0.00000000000E+00  0.39999999674E+01  0.40000000000E+01  0.51100000000E-03 0. -1.
    9000002   -1    0    0    0    0 -0.00000000000E+00 -0.00000000000E+00  0.00000000000E+00  0.93800000000E+00  0.93800000000E+00 0. -1.
         11    1    1    2    0    0  0.11525895230E+00  0.97154745275E-01  0.39125190156E+00  0.41928746965E+00  0.51100000000E-03 0. -1.
    9000002    1    1    2    0    0  0.65427373370E+00 -0.45421963624E+00  0.55607102461E+00  0.13503512806E+01  0.93800000000E+00 0. -1.
         22    1    1    2    0    0 -0.76953268600E+00  0.35706489097E+00  0.30526770412E+01  0.31683612498E+01  0.00000000000E+00 0. -1.
</event>
<event>
 5    1  0.1160133E+000  0.1599645E+01  0.7818608E-02  0.3353749E+00
         11   -1    0    0    0    0  0.00000000000E+00  0.00000000000E+00  0.39999999674E+01  0.40000000000E+01  0.51100000000E-03 0.  1.
    9000002   -1    0    0    0    0 -0.00000000000E+00 -0.00000000000E+00  0.00000000000E+00  0.93800000000E+00  0.93800000000E+00 0. -1.
         11    1    1    2    0    0  0.43070660459E+00  0.88421531445E-01  0.14301058531E+01  0.14961716341E+01  0.51100000000E-03 0.  1.
    9000002    1    1    2    0    0 -0.96442727234E+00 -0.18676578527E+00  0.76877900186E+00  0.15607262976E+01  0.93800000000E+00 0. -1.
         22    1    1    2    0    0  0.53372066775E+00  0.98344253822E-01  0.18011151124E+01  0.18811020684E+01  0.00000000000E+00 0.  1.
</event>
<event>
 5    1  0.1160133E+000  0.1589961E+01  0.7818608E-02  0.3364332E+00
         11   -1    0    0    0    0  0.00000000000E+00  0.00000000000E+00  0.39999999674E+01  0.40000000000E+01  0.51100000000E-03 0.  1.
    9000002   -1    0    0    0    0 -0.00000000000E+00 -0.00000000000E+00  0.00000000000E+00  0.93800000000E+00  0.93800000000E+00 0. -1.
         11    1    1    2    0    0  0.72390112184E-01  0.11774350982E-02  0.26963109640E+00  0.27918256385E+00  0.51100000000E-03 0.  1.
    9000002    1    1    2    0    0 -0.55261209364E+00  0.70844355102E+00  0.63263253645E+00  0.14447630661E+01  0.93800000000E+00 0. -1.
         22    1    1    2    0    0  0.48022198145E+00 -0.70962098612E+00  0.30977363345E+01  0.32140543700E+01  0.00000000000E+00 0.  1.
</event>
<event>
 5    1  0.1160133E+000  0.1599674E+01  0.7818608E-02  0.3353717E+00
         11   -1    0    0    0    0  0.00000000000E+00  0.00000000000E+00  0.39999999674E+01  0.40000000000E+01  0.51100000000E-03 0. -1.
    9000002   -1    0    0    0    0 -0.00000000000E+00 -0.00000000000E+00  0.00000000000E+00  0.93800000000E+00  0.93800000000E+00 0. -1.
         11    1    1    2    0    0  0.25647620558E-01 -0.48776576380E-02  0.93602005978E-01  0.97176070246E-01  0.51100000000E-03 0. -1.
    9000002    1    1    2    0    0 -0.91017418485E+00  0.15867501051E+00  0.66038131701E+00  0.14729366210E+01  0.93800000000E+00 0. -1.
         22    1    1    2    0    0  0.88452656429E+00 -0.15379735287E+00  0.32460166444E+01  0.33678873087E+01  0.00000000000E+00 0. -1.
</event>
<event>
 5    1  0.1160133E+000  0.1599677E+01  0.7818608E-02  0.3353714E+00
         11   -1    0    0    0    0  0.00000000000E+00  0.00000000000E+00  0.39999999674E+01  0.40000000000E+01  0.51100000000E-03 0.  1.
    9000002   -1    0    0    0    0 -0.00000000000E+00 -0.00000000000E+00  0.00000000000E+00  0.93800000000E+00  0.93800000000E+00 0. -1.
         11    1    1    2    0    0  0.12982849593E+00 -0.23496058960E+00  0.70395851500E+00  0.75340544794E+00  0.51100000000E-03 0.  1.
    9000002    1    1    2    0    0 -0.53941627526E+00  0.97390780197E+00  0.10790898270E+01  0.18121106974E+01  0.93800000000E+00 0. -1.
         22    1    1    2    0    0  0.40958777933E+00 -0.73894721237E+00  0.22169516253E+01  0.23724838547E+01  0.00000000000E+00 0.  1.
</event>
<event>
 5    1  0.1160133E+000  0.1591160E+01  0.7818608E-02  0.3363015E+00
         11   -1    0    0    0    0  0.00000000000E+00  0.00000000000E+00  0.39999999674E+01  0.40000000000E+01  0.51100000000E-03 0. -1.
    9000002   -1    0    0    0    0 -0.00000000000E+00 -0.00000000000E+00  0.00000000000E+00  0.93800000000E+00  0.93800000000E+00 0.  1.
         11    1    1    2    0    0 -0.62878923254E-01  0.71093628768E-02  0.56624187281E+00  0.56976698893E+00  0.51100000000E-03 0. -1.
    9000002    1    1    2    0    0  0.84534824633E+00  0.16217279446E+00  0.57034206064E+00  0.13950081501E+01  0.93800000000E+00 0.  1.
         22    1    1    2    0    0 -0.78246932308E+00 -0.16928215734E+00  0.28634160339E+01  0.29732248609E+01  0.00000000000E+00 0. -1.
</event>
<event>
 5    1  0.1160133E+000  0.1593416E+01  0.7818608E-02  0.3360540E+00
         11   -1    0    0    0    0  0.00000000000E+00  0.00000000000E+00  0.39999999674E+01  0.40000000000E+01  0.51100000000E-03 0. -1.
    9000002   -1    0    0    0    0 -0.00000000000E+00 -0.00000000000E+00  0.00000000000E+00  0.93800000000E+00  0.93800000000E+00 0. -1.
         11    1    1    2    0    0 -0.95953686991E-02 -0.10473228111E+00  0.13946503351E+00  0.17467592421E+00  0.51100000000E-03 0. -1.
    9000002    1    1    2    0    0  0.14673088828E+00  0.11408733280E+01  0.12126763999E+01  0.19166507128E+01  0.93800000000E+00 0. -1.
         22    1    1    2    0    0 -0.13713551958E+00 -0.10361410468E+01  0.26478585340E+01  0.28466733630E+01  0.00000000000E+00 0. -1.
</event>
<event>
 5    1  0.1160133E+000  0.1599676E+01  0.7818608E-02  0.3353715E+00
         11   -1    0    0    0    0  0.00000000000E+00  0.00000000000E+00  0.39999999674E+01  0.40000000000E+01  0.51100000000E-03 0. -1.
    9000002   -1    0    0    0    0 -0.00000000000E+00 -0.00000000000E+00  0.00000000000E+00  0.93800000000E+00  0.93800000000E+00 0.  1.
         11    1    1    2    0    0  0.11356861626E+00  0.48774764631E+00  0.12807816572E+01  0.13752081703E+01  0.51100000000E-03 0. -1.
    9000002    1    1    2    0    0 -0.25335576645E+00 -0.10969406771E+01  0.11156949871E+01  0.18417620090E+01  0.93800000000E+00 0.  1.
         22    1    1    2    0    0  0.13978715019E+00  0.60919303083E+00  0.16035233231E+01  0.17210298207E+01  0.00000000000E+00 0. -1.
</event>
<event>
 5    1  0.1160133E+000  0.1512944E+01  0.7818608E-02  0.3453633E+00
         11   -1    0    0    0    0  0.00000000000E+00  0.00000000000E+00  0.39999999674E+01  0.40000000000E+01  0.51100000000E-03 0. -1.
    9000002   -1    0    0    0    0 -0.00000000000E+00 -0.00000000000E+00  0.00000000000E+00  0.93800000000E+00  0.93800000000E+00 0. -1.
         11    1    1    2    0    0  0.29059787247E+00  0.40484476865E-01  0.40135554252E+00  0.49716460955E+00  0.51100000000E-03 0. -1.
    9000002    1    1    2    0    0  0.55253510016E+00  0.56135321226E+00  0.81637570440E+00  0.14719802161E+01  0.93800000000E+00 0. -1.
         22    1    1    2    0    0 -0.84313297264E+00 -0.60183768913E+00  0.27822687204E+01  0.29688551744E+01  0.00000000000E+00 0. -1.
</event>
<event>
 5    1  0.1160133E+000  0.1483350E+01  0.7818608E-02  0.3490593E+00
         11   -1    0    0    0    0  0.00000000000E+00  0.00000000000E+00  0.39999999674E+01  0.40000000000E+01  0.51100000000E-03 0.  1.
    9000002   -1    0    0    0    0 -0.00000000000E+00 -0.00000000000E+00  0.00000000000E+00  0.93800000000E+00  0.93800000000E+00 0. -1.
         11    1    1    2    0    0  0.25520873218E+00  0.41195948376E+00  0.73054993007E+00  0.87666731129E+00  0.51100000000E-03 0.  1.
    9000002    1    1    2    0    0  0.25149978852E+00 -0.95381943360E+00  0.10439221706E+01  0.17154128231E+01  0.93800000000E+00 0. -1.
         22    1    1    2    0    0 -0.50670852070E+00  0.54185994984E+00  0.22255278667E+01  0.23459198656E+01  0.00000000000E+00 0.  1.
</event>
<event>
 5    1  0.1160133E+000  0.1593019E+01  0.7818608E-02  0.3360975E+00
         11   -1    0    0    0    0  0.00000000000E+00  0.00000000000E+00  0.39999999674E+01  0.40000000000E+01  0.51100000000E-03 0.  1.
    9000002   -1    0    0    0    0 -0.00000000000E+00 -0.00000000000E+00  0.00000000000E+00  0.93800000000E+00  0.93800000000E+00 0.  1.
         11    1    1    2    0    0 -0.92943123542E-02 -0.62436117996E-02  0.61515638130E-01  0.62528407831E-01  0.51100000000E-03 0.  1.
    9000002    1    1    2    0    0  0.62004992920E-02 -0.99706941154E+00  0.81135135476E+00  0.15913267667E+01  0.93800000000E+00 0.  1.
         22    1    1    2    0    0  0.30938130622E-02  0.10033130233E+01  0.31271329745E+01  0.32841448254E+01  0.00000000000E+00 0.  1.
</event>
<event>
 5    1  0.1160133E+000  0.1567404E+01  0.7818608E-02  0.3389520E+00
         11   -1    0    0    0    0  0.00000000000E+00  0.00000000000E+00  0.39999999674E+01  0.40000000000E+01  0.51100000000E-03 0.  1.
    9000002   -1    0    0    0    0 -0.00000000000E+00 -0.00000000000E+00  0.00000000000E+00  0.93800000000E+00  0.93800000000E+00 0. -1.
         11    1    1    2    0    0  0.11693791894E+00 -0.60682747148E+00  0.65272329309E+00  0.89886707331E+00  0.51100000000E-03 0.  1.
    9000002    1    1    2    0    0 -0.48149847127E+00  0.11555801664E+01  0.19973049055E+01  0.25369819046E+01  0.93800000000E+00 0. -1.
         22    1    1    2    0    0  0.36456055233E+00 -0.54875269497E+00  0.13499717688E+01  0.15021510221E+01  0.00000000000E+00 0.  1.
</event>
<event>
 5    1  0.1160133E+000  0.1599676E+01  0.7818608E-02  0.3353716E+00
         11   -1    0    0    0    0  0.00000000000E+00  0.00000000000E+00  0.39999999674E+01  0.40000000000E+01  0.51100000000E-03 0. -1.
    9000002   -1    0    0    0    0 -0.00000000000E+00 -0.00000000000E+00  0.00000000000E+00  0.93800000000E+00  0.93800000000E+00 0.  1.
         11    1    1    2    0    0 -0.23756880380E-01  0.14795897536E+00  0.38873276609E+00  0.41661693714E+00  0.51100000000E-03 0. -1.
    9000002    1    1    2    0    0  0.17096244880E+00 -0.11069586315E+01  0.10987070867E+01  0.18280007749E+01  0.93800000000E+00 0.  1.
         22    1    1    2    0    0 -0.14720556842E+00  0.95899965610E+00  0.25125601146E+01  0.26933822880E+01  0.00000000000E+00 0. -1.
</event>
<event>
 5    1  0.1160133E+000  0.1425275E+01  0.7818608E-02  0.3567976E+00
         11   -1    0    0    0    0  0.00000000000E+00  0.00000000000E+00  0.39999999674E+01  0.40000000000E+01  0.51100000000E-03 0. -1.
    9000002   -1    0    0    0    0 -0.00000000000E+00 -0.00000000000E+00  0.00000000000E+00  0.93800000000E+00  0.93800000000E+00 0.  1.
         11    1    1    2    0    0 -0.52821546217E+00  0.36439768467E+00  0.11205418232E+01  0.12912828837E+01  0.51100000000E-03 0. -1.
    9000002    1    1    2    0    0  0.85037493486E-01 -0.98371494082E+00  0.12522056023E+01  0.18500781958E+01  0.93800000000E+00 0.  1.
         22    1    1    2    0    0  0.44317796868E+00  0.61931725615E+00  0.16272525419E+01  0.17966389206E+01  0.00000000000E+00 0. -1.
</event>
<event>
 5    1  0.1160133E+000  0.1599317E+01  0.7818608E-02  0.3354105E+00
         11   -1    0    0    0    0  0.00000000000E+00  0.00000000000E+00  0.39999999674E+01  0.40000000000E+01  0.51100000000E-03 0. -1.
    9000002   -1    0    0    0    0 -0.00000000000E+00 -0.00000000000E+00  0.00000000000E+00  0.93800000000E+00  0.93800000000E+00 0.  1.
         11    1    1    2    0    0  0.56051113441E-01 -0.39624213761E-01  0.16352309520E+00  0.17734674911E+00  0.51100000000E-03 0. -1.
    9000002    1    1    2    0    0 -0.86779117044E+00  0.81863115978E+00  0.13486203997E+01  0.20302313843E+01  0.93800000000E+00 0.  1.
         22    1    1    2    0    0  0.81174005699E+00 -0.77900694602E+00  0.24878564725E+01  0.27304218666E+01  0.00000000000E+00 0. -1.
</event>
<event>
 5    1  0.1160133E+000  0.1599676E+01  0.7818608E-02  0.3353715E+00
         11   -1    0    0    0    0  0.00000000000E+00  0.00000000000E+00  0.39999999674E+01  0.40000000000E+01  0.51100000000E-03 0. -1.
    9000002   -1    0    0    0    0 -0.00000000000E+00 -0.00000000000E+00  0.00000000000E+00  0.93800000000E+00  0.93800000000E+00 0.  1.
         11    1    1    2    0    0 -0.28166527937E+00  0.35695179155E+00  0.14069659788E+01  0.14786153785E+01  0.51100000000E-03 0. -1.
    9000002    1    1    2    0    0  0.62951899361E+00 -0.79995634618E+00  0.84247641075E+00  0.16204427857E+01  0.93800000000E+00 0.  1.
         22    1    1    2    0    0 -0.34785371424E+00  0.44300455463E+00  0.17505575778E+01  0.18389418357E+01  0.00000000000E+00 0.  1.
</event>
<event>
 5    1  0.1160133E+000  0.1599536E+01  0.7818608E-02  0.3353867E+00
         11   -1    0    0    0    0  0.00000000000E+00  0.00000000000E+00  0.39999999674E+01  0.40000000000E+01  0.51100000000E-03 0.  1.
    9000002   -1    0    0    0    0 -0.00000000000E+00 -0.00000000000E+00  0.00000000000E+00  0.93800000000E+00  0.93800000000E+00 0.  1.
         11    1    1    2    0    0  0.35923519579E-01 -0.21954647179E+00  0.71089443420E+00  0.74489080423E+00  0.51100000000E-03 0.  1.
    9000002    1    1    2    0    0 -0.15887363496E+00  0.95196590587E+00  0.73553245293E+00  0.15337313673E+01  0.93800000000E+00 0.  1.
         22    1    1    2    0    0  0.12295011538E+00 -0.73241943409E+00  0.25535730802E+01  0.26593778284E+01  0.00000000000E+00 0.  1.
</event>
<event>
 5    1  0.1160133E+000  0.1589084E+01  0.7818608E-02  0.3365297E+00
         11   -1    0    0    0    0  0.00000000000E+00  0.00000000000E+00  0.39999999674E+01  0.40000000000E+01  0.51100000000E-03 0. -1.
    9000002   -1    0    0    0    0 -0.00000000000E+00 -0.00000000000E+00  0.00000000000E+00  0.93800000000E+00  0.93800000000E+00 0.  1.
         11    1    1    2    0    0  0.24558824404E+00  0.13460647953E+00  0.73072284244E+00  0.78255263307E+00  0.51100000000E-03 0. -1.
    9000002    1    1    2    0    0 -0.11335566585E+01 -0.14453054405E+00  0.12015644835E+01  0.19051091791E+01  0.93800000000E+00 0.  1.
         22    1    1    2    0    0  0.88796841447E+00  0.99240645196E-02  0.20677126415E+01  0.22503381879E+01  0.00000000000E+00 0. -1.
</event>
<event>
 5    1  0.1160133E+000  0.1599677E+01  0.7818608E-02  0.3353714E+00
         11   -1    0    0    0    0  0.00000000000E+00  0.00000000000E+00  0.39999999674E+01  0.40000000000E+01  0.51100000000E-03 0. -1.
    9000002   -1    0    0    0    0 -0.00000000000E+00 -0.00000000000E+00  0.00000000000E+00  0.93800000000E+00  0.93800000000E+00 0.  1.
         11    1    1    2    0    0 -0.19672868700E+00  0.35488918401E+00  0.11536847694E+01  0.12229625168E+01  0.51100000000E-03 0. -1.
    9000002    1    1    2    0    0  0.51780728280E+00 -0.93506642060E+00  0.96056755414E+00  0.17161024501E+01  0.93800000000E+00 0.  1.
         22    1    1    2    0    0 -0.32107859580E+00  0.58017723659E+00  0.18857476439E+01  0.19989350332E+01  0.00000000000E+00 0. -1.
</event>
<event>
 5    1  0.1160133E+000  0.1596638E+01  0.7818608E-02  0.3357020E+00
         11   -1    0    0    0    0  0.00000000000E+00  0.00000000000E+00  0.39999999674E+01  0.40000000000E+01  0.51100000000E-03 0.  1.
    9000002   -1    0    0    0    0 -0.00000000000E+00 -0.00000000000E+00  0.00000000000E+00  0.93800000000E+00  0.93800000000E+00 0.  1.
         11    1    1    2    0    0 -0.18781513566E+00 -0.34144019170E+00  0.10763275115E+01  0.11446995688E+01  0.51100000000E-03 0.  1.
    9000002    1    1    2    0    0  0.64023968051E+00  0.96342387077E+00  0.12240538970E+01  0.19277562984E+01  0.93800000000E+00 0.  1.
         22    1    1    2    0    0 -0.45242454485E+00 -0.62198367906E+00  0.16996185589E+01  0.18655441328E+01  0.00000000000E+00 0. -1.
</event>
<event>
 5    1  0.1160133E+000  0.1466897E+01  0.7818608E-02  0.3511840E+00
         11   -1    0    0    0    0  0.00000000000E+00  0.00000000000E+00  0.39999999674E+01  0.40000000000E+01  0.51100000000E-03 0.  1.
    9000002   -1    0    0    0    0 -0.00000000000E+00 -0.00000000000E+00  0.00000000000E+00  0.93800000000E+00  0.93800000000E+00 0.  1.
         11    1    1    2    0    0  0.29914820118E+00 -0.25727154357E-01  0.46600174450E+00  0.55435495825E+00  0.51100000000E-03 0.  1.
    9000002    1    1    2    0    0  0.30745489101E+00  0.83336144726E+00  0.93337041902E+00  0.15937515964E+01  0.93800000000E+00 0.  1.
         22    1    1    2    0    0 -0.60660309219E+00 -0.80763429291E+00  0.26006278038E+01  0.27898934454E+01  0.00000000000E+00 0.  1.
</event>
<event>
 5    1  0.1160133E+000  0.1599676E+01  0.7818608E-02  0.3353715E+00
         11   -1    0    0    0    0  0.00000000000E+00  0.00000000000E+00  0.39999999674E+01  0.40000000000E+01  0.51100000000E-03 0. -1.
    9000002   -1    0    0    0    0 -0.00000000000E+00 -0.00000000000E+00  0.00000000000E+00  0.93800000000E+00  0.93800000000E+00 0. -1.
         11    1    1    2    0    0 -0.95584007857E-01 -0.46377020361E-01  0.38521580446E+00  0.39959805768E+00  0.51100000000E-03 0.  1.
    9000002    1    1    2    0    0  0.82970613330E+00  0.39870826183E+00  0.65455672736E+00  0.14682196889E+01  0.93800000000E+00 0. -1.
         22    1    1    2    0    0 -0.73412212544E+00 -0.35233124147E+00  0.29602274355E+01  0.30701822534E+01  0.00000000000E+00 0. -1.
</event>
<event>
 5    1  0.1160133E+000  0.1599584E+01  0.7818608E-02  0.3353815E+00
         11   -1    0    0    0    0  0.00000000000E+00  0.00000000000E+00  0.39999999674E+01  0.40000000000E+01  0.51100000000E-03 0. -1.
    9000002   -1    0    0    0    0 -0.00000000000E+00 -0.00000000000E+00  0.00000000000E+00  0.93800000000E+00  0.93800000000E+00 0. -1.
         11    1    1    2    0    0  0.21986447697E+00  0.61313635868E-01  0.73231080923E+00  0.76705875435E+00  0.51100000000E-03 0. -1.
    9000002    1    1    2    0    0 -0.93477665560E+00 -0.25812650541E+00  0.74430937539E+00  0.15408689545E+01  0.93800000000E+00 0. -1.
         22    1    1    2    0    0  0.71491217863E+00  0.19681286954E+00  0.25233797827E+01  0.26300722912E+01  0.00000000000E+00 0. -1.
</event>
<event>
 5    1  0.1160133E+000  0.1572799E+01  0.7818608E-02  0.3383426E+00
         11   -1    0    0    0    0  0.00000000000E+00  0.00000000000E+00  0.39999999674E+01  0.40000000000E+01  0.51100000000E-03 0. -1.
    9000002   -1    0    0    0    0 -0.00000000000E+00 -0.00000000000E+00  0.00000000000E+00  0.93800000000E+00  0.93800000000E+00 0.  1.
         11    1    1    2    0    0  0.92758940200E-01  0.20828130179E+00  0.12821068559E+01  0.13022225512E+01  0.51100000000E-03 0. -1.
    9000002    1    1    2    0    0 -0.68522218959E+00 -0.70812189529E+00  0.82679320147E+00  0.15919789778E+01  0.93800000000E+00 0.  1.
         22    1    1    2    0    0  0.59246324939E+00  0.49984059350E+00  0.18910999100E+01  0.20437984710E+01  0.00000000000E+00 0. -1.
</event>
<event>
 5    1  0.1160133E+000  0.1599677E+01  0.7818608E-02  0.3353714E+00
         11   -1    0    0    0    0  0.00000000000E+00  0.00000000000E+00  0.39999999674E+01  0.40000000000E+01  0.51100000000E-03 0. -1.
    9000002   -1    0    0    0    0 -0.00000000000E+00 -0.00000000000E+00  0.00000000000E+00  0.93800000000E+00  0.93800000000E+00 0. -1.
         11    1    1    2    0    0  0.24261520941E+00 -0.27959996932E+00  0.12469247749E+01  0.13007151640E+01  0.51100000000E-03 0. -1.
    9000002    1    1    2    0    0 -0.63461775954E+00  0.72997388006E+00  0.73935295728E+00  0.15369087031E+01  0.93800000000E+00 0. -1.
         22    1    1    2    0    0  0.39200255013E+00 -0.45037391074E+00  0.20137222352E+01  0.21003761328E+01  0.00000000000E+00 0. -1.
</event>
<event>
 5    1  0.1160133E+000  0.1599667E+01  0.7818608E-02  0.3353725E+00
         11   -1    0    0    0    0  0.00000000000E+00  0.00000000000E+00  0.39999999674E+01  0.40000000000E+01  0.51100000000E-03 0.  1.
    9000002   -1    0    0    0    0 -0.00000000000E+00 -0.00000000000E+00  0.00000000000E+00  0.93800000000E+00  0.93800000000E+00 0.  1.
         11    1    1    2    0    0  0.15105262615E+00  0.88572782597E-01  0.47158843239E+00  0.50304865010E+00  0.51100000000E-03 0.  1.
    9000002    1    1    2    0    0 -0.95457323504E+00 -0.54057459756E+00  0.10336851805E+01  0.17753253248E+01  0.93800000000E+00 0.  1.
         22    1    1    2    0    0  0.80352060889E+00  0.45200181496E+00  0.24947263544E+01  0.26596260251E+01  0.00000000000E+00 0.  1.
</event>
<event>
 5    1  0.1160133E+000  0.1583073E+01  0.7818608E-02  0.3371943E+00
         11   -1    0    0    0    0  0.00000000000E+00  0.00000000000E+00  0.39999999674E+01  0.40000000000E+01  0.51100000000E-03 0. -1.
    9000002   -1    0    0    0    0 -0.00000000000E+00 -0.00000000000E+00  0.00000000000E+00  0.93800000000E+00  0.93800000000E+00 0.  1.
         11    1    1    2    0    0 -0.22504140385E+00  0.22311410610E+00  0.14191106345E+01  0.14540628569E+01  0.51100000000E-03 0. -1.
    9000002    1    1    2    0    0  0.60790838455E+00 -0.82347366529E+00  0.88970124076E+00  0.16489614244E+01  0.93800000000E+00 0.  1.
         22    1    1    2    0    0 -0.38286698069E+00  0.60035955919E+00  0.16911880921E+01  0.18349757187E+01  0.00000000000E+00 0. -1.
</event>
<event>
 5    1  0.1160133E+000  0.1593878E+01  0.7818608E-02  0.3360035E+00
         11   -1    0    0    0    0  0.00000000000E+00  0.00000000000E+00  0.39999999674E+01  0.40000000000E+01  0.51100000000E-03 0.  1.
    9000002   -1    0    0    0    0 -0.00000000000E+00 -0.00000000000E+00  0.00000000000E+00  0.93800000000E+00  0.93800000000E+00 0.  1.
         11    1    1    2    0    0 -0.30709708845E+00 -0.83493453708E-01  0.98723678295E+00  0.10372639516E+01  0.51100000000E-03 0.  1.
    9000002    1    1    2    0    0  0.83897783141E+00  0.49411413235E+00  0.76227466929E+00  0.15520757871E+01  0.93800000000E+00 0.  1.
         22    1    1    2    0    0 -0.53188074296E+00 -0.41062067865E+00  0.22504885151E+01  0.23486602613E+01  0.00000000000E+00 0.  1.
</event>
<event>
 5    1  0.1160133E+000  0.1599656E+01  0.7818608E-02  0.3353737E+00
         11   -1    0    0    0    0  0.00000000000E+00  0.00000000000E+00  0.39999999674E+01  0.40000000000E+01  0.51100000000E-03 0. -1.
    9000002   -1    0    0    0    0 -0.00000000000E+00 -0.00000000000E+00  0.00000000000E+00  0.93800000000E+00  0.93800000000E+00 0. -1.
         11    1    1    2    0    0 -0.12524462112E+00 -0.47938232210E-02  0.28796626705E+00  0.31406054820E+00  0.51100000000E-03 0. -1.
    9000002    1    1    2    0    0  0.11650826847E+01  0.59286406965E-01  0.12479692505E+01  0.19488980965E+01  0.93800000000E+00 0. -1.
         22    1    1    2    0    0 -0.10398380635E+01 -0.54492583744E-01  0.24640644498E+01  0.26750413553E+01  0.00000000000E+00 0. -1.
</event>
<event>
 5    1  0.1160133E+000  0.1597704E+01  0.7818608E-02  0.3355859E+00
         11   -1    0    0    0    0  0.00000000000E+00  0.00000000000E+00  0.39999999674E+01  0.40000000000E+01  0.51100000000E-03 0. -1.
    9000002   -1    0    0    0    0 -0.00000000000E+00 -0.00000000000E+00  0.00000000000E+00  0.93800000000E+00  0.93800000000E+00 0. -1.
         11    1    1    2    0    0  0.24239502703E+00  0.58179003597E-01  0.10659001186E+01  0.10946613493E+01  0.51100000000E-03 0. -1.
    9000002    1    1    2    0    0 -0.91173928825E+00 -0.13121424382E+00  0.65877721054E+00  0.14704819348E+01  0.93800000000E+00 0. -1.
         22    1    1    2    0    0  0.66934426121E+00  0.73035240220E-01  0.22753226382E+01  0.23728567159E+01  0.00000000000E+00 0. -1.
</event>
<event>
 5    1  0.1160133E+000  0.1599254E+01  0.7818608E-02  0.3354173E+00
         11   -1    0    0    0    0  0.00000000000E+00  0.00000000000E+00  0.39999999674E+01  0.40000000000E+01  0.51100000000E-03 0.  1.
    9000002   -1    0    0    0    0 -0.00000000000E+00 -0.00000000000E+00  0.00000000000E+00  0.93800000000E+00  0.93800000000E+00 0.  1.
         11    1    1    2    0    0 -0.21368369203E+00  0.78151438196E-01  0.82318684357E+00  0.85405222796E+00  0.51100000000E-03 0.  1.
    9000002    1    1    2    0    0  0.88698282264E+00 -0.23310174855E+00  0.64934752985E+00  0.14637524269E+01  0.93800000000E+00 0.  1.
         22    1    1    2    0    0 -0.67329913061E+00  0.15495031035E+00  0.25274655939E+01  0.26201953451E+01  0.00000000000E+00 0.  1.
</event>
<event>
 5    1  0.1160133E+000  0.1599625E+01  0.7818608E-02  0.3353771E+00
         11   -1    0    0    0    0  0.00000000000E+00  0.00000000000E+00  0.39999999674E+01  0.40000000000E+01  0.51100000000E-03 0. -1.
    9000002   -1    0    0    0    0 -0.00000000000E+00 -0.00000000000E+00  0.00000000000E+00  0.93800000000E+00  0.93800000000E+00 0. -1.
         11    1    1    2    0    0  0.12201999802E+00 -0.12212029242E+00  0.48010424414E+00  0.51019858105E+00  0.51100000000E-03 0. -1.
    9000002    1    1    2    0    0 -0.76130575958E+00  0.73888864748E+00  0.94113304053E+00  0.17003288779E+01  0.93800000000E+00 0. -1.
         22    1    1    2    0    0  0.63928576156E+00 -0.61676835506E+00  0.25787626827E+01  0.27274725411E+01  0.00000000000E+00 0. -1.
</event>
<event>
 5    1  0.1160133E+000  0.1599638E+01  0.7818608E-02  0.3353756E+00
         11   -1    0    0    0    0  0.00000000000E+00  0.00000000000E+00  0.39999999674E+01  0.40000000000E+01  0.51100000000E-03 0.  1.
    9000002   -1    0    0    0    0 -0.00000000000E+00 -0.00000000000E+00  0.00000000000E+00  0.93800000000E+00  0.93800000000E+00 0.  1.
         11    1    1    2    0    0 -0.18826416404E+00 -0.40305472324E+00  0.13137683553E+01  0.13870414767E+01  0.51100000000E-03 0.  1.
    9000002    1    1    2    0    0  0.43847770552E+00  0.93929210251E+00  0.88392259019E+00  0.16539938021E+01  0.93800000000E+00 0.  1.
         22    1    1    2    0    0 -0.25021354147E+00 -0.53623737927E+00  0.18023090218E+01  0.18969647212E+01  0.00000000000E+00 0.  1.
</event>
<event>
 5    1  0.1160133E+000  0.1599652E+01  0.7818608E-02  0.3353742E+00
         11   -1    0    0    0    0  0.00000000000E+00  0.00000000000E+00  0.39999999674E+01  0.40000000000E+01  0.51100000000E-03 0. -1.
    9000002   -1    0    0    0    0 -0.00000000000E+00 -0.00000000000E+00  0.00000000000E+00  0.93800000000E+00  0.93800000000E+00 0. -1.
         11    1    1    2    0    0  0.17911265921E+00 -0.12574426525E+00  0.80464101261E+00  0.83387072453E+00  0.51100000000E-03 0. -1.
    9000002    1    1    2    0    0 -0.75638901888E+00  0.53761083801E+00  0.66752515551E+00  0.14787101116E+01  0.93800000000E+00 0. -1.
         22    1    1    2    0    0  0.57727635967E+00 -0.41186657276E+00  0.25278337992E+01  0.26254191638E+01  0.00000000000E+00 0. -1.
</event>
<event>
 5    1  0.1160133E+000  0.1599552E+01  0.7818608E-02  0.3353850E+00
         11   -1    0    0    0    0  0.00000000000E+00  0.00000000000E+00  0.39999999674E+01  0.40000000000E+01  0.51100000000E-03 0.  1.
    9000002   -1    0    0    0    0 -0.00000000000E+00 -0.00000000000E+00  0.00000000000E+00  0.93800000000E+00  0.93800000000E+00 0. -1.
         11    1    1    2    0    0  0.26876306603E+00  0.29779048301E+00  0.11833249835E+01  0.12494683009E+01  0.51100000000E-03 0.  1.
    9000002    1    1    2    0    0 -0.67725082489E+00 -0.80123941829E+00  0.91307724579E+00  0.16775599369E+01  0.93800000000E+00 0. -1.
         22    1    1    2    0    0  0.40848775886E+00  0.50344893528E+00  0.19035977381E+01  0.20109717621E+01  0.00000000000E+00 0.  1.
</event>
<event>
 5    1  0.1160133E+000  0.1599661E+01  0.7818608E-02  0.3353731E+00
         11   -1    0    0    0    0  0.00000000000E+00  0.00000000000E+00  0.39999999674E+01  0.40000000000E+01  0.51100000000E-03 0.  1.
    9000002   -1    0    0    0    0 -0.00000000000E+00 -0.00000000000E+00  0.00000000000E+00  0.93800000000E+00  0.93800000000E+00 0.  1.
         11    1    1    2    0    0  0.31974474677E-01 -0.89375215976E-02  0.10755452988E+00  0.11256324597E+00  0.51100000000E-03 0. -1.
    9000002    1    1    2    0    0 -0.92814866639E+00  0.30432974797E+00  0.75776621513E+00  0.15518151240E+01  0.93800000000E+00 0.  1.
         22    1    1    2    0    0  0.89617419172E+00 -0.29539222637E+00  0.31346792223E+01  0.32736216300E+01  0.00000000000E+00 0.  1.
</event>
<event>
 5    1  0.1210189E+000  0.1580449E+01  0.7818608E-02  0.3374860E+00
         11   -1    0    0    0    0  0.00000000000E+00  0.00000000000E+00  0.39999999674E+01  0.40000000000E+01  0.51100000000E-03 0. -1.
    9000002   -1    0    0    0    0 -0.00000000000E+00 -0.00000000000E+00  0.00000000000E+00  0.93800000000E+00  0.93800000000E+00 0. -1.
         11    1    1    2    0    0 -0.74468225988E-01 -0.43339628807E-01  0.11255587693E+01  0.11288519143E+01  0.51100000000E-03 0. -1.
    9000002    1    1    2    0    0  0.52939081628E+00  0.53934654239E+00  0.43844265632E+00  0.12818834939E+01  0.93800000000E+00 0. -1.
         22    1    1    2    0    0 -0.45492259030E+00 -0.49600691359E+00  0.24359985417E+01  0.25272645918E+01  0.00000000000E+00 0. -1.
</event>
<event>
 5    1  0.1289745E+000  0.1594817E+01  0.7818608E-02  0.3359008E+00
         11   -1    0    0    0    0  0.00000000000E+00  0.00000000000E+00  0.39999999674E+01  0.40000000000E+01  0.51100000000E-03 0.  1.
    9000002   -1    0    0    0    0 -0.00000000000E+00 -0.00000000000E+00  0.00000000000E+00  0.93800000000E+00  0.93800000000E+00 0. -1.
         11    1    1    2    0    0 -0.20202920746E+00  0.26719661277E-02  0.11733156313E+01  0.11905850544E+01  0.51100000000E-03 0.  1.
    9000002    1    1    2    0    0  0.83761630251E+00  0.36293888458E-02  0.53049446301E+00  0.13648745796E+01  0.93800000000E+00 0. -1.
         22    1    1    2    0    0 -0.63558709504E+00 -0.63013549735E-02  0.22961898731E+01  0.23825403660E+01  0.00000000000E+00 0.  1.
</event>
<event>
 5    1  0.1160133E+000  0.1599676E+01  0.7818608E-02  0.3353715E+00
         11   -1    0    0    0    0  0.00000000000E+00  0.00000000000E+00  0.39999999674E+01  0.40000000000E+01  0.51100000000E-03 0.  1.
    9000002   -1    0    0    0    0 -0.00000000000E+00 -0.00000000000E+00  0.00000000000E+00  0.93800000000E+00  0.93800000000E+00 0.  1.
         11    1    1    2    0    0  0.12826737568E+00  0.21495313022E+00  0.77927163473E+00  0.81848757453E+00  0.51100000000E-03 0.  1.
    9000002    1    1    2    0    0 -0.51692356053E+00 -0.87241426765E+00  0.83409250900E+00  0.16136514293E+01  0.93800000000E+00 0.  1.
         22    1    1    2    0    0  0.38865618485E+00  0.65746113744E+00  0.23866358236E+01  0.25058609961E+01  0.00000000000E+00 0.  1.
</event>
<event>
 5    1  0.1160133E+000  0.1261437E+01  0.7818608E-02  0.3858483E+00
         11   -1    0    0    0    0  0.00000000000E+00  0.00000000000E+00  0.39999999674E+01  0.40000000000E+01  0.51100000000E-03 0. -1.
    9000002   -1    0    0    0    0 -0.00000000000E+00 -0.00000000000E+00  0.00000000000E+00  0.93800000000E+00  0.93800000000E+00 0. -1.
         11    1    1    2    0    0  0.62528878409E+00 -0.38245655673E+00  0.12979773864E+01  0.14906390032E+01  0.51100000000E-03 0. -1.
    9000002    1    1    2    0    0 -0.34389532109E+00 -0.22041783779E+00  0.48416037131E+00  0.11318583305E+01  0.93800000000E+00 0. -1.
         22    1    1    2    0    0 -0.28139346300E+00  0.60287439452E+00  0.22178622097E+01  0.23155026663E+01  0.00000000000E+00 0.  1.
</event>
<event>
 5    1  0.1160133E+000  0.1591024E+01  0.7818608E-02  0.3363163E+00
         11   -1    0    0    0    0  0.00000000000E+00  0.00000000000E+00  0.39999999674E+01  0.40000000000E+01  0.51100000000E-03 0. -1.
    9000002   -1    0    0    0    0 -0.00000000000E+00 -0.00000000000E+00  0.00000000000E+00  0.93800000000E+00  0.93800000000E+00 0.  1.
         11    1    1    2    0    0  0.12035456280E+00 -0.67793632404E-01  0.86808626305E+00  0.87900808790E+00  0.51100000000E-03 0. -1.
    9000002    1    1    2    0    0 -0.67208957956E+00  0.59399747650E+00  0.62842271571E+00  0.14419765999E+01  0.93800000000E+00 0.  1.
         22    1    1    2    0    0  0.55173501676E+00 -0.52620384409E+00  0.25034909886E+01  0.26170153122E+01  0.00000000000E+00 0. -1.
</event>
<event>
 5    1  0.1802400E+000  0.1460723E+01  0.7818608E-02  0.3519946E+00
         11   -1    0    0    0    0  0.00000000000E+00  0.00000000000E+00  0.39999999674E+01  0.40000000000E+01  0.51100000000E-03 0. -1.
    9000002   -1    0    0    0    0 -0.00000000000E+00 -0.00000000000E+00  0.00000000000E+00  0.93800000000E+00  0.93800000000E+00 0.  1.
         11    1    1    2    0    0  0.18557298589E+00 -0.25476710536E+00  0.11684867589E+01  0.12102500476E+01  0.51100000000E-03 0. -1.
    9000002    1    1    2    0    0  0.23973149783E+00 -0.37026318666E+00  0.29023727780E+00  0.10764049869E+01  0.93800000000E+00 0.  1.
         22    1    1    2    0    0 -0.42530448371E+00  0.62503029201E+00  0.25412759307E+01  0.26513449654E+01  0.00000000000E+00 0. -1.
</event>
<event>
 5    1  0.1160133E+000  0.1592141E+01  0.7818608E-02  0.3361938E+00
         11   -1    0    0    0    0  0.00000000000E+00  0.00000000000E+00  0.39999999674E+01  0.40000000000E+01  0.51100000000E-03 0. -1.
    9000002   -1    0    0    0    0 -0.00000000000E+00 -0.00000000000E+00  0.00000000000E+00  0.93800000000E+00  0.93800000000E+00 0. -1.
         11    1    1    2    0    0  0.15261794753E+00  0.31159290523E+00  0.29576269681E+00  0.45591469646E+00  0.51100000000E-03 0. -1.
    9000002    1    1    2    0    0  0.33011706224E+00  0.41066578309E+00  0.54586134225E+00  0.12064129745E+01  0.93800000000E+00 0. -1.
         22    1    1    2    0    0 -0.48273500978E+00 -0.72225868832E+00  0.31583759283E+01  0.32756723290E+01  0.00000000000E+00 0. -1.
</event>
<event>
 5    1  0.1160133E+000  0.1599677E+01  0.7818608E-02  0.3353714E+00
         11   -1    0    0    0    0  0.00000000000E+00  0.00000000000E+00  0.39999999674E+01  0.40000000000E+01  0.51100000000E-03 0. -1.
    9000002   -1    0    0    0    0 -0.00000000000E+00 -0.00000000000E+00  0.00000000000E+00  0.93800000000E+00  0.93800000000E+00 0. -1.
         11    1    1    2    0    0  0.40577707498E+00  0.52360608580E-01  0.10314654759E+01  0.11096476725E+01  0.51100000000E-03 0. -1.
    9000002    1    1    2    0    0 -0.11250704899E+01 -0.14381047178E+00  0.11412384533E+01  0.18624538293E+01  0.93800000000E+00 0. -1.
         22    1    1    2    0    0  0.71929341492E+00  0.91449863195E-01  0.18272960382E+01  0.19658984982E+01  0.00000000000E+00 0. -1.
</event>
<event>
 5    1  0.1160133E+000  0.1584155E+01  0.7818608E-02  0.3370743E+00
         11   -1    0    0    0    0  0.00000000000E+00  0.00000000000E+00  0.39999999674E+01  0.40000000000E+01  0.51100000000E-03 0.  1.
    9000002   -1    0    0    0    0 -0.00000000000E+00 -0.00000000000E+00  0.00000000000E+00  0.93800000000E+00  0.93800000000E+00 0. -1.
         11    1    1    2    0    0  0.39924267806E+00 -0.12731333461E+00  0.67776983302E+00  0.79685356799E+00  0.51100000000E-03 0.  1.
    9000002    1    1    2    0    0  0.46208235583E+00 -0.18271122450E+00  0.49844737290E+00  0.11726880569E+01  0.93800000000E+00 0. -1.
         22    1    1    2    0    0 -0.86132503389E+00  0.31002455911E+00  0.28237827614E+01  0.29684583752E+01  0.00000000000E+00 0.  1.
</event>
<event>
 5    1  0.1160133E+000  0.1500782E+01  0.7818608E-02  0.3468632E+00
         11   -1    0    0    0    0  0.00000000000E+00  0.00000000000E+00  0.39999999674E+01  0.40000000000E+01  0.51100000000E-03 0. -1.
    9000002   -1    0    0    0    0 -0.00000000000E+00 -0.00000000000E+00  0.00000000000E+00  0.93800000000E+00  0.93800000000E+00 0. -1.
         11    1    1    2    0    0  0.11313468633E+00  0.11859204285E+00  0.11525050954E+00  0.20036584276E+00  0.51100000000E-03 0. -1.
    9000002    1    1    2    0    0 -0.77289040291E+00  0.52995505428E+00  0.87426648835E+00  0.15882058516E+01  0.93800000000E+00 0. -1.
         22    1    1    2    0    0  0.65975571658E+00 -0.64854709713E+00  0.30104829695E+01  0.31494283056E+01  0.00000000000E+00 0. -1.
</event>
<event>
 5    1  0.1160133E+000  0.1599601E+01  0.7818608E-02  0.3353797E+00
         11   -1    0    0    0    0  0.00000000000E+00  0.00000000000E+00  0.39999999674E+01  0.40000000000E+01  0.51100000000E-03 0. -1.
    9000002   -1    0    0    0    0 -0.00000000000E+00 -0.00000000000E+00  0.00000000000E+00  0.93800000000E+00  0.93800000000E+00 0. -1.
         11    1    1    2    0    0  0.33200073655E-01  0.38722050610E+00  0.12883130887E+01  0.13456570295E+01  0.51100000000E-03 0. -1.
    9000002    1    1    2    0    0 -0.10112144470E+00 -0.98529881361E+00  0.78513775438E+00  0.15739519027E+01  0.93800000000E+00 0. -1.
         22    1    1    2    0    0  0.67921371048E-01  0.59807830751E+00  0.19265491242E+01  0.20183910678E+01  0.00000000000E+00 0. -1.
</event>
<event>
 5    1  0.1160133E+000  0.1591453E+01  0.7818608E-02  0.3362693E+00
         11   -1    0    0    0    0  0.00000000000E+00  0.00000000000E+00  0.39999999674E+01  0.40000000000E+01  0.51100000000E-03 0. -1.
    9000002   -1    0    0    0    0 -0.00000000000E+00 -0.00000000000E+00  0.00000000000E+00  0.93800000000E+00  0.93800000000E+00 0.  1.
         11    1    1    2    0    0  0.16437573065E-01 -0.14267529619E-02  0.21071592161E+00  0.21136151536E+00  0.51100000000E-03 0. -1.
    9000002    1    1    2    0    0 -0.47962615759E+00 -0.79535613800E+00  0.68248932264E+00  0.14860243312E+01  0.93800000000E+00 0.  1.
         22    1    1    2    0    0  0.46318858453E+00  0.79678289096E+00  0.31067947231E+01  0.32406141535E+01  0.00000000000E+00 0. -1.
</event>
<event>
 5    1  0.1160133E+000  0.1547228E+01  0.7818608E-02  0.3412711E+00
         11   -1    0    0    0    0  0.00000000000E+00  0.00000000000E+00  0.39999999674E+01  0.40000000000E+01  0.51100000000E-03 0.  1.
    9000002   -1    0    0    0    0 -0.00000000000E+00 -0.00000000000E+00  0.00000000000E+00  0.93800000000E+00  0.93800000000E+00 0.  1.
         11    1    1    2    0    0 -0.27369319009E+00 -0.25683779545E+00  0.13451977801E+01  0.13965782986E+01  0.51100000000E-03 0.  1.
    9000002    1    1    2    0    0  0.14691312417E+00  0.99706435260E+00  0.93351724286E+00  0.16634359717E+01  0.93800000000E+00 0.  1.
         22    1    1    2    0    0  0.12678006592E+00 -0.74022655715E+00  0.17212849444E+01  0.18779857297E+01  0.00000000000E+00 0.  1.
</event>
<event>
 5    1  0.1160133E+000  0.1597230E+01  0.7818608E-02  0.3356375E+00
         11   -1    0    0    0    0  0.00000000000E+00  0.00000000000E+00  0.39999999674E+01  0.40000000000E+01  0.51100000000E-03 0. -1.
    9000002   -1    0    0    0    0 -0.00000000000E+00 -0.00000000000E+00  0.00000000000E+00  0.93800000000E+00  0.93800000000E+00 0. -1.
         11    1    1    2    0    0  0.11989251465E+00 -0.18300709250E+00  0.63504202025E+00  0.67167286649E+00  0.51100000000E-03 0. -1.
    9000002    1    1    2    0    0 -0.36839965332E+00  0.98324090036E+00  0.92028586446E+00  0.16820377656E+01  0.93800000000E+00 0. -1.
         22    1    1    2    0    0  0.24850713867E+00 -0.80023380786E+00  0.24446720827E+01  0.25842893679E+01  0.00000000000E+00 0. -1.
</event>
<event>
 5    1  0.1160133E+000  0.1599668E+01  0.7818608E-02  0.3353724E+00
         11   -1    0    0    0    0  0.00000000000E+00  0.00000000000E+00  0.39999999674E+01  0.40000000000E+01  0.51100000000E-03 0.  1.
    9000002   -1    0    0    0    0 -0.00000000000E+00 -0.00000000000E+00  0.00000000000E+00  0.93800000000E+00  0.93800000000E+00 0. -1.
         11    1    1    2    0    0  0.89699177420E-01  0.95087606052E-02  0.23243157938E+00  0.24932119680E+00  0.51100000000E-03 0.  1.
    9000002    1    1    2    0    0 -0.11271689904E+01 -0.12509480382E+00  0.11408473065E+01  0.18621319018E+01  0.93800000000E+00 0. -1.
         22    1    1    2    0    0  0.10374698130E+01  0.11558604321E+00  0.26267210814E+01  0.28265469014E+01  0.00000000000E+00 0. -1.
</event>
<event>
 5    1  0.1160133E+000  0.1599673E+01  0.7818608E-02  0.3353718E+00
         11   -1    0    0    0    0  0.00000000000E+00  0.00000000000E+00  0.39999999674E+01  0.40000000000E+01  0.51100000000E-03 0.  1.
    9000002   -1    0    0    0    0 -0.00000000000E+00 -0.00000000000E+00  0.00000000000E+00  0.93800000000E+00  0.93800000000E+00 0.  1.
         11    1    1    2    0    0  0.76368768477E-01  0.46949685753E-01  0.21426281525E+00  0.23226122559E+00  0.51100000000E-03 0.  1.
    9000002    1    1    2    0    0 -0.98247052514E+00 -0.60432880647E+00  0.12028991194E+01  0.19123995217E+01  0.93800000000E+00 0.  1.
         22    1    1    2    0    0  0.90610175666E+00  0.55737912072E+00  0.25828380327E+01  0.27933392527E+01  0.00000000000E+00 0.  1.
</event>
<event>
 5    1  0.1160133E+000  0.1599598E+01  0.7818608E-02  0.3353800E+00
         11   -1    0    0    0    0  0.00000000000E+00  0.00000000000E+00  0.39999999674E+01  0.40000000000E+01  0.51100000000E-03 0.  1.
    9000002   -1    0    0    0    0 -0.00000000000E+00 -0.00000000000E+00  0.00000000000E+00  0.93800000000E+00  0.93800000000E+00 0.  1.
         11    1    1    2    0    0 -0.35703056912E-01  0.51908538656E-01  0.19706830375E+00  0.20689461598E+00  0.51100000000E-03 0.  1.
    9000002    1    1    2    0    0  0.63720220982E+00 -0.78112039595E+00  0.82147326656E+00  0.16033833156E+01  0.93800000000E+00 0.  1.
         22    1    1    2    0    0 -0.60149915290E+00  0.72921185729E+00  0.29814583971E+01  0.31277220684E+01  0.00000000000E+00 0.  1.
</event>
<event>
 5    1  0.1160133E+000  0.1599677E+01  0.7818608E-02  0.3353714E+00
         11   -1    0    0    0    0  0.00000000000E+00  0.00000000000E+00  0.39999999674E+01  0.40000000000E+01  0.51100000000E-03 0.  1.
    9000002   -1    0    0    0    0 -0.00000000000E+00 -0.00000000000E+00  0.00000000000E+00  0.93800000000E+00  0.93800000000E+00 0.  1.
         11    1    1    2    0    0  0.19697112857E+00 -0.96784923917E-01  0.76599692995E+00  0.79681648125E+00  0.51100000000E-03 0. -1.
    9000002    1    1    2    0    0 -0.84895392475E+00  0.41670456698E+00  0.69912465687E+00  0.15043220228E+01  0.93800000000E+00 0.  1.
         22    1    1    2    0    0  0.65198279619E+00 -0.31991964306E+00  0.25348783805E+01  0.26368614959E+01  0.00000000000E+00 0.  1.
</event>
<event>
 5    1  0.1160133E+000  0.1599677E+01  0.7818608E-02  0.3353714E+00
         11   -1    0    0    0    0  0.00000000000E+00  0.00000000000E+00  0.39999999674E+01  0.40000000000E+01  0.51100000000E-03 0. -1.
    9000002   -1    0    0    0    0 -0.00000000000E+00 -0.00000000000E+00  0.00000000000E+00  0.93800000000E+00  0.93800000000E+00 0.  1.
         11    1    1    2    0    0 -0.45885922612E+00 -0.54950187278E-01  0.12389192477E+01  0.13223057422E+01  0.51100000000E-03 0. -1.
    9000002    1    1    2    0    0  0.10941232058E+01  0.13173948339E+00  0.10473772045E+01  0.17864220916E+01  0.93800000000E+00 0.  1.
         22    1    1    2    0    0 -0.63526397969E+00 -0.76789296111E-01  0.17137035152E+01  0.18292721662E+01  0.00000000000E+00 0. -1.
</event>
<event>
 5    1  0.1160133E+000  0.1598509E+01  0.7818608E-02  0.3354984E+00
         11   -1    0    0    0    0  0.00000000000E+00  0.00000000000E+00  0.39999999674E+01  0.40000000000E+01  0.51100000000E-03 0.  1.
    9000002   -1    0    0    0    0 -0.00000000000E+00 -0.00000000000E+00  0.00000000000E+00  0.93800000000E+00  0.93800000000E+00 0. -1.
         11    1    1    2    0    0  0.17242896811E+00  0.27466233537E+00  0.13763472630E+01  0.14140379051E+01  0.51100000000E-03 0.  1.
    9000002    1    1    2    0    0 -0.39954537964E+00 -0.77952528531E+00  0.58312451444E+00  0.14096717278E+01  0.93800000000E+00 0. -1.
         22    1    1    2    0    0  0.22711641153E+00  0.50486294994E+00  0.20405281899E+01  0.21142903671E+01  0.00000000000E+00 0.  1.
</event>
<event>
 5    1  0.1160133E+000  0.1599577E+01  0.7818608E-02  0.3353822E+00
         11   -1    0    0    0    0  0.00000000000E+00  0.00000000000E+00  0.39999999674E+01  0.40000000000E+01  0.51100000000E-03 0.  1.
    9000002   -1    0    0    0    0 -0.00000000000E+00 -0.00000000000E+00  0.00000000000E+00  0.93800000000E+00  0.93800000000E+00 0.  1.
         11    1    1    2    0    0 -0.45392651404E+00 -0.17297859236E+00  0.13656681553E+01  0.14494897879E+01  0.51100000000E-03 0.  1.
    9000002    1    1    2    0    0  0.99006042365E+00  0.37943733984E+00  0.93969394674E+00  0.16991353833E+01  0.93800000000E+00 0.  1.
         22    1    1    2    0    0 -0.53613390960E+00 -0.20645874748E+00  0.16946378653E+01  0.17893748288E+01  0.00000000000E+00 0.  1.
</event>
<event>
 5    1  0.1160133E+000  0.1599556E+01  0.7818608E-02  0.3353845E+00
         11   -1    0    0    0    0  0.00000000000E+00  0.00000000000E+00  0.39999999674E+01  0.40000000000E+01  0.51100000000E-03 0.  1.
    9000002   -1    0    0    0    0 -0.00000000000E+00 -0.00000000000E+00  0.00000000000E+00  0.93800000000E+00  0.93800000000E+00 0. -1.
         11    1    1    2    0    0  0.12990752114E+00  0.52180532063E-02  0.49422249974E+00  0.51103750596E+00  0.51100000000E-03 0.  1.
    9000002    1    1    2    0    0 -0.91001633678E+00 -0.93095623368E-01  0.64488341638E+00  0.14603133736E+01  0.93800000000E+00 0.  1.
         22    1    1    2    0    0  0.78010881564E+00  0.87877570161E-01  0.28608940512E+01  0.29666491205E+01  0.00000000000E+00 0.  1.
</event>
<event>
 5    1  0.1259500E+000  0.1599665E+01  0.7818608E-02  0.3353727E+00
         11   -1    0    0    0    0  0.00000000000E+00  0.00000000000E+00  0.39999999674E+01  0.40000000000E+01  0.51100000000E-03 0.  1.
    9000002   -1    0    0    0    0 -0.00000000000E+00 -0.00000000000E+00  0.00000000000E+00  0.93800000000E+00  0.93800000000E+00 0.  1.
         11    1    1    2    0    0  0.34054235062E+00 -0.21288099764E+00  0.14339033902E+01  0.14890824710E+01  0.51100000000E-03 0.  1.
    9000002    1    1    2    0    0 -0.78288519893E+00  0.49965234987E+00  0.66883502368E+00  0.14797790356E+01  0.93800000000E+00 0.  1.
         22    1    1    2    0    0  0.44234284831E+00 -0.28677135223E+00  0.18972615535E+01  0.19691384934E+01  0.00000000000E+00 0.  1.
</event>
<event>
 5    1  0.1160133E+000  0.1490137E+01  0.7818608E-02  0.3481977E+00
         11   -1    0    0    0    0  0.00000000000E+00  0.00000000000E+00  0.39999999674E+01  0.40000000000E+01  0.51100000000E-03 0. -1.
    9000002   -1    0    0    0    0 -0.00000000000E+00 -0.00000000000E+00  0.00000000000E+00  0.93800000000E+00  0.93800000000E+00 0. -1.
         11    1    1    2    0    0  0.13876487916E+00  0.18882337316E-01  0.13476304194E+01  0.13548875388E+01  0.51100000000E-03 0. -1.
    9000002    1    1    2    0    0  0.64243351595E+00  0.15166875849E+00  0.43623436026E+00  0.12271383996E+01  0.93800000000E+00 0. -1.
         22    1    1    2    0    0 -0.78119839511E+00 -0.17055109581E+00  0.22161351877E+01  0.23559740616E+01  0.00000000000E+00 0. -1.
</event>
<event>
 5    1  0.1160133E+000  0.1599619E+01  0.7818608E-02  0.3353777E+00
         11   -1    0    0    0    0  0.00000000000E+00  0.00000000000E+00  0.39999999674E+01  0.40000000000E+01  0.51100000000E-03 0.  1.
    9000002   -1    0    0    0    0 -0.00000000000E+00 -0.00000000000E+00  0.00000000000E+00  0.93800000000E+00  0.93800000000E+00 0.  1.
         11    1    1    2    0    0  0.10767079772E+00  0.17665793302E-01  0.37243362470E+00  0.38808780818E+00  0.51100000000E-03 0.  1.
    9000002    1    1    2    0    0 -0.92814602173E+00 -0.20143889209E+00  0.70662149738E+00  0.15103610845E+01  0.93800000000E+00 0.  1.
         22    1    1    2    0    0  0.82047522401E+00  0.18377309879E+00  0.29209448453E+01  0.30395511074E+01  0.00000000000E+00 0.  1.
</event>
<event>
 5    1  0.1160133E+000  0.1599669E+01  0.7818608E-02  0.3353722E+00
         11   -1    0    0    0    0  0.00000000000E+00  0.00000000000E+00  0.39999999674E+01  0.40000000000E+01  0.51100000000E-03 0.  1.
    9000002   -1    0    0    0    0 -0.00000000000E+00 -0.00000000000E+00  0.00000000000E+00  0.93800000000E+00  0.93800000000E+00 0.  1.
         11    1    1    2    0    0  0.24285261362E+00 -0.62484697174E-01  0.70134552031E+00  0.74482718083E+00  0.51100000000E-03 0.  1.
    9000002    1    1    2    0    0 -0.10414593163E+01  0.25960123804E+00  0.97175959208E+00  0.17251640545E+01  0.93800000000E+00 0.  1.
         22    1    1    2    0    0  0.79860670266E+00 -0.19711654086E+00  0.23268948550E+01  0.24680087646E+01  0.00000000000E+00 0.  1.
</event>
<event>
 5    1  0.1160133E+000  0.1599676E+01  0.7818608E-02  0.3353715E+00
         11   -1    0    0    0    0  0.00000000000E+00  0.00000000000E+00  0.39999999674E+01  0.40000000000E+01  0.51100000000E-03 0.  1.
    9000002   -1    0    0    0    0 -0.00000000000E+00 -0.00000000000E+00  0.00000000000E+00  0.93800000000E+00  0.93800000000E+00 0.  1.
         11    1    1    2    0    0  0.57181257450E+00 -0.11845377174E+00  0.10722216071E+01  0.12209260224E+01  0.51100000000E-03 0.  1.
    9000002    1    1    2    0    0 -0.12330471895E+01  0.25373748286E+00  0.16860956041E+01  0.23038121599E+01  0.93800000000E+00 0.  1.
         22    1    1    2    0    0  0.66123461496E+00 -0.13528371113E+00  0.12416827561E+01  0.14132618177E+01  0.00000000000E+00 0.  1.
</event>
<event>
 5    1  0.1160133E+000  0.1599559E+01  0.7818608E-02  0.3353842E+00
         11   -1    0    0    0    0  0.00000000000E+00  0.00000000000E+00  0.39999999674E+01  0.40000000000E+01  0.51100000000E-03 0. -1.
    9000002   -1    0    0    0    0 -0.00000000000E+00 -0.00000000000E+00  0.00000000000E+00  0.93800000000E+00  0.93800000000E+00 0. -1.
         11    1    1    2    0    0 -0.67023501422E+00 -0.21548444419E+00  0.11409730430E+01  0.13406969330E+01  0.51100000000E-03 0. -1.
    9000002    1    1    2    0    0  0.12294284674E+01  0.37932167859E+00  0.19490373499E+01  0.25167379450E+01  0.93800000000E+00 0. -1.
         22    1    1    2    0    0 -0.55919345320E+00 -0.16383723440E+00  0.90998957443E+00  0.10805651221E+01  0.00000000000E+00 0. -1.
</event>
<event>
 5    1  0.1160133E+000  0.1599175E+01  0.7818608E-02  0.3354260E+00
         11   -1    0    0    0    0  0.00000000000E+00  0.00000000000E+00  0.39999999674E+01  0.40000000000E+01  0.51100000000E-03 0. -1.
    9000002   -1    0    0    0    0 -0.00000000000E+00 -0.00000000000E+00  0.00000000000E+00  0.93800000000E+00  0.93800000000E+00 0.  1.
         11    1    1    2    0    0 -0.71312546712E-01 -0.83118373911E-01  0.47038975382E+00  0.48297093600E+00  0.51100000000E-03 0. -1.
    9000002    1    1    2    0    0  0.57530151728E+00  0.71264551290E+00  0.64738829167E+00  0.14621186898E+01  0.93800000000E+00 0.  1.
         22    1    1    2    0    0 -0.50398897056E+00 -0.62952713899E+00  0.28822219219E+01  0.29929103742E+01  0.00000000000E+00 0. -1.
</event>
<event>
 5    1  0.1160133E+000  0.1599672E+01  0.7818608E-02  0.3353719E+00
         11   -1    0    0    0    0  0.00000000000E+00  0.00000000000E+00  0.39999999674E+01  0.40000000000E+01  0.51100000000E-03 0.  1.
    9000002   -1    0    0    0    0 -0.00000000000E+00 -0.00000000000E+00  0.00000000000E+00  0.93800000000E+00  0.93800000000E+00 0. -1.
         11    1    1    2    0    0  0.19545359145E-01  0.15906932341E-01  0.87640979953E-01  0.91193497842E-01  0.51100000000E-03 0.  1.
    9000002    1    1    2    0    0 -0.71839154709E+00 -0.61885753770E+00  0.70366915200E+00  0.15080004451E+01  0.93800000000E+00 0. -1.
         22    1    1    2    0    0  0.69884618794E+00  0.60295060536E+00  0.32086898354E+01  0.33388060571E+01  0.00000000000E+00 0.  1.
</event>
<event>
 5    1  0.1160133E+000  0.1593490E+01  0.7818608E-02  0.3360459E+00
         11   -1    0    0    0    0  0.00000000000E+00  0.00000000000E+00  0.39999999674E+01  0.40000000000E+01  0.51100000000E-03 0.  1.
    9000002   -1    0    0    0    0 -0.00000000000E+00 -0.00000000000E+00  0.00000000000E+00  0.93800000000E+00  0.93800000000E+00 0.  1.
         11    1    1    2    0    0 -0.78903153926E-03 -0.20655919863E-01  0.10119646009E+00  0.10328733829E+00  0.51100000000E-03 0.  1.
    9000002    1    1    2    0    0  0.99016424021E+00  0.24961111356E+00  0.86214747661E+00  0.16327501958E+01  0.93800000000E+00 0.  1.
         22    1    1    2    0    0 -0.98937520867E+00 -0.22895519370E+00  0.30366560307E+01  0.32019624659E+01  0.00000000000E+00 0.  1.
</event>
<event>
 5    1  0.1160133E+000  0.1595997E+01  0.7818608E-02  0.3357720E+00
         11   -1    0    0    0    0  0.00000000000E+00  0.00000000000E+00  0.39999999674E+01  0.40000000000E+01  0.51100000000E-03 0. -1.
    9000002   -1    0    0    0    0 -0.00000000000E+00 -0.00000000000E+00  0.00000000000E+00  0.93800000000E+00  0.93800000000E+00 0. -1.
         11    1    1    2    0    0 -0.90809852491E-01  0.63178498578E-01  0.40740622227E+00  0.42215878892E+00  0.51100000000E-03 0. -1.
    9000002    1    1    2    0    0  0.52738745265E+00 -0.83371870709E+00  0.78394316188E+00  0.15708708696E+01  0.93800000000E+00 0. -1.
         22    1    1    2    0    0 -0.43657760016E+00  0.77054020851E+00  0.28086505832E+01  0.29449703415E+01  0.00000000000E+00 0. -1.
</event>
<event>
 5    1  0.1160133E+000  0.1599674E+01  0.7818608E-02  0.3353717E+00
         11   -1    0    0    0    0  0.00000000000E+00  0.00000000000E+00  0.39999999674E+01  0.40000000000E+01  0.51100000000E-03 0. -1.
    9000002   -1    0    0    0    0 -0.00000000000E+00 -0.00000000000E+00  0.00000000000E+00  0.93800000000E+00  0.93800000000E+00 0.  1.
         11    1    1    2    0    0 -0.16847934743E+00  0.22222805456E+00  0.10247493269E+01  0.10620179108E+01  0.51100000000E-03 0. -1.
    9000002    1    1    2    0    0  0.55051672790E+00 -0.72397484382E+00  0.63581213231E+00  0.14530345178E+01  0.93800000000E+00 0.  1.
         22    1    1    2    0    0 -0.38203738047E+00  0.50174678926E+00  0.23394385081E+01  0.24229475714E+01  0.00000000000E+00 0. -1.
</event>
<event>
 5    1  0.1160133E+000  0.1598829E+01  0.7818608E-02  0.3354635E+00
         11   -1    0    0    0    0  0.00000000000E+00  0.00000000000E+00  0.39999999674E+01  0.40000000000E+01  0.51100000000E-03 0. -1.
    9000002   -1    0    0    0    0 -0.00000000000E+00 -0.00000000000E+00  0.00000000000E+00  0.93800000000E+00  0.93800000000E+00 0.  1.
         11    1    1    2    0    0  0.10170116580E+00 -0.98411827465E-01  0.43755289283E+00  0.45987042746E+00  0.51100000000E-03 0. -1.
    9000002    1    1    2    0    0 -0.82349065389E+00  0.56238346334E+00  0.80033427393E+00  0.15858092467E+01  0.93800000000E+00 0.  1.
         22    1    1    2    0    0  0.72178948810E+00 -0.46397163588E+00  0.27621128006E+01  0.28923203258E+01  0.00000000000E+00 0. -1.
</event>
<event>
 5    1  0.1160133E+000  0.1570331E+01  0.7818608E-02  0.3386208E+00
         11   -1    0    0    0    0  0.00000000000E+00  0.00000000000E+00  0.39999999674E+01  0.40000000000E+01  0.51100000000E-03 0.  1.
    9000002   -1    0    0    0    0 -0.00000000000E+00 -0.00000000000E+00  0.00000000000E+00  0.93800000000E+00  0.93800000000E+00 0.  1.
         11    1    1    2    0    0 -0.30520993901E+00  0.14718663514E+00  0.91174014294E+00  0.97267022254E+00  0.51100000000E-03 0.  1.
    9000002    1    1    2    0    0  0.59173429994E+00 -0.94102137271E+00  0.11598022636E+01  0.18602838483E+01  0.93800000000E+00 0.  1.
         22    1    1    2    0    0 -0.28652436092E+00  0.79383473756E+00  0.19284575608E+01  0.21050459292E+01  0.00000000000E+00 0. -1.
</event>
<event>
 5    1  0.1160133E+000  0.1599675E+01  0.7818608E-02  0.3353716E+00
         11   -1    0    0    0    0  0.00000000000E+00  0.00000000000E+00  0.39999999674E+01  0.40000000000E+01  0.51100000000E-03 0.  1.
    9000002   -1    0    0    0    0 -0.00000000000E+00 -0.00000000000E+00  0.00000000000E+00  0.93800000000E+00  0.93800000000E+00 0.  1.
         11    1    1    2    0    0 -0.11503566901E+00 -0.33396375398E+00  0.10180313980E+01  0.10775681800E+01  0.51100000000E-03 0.  1.
    9000002    1    1    2    0    0  0.34201330489E+00  0.10056616482E+01  0.94421372498E+00  0.17028540777E+01  0.93800000000E+00 0.  1.
         22    1    1    2    0    0 -0.22697763588E+00 -0.67169789425E+00  0.20377548444E+01  0.21575777423E+01  0.00000000000E+00 0.  1.
</event>
<event>
 5    1  0.1160133E+000  0.1015884E+01  0.7818608E-02  0.4528276E+00
         11   -1    0    0    0    0  0.00000000000E+00  0.00000000000E+00  0.39999999674E+01  0.40000000000E+01  0.51100000000E-03 0.  1.
    9000002   -1    0    0    0    0 -0.00000000000E+00 -0.00000000000E+00  0.00000000000E+00  0.93800000000E+00  0.93800000000E+00 0.  1.
         11    1    1    2    0    0 -0.30457444131E+00  0.86082441234E+00  0.11840832031E+01  0.14952717319E+01  0.51100000000E-03 0.  1.
    9000002    1    1    2    0    0 -0.17217063556E+00  0.14785790990E-01  0.10798899739E+01  0.14407871818E+01  0.93800000000E+00 0. -1.
         22    1    1    2    0    0  0.47674507687E+00 -0.87561020333E+00  0.17360267903E+01  0.20019410863E+01  0.00000000000E+00 0.  1.
</event>
<event>
 5    1  0.1160133E+000  0.1598879E+01  0.7818608E-02  0.3354581E+00
         11   -1    0    0    0    0  0.00000000000E+00  0.00000000000E+00  0.39999999674E+01  0.40000000000E+01  0.51100000000E-03 0.  1.
    9000002   -1    0    0    0    0 -0.00000000000E+00 -0.00000000000E+00  0.00000000000E+00  0.93800000000E+00  0.93800000000E+00 0. -1.
         11    1    1    2    0    0  0.16238541688E-01  0.22853439365E+00  0.84445054169E+00  0.87497922135E+00  0.51100000000E-03 0.  1.
    9000002    1    1    2    0    0 -0.18111669409E+00 -0.90586930705E+00  0.66149082171E+00  0.14733691206E+01  0.93800000000E+00 0. -1.
         22    1    1    2    0    0  0.16487815241E+00  0.67733491340E+00  0.24940586040E+01  0.25896516581E+01  0.00000000000E+00 0.  1.
</event>
<event>
 5    1  0.1160133E+000  0.1599633E+01  0.7818608E-02  0.3353762E+00
         11   -1    0    0    0    0  0.00000000000E+00  0.00000000000E+00  0.39999999674E+01  0.40000000000E+01  0.51100000000E-03 0.  1.
    9000002   -1    0    0    0    0 -0.00000000000E+00 -0.00000000000E+00  0.00000000000E+00  0.93800000000E+00  0.93800000000E+00 0.  1.
         11    1    1    2    0    0 -0.59260520793E-01 -0.16266591614E+00  0.58653873973E+00  0.61155536456E+00  0.51100000000E-03 0.  1.
    9000002    1    1    2    0    0  0.34793223062E+00  0.92198988828E+00  0.77499174315E+00  0.15657517023E+01  0.93800000000E+00 0.  1.
         22    1    1    2    0    0 -0.28867170983E+00 -0.75932397215E+00  0.26384694845E+01  0.27606929332E+01  0.00000000000E+00 0.  1.
</event>
<event>
 5    1  0.1160133E+000  0.1599677E+01  0.7818608E-02  0.3353714E+00
         11   -1    0    0    0    0  0.00000000000E+00  0.00000000000E+00  0.39999999674E+01  0.40000000000E+01  0.51100000000E-03 0. -1.
    9000002   -1    0    0    0    0 -0.00000000000E+00 -0.00000000000E+00  0.00000000000E+00  0.93800000000E+00  0.93800000000E+00 0. -1.
         11    1    1    2    0    0  0.17937965316E-01 -0.71557497439E+00  0.13099879438E+01  0.14927953606E+01  0.51100000000E-03 0. -1.
    9000002    1    1    2    0    0 -0.31436010746E-01  0.12597743914E+01  0.16951418816E+01  0.23111403546E+01  0.93800000000E+00 0. -1.
         22    1    1    2    0    0  0.13498045430E-01 -0.54419941700E+00  0.99487014191E+00  0.11340642848E+01  0.00000000000E+00 0. -1.
</event>
<event>
 5    1  0.1160133E+000  0.1584320E+01  0.7818608E-02  0.3370560E+00
         11   -1    0    0    0    0  0.00000000000E+00  0.00000000000E+00  0.39999999674E+01  0.40000000000E+01  0.51100000000E-03 0. -1.
    9000002   -1    0    0    0    0 -0.00000000000E+00 -0.00000000000E+00  0.00000000000E+00  0.93800000000E+00  0.93800000000E+00 0.  1.
         11    1    1    2    0    0 -0.17450335549E-01  0.15825950700E+00  0.70499760549E+00  0.72275339545E+00  0.51100000000E-03 0. -1.
    9000002    1    1    2    0    0  0.59690672583E+00 -0.86995178082E+00  0.96230397411E+00  0.17085042227E+01  0.93800000000E+00 0.  1.
         22    1    1    2    0    0 -0.57945639028E+00  0.71169227382E+00  0.23326983878E+01  0.25067423819E+01  0.00000000000E+00 0. -1.
</event>
<event>
 5    1  0.1160133E+000  0.1599041E+01  0.7818608E-02  0.3354405E+00
         11   -1    0    0    0    0  0.00000000000E+00  0.00000000000E+00  0.39999999674E+01  0.40000000000E+01  0.51100000000E-03 0.  1.
    9000002   -1    0    0    0    0 -0.00000000000E+00 -0.00000000000E+00  0.00000000000E+00  0.93800000000E+00  0.93800000000E+00 0. -1.
         11    1    1    2    0    0 -0.71844103014E-02  0.81745916445E-01  0.24589798839E+00  0.25922980620E+00  0.51100000000E-03 0.  1.
    9000002    1    1    2    0    0 -0.51971833790E-01 -0.93881134338E+00  0.69031320223E+00  0.14968113198E+01  0.93800000000E+00 0. -1.
         22    1    1    2    0    0  0.59156244092E-01  0.85706542693E+00  0.30637887767E+01  0.31819588740E+01  0.00000000000E+00 0.  1.
</event>
<event>
 5    1  0.1160133E+000  0.1599670E+01  0.7818608E-02  0.3353722E+00
         11   -1    0    0    0    0  0.00000000000E+00  0.00000000000E+00  0.39999999674E+01  0.40000000000E+01  0.51100000000E-03 0. -1.
    9000002   -1    0    0    0    0 -0.00000000000E+00 -0.00000000000E+00  0.00000000000E+00  0.93800000000E+00  0.93800000000E+00 0. -1.
         11    1    1    2    0    0  0.18009271527E+00 -0.10690789807E+00  0.32375611458E+00  0.38559171102E+00  0.51100000000E-03 0. -1.
    9000002    1    1    2    0    0 -0.11043872826E+01  0.66489793326E+00  0.19853120810E+01  0.25461870690E+01  0.93800000000E+00 0. -1.
         22    1    1    2    0    0  0.92429456730E+00 -0.55799003519E+00  0.16909317718E+01  0.20062212199E+01  0.00000000000E+00 0. -1.
</event>
<event>
 5    1  0.1160133E+000  0.1552087E+01  0.7818608E-02  0.3407066E+00
         11   -1    0    0    0    0  0.00000000000E+00  0.00000000000E+00  0.39999999674E+01  0.40000000000E+01  0.51100000000E-03 0.  1.
    9000002   -1    0    0    0    0 -0.00000000000E+00 -0.00000000000E+00  0.00000000000E+00  0.93800000000E+00  0.93800000000E+00 0. -1.
         11    1    1    2    0    0  0.36691222857E+00  0.55100031624E+00  0.11990658859E+01  0.13696660877E+01  0.51100000000E-03 0.  1.
    9000002    1    1    2    0    0 -0.21519493272E+00 -0.11627397337E+01  0.15272239340E+01  0.21472143563E+01  0.93800000000E+00 0.  1.
         22    1    1    2    0    0 -0.15171729585E+00  0.61173941743E+00  0.12737101474E+01  0.14211195559E+01  0.00000000000E+00 0.  1.
</event>
<event>
 5    1  0.1160133E+000  0.1599676E+01  0.7818608E-02  0.3353715E+00
         11   -1    0    0    0    0  0.00000000000E+00  0.00000000000E+00  0.39999999674E+01  0.40000000000E+01  0.51100000000E-03 0. -1.
    9000002   -1    0    0    0    0 -0.00000000000E+00 -0.00000000000E+00  0.00000000000E+00  0.93800000000E+00  0.93800000000E+00 0.  1.
         11    1    1    2    0    0  0.19205171291E+00  0.43213616681E+00  0.14067950453E+01  0.14841489439E+01  0.51100000000E-03 0. -1.
    9000002    1    1    2    0    0 -0.42583327711E+00 -0.95124231299E+00  0.89669560871E+00  0.16643626205E+01  0.93800000000E+00 0.  1.
         22    1    1    2    0    0  0.23378156420E+00  0.51910614617E+00  0.16965093134E+01  0.17894884356E+01  0.00000000000E+00 0. -1.
</event>
<event>
 5    1  0.1160133E+000  0.1599676E+01  0.7818608E-02  0.3353716E+00
         11   -1    0    0    0    0  0.00000000000E+00  0.00000000000E+00  0.39999999674E+01  0.40000000000E+01  0.51100000000E-03 0.  1.
    9000002   -1    0    0    0    0 -0.00000000000E+00 -0.00000000000E+00  0.00000000000E+00  0.93800000000E+00  0.93800000000E+00 0. -1.
         11    1    1    2    0    0  0.74609551770E-01  0.34530810243E+00  0.12556933112E+01  0.13044424954E+01  0.51100000000E-03 0.  1.
    9000002    1    1    2    0    0 -0.19960805403E+00 -0.91515946337E+00  0.68284601285E+00  0.14911347679E+01  0.93800000000E+00 0. -1.
         22    1    1    2    0    0  0.12499850226E+00  0.56985136095E+00  0.20614606433E+01  0.21424227368E+01  0.00000000000E+00 0. -1.
</event>
<event>
 5    1  0.1160133E+000  0.1597313E+01  0.7818608E-02  0.3356285E+00
         11   -1    0    0    0    0  0.00000000000E+00  0.00000000000E+00  0.39999999674E+01  0.40000000000E+01  0.51100000000E-03 0. -1.
    9000002   -1    0    0    0    0 -0.00000000000E+00 -0.00000000000E+00  0.00000000000E+00  0.93800000000E+00  0.93800000000E+00 0. -1.
         11    1    1    2    0    0  0.52833992686E+00  0.66895064082E-02  0.10062114291E+01  0.11365076019E+01  0.51100000000E-03 0. -1.
    9000002    1    1    2    0    0 -0.12047184181E+01  0.21848274778E-01  0.14071873680E+01  0.20764980382E+01  0.93800000000E+00 0. -1.
         22    1    1    2    0    0  0.67637849127E+00 -0.28537781187E-01  0.15866011702E+01  0.17249943599E+01  0.00000000000E+00 0. -1.
</event>
<event>
 5    1  0.1160133E+000  0.1599675E+01  0.7818608E-02  0.3353716E+00
         11   -1    0    0    0    0  0.00000000000E+00  0.00000000000E+00  0.39999999674E+01  0.40000000000E+01  0.51100000000E-03 0.  1.
    9000002   -1    0    0    0    0 -0.00000000000E+00 -0.00000000000E+00  0.00000000000E+00  0.93800000000E+00  0.93800000000E+00 0.  1.
         11    1    1    2    0    0  0.39473891007E+00  0.27588441138E+00  0.10501151911E+01  0.11552805682E+01  0.51100000000E-03 0.  1.
    9000002    1    1    2    0    0 -0.98393489722E+00 -0.68663991021E+00  0.13752537939E+01  0.20520158981E+01  0.93800000000E+00 0.  1.
         22    1    1    2    0    0  0.58919598716E+00  0.41075549883E+00  0.15746309823E+01  0.17307035337E+01  0.00000000000E+00 0.  1.
</event>
<event>
 5    1  0.1160133E+000  0.1552783E+01  0.7818608E-02  0.3406261E+00
         11   -1    0    0    0    0  0.00000000000E+00  0.00000000000E+00  0.39999999674E+01  0.40000000000E+01  0.51100000000E-03 0.  1.
    9000002   -1    0    0    0    0 -0.00000000000E+00 -0.00000000000E+00  0.00000000000E+00  0.93800000000E+00  0.93800000000E+00 0.  1.
         11    1    1    2    0    0 -0.26797932197E+00  0.29388432562E+00  0.82820535695E+00  0.91875202762E+00  0.51100000000E-03 0.  1.
    9000002    1    1    2    0    0 -0.14249499239E+00  0.54696903314E+00  0.53000574269E+00  0.12166470455E+01  0.93800000000E+00 0.  1.
         22    1    1    2    0    0  0.41047431436E+00 -0.84085335876E+00  0.26417888677E+01  0.28026009269E+01  0.00000000000E+00 0.  1.
</event>
<event>
 5    1  0.1160133E+000  0.1584185E+01  0.7818608E-02  0.3370710E+00
         11   -1    0    0    0    0  0.00000000000E+00  0.00000000000E+00  0.39999999674E+01  0.40000000000E+01  0.51100000000E-03 0. -1.
    9000002   -1    0    0    0    0 -0.00000000000E+00 -0.00000000000E+00  0.00000000000E+00  0.93800000000E+00  0.93800000000E+00 0. -1.
         11    1    1    2    0    0 -0.32916600057E-01 -0.14787234575E+00  0.34072858779E+00  0.37288867623E+00  0.51100000000E-03 0. -1.
    9000002    1    1    2    0    0  0.77151429109E+00  0.63610122134E+00  0.83492569246E+00  0.16052426536E+01  0.93800000000E+00 0. -1.
         22    1    1    2    0    0 -0.73859769103E+00 -0.48822887559E+00  0.28243456871E+01  0.29598686701E+01  0.00000000000E+00 0. -1.
</event>
<event>
 5    1  0.1160133E+000  0.1599676E+01  0.7818608E-02  0.3353715E+00
         11   -1    0    0    0    0  0.00000000000E+00  0.00000000000E+00  0.39999999674E+01  0.40000000000E+01  0.51100000000E-03 0.  1.
    9000002   -1    0    0    0    0 -0.00000000000E+00 -0.00000000000E+00  0.00000000000E+00  0.93800000000E+00  0.93800000000E+00 0. -1.
         11    1    1    2    0    0 -0.16853824843E+00  0.28292228122E+00  0.11584583191E+01  0.12043571300E+01  0.51100000000E-03 0.  1.
    9000002    1    1    2    0    0  0.47930251649E+00 -0.81017063800E+00  0.69119769524E+00  0.14979004035E+01  0.93800000000E+00 0. -1.
         22    1    1    2    0    0 -0.31076426806E+00  0.52724835679E+00  0.21503439531E+01  0.22357424665E+01  0.00000000000E+00 0.  1.
</event>
<event>
 5    1  0.1160133E+000  0.1599641E+01  0.7818608E-02  0.3353753E+00
         11   -1    0    0    0    0  0.00000000000E+00  0.00000000000E+00  0.39999999674E+01  0.40000000000E+01  0.51100000000E-03 0.  1.
    9000002   -1    0    0    0    0 -0.00000000000E+00 -0.00000000000E+00  0.00000000000E+00  0.93800000000E+00  0.93800000000E+00 0.  1.
         11    1    1    2    0    0 -0.14661208698E-02 -0.37752036104E-02  0.15065273425E-01  0.15608499514E-01  0.51100000000E-03 0.  1.
    9000002    1    1    2    0    0  0.26399867693E+00  0.97493141630E+00  0.82559506582E+00  0.16067475784E+01  0.93800000000E+00 0.  1.
         22    1    1    2    0    0 -0.26253255606E+00 -0.97115621269E+00  0.31593396281E+01  0.33156439221E+01  0.00000000000E+00 0.  1.
</event>
<event>
 5    1  0.1361362E+000  0.1598720E+01  0.7818608E-02  0.3354754E+00
         11   -1    0    0    0    0  0.00000000000E+00  0.00000000000E+00  0.39999999674E+01  0.40000000000E+01  0.51100000000E-03 0.  1.
    9000002   -1    0    0    0    0 -0.00000000000E+00 -0.00000000000E+00  0.00000000000E+00  0.93800000000E+00  0.93800000000E+00 0.  1.
         11    1    1    2    0    0  0.21253988113E+00 -0.24845553838E+00  0.14148887358E+01  0.14521755236E+01  0.51100000000E-03 0.  1.
    9000002    1    1    2    0    0 -0.54884207473E+00  0.68367769950E+00  0.58401746943E+00  0.14105187785E+01  0.93800000000E+00 0.  1.
         22    1    1    2    0    0  0.33630219360E+00 -0.43522216111E+00  0.20010937621E+01  0.20753056979E+01  0.00000000000E+00 0.  1.
</event>
<event>
 5    1  0.1160133E+000  0.1599519E+01  0.7818608E-02  0.3353885E+00
         11   -1    0    0    0    0  0.00000000000E+00  0.00000000000E+00  0.39999999674E+01  0.40000000000E+01  0.51100000000E-03 0.  1.
    9000002   -1    0    0    0    0 -0.00000000000E+00 -0.00000000000E+00  0.00000000000E+00  0.93800000000E+00  0.93800000000E+00 0.  1.
         11    1    1    2    0    0  0.27505455976E-02  0.53311608228E-01  0.13976076162E+00  0.14960957417E+00  0.51100000000E-03 0.  1.
    9000002    1    1    2    0    0 -0.42274346205E-02 -0.10458031220E+01  0.90539880248E+00  0.16713207450E+01  0.93800000000E+00 0.  1.
         22    1    1    2    0    0  0.14768890229E-02  0.99249151381E+00  0.29548404033E+01  0.31170696808E+01  0.00000000000E+00 0.  1.
</event>
<event>
 5    1  0.1160133E+000  0.1599671E+01  0.7818608E-02  0.3353721E+00
         11   -1    0    0    0    0  0.00000000000E+00  0.00000000000E+00  0.39999999674E+01  0.40000000000E+01  0.51100000000E-03 0. -1.
    9000002   -1    0    0    0    0 -0.00000000000E+00 -0.00000000000E+00  0.00000000000E+00  0.93800000000E+00  0.93800000000E+00 0. -1.
         11    1    1    2    0    0  0.97035266986E-01 -0.53207400991E+00  0.13897102237E+01  0.14912455740E+01  0.51100000000E-03 0. -1.
    9000002    1    1    2    0    0 -0.20478996127E+00  0.11028112680E+01  0.11033717127E+01  0.18317763940E+01  0.93800000000E+00 0. -1.
         22    1    1    2    0    0  0.10775469429E+00 -0.57073725809E+00  0.15069180310E+01  0.16149780320E+01  0.00000000000E+00 0.  1.
</event>
<event>
 5    1  0.1160133E+000  0.1597099E+01  0.7818608E-02  0.3356518E+00
         11   -1    0    0    0    0  0.00000000000E+00  0.00000000000E+00  0.39999999674E+01  0.40000000000E+01  0.51100000000E-03 0. -1.
    9000002   -1    0    0    0    0 -0.00000000000E+00 -0.00000000000E+00  0.00000000000E+00  0.93800000000E+00  0.93800000000E+00 0.  1.
         11    1    1    2    0    0  0.20696640945E+00 -0.71154678726E-01  0.69362447980E+00  0.72733297948E+00  0.51100000000E-03 0. -1.
    9000002    1    1    2    0    0 -0.82537273643E+00  0.51925891820E+00  0.75922632376E+00  0.15514955974E+01  0.93800000000E+00 0.  1.
         22    1    1    2    0    0  0.61840632698E+00 -0.44810423947E+00  0.25471491638E+01  0.26591714231E+01  0.00000000000E+00 0. -1.
</event>
<event>
 5    1  0.1160133E+000  0.1135076E+01  0.7818608E-02  0.4155844E+00
         11   -1    0    0    0    0  0.00000000000E+00  0.00000000000E+00  0.39999999674E+01  0.40000000000E+01  0.51100000000E-03 0. -1.
    9000002   -1    0    0    0    0 -0.00000000000E+00 -0.00000000000E+00  0.00000000000E+00  0.93800000000E+00  0.93800000000E+00 0. -1.
         11    1    1    2    0    0 -0.74077099563E+00 -0.41720530553E+00  0.85038875332E+00  0.12024821112E+01  0.51100000000E-03 0. -1.
    9000002    1    1    2    0    0  0.50932319909E+00 -0.34127445053E+00  0.12597899963E+01  0.16860584825E+01  0.93800000000E+00 0. -1.
         22    1    1    2    0    0  0.23144779654E+00  0.75847975605E+00  0.18898212177E+01  0.20494594062E+01  0.00000000000E+00 0. -1.
</event>
<event>
 5    1  0.1160133E+000  0.1598342E+01  0.7818608E-02  0.3355165E+00
         11   -1    0    0    0    0  0.00000000000E+00  0.00000000000E+00  0.39999999674E+01  0.40000000000E+01  0.51100000000E-03 0.  1.
    9000002   -1    0    0    0    0 -0.00000000000E+00 -0.00000000000E+00  0.00000000000E+00  0.93800000000E+00  0.93800000000E+00 0.  1.
         11    1    1    2    0    0  0.25238466830E+00  0.15821417102E+00  0.78811464066E+00  0.84252874886E+00  0.51100000000E-03 0.  1.
    9000002    1    1    2    0    0 -0.88290016481E+00 -0.52445854764E+00  0.86489613151E+00  0.16378213540E+01  0.93800000000E+00 0.  1.
         22    1    1    2    0    0  0.63051549652E+00  0.36624437662E+00  0.23469891952E+01  0.24576498972E+01  0.00000000000E+00 0.  1.
</event>
<event>
 5    1  0.1160133E+000  0.1597343E+01  0.7818608E-02  0.3356252E+00
         11   -1    0    0    0    0  0.00000000000E+00  0.00000000000E+00  0.39999999674E+01  0.40000000000E+01  0.51100000000E-03 0.  1.
    9000002   -1    0    0    0    0 -0.00000000000E+00 -0.00000000000E+00  0.00000000000E+00  0.93800000000E+00  0.93800000000E+00 0. -1.
         11    1    1    2    0    0  0.10654034497E+00 -0.16027773689E+00  0.55095877045E+00  0.58360571100E+00  0.51100000000E-03 0.  1.
    9000002    1    1    2    0    0 -0.35843931250E+00  0.94996066059E+00  0.84152940730E+00  0.16183076780E+01  0.93800000000E+00 0. -1.
         22    1    1    2    0    0  0.25189896753E+00 -0.78968292370E+00  0.26075117896E+01  0.27360866110E+01  0.00000000000E+00 0.  1.
</event>
<event>
 5    1  0.1160133E+000  0.1181945E+01  0.7818608E-02  0.4036100E+00
         11   -1    0    0    0    0  0.00000000000E+00  0.00000000000E+00  0.39999999674E+01  0.40000000000E+01  0.51100000000E-03 0. -1.
    9000002   -1    0    0    0    0 -0.00000000000E+00 -0.00000000000E+00  0.00000000000E+00  0.93800000000E+00  0.93800000000E+00 0. -1.
         11    1    1    2    0    0 -0.30414075548E+00  0.25174579697E+00  0.53011184933E-01  0.39835661446E+00  0.51100000000E-03 0. -1.
    9000002    1    1    2    0    0 -0.29716344802E+00  0.37869674027E+00  0.95201430706E+00  0.14205254580E+01  0.93800000000E+00 0. -1.
         22    1    1    2    0    0  0.60130420350E+00 -0.63044253724E+00  0.29949744754E+01  0.31191179276E+01  0.00000000000E+00 0. -1.
</event>
<event>
 5    1  0.1160133E+000  0.1599417E+01  0.7818608E-02  0.3353997E+00
         11   -1    0    0    0    0  0.00000000000E+00  0.00000000000E+00  0.39999999674E+01  0.40000000000E+01  0.51100000000E-03 0.  1.
    9000002   -1    0    0    0    0 -0.00000000000E+00 -0.00000000000E+00  0.00000000000E+00  0.93800000000E+00  0.93800000000E+00 0.  1.
         11    1    1    2    0    0  0.10951347916E+00  0.12830428457E+00  0.38589322763E+00  0.42115203408E+00  0.51100000000E-03 0.  1.
    9000002    1    1    2    0    0 -0.68993559685E+00 -0.95396075266E+00  0.12876013110E+01  0.19808617775E+01  0.93800000000E+00 0.  1.
         22    1    1    2    0    0  0.58042211769E+00  0.82565646809E+00  0.23265054287E+01  0.25359861884E+01  0.00000000000E+00 0.  1.
</event>
<event>
 5    1  0.1160133E+000  0.1599676E+01  0.7818608E-02  0.3353715E+00
         11   -1    0    0    0    0  0.00000000000E+00  0.00000000000E+00  0.39999999674E+01  0.40000000000E+01  0.51100000000E-03 0.  1.
    9000002   -1    0    0    0    0 -0.00000000000E+00 -0.00000000000E+00  0.00000000000E+00  0.93800000000E+00  0.93800000000E+00 0.  1.
         11    1    1    2    0    0 -0.40181700995E+00  0.46523631184E-01  0.12268979318E+01  0.12918591850E+01  0.51100000000E-03 0.  1.
    9000002    1    1    2    0    0  0.10228486890E+01 -0.11890218809E+00  0.86838621028E+00  0.16414310163E+01  0.93800000000E+00 0.  1.
         22    1    1    2    0    0 -0.62103167909E+00  0.72378556904E-01  0.19047158253E+01  0.20047097987E+01  0.00000000000E+00 0.  1.
</event>
<event>
 5    1  0.1160133E+000  0.1599486E+01  0.7818608E-02  0.3353922E+00
         11   -1    0    0    0    0  0.00000000000E+00  0.00000000000E+00  0.39999999674E+01  0.40000000000E+01  0.51100000000E-03 0. -1.
    9000002   -1    0    0    0    0 -0.00000000000E+00 -0.00000000000E+00  0.00000000000E+00  0.93800000000E+00  0.93800000000E+00 0.  1.
         11    1    1    2    0    0  0.13590241176E+00  0.88141946767E-01  0.55353343420E+00  0.57674777173E+00  0.51100000000E-03 0. -1.
    9000002    1    1    2    0    0 -0.83276870456E+00 -0.45445238769E+00  0.70491455459E+00  0.15089000024E+01  0.93800000000E+00 0.  1.
         22    1    1    2    0    0  0.69686629281E+00  0.36631044092E+00  0.27415519786E+01  0.28523522259E+01  0.00000000000E+00 0.  1.
</event>
<event>
 5    1  0.1160133E+000  0.1580911E+01  0.7818608E-02  0.3374347E+00
         11   -1    0    0    0    0  0.00000000000E+00  0.00000000000E+00  0.39999999674E+01  0.40000000000E+01  0.51100000000E-03 0. -1.
    9000002   -1    0    0    0    0 -0.00000000000E+00 -0.00000000000E+00  0.00000000000E+00  0.93800000000E+00  0.93800000000E+00 0. -1.
         11    1    1    2    0    0  0.40853945052E+00  0.61070377206E-01  0.77064713778E+00  0.87437483135E+00  0.51100000000E-03 0. -1.
    9000002    1    1    2    0    0 -0.10266717489E+01 -0.13604014579E+00  0.92279840824E+00  0.16745037186E+01  0.93800000000E+00 0. -1.
         22    1    1    2    0    0  0.61813229842E+00  0.74969768588E-01  0.23065544213E+01  0.23891214501E+01  0.00000000000E+00 0. -1.
</event>
<event>
 5    1  0.1160133E+000  0.1556671E+01  0.7818608E-02  0.3401777E+00
         11   -1    0    0    0    0  0.00000000000E+00  0.00000000000E+00  0.39999999674E+01  0.40000000000E+01  0.51100000000E-03 0. -1.
    9000002   -1    0    0    0    0 -0.00000000000E+00 -0.00000000000E+00  0.00000000000E+00  0.93800000000E+00  0.93800000000E+00 0. -1.
         11    1    1    2    0    0  0.75807162709E+00 -0.76101775621E-01  0.11807309553E+01  0.14052010254E+01  0.51100000000E-03 0. -1.
    9000002    1    1    2    0    0 -0.11678191537E+01 -0.17339227228E+00  0.14910463970E+01  0.21205965703E+01  0.93800000000E+00 0. -1.
         22    1    1    2    0    0  0.40974752659E+00  0.24949404790E+00  0.13282226151E+01  0.14122024043E+01  0.00000000000E+00 0.  1.
</event>
<event>
 5    1  0.1160133E+000  0.1599366E+01  0.7818608E-02  0.3354052E+00
         11   -1    0    0    0    0  0.00000000000E+00  0.00000000000E+00  0.39999999674E+01  0.40000000000E+01  0.51100000000E-03 0. -1.
    9000002   -1    0    0    0    0 -0.00000000000E+00 -0.00000000000E+00  0.00000000000E+00  0.93800000000E+00  0.93800000000E+00 0. -1.
         11    1    1    2    0    0 -0.10643209663E+00 -0.38794805334E-01  0.30407932744E+00  0.32449549552E+00  0.51100000000E-03 0. -1.
    9000002    1    1    2    0    0  0.95935481956E+00  0.37911005873E+00  0.87308622918E+00  0.16450561297E+01  0.93800000000E+00 0. -1.
         22    1    1    2    0    0 -0.85292272293E+00 -0.34031525340E+00  0.28228344107E+01  0.29684483747E+01  0.00000000000E+00 0. -1.
</event>
<event>
 5    1  0.1160133E+000  0.1599676E+01  0.7818608E-02  0.3353715E+00
         11   -1    0    0    0    0  0.00000000000E+00  0.00000000000E+00  0.39999999674E+01  0.40000000000E+01  0.51100000000E-03 0. -1.
    9000002   -1    0    0    0    0 -0.00000000000E+00 -0.00000000000E+00  0.00000000000E+00  0.93800000000E+00  0.93800000000E+00 0.  1.
         11    1    1    2    0    0  0.13209942458E+00 -0.60259666410E-01  0.49881252992E+00  0.51951485685E+00  0.51100000000E-03 0. -1.
    9000002    1    1    2    0    0 -0.87269013542E+00  0.39196900140E+00  0.71934332250E+00  0.15206993740E+01  0.93800000000E+00 0.  1.
         22    1    1    2    0    0  0.74059071084E+00 -0.33170933499E+00  0.27818441149E+01  0.28977857691E+01  0.00000000000E+00 0. -1.
</event>
<event>
 5    1  0.1160133E+000  0.1599677E+01  0.7818608E-02  0.3353714E+00
         11   -1    0    0    0    0  0.00000000000E+00  0.00000000000E+00  0.39999999674E+01  0.40000000000E+01  0.51100000000E-03 0.  1.
    9000002   -1    0    0    0    0 -0.00000000000E+00 -0.00000000000E+00  0.00000000000E+00  0.93800000000E+00  0.93800000000E+00 0.  1.
         11    1    1    2    0    0 -0.35850467665E+00  0.29748170576E+00  0.91630725855E+00  0.10279300665E+01  0.51100000000E-03 0.  1.
    9000002    1    1    2    0    0  0.95281676652E+00 -0.79152650614E+00  0.15610528036E+01  0.22025221579E+01  0.93800000000E+00 0.  1.
         22    1    1    2    0    0 -0.59431208988E+00  0.49404480038E+00  0.15226399052E+01  0.17075477756E+01  0.00000000000E+00 0.  1.
</event>
<event>
 5    1  0.1160133E+000  0.1596463E+01  0.7818608E-02  0.3357212E+00
         11   -1    0    0    0    0  0.00000000000E+00  0.00000000000E+00  0.39999999674E+01  0.40000000000E+01  0.51100000000E-03 0. -1.
    9000002   -1    0    0    0    0 -0.00000000000E+00 -0.00000000000E+00  0.00000000000E+00  0.93800000000E+00  0.93800000000E+00 0.  1.
         11    1    1    2    0    0  0.13899418788E+00  0.29017550339E+00  0.11488243497E+01  0.11930292765E+01  0.51100000000E-03 0. -1.
    9000002    1    1    2    0    0 -0.23946743662E+00 -0.92728321364E+00  0.72689479852E+00  0.15249324115E+01  0.93800000000E+00 0.  1.
         22    1    1    2    0    0  0.10047324873E+00  0.63710771025E+00  0.21242808191E+01  0.22200383120E+01  0.00000000000E+00 0. -1.
</event>
<event>
 5    1  0.1160133E+000  0.1303089E+01  0.7818608E-02  0.3776042E+00
         11   -1    0    0    0    0  0.00000000000E+00  0.00000000000E+00  0.39999999674E+01  0.40000000000E+01  0.51100000000E-03 0. -1.
    9000002   -1    0    0    0    0 -0.00000000000E+00 -0.00000000000E+00  0.00000000000E+00  0.93800000000E+00  0.93800000000E+00 0. -1.
         11    1    1    2    0    0 -0.41528904984E+00 -0.40595377099E+00  0.12682353682E+01  0.13948780124E+01  0.51100000000E-03 0. -1.
    9000002    1    1    2    0    0 -0.23048189731E+00  0.72626186906E-01  0.31361669671E+00  0.10181335376E+01  0.93800000000E+00 0.  1.
         22    1    1    2    0    0  0.64577094716E+00  0.33332758408E+00  0.24181479024E+01  0.25249884500E+01  0.00000000000E+00 0. -1.
</event>
<event>
 5    1  0.1160133E+000  0.1599521E+01  0.7818608E-02  0.3353883E+00
         11   -1    0    0    0    0  0.00000000000E+00  0.00000000000E+00  0.39999999674E+01  0.40000000000E+01  0.51100000000E-03 0.  1.
    9000002   -1    0    0    0    0 -0.00000000000E+00 -0.00000000000E+00  0.00000000000E+00  0.93800000000E+00  0.93800000000E+00 0. -1.
         11    1    1    2    0    0 -0.84769212642E-01  0.30366307770E+00  0.80714160907E+00  0.86653039322E+00  0.51100000000E-03 0.  1.
    9000002    1    1    2    0    0  0.34221938033E+00 -0.10885727079E+01  0.11632127107E+01  0.18801628799E+01  0.93800000000E+00 0. -1.
         22    1    1    2    0    0 -0.25745016769E+00  0.78490963019E+00  0.20296456476E+01  0.21913067269E+01  0.00000000000E+00 0.  1.
</event>
<event>
 5    1  0.1160133E+000  0.1599669E+01  0.7818608E-02  0.3353723E+00
         11   -1    0    0    0    0  0.00000000000E+00  0.00000000000E+00  0.39999999674E+01  0.40000000000E+01  0.51100000000E-03 0. -1.
    9000002   -1    0    0    0    0 -0.00000000000E+00 -0.00000000000E+00  0.00000000000E+00  0.93800000000E+00  0.93800000000E+00 0.  1.
         11    1    1    2    0    0  0.16313332478E+00 -0.32946609217E+00  0.87403579297E+00  0.94820842438E+00  0.51100000000E-03 0. -1.
    9000002    1    1    2    0    0 -0.51919884045E+00  0.10363417434E+01  0.12220275677E+01  0.19278918593E+01  0.93800000000E+00 0.  1.
         22    1    1    2    0    0  0.35606551567E+00 -0.70687565123E+00  0.19039366067E+01  0.20618997163E+01  0.00000000000E+00 0. -1.
</event>
<event>
 5    1  0.1160133E+000  0.1594677E+01  0.7818608E-02  0.3359161E+00
         11   -1    0    0    0    0  0.00000000000E+00  0.00000000000E+00  0.39999999674E+01  0.40000000000E+01  0.51100000000E-03 0.  1.
    9000002   -1    0    0    0    0 -0.00000000000E+00 -0.00000000000E+00  0.00000000000E+00  0.93800000000E+00  0.93800000000E+00 0.  1.
         11    1    1    2    0    0 -0.34536718238E-01  0.12310422163E+00  0.26753640322E+00  0.29651883997E+00  0.51100000000E-03 0.  1.
    9000002    1    1    2    0    0  0.34532414473E+00 -0.89850709002E+00  0.73931843815E+00  0.15339489916E+01  0.93800000000E+00 0.  1.
         22    1    1    2    0    0 -0.31078742649E+00  0.77540286839E+00  0.29931451260E+01  0.31075321685E+01  0.00000000000E+00 0.  1.
</event>
<event>
 5    1  0.1160133E+000  0.1599607E+01  0.7818608E-02  0.3353790E+00
         11   -1    0    0    0    0  0.00000000000E+00  0.00000000000E+00  0.39999999674E+01  0.40000000000E+01  0.51100000000E-03 0. -1.
    9000002   -1    0    0    0    0 -0.00000000000E+00 -0.00000000000E+00  0.00000000000E+00  0.93800000000E+00  0.93800000000E+00 0.  1.
         11    1    1    2    0    0  0.10555640129E+00  0.10207966832E+00  0.50783765793E+00  0.52864142902E+00  0.51100000000E-03 0. -1.
    9000002    1    1    2    0    0 -0.71844527693E+00 -0.66605714318E+00  0.76360492160E+00  0.15565128365E+01  0.93800000000E+00 0. -1.
         22    1    1    2    0    0  0.61288887563E+00  0.56397747487E+00  0.27285573878E+01  0.28528457345E+01  0.00000000000E+00 0. -1.
</event>
<event>
 5    1  0.1729796E+000  0.1450575E+01  0.7818608E-02  0.3533434E+00
         11   -1    0    0    0    0  0.00000000000E+00  0.00000000000E+00  0.39999999674E+01  0.40000000000E+01  0.51100000000E-03 0. -1.
    9000002   -1    0    0    0    0 -0.00000000000E+00 -0.00000000000E+00  0.00000000000E+00  0.93800000000E+00  0.93800000000E+00 0. -1.
         11    1    1    2    0    0 -0.31295634503E+00 -0.57001902214E-01  0.12965615449E+01  0.13350142290E+01  0.51100000000E-03 0. -1.
    9000002    1    1    2    0    0 -0.24369927563E+00 -0.39411705743E+00  0.29032718857E+00  0.10857492659E+01  0.93800000000E+00 0. -1.
         22    1    1    2    0    0  0.55665562066E+00  0.45111895965E+00  0.24131112339E+01  0.25172365052E+01  0.00000000000E+00 0. -1.
</event>
<event>
 5    1  0.1160133E+000  0.1573109E+01  0.7818608E-02  0.3383077E+00
         11   -1    0    0    0    0  0.00000000000E+00  0.00000000000E+00  0.39999999674E+01  0.40000000000E+01  0.51100000000E-03 0.  1.
    9000002   -1    0    0    0    0 -0.00000000000E+00 -0.00000000000E+00  0.00000000000E+00  0.93800000000E+00  0.93800000000E+00 0.  1.
         11    1    1    2    0    0 -0.71995047560E-01  0.13071496334E+00  0.95193150098E+00  0.96355774720E+00  0.51100000000E-03 0.  1.
    9000002    1    1    2    0    0  0.76510052734E+00 -0.68827891916E-01  0.46376165649E+00  0.12980889683E+01  0.93800000000E+00 0.  1.
         22    1    1    2    0    0 -0.69310547978E+00 -0.61887071427E-01  0.25843068099E+01  0.26763532845E+01  0.00000000000E+00 0.  1.
</event>
<event>
 5    1  0.1160133E+000  0.1599291E+01  0.7818608E-02  0.3354133E+00
         11   -1    0    0    0    0  0.00000000000E+00  0.00000000000E+00  0.39999999674E+01  0.40000000000E+01  0.51100000000E-03 0. -1.
    9000002   -1    0    0    0    0 -0.00000000000E+00 -0.00000000000E+00  0.00000000000E+00  0.93800000000E+00  0.93800000000E+00 0. -1.
         11    1    1    2    0    0 -0.20403817445E+00  0.27705455167E+00  0.13443309165E+01  0.13876659092E+01  0.51100000000E-03 0. -1.
    9000002    1    1    2    0    0  0.57031515084E+00 -0.70237928648E+00  0.62847371416E+00  0.14468653160E+01  0.93800000000E+00 0. -1.
         22    1    1    2    0    0 -0.36627697640E+00  0.42532473481E+00  0.20271953367E+01  0.21034687748E+01  0.00000000000E+00 0. -1.
</event>
<event>
 5    1  0.1160133E+000  0.1599529E+01  0.7818608E-02  0.3353875E+00
         11   -1    0    0    0    0  0.00000000000E+00  0.00000000000E+00  0.39999999674E+01  0.40000000000E+01  0.51100000000E-03 0. -1.
    9000002   -1    0    0    0    0 -0.00000000000E+00 -0.00000000000E+00  0.00000000000E+00  0.93800000000E+00  0.93800000000E+00 0. -1.
         11    1    1    2    0    0  0.14596330884E+00  0.38880877020E+00  0.11650371957E+01  0.12368465854E+01  0.51100000000E-03 0. -1.
    9000002    1    1    2    0    0 -0.41352659436E+00 -0.99782659749E+00  0.98940854934E+00  0.17393778889E+01  0.93800000000E+00 0. -1.
         22    1    1    2    0    0  0.26756328552E+00  0.60901782729E+00  0.18455542223E+01  0.19617755257E+01  0.00000000000E+00 0. -1.
</event>
<event>
 5    1  0.1160133E+000  0.1599629E+01  0.7818608E-02  0.3353766E+00
         11   -1    0    0    0    0  0.00000000000E+00  0.00000000000E+00  0.39999999674E+01  0.40000000000E+01  0.51100000000E-03 0.  1.
    9000002   -1    0    0    0    0 -0.00000000000E+00 -0.00000000000E+00  0.00000000000E+00  0.93800000000E+00  0.93800000000E+00 0.  1.
         11    1    1    2    0    0 -0.69400748208E-02 -0.52924617458E+00  0.13870552441E+01  0.14846117975E+01  0.51100000000E-03 0.  1.
    9000002    1    1    2    0    0  0.31949920140E-01  0.11149742509E+01  0.10853115105E+01  0.18171222998E+01  0.93800000000E+00 0.  1.
         22    1    1    2    0    0 -0.25009845319E-01 -0.58572807631E+00  0.15276332127E+01  0.16362659027E+01  0.00000000000E+00 0. -1.
</event>
<event>
 5    1  0.1160133E+000  0.1559961E+01  0.7818608E-02  0.3398001E+00
         11   -1    0    0    0    0  0.00000000000E+00  0.00000000000E+00  0.39999999674E+01  0.40000000000E+01  0.51100000000E-03 0.  1.
    9000002   -1    0    0    0    0 -0.00000000000E+00 -0.00000000000E+00  0.00000000000E+00  0.93800000000E+00  0.93800000000E+00 0.  1.
         11    1    1    2    0    0 -0.10679739872E+00 -0.20721810668E+00  0.66645713894E+00  0.70605269440E+00  0.51100000000E-03 0.  1.
    9000002    1    1    2    0    0 -0.39353296824E+00  0.78955475317E+00  0.65332154406E+00  0.14439314199E+01  0.93800000000E+00 0.  1.
         22    1    1    2    0    0  0.50033036696E+00 -0.58233664649E+00  0.26802212844E+01  0.27880158857E+01  0.00000000000E+00 0.  1.
</event>
<event>
 5    1  0.1160133E+000  0.1599630E+01  0.7818608E-02  0.3353765E+00
         11   -1    0    0    0    0  0.00000000000E+00  0.00000000000E+00  0.39999999674E+01  0.40000000000E+01  0.51100000000E-03 0.  1.
    9000002   -1    0    0    0    0 -0.00000000000E+00 -0.00000000000E+00  0.00000000000E+00  0.93800000000E+00  0.93800000000E+00 0.  1.
         11    1    1    2    0    0 -0.25201873957E+00 -0.28719869506E+00  0.11948232687E+01  0.12544319192E+01  0.51100000000E-03 0.  1.
    9000002    1    1    2    0    0  0.65149249291E+00  0.77461307403E+00  0.83012256883E+00  0.16104084457E+01  0.93800000000E+00 0.  1.
         22    1    1    2    0    0 -0.39947375335E+00 -0.48741437897E+00  0.19750541299E+01  0.20731596350E+01  0.00000000000E+00 0.  1.
</event>
<event>
 5    1  0.1160133E+000  0.1597032E+01  0.7818608E-02  0.3356591E+00
         11   -1    0    0    0    0  0.00000000000E+00  0.00000000000E+00  0.39999999674E+01  0.40000000000E+01  0.51100000000E-03 0. -1.
    9000002   -1    0    0    0    0 -0.00000000000E+00 -0.00000000000E+00  0.00000000000E+00  0.93800000000E+00  0.93800000000E+00 0. -1.
         11    1    1    2    0    0 -0.72559015203E-01  0.22974495091E+00  0.84637046934E+00  0.87999476456E+00  0.51100000000E-03 0. -1.
    9000002    1    1    2    0    0  0.48406376654E+00 -0.84770101416E+00  0.76140551177E+00  0.15532215209E+01  0.93800000000E+00 0. -1.
         22    1    1    2    0    0 -0.41150475134E+00  0.61795606326E+00  0.23922239862E+01  0.25047837146E+01  0.00000000000E+00 0. -1.
</event>
<event>
 5    1  0.1160133E+000  0.1594298E+01  0.7818608E-02  0.3359576E+00
         11   -1    0    0    0    0  0.00000000000E+00  0.00000000000E+00  0.39999999674E+01  0.40000000000E+01  0.51100000000E-03 0.  1.
    9000002   -1    0    0    0    0 -0.00000000000E+00 -0.00000000000E+00  0.00000000000E+00  0.93800000000E+00  0.93800000000E+00 0. -1.
         11    1    1    2    0    0  0.32265401156E+00  0.35229383701E+00  0.11524005565E+01  0.12474950350E+01  0.51100000000E-03 0.  1.
    9000002    1    1    2    0    0 -0.71904848983E+00 -0.75295058341E+00  0.90592363833E+00  0.16686841973E+01  0.93800000000E+00 0. -1.
         22    1    1    2    0    0  0.39639447827E+00  0.40065674641E+00  0.19416757726E+01  0.20218207677E+01  0.00000000000E+00 0.  1.
</event>
<event>
 5    1  0.1160133E+000  0.1468984E+01  0.7818608E-02  0.3509115E+00
         11   -1    0    0    0    0  0.00000000000E+00  0.00000000000E+00  0.39999999674E+01  0.40000000000E+01  0.51100000000E-03 0. -1.
    9000002   -1    0    0    0    0 -0.00000000000E+00 -0.00000000000E+00  0.00000000000E+00  0.93800000000E+00  0.93800000000E+00 0.  1.
         11    1    1    2    0    0  0.13633405416E+00 -0.33391486848E+00  0.11455490397E+01  0.12009866682E+01  0.51100000000E-03 0. -1.
    9000002    1    1    2    0    0 -0.43203752053E+00 -0.41610249991E+00  0.44980736924E+00  0.12008198778E+01  0.93800000000E+00 0.  1.
         22    1    1    2    0    0  0.29570346637E+00  0.75001736839E+00  0.24046435584E+01  0.25361934540E+01  0.00000000000E+00 0. -1.
</event>
<event>
 5    1  0.1160133E+000  0.1598881E+01  0.7818608E-02  0.3354579E+00
         11   -1    0    0    0    0  0.00000000000E+00  0.00000000000E+00  0.39999999674E+01  0.40000000000E+01  0.51100000000E-03 0.  1.
    9000002   -1    0    0    0    0 -0.00000000000E+00 -0.00000000000E+00  0.00000000000E+00  0.93800000000E+00  0.93800000000E+00 0.  1.
         11    1    1    2    0    0  0.24584491966E-02  0.30522427910E+00  0.11833695286E+01  0.12221013080E+01  0.51100000000E-03 0.  1.
    9000002    1    1    2    0    0  0.22980990392E-01 -0.94190775812E+00  0.69408275031E+00  0.14997710542E+01  0.93800000000E+00 0.  1.
         22    1    1    2    0    0 -0.25439439589E-01  0.63668347902E+00  0.21225476884E+01  0.22161276378E+01  0.00000000000E+00 0.  1.
</event>
<event>
 5    1  0.1160133E+000  0.1599195E+01  0.7818608E-02  0.3354238E+00
         11   -1    0    0    0    0  0.00000000000E+00  0.00000000000E+00  0.39999999674E+01  0.40000000000E+01  0.51100000000E-03 0.  1.
    9000002   -1    0    0    0    0 -0.00000000000E+00 -0.00000000000E+00  0.00000000000E+00  0.93800000000E+00  0.93800000000E+00 0.  1.
         11    1    1    2    0    0 -0.17207307143E-01  0.18853418229E-01  0.54370622128E-01  0.60066367209E-01  0.51100000000E-03 0.  1.
    9000002    1    1    2    0    0  0.52828860118E+00 -0.98230103352E+00  0.10862701243E+01  0.18176443408E+01  0.93800000000E+00 0. -1.
         22    1    1    2    0    0 -0.51108129404E+00  0.96344761529E+00  0.28593592209E+01  0.30602892920E+01  0.00000000000E+00 0.  1.
</event>
<event>
 5    1  0.1160133E+000  0.1583984E+01  0.7818608E-02  0.3370932E+00
         11   -1    0    0    0    0  0.00000000000E+00  0.00000000000E+00  0.39999999674E+01  0.40000000000E+01  0.51100000000E-03 0. -1.
    9000002   -1    0    0    0    0 -0.00000000000E+00 -0.00000000000E+00  0.00000000000E+00  0.93800000000E+00  0.93800000000E+00 0. -1.
         11    1    1    2    0    0  0.20003377619E+00  0.34995912884E-01  0.11901823222E+01  0.12073824774E+01  0.51100000000E-03 0. -1.
    9000002    1    1    2    0    0 -0.94648417201E+00 -0.17606935962E+00  0.75898855979E+00  0.15436127562E+01  0.93800000000E+00 0. -1.
         22    1    1    2    0    0  0.74645039582E+00  0.14107344673E+00  0.20508290853E+01  0.21870047663E+01  0.00000000000E+00 0. -1.
</event>
<event>
 5    1  0.1160133E+000  0.1599018E+01  0.7818608E-02  0.3354430E+00
         11   -1    0    0    0    0  0.00000000000E+00  0.00000000000E+00  0.39999999674E+01  0.40000000000E+01  0.51100000000E-03 0. -1.
    9000002   -1    0    0    0    0 -0.00000000000E+00 -0.00000000000E+00  0.00000000000E+00  0.93800000000E+00  0.93800000000E+00 0. -1.
         11    1    1    2    0    0 -0.43038937120E+00  0.31727822396E+00  0.13985515003E+01  0.14972798811E+01  0.51100000000E-03 0. -1.
    9000002    1    1    2    0    0  0.90783052442E+00 -0.60828288195E+00  0.10239326227E+01  0.17670445216E+01  0.93800000000E+00 0. -1.
         22    1    1    2    0    0 -0.47744115321E+00  0.29100465800E+00  0.15775158444E+01  0.16736755973E+01  0.00000000000E+00 0. -1.
</event>
<event>
 5    1  0.1160133E+000  0.1540063E+01  0.7818608E-02  0.3421101E+00
         11   -1    0    0    0    0  0.00000000000E+00  0.00000000000E+00  0.39999999674E+01  0.40000000000E+01  0.51100000000E-03 0.  1.
    9000002   -1    0    0    0    0 -0.00000000000E+00 -0.00000000000E+00  0.00000000000E+00  0.93800000000E+00  0.93800000000E+00 0. -1.
         11    1    1    2    0    0  0.49824100314E-01  0.32846546018E-01  0.90924990196E+00  0.91120633332E+00  0.51100000000E-03 0.  1.
    9000002    1    1    2    0    0  0.23967366911E+00  0.76766190530E+00  0.55966659946E+00  0.13563992668E+01  0.93800000000E+00 0. -1.
         22    1    1    2    0    0 -0.28949776943E+00 -0.80050845132E+00  0.25310834659E+01  0.26703943998E+01  0.00000000000E+00 0.  1.
</event>
<event>
 5    1  0.1160133E+000  0.1576863E+01  0.7818608E-02  0.3378864E+00
         11   -1    0    0    0    0  0.00000000000E+00  0.00000000000E+00  0.39999999674E+01  0.40000000000E+01  0.51100000000E-03 0. -1.
    9000002   -1    0    0    0    0 -0.00000000000E+00 -0.00000000000E+00  0.00000000000E+00  0.93800000000E+00  0.93800000000E+00 0.  1.
         11    1    1    2    0    0  0.22258415144E+00 -0.47816400217E+00  0.12714835742E+01  0.13765374162E+01  0.51100000000E-03 0. -1.
    9000002    1    1    2    0    0 -0.71359724185E+00  0.75371776043E+00  0.93758518033E+00  0.16841085049E+01  0.93800000000E+00 0.  1.
         22    1    1    2    0    0  0.49101309041E+00 -0.27555375825E+00  0.17909312128E+01  0.18773540789E+01  0.00000000000E+00 0. -1.
</event>
<event>
 5    1  0.1160133E+000  0.1598090E+01  0.7818608E-02  0.3355439E+00
         11   -1    0    0    0    0  0.00000000000E+00  0.00000000000E+00  0.39999999674E+01  0.40000000000E+01  0.51100000000E-03 0. -1.
    9000002   -1    0    0    0    0 -0.00000000000E+00 -0.00000000000E+00  0.00000000000E+00  0.93800000000E+00  0.93800000000E+00 0. -1.
         11    1    1    2    0    0  0.47557616759E+00 -0.87013164992E-01  0.90021154584E+00  0.10218243834E+01  0.51100000000E-03 0. -1.
    9000002    1    1    2    0    0 -0.11992809025E+01  0.33853579511E+00  0.16140635252E+01  0.22445325195E+01  0.93800000000E+00 0. -1.
         22    1    1    2    0    0  0.72370473487E+00 -0.25152263012E+00  0.14857248963E+01  0.16716430972E+01  0.00000000000E+00 0.  1.
</event>
<event>
 5    1  0.1160133E+000  0.1407316E+01  0.7818608E-02  0.3595219E+00
         11   -1    0    0    0    0  0.00000000000E+00  0.00000000000E+00  0.39999999674E+01  0.40000000000E+01  0.51100000000E-03 0. -1.
    9000002   -1    0    0    0    0 -0.00000000000E+00 -0.00000000000E+00  0.00000000000E+00  0.93800000000E+00  0.93800000000E+00 0. -1.
         11    1    1    2    0    0  0.79608962529E+00  0.40877161186E+00  0.11014809539E+01  0.14191946572E+01  0.51100000000E-03 0. -1.
    9000002    1    1    2    0    0 -0.99802601009E+00 -0.30088832618E-01  0.13948779201E+01  0.19551188370E+01  0.93800000000E+00 0. -1.
         22    1    1    2    0    0  0.20193638480E+00 -0.37868277925E+00  0.15036410934E+01  0.15636865058E+01  0.00000000000E+00 0.  1.
</event>
<event>
 5    1  0.1160133E+000  0.1562800E+01  0.7818608E-02  0.3394756E+00
         11   -1    0    0    0    0  0.00000000000E+00  0.00000000000E+00  0.39999999674E+01  0.40000000000E+01  0.51100000000E-03 0.  1.
    9000002   -1    0    0    0    0 -0.00000000000E+00 -0.00000000000E+00  0.00000000000E+00  0.93800000000E+00  0.93800000000E+00 0.  1.
         11    1    1    2    0    0 -0.16513075235E+00 -0.64318961725E+00  0.98791802543E+00  0.11903542898E+01  0.51100000000E-03 0.  1.
    9000002    1    1    2    0    0  0.36228782121E+00  0.10882198899E+01  0.13113296962E+01  0.19786117776E+01  0.93800000000E+00 0.  1.
         22    1    1    2    0    0 -0.19715706886E+00 -0.44503027270E+00  0.17007522458E+01  0.17690339327E+01  0.00000000000E+00 0. -1.
</event>
<event>
 5    1  0.1160133E+000  0.1599675E+01  0.7818608E-02  0.3353716E+00
         11   -1    0    0    0    0  0.00000000000E+00  0.00000000000E+00  0.39999999674E+01  0.40000000000E+01  0.51100000000E-03 0. -1.
    9000002   -1    0    0    0    0 -0.00000000000E+00 -0.00000000000E+00  0.00000000000E+00  0.93800000000E+00  0.93800000000E+00 0. -1.
         11    1    1    2    0    0 -0.84449103646E-01 -0.42935487619E+00  0.13378967439E+01  0.14076381706E+01  0.51100000000E-03 0. -1.
    9000002    1    1    2    0    0  0.20066142910E+00  0.10052031158E+01  0.85795859025E+00  0.16329835442E+01  0.93800000000E+00 0. -1.
         22    1    1    2    0    0 -0.11621232545E+00 -0.57584823959E+00  0.18041446332E+01  0.18973782852E+01  0.00000000000E+00 0. -1.
</event>
<event>
 5    1  0.1160133E+000  0.1537599E+01  0.7818608E-02  0.3424007E+00
         11   -1    0    0    0    0  0.00000000000E+00  0.00000000000E+00  0.39999999674E+01  0.40000000000E+01  0.51100000000E-03 0.  1.
    9000002   -1    0    0    0    0 -0.00000000000E+00 -0.00000000000E+00  0.00000000000E+00  0.93800000000E+00  0.93800000000E+00 0.  1.
         11    1    1    2    0    0 -0.74798399693E-01  0.19538020954E-01  0.13635362979E+01  0.13657261921E+01  0.51100000000E-03 0.  1.
    9000002    1    1    2    0    0  0.73089724453E+00 -0.52536539886E+00  0.72387807083E+00  0.14879727974E+01  0.93800000000E+00 0.  1.
         22    1    1    2    0    0 -0.65609884484E+00  0.50582737790E+00  0.19125855986E+01  0.20843010105E+01  0.00000000000E+00 0.  1.
</event>
<event>
 5    1  0.1160133E+000  0.1548468E+01  0.7818608E-02  0.3411267E+00
         11   -1    0    0    0    0  0.00000000000E+00  0.00000000000E+00  0.39999999674E+01  0.40000000000E+01  0.51100000000E-03 0. -1.
    9000002   -1    0    0    0    0 -0.00000000000E+00 -0.00000000000E+00  0.00000000000E+00  0.93800000000E+00  0.93800000000E+00 0. -1.
         11    1    1    2    0    0 -0.37080726131E+00  0.23802027144E+00  0.13471198417E+01  0.14173509811E+01  0.51100000000E-03 0. -1.
    9000002    1    1    2    0    0 -0.27901136454E+00  0.27902224775E+00  0.35572063861E+00  0.10779990394E+01  0.93800000000E+00 0. -1.
         22    1    1    2    0    0  0.64981862585E+00 -0.51704251919E+00  0.22971594870E+01  0.24426499794E+01  0.00000000000E+00 0. -1.
</event>
<event>
 5    1  0.1160133E+000  0.1598290E+01  0.7818608E-02  0.3355221E+00
         11   -1    0    0    0    0  0.00000000000E+00  0.00000000000E+00  0.39999999674E+01  0.40000000000E+01  0.51100000000E-03 0. -1.
    9000002   -1    0    0    0    0 -0.00000000000E+00 -0.00000000000E+00  0.00000000000E+00  0.93800000000E+00  0.93800000000E+00 0.  1.
         11    1    1    2    0    0 -0.12226988376E+00  0.80856998634E-01  0.49414701948E+00  0.51543119491E+00  0.51100000000E-03 0. -1.
    9000002    1    1    2    0    0  0.86002606107E+00 -0.66349855496E+00  0.10083373401E+01  0.17539849913E+01  0.93800000000E+00 0.  1.
         22    1    1    2    0    0 -0.73775617730E+00  0.58264155632E+00  0.24975156078E+01  0.26685838138E+01  0.00000000000E+00 0. -1.
</event>
<event>
 5    1  0.1160133E+000  0.1599676E+01  0.7818608E-02  0.3353715E+00
         11   -1    0    0    0    0  0.00000000000E+00  0.00000000000E+00  0.39999999674E+01  0.40000000000E+01  0.51100000000E-03 0.  1.
    9000002   -1    0    0    0    0 -0.00000000000E+00 -0.00000000000E+00  0.00000000000E+00  0.93800000000E+00  0.93800000000E+00 0.  1.
         11    1    1    2    0    0  0.84914356164E-01  0.12249520023E+00  0.42937550733E+00  0.45450974619E+00  0.51100000000E-03 0.  1.
    9000002    1    1    2    0    0 -0.60065621414E+00 -0.87137022427E+00  0.93476357759E+00  0.16951993692E+01  0.93800000000E+00 0.  1.
         22    1    1    2    0    0  0.51574185797E+00  0.74887502404E+00  0.26358608824E+01  0.27882908846E+01  0.00000000000E+00 0.  1.
</event>
<event>
 5    1  0.1160133E+000  0.1599675E+01  0.7818608E-02  0.3353716E+00
         11   -1    0    0    0    0  0.00000000000E+00  0.00000000000E+00  0.39999999674E+01  0.40000000000E+01  0.51100000000E-03 0.  1.
    9000002   -1    0    0    0    0 -0.00000000000E+00 -0.00000000000E+00  0.00000000000E+00  0.93800000000E+00  0.93800000000E+00 0. -1.
         11    1    1    2    0    0 -0.17603274072E-02  0.39699797543E-01  0.11705726392E+00  0.12361972672E+00  0.51100000000E-03 0. -1.
    9000002    1    1    2    0    0  0.49249422269E-01 -0.10418568351E+01  0.89857533077E+00  0.16658849887E+01  0.93800000000E+00 0. -1.
         22    1    1    2    0    0 -0.47489094862E-01  0.10021570376E+01  0.29843673727E+01  0.31484952846E+01  0.00000000000E+00 0.  1.
</event>
<event>
 5    1  0.1160133E+000  0.1599676E+01  0.7818608E-02  0.3353715E+00
         11   -1    0    0    0    0  0.00000000000E+00  0.00000000000E+00  0.39999999674E+01  0.40000000000E+01  0.51100000000E-03 0.  1.
    9000002   -1    0    0    0    0 -0.00000000000E+00 -0.00000000000E+00  0.00000000000E+00  0.93800000000E+00  0.93800000000E+00 0.  1.
         11    1    1    2    0    0  0.21520983887E-01  0.85139808256E-01  0.31192811279E+00  0.32405454536E+00  0.51100000000E-03 0. -1.
    9000002    1    1    2    0    0 -0.23165842295E+00 -0.90814286177E+00  0.68382471665E+00  0.14919280564E+01  0.93800000000E+00 0.  1.
         22    1    1    2    0    0  0.21013743906E+00  0.82300305351E+00  0.30042471379E+01  0.31220173983E+01  0.00000000000E+00 0.  1.
</event>
<event>
 5    1  0.1160133E+000  0.1599676E+01  0.7818608E-02  0.3353715E+00
         11   -1    0    0    0    0  0.00000000000E+00  0.00000000000E+00  0.39999999674E+01  0.40000000000E+01  0.51100000000E-03 0.  1.
    9000002   -1    0    0    0    0 -0.00000000000E+00 -0.00000000000E+00  0.00000000000E+00  0.93800000000E+00  0.93800000000E+00 0.  1.
         11    1    1    2    0    0  0.77235930847E-01  0.20384120426E+00  0.69315683582E+00  0.72662458377E+00  0.51100000000E-03 0.  1.
    9000002    1    1    2    0    0 -0.35513922789E+00 -0.93521535469E+00  0.80525822794E+00  0.15902944521E+01  0.93800000000E+00 0.  1.
         22    1    1    2    0    0  0.27790329704E+00  0.73137415043E+00  0.25015849036E+01  0.26210809641E+01  0.00000000000E+00 0.  1.
</event>
<event>
 5    1  0.1160133E+000  0.1599085E+01  0.7818608E-02  0.3354357E+00
         11   -1    0    0    0    0  0.00000000000E+00  0.00000000000E+00  0.39999999674E+01  0.40000000000E+01  0.51100000000E-03 0.  1.
    9000002   -1    0    0    0    0 -0.00000000000E+00 -0.00000000000E+00  0.00000000000E+00  0.93800000000E+00  0.93800000000E+00 0. -1.
         11    1    1    2    0    0 -0.21541277273E+00  0.30936336078E+00  0.99972617231E+00  0.10684385955E+01  0.51100000000E-03 0.  1.
    9000002    1    1    2    0    0  0.56622921228E+00 -0.91639381338E+00  0.98302857818E+00  0.17339499207E+01  0.93800000000E+00 0. -1.
         22    1    1    2    0    0 -0.35081643955E+00  0.60703045260E+00  0.20172452169E+01  0.21356114838E+01  0.00000000000E+00 0.  1.
</event>
<event>
 5    1  0.1160133E+000  0.1578429E+01  0.7818608E-02  0.3377114E+00
         11   -1    0    0    0    0  0.00000000000E+00  0.00000000000E+00  0.39999999674E+01  0.40000000000E+01  0.51100000000E-03 0.  1.
    9000002   -1    0    0    0    0 -0.00000000000E+00 -0.00000000000E+00  0.00000000000E+00  0.93800000000E+00  0.93800000000E+00 0.  1.
         11    1    1    2    0    0  0.11498916304E+00 -0.10651802743E+00  0.94398094386E+00  0.95690588945E+00  0.51100000000E-03 0.  1.
    9000002    1    1    2    0    0 -0.17716895854E+00  0.89290667830E+00  0.67153824756E+00  0.14695165171E+01  0.93800000000E+00 0.  1.
         22    1    1    2    0    0  0.62179795506E-01 -0.78638865087E+00  0.23844807759E+01  0.25115775935E+01  0.00000000000E+00 0.  1.
</event>
<event>
 5    1  0.1160133E+000  0.1592355E+01  0.7818608E-02  0.3361703E+00
         11   -1    0    0    0    0  0.00000000000E+00  0.00000000000E+00  0.39999999674E+01  0.40000000000E+01  0.51100000000E-03 0. -1.
    9000002   -1    0    0    0    0 -0.00000000000E+00 -0.00000000000E+00  0.00000000000E+00  0.93800000000E+00  0.93800000000E+00 0.  1.
         11    1    1    2    0    0  0.75143825903E-02  0.32117036157E+00  0.14564589237E+01  0.14914689821E+01  0.51100000000E-03 0. -1.
    9000002    1    1    2    0    0  0.16879911203E+00 -0.89116114188E+00  0.64318168332E+00  0.14547123423E+01  0.93800000000E+00 0.  1.
         22    1    1    2    0    0 -0.17631349462E+00  0.56999078031E+00  0.19003593603E+01  0.19918186756E+01  0.00000000000E+00 0. -1.
</event>
<event>
 5    1  0.1160133E+000  0.1598504E+01  0.7818608E-02  0.3354989E+00
         11   -1    0    0    0    0  0.00000000000E+00  0.00000000000E+00  0.39999999674E+01  0.40000000000E+01  0.51100000000E-03 0.  1.
    9000002   -1    0    0    0    0 -0.00000000000E+00 -0.00000000000E+00  0.00000000000E+00  0.93800000000E+00  0.93800000000E+00 0.  1.
         11    1    1    2    0    0 -0.53318640465E+00 -0.25747865457E+00  0.13704856983E+01  0.14929214012E+01  0.51100000000E-03 0.  1.
    9000002    1    1    2    0    0  0.10168807968E+01  0.51166981724E+00  0.11576495038E+01  0.18750597138E+01  0.93800000000E+00 0.  1.
         22    1    1    2    0    0 -0.48369439214E+00 -0.25419116266E+00  0.14718647652E+01  0.15700188850E+01  0.00000000000E+00 0.  1.
</event>
<event>
 5    1  0.1160133E+000  0.1530258E+01  0.7818608E-02  0.3432721E+00
         11   -1    0    0    0    0  0.00000000000E+00  0.00000000000E+00  0.39999999674E+01  0.40000000000E+01  0.51100000000E-03 0. -1.
    9000002   -1    0    0    0    0 -0.00000000000E+00 -0.00000000000E+00  0.00000000000E+00  0.93800000000E+00  0.93800000000E+00 0. -1.
         11    1    1    2    0    0 -0.46436961689E+00  0.29039448612E+00  0.13605908110E+01  0.14666886905E+01  0.51100000000E-03 0. -1.
    9000002    1    1    2    0    0  0.37351504358E+00 -0.85997796426E+00  0.81209016724E+00  0.15551237978E+01  0.93800000000E+00 0. -1.
         22    1    1    2    0    0  0.90854573311E-01  0.56958347814E+00  0.18273189891E+01  0.19161875117E+01  0.00000000000E+00 0. -1.
</event>
<event>
 5    1  0.1160133E+000  0.1503797E+01  0.7818608E-02  0.3464889E+00
         11   -1    0    0    0    0  0.00000000000E+00  0.00000000000E+00  0.39999999674E+01  0.40000000000E+01  0.51100000000E-03 0.  1.
    9000002   -1    0    0    0    0 -0.00000000000E+00 -0.00000000000E+00  0.00000000000E+00  0.93800000000E+00  0.93800000000E+00 0.  1.
         11    1    1    2    0    0  0.23967933060E+00  0.18023558897E-01  0.79218816868E+00  0.82784864916E+00  0.51100000000E-03 0.  1.
    9000002    1    1    2    0    0 -0.79298788634E-01 -0.99966887708E+00  0.10317861987E+01  0.17175718097E+01  0.93800000000E+00 0.  1.
         22    1    1    2    0    0 -0.16038054197E+00  0.98164531818E+00  0.21760255999E+01  0.23925795411E+01  0.00000000000E+00 0.  1.
</event>
<event>
 5    1  0.1160133E+000  0.1581458E+01  0.7818608E-02  0.3373737E+00
         11   -1    0    0    0    0  0.00000000000E+00  0.00000000000E+00  0.39999999674E+01  0.40000000000E+01  0.51100000000E-03 0. -1.
    9000002   -1    0    0    0    0 -0.00000000000E+00 -0.00000000000E+00  0.00000000000E+00  0.93800000000E+00  0.93800000000E+00 0. -1.
         11    1    1    2    0    0  0.11084010462E+00  0.20073335641E+00  0.42703380022E+00  0.48470355561E+00  0.51100000000E-03 0. -1.
    9000002    1    1    2    0    0 -0.10750821900E+01 -0.59592072785E+00  0.16184770890E+01  0.22383554938E+01  0.93800000000E+00 0. -1.
         22    1    1    2    0    0  0.96424208541E+00  0.39518737143E+00  0.19544890782E+01  0.22149409506E+01  0.00000000000E+00 0. -1.
</event>
<event>
 5    1  0.1160133E+000  0.1598771E+01  0.7818608E-02  0.3354698E+00
         11   -1    0    0    0    0  0.00000000000E+00  0.00000000000E+00  0.39999999674E+01  0.40000000000E+01  0.51100000000E-03 0.  1.
    9000002   -1    0    0    0    0 -0.00000000000E+00 -0.00000000000E+00  0.00000000000E+00  0.93800000000E+00  0.93800000000E+00 0.  1.
         11    1    1    2    0    0  0.14071366485E+00  0.38805131889E+00  0.11993356072E+01  0.12683809843E+01  0.51100000000E-03 0.  1.
    9000002    1    1    2    0    0 -0.27484945584E+00 -0.10227955199E+01  0.93862508112E+00  0.16977967905E+01  0.93800000000E+00 0.  1.
         22    1    1    2    0    0  0.13413579099E+00  0.63474420099E+00  0.18620392790E+01  0.19718222252E+01  0.00000000000E+00 0.  1.
</event>
<event>
 5    1  0.1160133E+000  0.1545127E+01  0.7818608E-02  0.3415163E+00
         11   -1    0    0    0    0  0.00000000000E+00  0.00000000000E+00  0.39999999674E+01  0.40000000000E+01  0.51100000000E-03 0. -1.
    9000002   -1    0    0    0    0 -0.00000000000E+00 -0.00000000000E+00  0.00000000000E+00  0.93800000000E+00  0.93800000000E+00 0. -1.
         11    1    1    2    0    0 -0.15382915721E+00  0.30394943391E+00  0.82781584170E+00  0.89516925599E+00  0.51100000000E-03 0. -1.
    9000002    1    1    2    0    0 -0.29056684416E+00 -0.11532343126E+01  0.16139080313E+01  0.22133507639E+01  0.93800000000E+00 0. -1.
         22    1    1    2    0    0  0.44439600137E+00  0.84928487871E+00  0.15582760944E+01  0.18294799801E+01  0.00000000000E+00 0. -1.
</event>
<event>
 5    1  0.1160133E+000  0.1594701E+01  0.7818608E-02  0.3359135E+00
         11   -1    0    0    0    0  0.00000000000E+00  0.00000000000E+00  0.39999999674E+01  0.40000000000E+01  0.51100000000E-03 0.  1.
    9000002   -1    0    0    0    0 -0.00000000000E+00 -0.00000000000E+00  0.00000000000E+00  0.93800000000E+00  0.93800000000E+00 0. -1.
         11    1    1    2    0    0  0.29327914204E-01 -0.67011894607E-01  0.32689341688E+00  0.33497804061E+00  0.51100000000E-03 0.  1.
    9000002    1    1    2    0    0  0.14249923734E+00  0.94229223887E+00  0.72116383763E+00  0.15192570476E+01  0.93800000000E+00 0. -1.
         22    1    1    2    0    0 -0.17182715155E+00 -0.87528034426E+00  0.29519427128E+01  0.30837649118E+01  0.00000000000E+00 0.  1.
</event>
<event>
 5    1  0.1160133E+000  0.1598043E+01  0.7818608E-02  0.3355490E+00
         11   -1    0    0    0    0  0.00000000000E+00  0.00000000000E+00  0.39999999674E+01  0.40000000000E+01  0.51100000000E-03 0. -1.
    9000002   -1    0    0    0    0 -0.00000000000E+00 -0.00000000000E+00  0.00000000000E+00  0.93800000000E+00  0.93800000000E+00 0.  1.
         11    1    1    2    0    0  0.33181618553E+00 -0.16349937863E+00  0.45941929880E+00  0.58983080711E+00  0.51100000000E-03 0. -1.
    9000002    1    1    2    0    0 -0.11207565522E+01  0.64609727440E+00  0.21752136207E+01  0.26990619172E+01  0.93800000000E+00 0.  1.
         22    1    1    2    0    0  0.78894036671E+00 -0.48259789577E+00  0.13653670479E+01  0.16491072757E+01  0.00000000000E+00 0. -1.
</event>
<event>
 5    1  0.1160133E+000  0.1599634E+01  0.7818608E-02  0.3353760E+00
         11   -1    0    0    0    0  0.00000000000E+00  0.00000000000E+00  0.39999999674E+01  0.40000000000E+01  0.51100000000E-03 0.  1.
    9000002   -1    0    0    0    0 -0.00000000000E+00 -0.00000000000E+00  0.00000000000E+00  0.93800000000E+00  0.93800000000E+00 0.  1.
         11    1    1    2    0    0  0.28527982121E+00 -0.30136359474E+00  0.13528956016E+01  0.14151082512E+01  0.51100000000E-03 0.  1.
    9000002    1    1    2    0    0 -0.68871808677E+00  0.70234343202E+00  0.77144210499E+00  0.15628774171E+01  0.93800000000E+00 0.  1.
         22    1    1    2    0    0  0.40343826556E+00 -0.40097983728E+00  0.18756622607E+01  0.19600143317E+01  0.00000000000E+00 0.  1.
</event>
<event>
 5    1  0.1160133E+000  0.1599618E+01  0.7818608E-02  0.3353778E+00
         11   -1    0    0    0    0  0.00000000000E+00  0.00000000000E+00  0.39999999674E+01  0.40000000000E+01  0.51100000000E-03 0.  1.
    9000002   -1    0    0    0    0 -0.00000000000E+00 -0.00000000000E+00  0.00000000000E+00  0.93800000000E+00  0.93800000000E+00 0. -1.
         11    1    1    2    0    0 -0.15439552153E+00  0.22027322796E+00  0.71808622610E+00  0.76681572836E+00  0.51100000000E-03 0.  1.
    9000002    1    1    2    0    0  0.65639653530E+00 -0.88205882307E+00  0.10405737373E+01  0.17808767171E+01  0.93800000000E+00 0. -1.
         22    1    1    2    0    0 -0.50200101377E+00  0.66178559510E+00  0.22413400040E+01  0.23903075545E+01  0.00000000000E+00 0.  1.
</event>
<event>
 5    1  0.1160133E+000  0.1599025E+01  0.7818608E-02  0.3354423E+00
         11   -1    0    0    0    0  0.00000000000E+00  0.00000000000E+00  0.39999999674E+01  0.40000000000E+01  0.51100000000E-03 0. -1.
    9000002   -1    0    0    0    0 -0.00000000000E+00 -0.00000000000E+00  0.00000000000E+00  0.93800000000E+00  0.93800000000E+00 0.  1.
         11    1    1    2    0    0  0.26179575558E+00  0.16384967771E+00  0.98097401986E+00  0.10284425231E+01  0.51100000000E-03 0. -1.
    9000002    1    1    2    0    0 -0.81628321306E+00 -0.47720865524E+00  0.69992573032E+00  0.15045884529E+01  0.93800000000E+00 0.  1.
         22    1    1    2    0    0  0.55448745748E+00  0.31335897752E+00  0.23191002172E+01  0.24049690240E+01  0.00000000000E+00 0. -1.
</event>
<event>
 5    1  0.1160133E+000  0.1599677E+01  0.7818608E-02  0.3353714E+00
         11   -1    0    0    0    0  0.00000000000E+00  0.00000000000E+00  0.39999999674E+01  0.40000000000E+01  0.51100000000E-03 0.  1.
    9000002   -1    0    0    0    0 -0.00000000000E+00 -0.00000000000E+00  0.00000000000E+00  0.93800000000E+00  0.93800000000E+00 0. -1.
         11    1    1    2    0    0 -0.45999725681E+00 -0.62485052922E-01  0.13167373632E+01  0.13961731278E+01  0.51100000000E-03 0.  1.
    9000002    1    1    2    0    0  0.10614999064E+01  0.14333964492E+00  0.96623210382E+00  0.17206907867E+01  0.93800000000E+00 0. -1.
         22    1    1    2    0    0 -0.60150264961E+00 -0.80854592001E-01  0.17170305004E+01  0.18211360855E+01  0.00000000000E+00 0.  1.
</event>
<event>
 5    1  0.1160133E+000  0.1599677E+01  0.7818608E-02  0.3353714E+00
         11   -1    0    0    0    0  0.00000000000E+00  0.00000000000E+00  0.39999999674E+01  0.40000000000E+01  0.51100000000E-03 0. -1.
    9000002   -1    0    0    0    0 -0.00000000000E+00 -0.00000000000E+00  0.00000000000E+00  0.93800000000E+00  0.93800000000E+00 0.  1.
         11    1    1    2    0    0 -0.20866779070E+00  0.13283052241E+00  0.86416383904E+00  0.89886906521E+00  0.51100000000E-03 0. -1.
    9000002    1    1    2    0    0  0.79589013922E+00 -0.50758769524E+00  0.69597192160E+00  0.15017680572E+01  0.93800000000E+00 0.  1.
         22    1    1    2    0    0 -0.58722234853E+00  0.37475717282E+00  0.24398642067E+01  0.25373628776E+01  0.00000000000E+00 0. -1.
</event>
<event>
 5    1  0.1160133E+000  0.1489353E+01  0.7818608E-02  0.3482968E+00
         11   -1    0    0    0    0  0.00000000000E+00  0.00000000000E+00  0.39999999674E+01  0.40000000000E+01  0.51100000000E-03 0.  1.
    9000002   -1    0    0    0    0 -0.00000000000E+00 -0.00000000000E+00  0.00000000000E+00  0.93800000000E+00  0.93800000000E+00 0. -1.
         11    1    1    2    0    0  0.16912663748E+00 -0.84891917783E-01  0.39084982160E+00  0.43425142646E+00  0.51100000000E-03 0.  1.
    9000002    1    1    2    0    0  0.68050152590E+00  0.19812808997E+00  0.49817944242E+00  0.12768570099E+01  0.93800000000E+00 0. -1.
         22    1    1    2    0    0 -0.84962816338E+00 -0.11323617219E+00  0.31109707033E+01  0.32268915637E+01  0.00000000000E+00 0.  1.
</event>
<event>
 5    1  0.1160133E+000  0.1599677E+01  0.7818608E-02  0.3353714E+00
         11   -1    0    0    0    0  0.00000000000E+00  0.00000000000E+00  0.39999999674E+01  0.40000000000E+01  0.51100000000E-03 0.  1.
    9000002   -1    0    0    0    0 -0.00000000000E+00 -0.00000000000E+00  0.00000000000E+00  0.93800000000E+00  0.93800000000E+00 0.  1.
         11    1    1    2    0    0  0.66013337973E+00  0.14637094029E-01  0.82703899722E+00  0.10582930065E+01  0.51100000000E-03 0.  1.
    9000002    1    1    2    0    0 -0.12915023407E+01 -0.29105712188E-01  0.23829439783E+01  0.28682906830E+01  0.93800000000E+00 0.  1.
         22    1    1    2    0    0  0.63136896095E+00  0.14468618159E-01  0.79001699182E+00  0.10114163105E+01  0.00000000000E+00 0.  1.
</event>
<event>
 5    1  0.1160133E+000  0.1599675E+01  0.7818608E-02  0.3353717E+00
         11   -1    0    0    0    0  0.00000000000E+00  0.00000000000E+00  0.39999999674E+01  0.40000000000E+01  0.51100000000E-03 0.  1.
    9000002   -1    0    0    0    0 -0.00000000000E+00 -0.00000000000E+00  0.00000000000E+00  0.93800000000E+00  0.93800000000E+00 0.  1.
         11    1    1    2    0    0 -0.24589605101E+00  0.31006933369E+00  0.11618038112E+01  0.12273533380E+01  0.51100000000E-03 0.  1.
    9000002    1    1    2    0    0  0.65675419459E+00 -0.82187008538E+00  0.91971262041E+00  0.16830067776E+01  0.93800000000E+00 0.  1.
         22    1    1    2    0    0 -0.41085814358E+00  0.51180075169E+00  0.19184835358E+01  0.20276398843E+01  0.00000000000E+00 0.  1.
</event>
<event>
 5    1  0.1160133E+000  0.1149655E+01  0.7818608E-02  0.4117242E+00
         11   -1    0    0    0    0  0.00000000000E+00  0.00000000000E+00  0.39999999674E+01  0.40000000000E+01  0.51100000000E-03 0.  1.
    9000002   -1    0    0    0    0 -0.00000000000E+00 -0.00000000000E+00  0.00000000000E+00  0.93800000000E+00  0.93800000000E+00 0.  1.
         11    1    1    2    0    0  0.54584287217E+00  0.32742929087E+00  0.78018474831E+00  0.10068976533E+01  0.51100000000E-03 0.  1.
    9000002    1    1    2    0    0  0.20027813054E+00  0.12172444574E+00  0.52736686539E+00  0.11013119363E+01  0.93800000000E+00 0.  1.
         22    1    1    2    0    0 -0.74612100271E+00 -0.44915373661E+00  0.26924483537E+01  0.28297904104E+01  0.00000000000E+00 0.  1.
</event>
<event>
 5    1  0.1160133E+000  0.1599671E+01  0.7818608E-02  0.3353721E+00
         11   -1    0    0    0    0  0.00000000000E+00  0.00000000000E+00  0.39999999674E+01  0.40000000000E+01  0.51100000000E-03 0. -1.
    9000002   -1    0    0    0    0 -0.00000000000E+00 -0.00000000000E+00  0.00000000000E+00  0.93800000000E+00  0.93800000000E+00 0. -1.
         11    1    1    2    0    0 -0.17034339870E+00  0.30498553413E+00  0.91796249336E+00  0.98218554756E+00  0.51100000000E-03 0. -1.
    9000002    1    1    2    0    0  0.54695782319E+00 -0.96542220395E+00  0.10685285130E+01  0.18035520717E+01  0.93800000000E+00 0. -1.
         22    1    1    2    0    0 -0.37661442450E+00  0.66043666981E+00  0.20135089610E+01  0.21522623807E+01  0.00000000000E+00 0. -1.
</event>
<event>
 5    1  0.1160133E+000  0.1599333E+01  0.7818608E-02  0.3354087E+00
         11   -1    0    0    0    0  0.00000000000E+00  0.00000000000E+00  0.39999999674E+01  0.40000000000E+01  0.51100000000E-03 0. -1.
    9000002   -1    0    0    0    0 -0.00000000000E+00 -0.00000000000E+00  0.00000000000E+00  0.93800000000E+00  0.93800000000E+00 0.  1.
         11    1    1    2    0    0 -0.13169405658E+00 -0.46783152391E+00  0.12194706073E+01  0.13127522548E+01  0.51100000000E-03 0. -1.
    9000002    1    1    2    0    0  0.25778058187E+00  0.11006790655E+01  0.11307125994E+01  0.18537260359E+01  0.93800000000E+00 0.  1.
         22    1    1    2    0    0 -0.12608652529E+00 -0.63284754161E+00  0.16498167607E+01  0.17715217094E+01  0.00000000000E+00 0. -1.
</event>
<event>
 5    1  0.1160133E+000  0.1598528E+01  0.7818608E-02  0.3354963E+00
         11   -1    0    0    0    0  0.00000000000E+00  0.00000000000E+00  0.39999999674E+01  0.40000000000E+01  0.51100000000E-03 0.  1.
    9000002   -1    0    0    0    0 -0.00000000000E+00 -0.00000000000E+00  0.00000000000E+00  0.93800000000E+00  0.93800000000E+00 0.  1.
         11    1    1    2    0    0 -0.29061490604E+00 -0.54700680448E-01  0.12032258892E+01  0.12390326830E+01  0.51100000000E-03 0.  1.
    9000002    1    1    2    0    0  0.89808729498E+00  0.79164521627E-01  0.62436151302E+00  0.14430866605E+01  0.93800000000E+00 0.  1.
         22    1    1    2    0    0 -0.60747238894E+00 -0.24463841179E-01  0.21724125651E+01  0.22558806564E+01  0.00000000000E+00 0.  1.
</event>
<event>
 5    1  0.1160133E+000  0.1599674E+01  0.7818608E-02  0.3353717E+00
         11   -1    0    0    0    0  0.00000000000E+00  0.00000000000E+00  0.39999999674E+01  0.40000000000E+01  0.51100000000E-03 0.  1.
    9000002   -1    0    0    0    0 -0.00000000000E+00 -0.00000000000E+00  0.00000000000E+00  0.93800000000E+00  0.93800000000E+00 0.  1.
         11    1    1    2    0    0  0.31269163559E-01  0.37233529621E-01  0.12652480411E+00  0.13554661004E+00  0.51100000000E-03 0.  1.
    9000002    1    1    2    0    0 -0.72301013682E+00 -0.84379102347E+00  0.10730194132E+01  0.18071916363E+01  0.93800000000E+00 0.  1.
         22    1    1    2    0    0  0.69174097326E+00  0.80655749385E+00  0.28004557500E+01  0.29952617536E+01  0.00000000000E+00 0.  1.
</event>
<event>
 5    1  0.1160133E+000  0.1599652E+01  0.7818608E-02  0.3353741E+00
         11   -1    0    0    0    0  0.00000000000E+00  0.00000000000E+00  0.39999999674E+01  0.40000000000E+01  0.51100000000E-03 0.  1.
    9000002   -1    0    0    0    0 -0.00000000000E+00 -0.00000000000E+00  0.00000000000E+00  0.93800000000E+00  0.93800000000E+00 0. -1.
         11    1    1    2    0    0 -0.49439830759E-01  0.10937283916E+00  0.42239481566E+00  0.43911770202E+00  0.51100000000E-03 0.  1.
    9000002    1    1    2    0    0  0.39648378008E+00 -0.87621660109E+00  0.72890524001E+00  0.15284311462E+01  0.93800000000E+00 0. -1.
         22    1    1    2    0    0 -0.34704394932E+00  0.76684376193E+00  0.28486999117E+01  0.29704511517E+01  0.00000000000E+00 0.  1.
</event>
<event>
 5    1  0.1160133E+000  0.1565221E+01  0.7818608E-02  0.3391998E+00
         11   -1    0    0    0    0  0.00000000000E+00  0.00000000000E+00  0.39999999674E+01  0.40000000000E+01  0.51100000000E-03 0.  1.
    9000002   -1    0    0    0    0 -0.00000000000E+00 -0.00000000000E+00  0.00000000000E+00  0.93800000000E+00  0.93800000000E+00 0.  1.
         11    1    1    2    0    0  0.42635576936E-01  0.17006579471E+00  0.33668682116E+00  0.37960300791E+00  0.51100000000E-03 0.  1.
    9000002    1    1    2    0    0  0.73206777284E+00 -0.86694439426E+00  0.12557583024E+01  0.19350164653E+01  0.93800000000E+00 0.  1.
         22    1    1    2    0    0 -0.77470334978E+00  0.69687859955E+00  0.24075548438E+01  0.26233805268E+01  0.00000000000E+00 0.  1.
</event>
<event>
 5    1  0.1160133E+000  0.1599414E+01  0.7818608E-02  0.3354000E+00
         11   -1    0    0    0    0  0.00000000000E+00  0.00000000000E+00  0.39999999674E+01  0.40000000000E+01  0.51100000000E-03 0. -1.
    9000002   -1    0    0    0    0 -0.00000000000E+00 -0.00000000000E+00  0.00000000000E+00  0.93800000000E+00  0.93800000000E+00 0. -1.
         11    1    1    2    0    0 -0.31869371534E-01  0.14707695787E-01  0.51521633631E-01  0.62343508165E-01  0.51100000000E-03 0. -1.
    9000002    1    1    2    0    0  0.10737087301E+01 -0.69406183514E+00  0.18529811098E+01  0.24388430170E+01  0.93800000000E+00 0. -1.
         22    1    1    2    0    0 -0.10418393586E+01  0.67935413935E+00  0.20954972239E+01  0.24368134749E+01  0.00000000000E+00 0. -1.
</event>
<event>
 5    1  0.1160133E+000  0.1597407E+01  0.7818608E-02  0.3356183E+00
         11   -1    0    0    0    0  0.00000000000E+00  0.00000000000E+00  0.39999999674E+01  0.40000000000E+01  0.51100000000E-03 0. -1.
    9000002   -1    0    0    0    0 -0.00000000000E+00 -0.00000000000E+00  0.00000000000E+00  0.93800000000E+00  0.93800000000E+00 0.  1.
         11    1    1    2    0    0  0.36741125531E+00 -0.10525848543E+00  0.10687519257E+01  0.11350336203E+01  0.51100000000E-03 0. -1.
    9000002    1    1    2    0    0 -0.98660830233E+00  0.18650657301E+00  0.81740940813E+00  0.15988066752E+01  0.93800000000E+00 0.  1.
         22    1    1    2    0    0  0.61919704702E+00 -0.81248087583E-01  0.21138386335E+01  0.22041597046E+01  0.00000000000E+00 0. -1.
</event>
<event>
 5    1  0.1160133E+000  0.1467896E+01  0.7818608E-02  0.3510534E+00
         11   -1    0    0    0    0  0.00000000000E+00  0.00000000000E+00  0.39999999674E+01  0.40000000000E+01  0.51100000000E-03 0.  1.
    9000002   -1    0    0    0    0 -0.00000000000E+00 -0.00000000000E+00  0.00000000000E+00  0.93800000000E+00  0.93800000000E+00 0.  1.
         11    1    1    2    0    0 -0.55931850345E-01 -0.49882715648E+00  0.28285883419E+00  0.57616515439E+00  0.51100000000E-03 0.  1.
    9000002    1    1    2    0    0  0.62720498397E+00  0.83525684289E+00  0.15302920742E+01  0.20766988029E+01  0.93800000000E+00 0.  1.
         22    1    1    2    0    0 -0.57127313363E+00 -0.33642968641E+00  0.21868490590E+01  0.22851360427E+01  0.00000000000E+00 0.  1.
</event>
<event>
 5    1  0.1160133E+000  0.1455356E+01  0.7818608E-02  0.3527054E+00
         11   -1    0    0    0    0  0.00000000000E+00  0.00000000000E+00  0.39999999674E+01  0.40000000000E+01  0.51100000000E-03 0.  1.
    9000002   -1    0    0    0    0 -0.00000000000E+00 -0.00000000000E+00  0.00000000000E+00  0.93800000000E+00  0.93800000000E+00 0. -1.
         11    1    1    2    0    0  0.17334040722E+00 -0.88073200381E-02  0.12078508469E+01  0.12202575118E+01  0.51100000000E-03 0.  1.
    9000002    1    1    2    0    0  0.73859469507E+00  0.19892514050E+00  0.63226868877E+00  0.13655405633E+01  0.93800000000E+00 0. -1.
         22    1    1    2    0    0 -0.91193510229E+00 -0.19011782046E+00  0.21598804317E+01  0.23522019249E+01  0.00000000000E+00 0.  1.
</event>
<event>
 5    1  0.1160133E+000  0.1597507E+01  0.7818608E-02  0.3356074E+00
         11   -1    0    0    0    0  0.00000000000E+00  0.00000000000E+00  0.39999999674E+01  0.40000000000E+01  0.51100000000E-03 0.  1.
    9000002   -1    0    0    0    0 -0.00000000000E+00 -0.00000000000E+00  0.00000000000E+00  0.93800000000E+00  0.93800000000E+00 0. -1.
         11    1    1    2    0    0  0.14914631316E+00  0.12122947033E+00  0.48392184636E+00  0.52069359676E+00  0.51100000000E-03 0.  1.
    9000002    1    1    2    0    0 -0.91420983558E+00 -0.50942652369E+00  0.91157586954E+00  0.16751446422E+01  0.93800000000E+00 0. -1.
         22    1    1    2    0    0  0.76506352243E+00  0.38819705336E+00  0.26045022515E+01  0.27421617610E+01  0.00000000000E+00 0.  1.
</event>
<event>
 5    1  0.1160133E+000  0.1598758E+01  0.7818608E-02  0.3354713E+00
         11   -1    0    0    0    0  0.00000000000E+00  0.00000000000E+00  0.39999999674E+01  0.40000000000E+01  0.51100000000E-03 0. -1.
    9000002   -1    0    0    0    0 -0.00000000000E+00 -0.00000000000E+00  0.00000000000E+00  0.93800000000E+00  0.93800000000E+00 0. -1.
         11    1    1    2    0    0 -0.11346988286E+00 -0.43248315488E+00  0.99062358476E+00  0.10868543791E+01  0.51100000000E-03 0. -1.
    9000002    1    1    2    0    0  0.27740316422E+00  0.11206345758E+01  0.12092304107E+01  0.19169915373E+01  0.93800000000E+00 0. -1.
         22    1    1    2    0    0 -0.16393328136E+00 -0.68815142092E+00  0.18001459719E+01  0.19341540836E+01  0.00000000000E+00 0. -1.
</event>
<event>
 5    1  0.1160133E+000  0.1599677E+01  0.7818608E-02  0.3353714E+00
         11   -1    0    0    0    0  0.00000000000E+00  0.00000000000E+00  0.39999999674E+01  0.40000000000E+01  0.51100000000E-03 0.  1.
    9000002   -1    0    0    0    0 -0.00000000000E+00 -0.00000000000E+00  0.00000000000E+00  0.93800000000E+00  0.93800000000E+00 0.  1.
         11    1    1    2    0    0 -0.27992179620E+00 -0.23830592773E+00  0.11455630773E+01  0.12031047138E+01  0.51100000000E-03 0.  1.
    9000002    1    1    2    0    0  0.77372414421E+00  0.65826300111E+00  0.83794629654E+00  0.16167737089E+01  0.93800000000E+00 0.  1.
         22    1    1    2    0    0 -0.49380234800E+00 -0.41995707338E+00  0.20164905936E+01  0.21181215773E+01  0.00000000000E+00 0.  1.
</event>
<event>
 5    1  0.1160133E+000  0.1599671E+01  0.7818608E-02  0.3353721E+00
         11   -1    0    0    0    0  0.00000000000E+00  0.00000000000E+00  0.39999999674E+01  0.40000000000E+01  0.51100000000E-03 0.  1.
    9000002   -1    0    0    0    0 -0.00000000000E+00 -0.00000000000E+00  0.00000000000E+00  0.93800000000E+00  0.93800000000E+00 0. -1.
         11    1    1    2    0    0  0.10055328461E-01  0.62175854742E-01  0.21571025320E+00  0.22471786979E+00  0.51100000000E-03 0.  1.
    9000002    1    1    2    0    0 -0.13157506882E+00 -0.94406477753E+00  0.71287106531E+00  0.15154535488E+01  0.93800000000E+00 0. -1.
         22    1    1    2    0    0  0.12151974036E+00  0.88188892278E+00  0.30714186488E+01  0.31978285814E+01  0.00000000000E+00 0.  1.
</event>
<event>
 5    1  0.1160133E+000  0.1502596E+01  0.7818608E-02  0.3466379E+00
         11   -1    0    0    0    0  0.00000000000E+00  0.00000000000E+00  0.39999999674E+01  0.40000000000E+01  0.51100000000E-03 0.  1.
    9000002   -1    0    0    0    0 -0.00000000000E+00 -0.00000000000E+00  0.00000000000E+00  0.93800000000E+00  0.93800000000E+00 0.  1.
         11    1    1    2    0    0 -0.50774086533E+00 -0.24265145091E+00  0.11791753907E+01  0.13065739076E+01  0.51100000000E-03 0.  1.
    9000002    1    1    2    0    0  0.39839894254E+00  0.86138946406E+00  0.89763833934E+00  0.16082015155E+01  0.93800000000E+00 0.  1.
         22    1    1    2    0    0  0.10934192279E+00 -0.61873801315E+00  0.19231862373E+01  0.20232245769E+01  0.00000000000E+00 0.  1.
</event>
<event>
 5    1  0.1160133E+000  0.1599675E+01  0.7818608E-02  0.3353716E+00
         11   -1    0    0    0    0  0.00000000000E+00  0.00000000000E+00  0.39999999674E+01  0.40000000000E+01  0.51100000000E-03 0. -1.
    9000002   -1    0    0    0    0 -0.00000000000E+00 -0.00000000000E+00  0.00000000000E+00  0.93800000000E+00  0.93800000000E+00 0.  1.
         11    1    1    2    0    0  0.38629741234E+00 -0.94254182839E-01  0.13380731303E+01  0.13959045472E+01  0.51100000000E-03 0. -1.
    9000002    1    1    2    0    0 -0.94242396189E+00  0.23226805075E+00  0.74580805233E+00  0.15421365122E+01  0.93800000000E+00 0.  1.
         22    1    1    2    0    0  0.55612654955E+00 -0.13801386791E+00  0.19161187847E+01  0.19999589406E+01  0.00000000000E+00 0. -1.
</event>
<event>
 5    1  0.1160133E+000  0.1598820E+01  0.7818608E-02  0.3354645E+00
         11   -1    0    0    0    0  0.00000000000E+00  0.00000000000E+00  0.39999999674E+01  0.40000000000E+01  0.51100000000E-03 0.  1.
    9000002   -1    0    0    0    0 -0.00000000000E+00 -0.00000000000E+00  0.00000000000E+00  0.93800000000E+00  0.93800000000E+00 0. -1.
         11    1    1    2    0    0  0.33272202905E+00  0.37029935238E+00  0.13436255693E+01  0.14328836278E+01  0.51100000000E-03 0.  1.
    9000002    1    1    2    0    0 -0.70056458775E+00 -0.78781187037E+00  0.92687204482E+00  0.16883050886E+01  0.93800000000E+00 0. -1.
         22    1    1    2    0    0  0.36784255870E+00  0.41751251799E+00  0.17295023532E+01  0.18168112836E+01  0.00000000000E+00 0.  1.
</event>
<event>
 5    1  0.1160133E+000  0.1599626E+01  0.7818608E-02  0.3353770E+00
         11   -1    0    0    0    0  0.00000000000E+00  0.00000000000E+00  0.39999999674E+01  0.40000000000E+01  0.51100000000E-03 0.  1.
    9000002   -1    0    0    0    0 -0.00000000000E+00 -0.00000000000E+00  0.00000000000E+00  0.93800000000E+00  0.93800000000E+00 0.  1.
         11    1    1    2    0    0 -0.23964828488E+00  0.17013401620E+00  0.97672681882E+00  0.10199864821E+01  0.51100000000E-03 0.  1.
    9000002    1    1    2    0    0  0.78996013783E+00 -0.58833051268E+00  0.77403927509E+00  0.15649762333E+01  0.93800000000E+00 0.  1.
         22    1    1    2    0    0 -0.55031185295E+00  0.41819649648E+00  0.22492338735E+01  0.23530372846E+01  0.00000000000E+00 0.  1.
</event>
<event>
 5    1  0.1160133E+000  0.1599661E+01  0.7818608E-02  0.3353732E+00
         11   -1    0    0    0    0  0.00000000000E+00  0.00000000000E+00  0.39999999674E+01  0.40000000000E+01  0.51100000000E-03 0. -1.
    9000002   -1    0    0    0    0 -0.00000000000E+00 -0.00000000000E+00  0.00000000000E+00  0.93800000000E+00  0.93800000000E+00 0. -1.
         11    1    1    2    0    0  0.28850082696E+00  0.10538758645E+00  0.11294599839E+01  0.11704782727E+01  0.51100000000E-03 0. -1.
    9000002    1    1    2    0    0 -0.86792441642E+00 -0.31092051241E+00  0.65699986314E+00  0.14701895041E+01  0.93800000000E+00 0. -1.
         22    1    1    2    0    0  0.57942358946E+00  0.20553292596E+00  0.22135401203E+01  0.22973322233E+01  0.00000000000E+00 0. -1.
</event>
<event>
 5    1  0.1160133E+000  0.1589467E+01  0.7818608E-02  0.3364875E+00
         11   -1    0    0    0    0  0.00000000000E+00  0.00000000000E+00  0.39999999674E+01  0.40000000000E+01  0.51100000000E-03 0.  1.
    9000002   -1    0    0    0    0 -0.00000000000E+00 -0.00000000000E+00  0.00000000000E+00  0.93800000000E+00  0.93800000000E+00 0. -1.
         11    1    1    2    0    0  0.13292661851E+00  0.12463475986E+00  0.11558854368E+01  0.11701601230E+01  0.51100000000E-03 0.  1.
    9000002    1    1    2    0    0 -0.74484038186E+00 -0.40034814413E+00  0.54982302839E+00  0.13773943493E+01  0.93800000000E+00 0. -1.
         22    1    1    2    0    0  0.61191376335E+00  0.27571338426E+00  0.22942915021E+01  0.23904455277E+01  0.00000000000E+00 0.  1.
</event>
<event>
 5    1  0.1160133E+000  0.1597049E+01  0.7818608E-02  0.3356573E+00
         11   -1    0    0    0    0  0.00000000000E+00  0.00000000000E+00  0.39999999674E+01  0.40000000000E+01  0.51100000000E-03 0.  1.
    9000002   -1    0    0    0    0 -0.00000000000E+00 -0.00000000000E+00  0.00000000000E+00  0.93800000000E+00  0.93800000000E+00 0.  1.
         11    1    1    2    0    0  0.56230317784E+00  0.34251330611E-02  0.13905900970E+01  0.14999792246E+01  0.51100000000E-03 0.  1.
    9000002    1    1    2    0    0 -0.10768879778E+01 -0.16649423580E-01  0.98744907361E+00  0.17363365437E+01  0.93800000000E+00 0.  1.
         22    1    1    2    0    0  0.51458479992E+00  0.13224290519E-01  0.16219607967E+01  0.17016842317E+01  0.00000000000E+00 0.  1.
</event>
<event>
 5    1  0.1160133E+000  0.1599677E+01  0.7818608E-02  0.3353714E+00
         11   -1    0    0    0    0  0.00000000000E+00  0.00000000000E+00  0.39999999674E+01  0.40000000000E+01  0.51100000000E-03 0. -1.
    9000002   -1    0    0    0    0 -0.00000000000E+00 -0.00000000000E+00  0.00000000000E+00  0.93800000000E+00  0.93800000000E+00 0. -1.
         11    1    1    2    0    0 -0.22308912822E+00 -0.95587689051E-01  0.89304733623E+00  0.92544020406E+00  0.51100000000E-03 0.  1.
    9000002    1    1    2    0    0  0.83783201515E+00  0.36161003717E+00  0.64091282554E+00  0.14571676481E+01  0.93800000000E+00 0. -1.
         22    1    1    2    0    0 -0.61474288693E+00 -0.26602234812E+00  0.24660398056E+01  0.25553921479E+01  0.00000000000E+00 0. -1.
</event>
<event>
 5    1  0.1194961E+000  0.1524751E+01  0.7818608E-02  0.3439317E+00
         11   -1    0    0    0    0  0.00000000000E+00  0.00000000000E+00  0.39999999674E+01  0.40000000000E+01  0.51100000000E-03 0. -1.
    9000002   -1    0    0    0    0 -0.00000000000E+00 -0.00000000000E+00  0.00000000000E+00  0.93800000000E+00  0.93800000000E+00 0. -1.
         11    1    1    2    0    0 -0.13846338532E+00  0.76637147434E-01  0.83091484798E+00  0.84585170518E+00  0.51100000000E-03 0. -1.
    9000002    1    1    2    0    0 -0.60304193107E+00 -0.29296721907E+00  0.40478458036E+00  0.12219590495E+01  0.93800000000E+00 0.  1.
         22    1    1    2    0    0  0.74150531639E+00  0.21633007164E+00  0.27643005390E+01  0.28701892454E+01  0.00000000000E+00 0. -1.
</event>
<event>
 5    1  0.1160133E+000  0.1511669E+01  0.7818608E-02  0.3455193E+00
         11   -1    0    0    0    0  0.00000000000E+00  0.00000000000E+00  0.39999999674E+01  0.40000000000E+01  0.51100000000E-03 0. -1.
    9000002   -1    0    0    0    0 -0.00000000000E+00 -0.00000000000E+00  0.00000000000E+00  0.93800000000E+00  0.93800000000E+00 0.  1.
         11    1    1    2    0    0 -0.21559589378E+00 -0.15883885545E+00  0.12166113528E+01  0.12457346492E+01  0.51100000000E-03 0. -1.
    9000002    1    1    2    0    0 -0.34456795817E+00  0.63356875926E+00  0.48380577134E+00  0.12782990553E+01  0.93800000000E+00 0.  1.
         22    1    1    2    0    0  0.56016385196E+00 -0.47472990381E+00  0.22995828432E+01  0.24139662954E+01  0.00000000000E+00 0.  1.
</event>
<event>
 5    1  0.1160133E+000  0.1599676E+01  0.7818608E-02  0.3353715E+00
         11   -1    0    0    0    0  0.00000000000E+00  0.00000000000E+00  0.39999999674E+01  0.40000000000E+01  0.51100000000E-03 0. -1.
    9000002   -1    0    0    0    0 -0.00000000000E+00 -0.00000000000E+00  0.00000000000E+00  0.93800000000E+00  0.93800000000E+00 0. -1.
         11    1    1    2    0    0 -0.79477173189E-01  0.48949821447E-01  0.83512390473E-01  0.12524889844E+00  0.51100000000E-03 0. -1.
    9000002    1    1    2    0    0  0.10510386297E+01 -0.64120087109E+00  0.28990508659E+01  0.32863597918E+01  0.93800000000E+00 0. -1.
         22    1    1    2    0    0 -0.97156145651E+00  0.59225104965E+00  0.10174367110E+01  0.15263913098E+01  0.00000000000E+00 0. -1.
</event>
<event>
 5    1  0.1160133E+000  0.1599676E+01  0.7818608E-02  0.3353715E+00
         11   -1    0    0    0    0  0.00000000000E+00  0.00000000000E+00  0.39999999674E+01  0.40000000000E+01  0.51100000000E-03 0.  1.
    9000002   -1    0    0    0    0 -0.00000000000E+00 -0.00000000000E+00  0.00000000000E+00  0.93800000000E+00  0.93800000000E+00 0. -1.
         11    1    1    2    0    0  0.23271348143E+00  0.21481716609E+00  0.11391953461E+01  0.11823993729E+01  0.51100000000E-03 0.  1.
    9000002    1    1    2    0    0 -0.67877250817E+00 -0.62843465754E+00  0.66231975074E+00  0.14745079481E+01  0.93800000000E+00 0. -1.
         22    1    1    2    0    0  0.44605902674E+00  0.41361749145E+00  0.21984848705E+01  0.22810926790E+01  0.00000000000E+00 0.  1.
</event>
<event>
 5    1  0.1160133E+000  0.1599677E+01  0.7818608E-02  0.3353714E+00
         11   -1    0    0    0    0  0.00000000000E+00  0.00000000000E+00  0.39999999674E+01  0.40000000000E+01  0.51100000000E-03 0.  1.
    9000002   -1    0    0    0    0 -0.00000000000E+00 -0.00000000000E+00  0.00000000000E+00  0.93800000000E+00  0.93800000000E+00 0. -1.
         11    1    1    2    0    0 -0.19770778448E+00  0.60918244687E-01  0.64855312849E+00  0.68075019073E+00  0.51100000000E-03 0.  1.
    9000002    1    1    2    0    0  0.96534882283E+00 -0.29758952759E+00  0.82580931043E+00  0.16069420941E+01  0.93800000000E+00 0. -1.
         22    1    1    2    0    0 -0.76764103835E+00  0.23667128291E+00  0.25256375284E+01  0.26503077152E+01  0.00000000000E+00 0.  1.
</event>
<event>
 5    1  0.1160133E+000  0.1599373E+01  0.7818608E-02  0.3354045E+00
         11   -1    0    0    0    0  0.00000000000E+00  0.00000000000E+00  0.39999999674E+01  0.40000000000E+01  0.51100000000E-03 0.  1.
    9000002   -1    0    0    0    0 -0.00000000000E+00 -0.00000000000E+00  0.00000000000E+00  0.93800000000E+00  0.93800000000E+00 0.  1.
         11    1    1    2    0    0 -0.85634481450E-01  0.13320843127E+00  0.43334332200E+00  0.46137235116E+00  0.51100000000E-03 0.  1.
    9000002    1    1    2    0    0  0.63683921403E+00 -0.94603673145E+00  0.11615092052E+01  0.18786956420E+01  0.93800000000E+00 0.  1.
         22    1    1    2    0    0 -0.55120473259E+00  0.81282830018E+00  0.24051474402E+01  0.25979320068E+01  0.00000000000E+00 0.  1.
</event>
<event>
 5    1  0.1160133E+000  0.1599662E+01  0.7818608E-02  0.3353730E+00
         11   -1    0    0    0    0  0.00000000000E+00  0.00000000000E+00  0.39999999674E+01  0.40000000000E+01  0.51100000000E-03 0.  1.
    9000002   -1    0    0    0    0 -0.00000000000E+00 -0.00000000000E+00  0.00000000000E+00  0.93800000000E+00  0.93800000000E+00 0.  1.
         11    1    1    2    0    0  0.11911129341E+00 -0.35782716421E-01  0.40947531151E+00  0.42794648599E+00  0.51100000000E-03 0.  1.
    9000002    1    1    2    0    0 -0.95636067769E+00  0.27255312575E+00  0.79307896490E+00  0.15804205759E+01  0.93800000000E+00 0.  1.
         22    1    1    2    0    0  0.83724938428E+00 -0.23677040933E+00  0.27974456909E+01  0.29296329381E+01  0.00000000000E+00 0.  1.
</event>
<event>
 5    1  0.1160133E+000  0.1599662E+01  0.7818608E-02  0.3353730E+00
         11   -1    0    0    0    0  0.00000000000E+00  0.00000000000E+00  0.39999999674E+01  0.40000000000E+01  0.51100000000E-03 0.  1.
    9000002   -1    0    0    0    0 -0.00000000000E+00 -0.00000000000E+00  0.00000000000E+00  0.93800000000E+00  0.93800000000E+00 0. -1.
         11    1    1    2    0    0  0.10337332384E+00 -0.40026746153E+00  0.10279949408E+01  0.11080044875E+01  0.51100000000E-03 0.  1.
    9000002    1    1    2    0    0 -0.29431508336E+00  0.10989718411E+01  0.11520816348E+01  0.18712286256E+01  0.93800000000E+00 0. -1.
         22    1    1    2    0    0  0.19094175952E+00 -0.69870437961E+00  0.18199233917E+01  0.19587668869E+01  0.00000000000E+00 0.  1.
</event>
<event>
 5    1  0.1201167E+000  0.1595567E+01  0.7818608E-02  0.3358189E+00
         11   -1    0    0    0    0  0.00000000000E+00  0.00000000000E+00  0.39999999674E+01  0.40000000000E+01  0.51100000000E-03 0. -1.
    9000002   -1    0    0    0    0 -0.00000000000E+00 -0.00000000000E+00  0.00000000000E+00  0.93800000000E+00  0.93800000000E+00 0. -1.
         11    1    1    2    0    0  0.23749139829E+00  0.13277851374E+00  0.12367677403E+01  0.12663439511E+01  0.51100000000E-03 0. -1.
    9000002    1    1    2    0    0 -0.82228926109E+00 -0.23864782673E+00  0.55702940869E+00  0.13868086300E+01  0.93800000000E+00 0. -1.
         22    1    1    2    0    0  0.58479786280E+00  0.10586931299E+00  0.22062028184E+01  0.22848474189E+01  0.00000000000E+00 0. -1.
</event>
<event>
 5    1  0.1160133E+000  0.1599661E+01  0.7818608E-02  0.3353732E+00
         11   -1    0    0    0    0  0.00000000000E+00  0.00000000000E+00  0.39999999674E+01  0.40000000000E+01  0.51100000000E-03 0.  1.
    9000002   -1    0    0    0    0 -0.00000000000E+00 -0.00000000000E+00  0.00000000000E+00  0.93800000000E+00  0.93800000000E+00 0. -1.
         11    1    1    2    0    0 -0.21886700351E+00  0.91571766173E-01  0.71843685746E+00  0.75659760300E+00  0.51100000000E-03 0. -1.
    9000002    1    1    2    0    0  0.96387676117E+00 -0.38919850974E+00  0.89047244430E+00  0.16593128291E+01  0.93800000000E+00 0. -1.
         22    1    1    2    0    0 -0.74500975765E+00  0.29762674357E+00  0.23910906656E+01  0.25220895679E+01  0.00000000000E+00 0.  1.
</event>
<event>
 5    1  0.1160133E+000  0.1577024E+01  0.7818608E-02  0.3378684E+00
         11   -1    0    0    0    0  0.00000000000E+00  0.00000000000E+00  0.39999999674E+01  0.40000000000E+01  0.51100000000E-03 0. -1.
    9000002   -1    0    0    0    0 -0.00000000000E+00 -0.00000000000E+00  0.00000000000E+00  0.93800000000E+00  0.93800000000E+00 0.  1.
         11    1    1    2    0    0  0.10770332532E+00  0.17874657622E+00  0.52564037258E+00  0.56555141871E+00  0.51100000000E-03 0. -1.
    9000002    1    1    2    0    0 -0.87137469828E+00 -0.30681704011E+00  0.69799687118E+00  0.14901255629E+01  0.93800000000E+00 0.  1.
         22    1    1    2    0    0  0.76367137296E+00  0.12807046389E+00  0.27763627236E+01  0.28823230184E+01  0.00000000000E+00 0. -1.
</event>
<event>
 5    1  0.1160133E+000  0.1599289E+01  0.7818608E-02  0.3354136E+00
         11   -1    0    0    0    0  0.00000000000E+00  0.00000000000E+00  0.39999999674E+01  0.40000000000E+01  0.51100000000E-03 0. -1.
    9000002   -1    0    0    0    0 -0.00000000000E+00 -0.00000000000E+00  0.00000000000E+00  0.93800000000E+00  0.93800000000E+00 0. -1.
         11    1    1    2    0    0  0.71205541915E-01  0.19871169170E+00  0.83025790444E+00  0.85667089049E+00  0.51100000000E-03 0. -1.
    9000002    1    1    2    0    0 -0.23114499790E+00 -0.86882531681E+00  0.61902133879E+00  0.14392070244E+01  0.93800000000E+00 0. -1.
         22    1    1    2    0    0  0.15993945598E+00  0.67011362511E+00  0.25507207241E+01  0.26421220851E+01  0.00000000000E+00 0. -1.
</event>
<event>
 5    1  0.1160133E+000  0.1599676E+01  0.7818608E-02  0.3353715E+00
         11   -1    0    0    0    0  0.00000000000E+00  0.00000000000E+00  0.39999999674E+01  0.40000000000E+01  0.51100000000E-03 0.  1.
    9000002   -1    0    0    0    0 -0.00000000000E+00 -0.00000000000E+00  0.00000000000E+00  0.93800000000E+00  0.93800000000E+00 0.  1.
         11    1    1    2    0    0 -0.20617766178E-01 -0.36015804498E+00  0.12825101039E+01  0.13322805025E+01  0.51100000000E-03 0.  1.
    9000002    1    1    2    0    0  0.52811679112E-01  0.93423166206E+00  0.68114800226E+00  0.14897598709E+01  0.93800000000E+00 0.  1.
         22    1    1    2    0    0 -0.32193912934E-01 -0.57407361708E+00  0.20363418612E+01  0.21159596266E+01  0.00000000000E+00 0.  1.
</event>
<event>
 5    1  0.1160133E+000  0.1599677E+01  0.7818608E-02  0.3353714E+00
         11   -1    0    0    0    0  0.00000000000E+00  0.00000000000E+00  0.39999999674E+01  0.40000000000E+01  0.51100000000E-03 0. -1.
    9000002   -1    0    0    0    0 -0.00000000000E+00 -0.00000000000E+00  0.00000000000E+00  0.93800000000E+00  0.93800000000E+00 0. -1.
         11    1    1    2    0    0  0.42113218053E+00  0.47366419980E+00  0.12613572355E+01  0.14116417479E+01  0.51100000000E-03 0. -1.
    9000002    1    1    2    0    0 -0.82109398258E+00 -0.92262471471E+00  0.15413103113E+01  0.21865299377E+01  0.93800000000E+00 0. -1.
         22    1    1    2    0    0  0.39996180205E+00  0.44896051491E+00  0.11973324205E+01  0.13398283144E+01  0.00000000000E+00 0. -1.
</event>
<event>
 5    1  0.1160133E+000  0.1599669E+01  0.7818608E-02  0.3353722E+00
         11   -1    0    0    0    0  0.00000000000E+00  0.00000000000E+00  0.39999999674E+01  0.40000000000E+01  0.51100000000E-03 0. -1.
    9000002   -1    0    0    0    0 -0.00000000000E+00 -0.00000000000E+00  0.00000000000E+00  0.93800000000E+00  0.93800000000E+00 0.  1.
         11    1    1    2    0    0 -0.10360548833E+00  0.17079595423E+00  0.61366442415E+00  0.64536008691E+00  0.51100000000E-03 0. -1.
    9000002    1    1    2    0    0  0.53550666659E+00 -0.86538305332E+00  0.84188463070E+00  0.16199595521E+01  0.93800000000E+00 0.  1.
         22    1    1    2    0    0 -0.43190117826E+00  0.69458709909E+00  0.25444509125E+01  0.26726803610E+01  0.00000000000E+00 0. -1.
</event>
<event>
 5    1  0.1160133E+000  0.1599553E+01  0.7818608E-02  0.3353849E+00
         11   -1    0    0    0    0  0.00000000000E+00  0.00000000000E+00  0.39999999674E+01  0.40000000000E+01  0.51100000000E-03 0.  1.
    9000002   -1    0    0    0    0 -0.00000000000E+00 -0.00000000000E+00  0.00000000000E+00  0.93800000000E+00  0.93800000000E+00 0. -1.
         11    1    1    2    0    0 -0.68005400107E-01  0.14780779257E-01  0.21888824787E+00  0.22968572453E+00  0.51100000000E-03 0.  1.
    9000002    1    1    2    0    0  0.99415317354E+00 -0.11688624626E+00  0.80679288254E+00  0.15914652627E+01  0.93800000000E+00 0. -1.
         22    1    1    2    0    0 -0.92614777343E+00  0.10210546701E+00  0.29743188370E+01  0.31168490128E+01  0.00000000000E+00 0.  1.
</event>
<event>
 5    1  0.1160133E+000  0.1562895E+01  0.7818608E-02  0.3394647E+00
         11   -1    0    0    0    0  0.00000000000E+00  0.00000000000E+00  0.39999999674E+01  0.40000000000E+01  0.51100000000E-03 0.  1.
    9000002   -1    0    0    0    0 -0.00000000000E+00 -0.00000000000E+00  0.00000000000E+00  0.93800000000E+00  0.93800000000E+00 0.  1.
         11    1    1    2    0    0  0.31717778040E+00 -0.65750101311E-01  0.13795462498E+01  0.14170649021E+01  0.51100000000E-03 0.  1.
    9000002    1    1    2    0    0 -0.83794354601E+00 -0.38344876466E+00  0.71841710851E+00  0.14983822887E+01  0.93800000000E+00 0.  1.
         22    1    1    2    0    0  0.52076576561E+00  0.44919886597E+00  0.19020366091E+01  0.20225528092E+01  0.00000000000E+00 0.  1.
</event>
<event>
 5    1  0.1160133E+000  0.1676137E+01  0.7818608E-02  0.3274660E+00
         11   -1    0    0    0    0  0.00000000000E+00  0.00000000000E+00  0.39999999674E+01  0.40000000000E+01  0.51100000000E-03 0.  1.
    9000002   -1    0    0    0    0 -0.00000000000E+00 -0.00000000000E+00  0.00000000000E+00  0.93800000000E+00  0.93800000000E+00 0. -1.
         11    1    1    2    0    0  0.33387309888E+00  0.47934126947E+00  0.71549736068E+00  0.92367528549E+00  0.51100000000E-03 0.  1.
    9000002    1    1    2    0    0  0.50181067341E+00 -0.17056228968E+00  0.71065721828E+00  0.12906522105E+01  0.93800000000E+00 0. -1.
         22    1    1    2    0    0 -0.83568377229E+00 -0.30877897979E+00  0.25738453884E+01  0.27236725040E+01  0.00000000000E+00 0.  1.
</event>
<event>
 5    1  0.1431769E+000  0.1547397E+01  0.7818608E-02  0.3412513E+00
         11   -1    0    0    0    0  0.00000000000E+00  0.00000000000E+00  0.39999999674E+01  0.40000000000E+01  0.51100000000E-03 0.  1.
    9000002   -1    0    0    0    0 -0.00000000000E+00 -0.00000000000E+00  0.00000000000E+00  0.93800000000E+00  0.93800000000E+00 0. -1.
         11    1    1    2    0    0  0.87681325968E-01  0.36520431177E-01  0.96858191926E+00  0.97322810905E+00  0.51100000000E-03 0.  1.
    9000002    1    1    2    0    0  0.16201375278E+00  0.63710132108E+00  0.36334339901E+00  0.12016692453E+01  0.93800000000E+00 0. -1.
         22    1    1    2    0    0 -0.24969507875E+00 -0.67362175225E+00  0.26680746491E+01  0.27631026457E+01  0.00000000000E+00 0.  1.
</event>
<event>
 5    1  0.1160133E+000  0.1599404E+01  0.7818608E-02  0.3354011E+00
         11   -1    0    0    0    0  0.00000000000E+00  0.00000000000E+00  0.39999999674E+01  0.40000000000E+01  0.51100000000E-03 0.  1.
    9000002   -1    0    0    0    0 -0.00000000000E+00 -0.00000000000E+00  0.00000000000E+00  0.93800000000E+00  0.93800000000E+00 0.  1.
         11    1    1    2    0    0  0.22642864595E+00 -0.14539570888E+00  0.84515396714E+00  0.88695847319E+00  0.51100000000E-03 0.  1.
    9000002    1    1    2    0    0 -0.85291676878E+00  0.59774352101E+00  0.89569805635E+00  0.16633951243E+01  0.93800000000E+00 0.  1.
         22    1    1    2    0    0  0.62648812283E+00 -0.45234781213E+00  0.22591479439E+01  0.23876464025E+01  0.00000000000E+00 0.  1.
</event>
<event>
 5    1  0.1160133E+000  0.1597412E+01  0.7818608E-02  0.3356177E+00
         11   -1    0    0    0    0  0.00000000000E+00  0.00000000000E+00  0.39999999674E+01  0.40000000000E+01  0.51100000000E-03 0. -1.
    9000002   -1    0    0    0    0 -0.00000000000E+00 -0.00000000000E+00  0.00000000000E+00  0.93800000000E+00  0.93800000000E+00 0.  1.
         11    1    1    2    0    0 -0.20463848909E+00 -0.20492851246E-01  0.81309951036E+00  0.83870611244E+00  0.51100000000E-03 0. -1.
    9000002    1    1    2    0    0  0.91211855562E+00  0.26691445956E+00  0.71155260003E+00  0.15130613639E+01  0.93800000000E+00 0.  1.
         22    1    1    2    0    0 -0.70748006654E+00 -0.24642160832E+00  0.24753478570E+01  0.25862325237E+01  0.00000000000E+00 0. -1.
</event>
<event>
 5    1  0.1160133E+000  0.1586838E+01  0.7818608E-02  0.3367774E+00
         11   -1    0    0    0    0  0.00000000000E+00  0.00000000000E+00  0.39999999674E+01  0.40000000000E+01  0.51100000000E-03 0. -1.
    9000002   -1    0    0    0    0 -0.00000000000E+00 -0.00000000000E+00  0.00000000000E+00  0.93800000000E+00  0.93800000000E+00 0.  1.
         11    1    1    2    0    0  0.17931588074E+00  0.54723875908E-01  0.61173480432E+00  0.63981920854E+00  0.51100000000E-03 0. -1.
    9000002    1    1    2    0    0 -0.87896215987E+00  0.26899959659E+00  0.67321111857E+00  0.14758023145E+01  0.93800000000E+00 0.  1.
         22    1    1    2    0    0  0.69964627913E+00 -0.32372347250E+00  0.27150540445E+01  0.28223784769E+01  0.00000000000E+00 0. -1.
</event>
<event>
 5    1  0.1160133E+000  0.1599667E+01  0.7818608E-02  0.3353725E+00
         11   -1    0    0    0    0  0.00000000000E+00  0.00000000000E+00  0.39999999674E+01  0.40000000000E+01  0.51100000000E-03 0.  1.
    9000002   -1    0    0    0    0 -0.00000000000E+00 -0.00000000000E+00  0.00000000000E+00  0.93800000000E+00  0.93800000000E+00 0.  1.
         11    1    1    2    0    0  0.40063686006E+00  0.21161551680E-01  0.39909060369E+00  0.56588980905E+00  0.51100000000E-03 0.  1.
    9000002    1    1    2    0    0 -0.12528792883E+01 -0.59256075078E-01  0.27647820155E+01  0.31775905002E+01  0.93800000000E+00 0.  1.
         22    1    1    2    0    0  0.85224242829E+00  0.38094523397E-01  0.83612734816E+00  0.11945196908E+01  0.00000000000E+00 0.  1.
</event>
<event>
 5    1  0.1160133E+000  0.1599676E+01  0.7818608E-02  0.3353715E+00
         11   -1    0    0    0    0  0.00000000000E+00  0.00000000000E+00  0.39999999674E+01  0.40000000000E+01  0.51100000000E-03 0. -1.
    9000002   -1    0    0    0    0 -0.00000000000E+00 -0.00000000000E+00  0.00000000000E+00  0.93800000000E+00  0.93800000000E+00 0.  1.
         11    1    1    2    0    0 -0.17234736631E+00  0.34328521642E+00  0.14250926771E+01  0.14759531680E+01  0.51100000000E-03 0. -1.
    9000002    1    1    2    0    0  0.40569998613E+00 -0.81287186396E+00  0.63409615313E+00  0.14516456446E+01  0.93800000000E+00 0.  1.
         22    1    1    2    0    0 -0.23335261982E+00  0.46958664754E+00  0.19408111371E+01  0.20104011875E+01  0.00000000000E+00 0. -1.
</event>
<event>
 5    1  0.1361124E+000  0.1550103E+01  0.7818608E-02  0.3409367E+00
         11   -1    0    0    0    0  0.00000000000E+00  0.00000000000E+00  0.39999999674E+01  0.40000000000E+01  0.51100000000E-03 0.  1.
    9000002   -1    0    0    0    0 -0.00000000000E+00 -0.00000000000E+00  0.00000000000E+00  0.93800000000E+00  0.93800000000E+00 0.  1.
         11    1    1    2    0    0 -0.64025129385E-02 -0.76504439184E-02  0.14059477531E+01  0.14059832385E+01  0.51100000000E-03 0.  1.
    9000002    1    1    2    0    0 -0.63479382357E+00  0.21712590489E+00  0.37495008184E+00  0.12126575860E+01  0.93800000000E+00 0.  1.
         22    1    1    2    0    0  0.64119633651E+00 -0.20947546097E+00  0.22191021324E+01  0.23193591755E+01  0.00000000000E+00 0.  1.
</event>
<event>
 5    1  0.1160133E+000  0.1599677E+01  0.7818608E-02  0.3353714E+00
         11   -1    0    0    0    0  0.00000000000E+00  0.00000000000E+00  0.39999999674E+01  0.40000000000E+01  0.51100000000E-03 0.  1.
    9000002   -1    0    0    0    0 -0.00000000000E+00 -0.00000000000E+00  0.00000000000E+00  0.93800000000E+00  0.93800000000E+00 0. -1.
         11    1    1    2    0    0  0.37622801773E+00  0.14377701453E+00  0.11878766033E+01  0.12543007762E+01  0.51100000000E-03 0.  1.
    9000002    1    1    2    0    0 -0.97834966388E+00 -0.37398783658E+00  0.90875142859E+00  0.16741290648E+01  0.93800000000E+00 0. -1.
         22    1    1    2    0    0  0.60212164616E+00  0.23021082204E+00  0.19033719354E+01  0.20095701590E+01  0.00000000000E+00 0.  1.
</event>
<event>
 5    1  0.1160133E+000  0.1555308E+01  0.7818608E-02  0.3403347E+00
         11   -1    0    0    0    0  0.00000000000E+00  0.00000000000E+00  0.39999999674E+01  0.40000000000E+01  0.51100000000E-03 0.  1.
    9000002   -1    0    0    0    0 -0.00000000000E+00 -0.00000000000E+00  0.00000000000E+00  0.93800000000E+00  0.93800000000E+00 0.  1.
         11    1    1    2    0    0  0.13013436511E+00  0.60288275396E-01 -0.55039976329E-01  0.15362060164E+00  0.51100000000E-03 0.  1.
    9000002    1    1    2    0    0  0.30339992351E+00  0.78659539052E+00  0.10783942109E+01  0.16593859997E+01  0.93800000000E+00 0.  1.
         22    1    1    2    0    0 -0.43353428862E+00 -0.84688366592E+00  0.29766457328E+01  0.31249933986E+01  0.00000000000E+00 0.  1.
</event>
<event>
 5    1  0.1160133E+000  0.1599674E+01  0.7818608E-02  0.3353717E+00
         11   -1    0    0    0    0  0.00000000000E+00  0.00000000000E+00  0.39999999674E+01  0.40000000000E+01  0.51100000000E-03 0.  1.
    9000002   -1    0    0    0    0 -0.00000000000E+00 -0.00000000000E+00  0.00000000000E+00  0.93800000000E+00  0.93800000000E+00 0.  1.
         11    1    1    2    0    0  0.27148366239E+00  0.23920106610E+00  0.98483539507E+00  0.10492004315E+01  0.51100000000E-03 0.  1.
    9000002    1    1    2    0    0 -0.82467776503E+00 -0.72044310659E+00  0.10283636565E+01  0.17710187734E+01  0.93800000000E+00 0.  1.
         22    1    1    2    0    0  0.55319410264E+00  0.48124204049E+00  0.19868009158E+01  0.21177807950E+01  0.00000000000E+00 0.  1.
</event>
<event>
 5    1  0.1160133E+000  0.1599649E+01  0.7818608E-02  0.3353744E+00
         11   -1    0    0    0    0  0.00000000000E+00  0.00000000000E+00  0.39999999674E+01  0.40000000000E+01  0.51100000000E-03 0.  1.
    9000002   -1    0    0    0    0 -0.00000000000E+00 -0.00000000000E+00  0.00000000000E+00  0.93800000000E+00  0.93800000000E+00 0.  1.
         11    1    1    2    0    0  0.36099939963E+00  0.59491451574E-01  0.75926862708E+00  0.84282199101E+00  0.51100000000E-03 0.  1.
    9000002    1    1    2    0    0 -0.12094568839E+01 -0.18123142879E+00  0.14794994298E+01  0.21364440895E+01  0.93800000000E+00 0.  1.
         22    1    1    2    0    0  0.84845748432E+00  0.12173997721E+00  0.17612319105E+01  0.19587339194E+01  0.00000000000E+00 0.  1.
</event>
<event>
 5    1  0.1160133E+000  0.1599667E+01  0.7818608E-02  0.3353725E+00
         11   -1    0    0    0    0  0.00000000000E+00  0.00000000000E+00  0.39999999674E+01  0.40000000000E+01  0.51100000000E-03 0. -1.
    9000002   -1    0    0    0    0 -0.00000000000E+00 -0.00000000000E+00  0.00000000000E+00  0.93800000000E+00  0.93800000000E+00 0.  1.
         11    1    1    2    0    0  0.33482534050E+00  0.45379259957E-01  0.11604225458E+01  0.12086140955E+01  0.51100000000E-03 0. -1.
    9000002    1    1    2    0    0 -0.95394961334E+00 -0.12781690130E+00  0.73025606660E+00  0.15295342258E+01  0.93800000000E+00 0.  1.
         22    1    1    2    0    0  0.61912427283E+00  0.82437641339E-01  0.21093213549E+01  0.21998516787E+01  0.00000000000E+00 0. -1.
</event>
<event>
 5    1  0.1206911E+000  0.1599672E+01  0.7818608E-02  0.3353720E+00
         11   -1    0    0    0    0  0.00000000000E+00  0.00000000000E+00  0.39999999674E+01  0.40000000000E+01  0.51100000000E-03 0. -1.
    9000002   -1    0    0    0    0 -0.00000000000E+00 -0.00000000000E+00  0.00000000000E+00  0.93800000000E+00  0.93800000000E+00 0.  1.
         11    1    1    2    0    0 -0.13536723148E+00 -0.36902688788E+00  0.13484173031E+01  0.14045407135E+01  0.51100000000E-03 0. -1.
    9000002    1    1    2    0    0  0.33173631252E+00  0.90172367114E+00  0.72710397914E+00  0.15269835483E+01  0.93800000000E+00 0.  1.
         22    1    1    2    0    0 -0.19636908104E+00 -0.53269678326E+00  0.19244786851E+01  0.20064757383E+01  0.00000000000E+00 0. -1.
</event>
<event>
 5    1  0.1160133E+000  0.1599675E+01  0.7818608E-02  0.3353716E+00
         11   -1    0    0    0    0  0.00000000000E+00  0.00000000000E+00  0.39999999674E+01  0.40000000000E+01  0.51100000000E-03 0.  1.
    9000002   -1    0    0    0    0 -0.00000000000E+00 -0.00000000000E+00  0.00000000000E+00  0.93800000000E+00  0.93800000000E+00 0.  1.
         11    1    1    2    0    0  0.18646775036E+00 -0.31064968555E+00  0.12976608206E+01  0.13472925872E+01  0.51100000000E-03 0.  1.
    9000002    1    1    2    0    0 -0.47945844468E+00  0.79951315893E+00  0.67500160440E+00  0.14847804071E+01  0.93800000000E+00 0.  1.
         22    1    1    2    0    0  0.29299069432E+00 -0.48886347338E+00  0.20273375424E+01  0.21059270057E+01  0.00000000000E+00 0.  1.
</event>
<event>
 5    1  0.1160133E+000  0.1599621E+01  0.7818608E-02  0.3353775E+00
         11   -1    0    0    0    0  0.00000000000E+00  0.00000000000E+00  0.39999999674E+01  0.40000000000E+01  0.51100000000E-03 0. -1.
    9000002   -1    0    0    0    0 -0.00000000000E+00 -0.00000000000E+00  0.00000000000E+00  0.93800000000E+00  0.93800000000E+00 0.  1.
         11    1    1    2    0    0 -0.19983790264E+00  0.35140765428E+00  0.13469404142E+01  0.14062970054E+01  0.51100000000E-03 0. -1.
    9000002    1    1    2    0    0  0.46236534927E+00 -0.85622974785E+00  0.75068134418E+00  0.15460522558E+01  0.93800000000E+00 0.  1.
         22    1    1    2    0    0 -0.26252744663E+00  0.50482209357E+00  0.19023782090E+01  0.19856507388E+01  0.00000000000E+00 0. -1.
</event>
<event>
 5    1  0.1160133E+000  0.1599674E+01  0.7818608E-02  0.3353717E+00
         11   -1    0    0    0    0  0.00000000000E+00  0.00000000000E+00  0.39999999674E+01  0.40000000000E+01  0.51100000000E-03 0.  1.
    9000002   -1    0    0    0    0 -0.00000000000E+00 -0.00000000000E+00  0.00000000000E+00  0.93800000000E+00  0.93800000000E+00 0.  1.
         11    1    1    2    0    0 -0.39392095969E-02 -0.24756077089E-01  0.87524417223E-01  0.91044854090E-01  0.51100000000E-03 0.  1.
    9000002    1    1    2    0    0  0.16051617510E+00  0.92759890091E+00  0.69129422196E+00  0.14979775915E+01  0.93800000000E+00 0.  1.
         22    1    1    2    0    0 -0.15657696551E+00 -0.90284282382E+00  0.32211813282E+01  0.33489775544E+01  0.00000000000E+00 0.  1.
</event>
<event>
 5    1  0.1160133E+000  0.1599620E+01  0.7818608E-02  0.3353776E+00
         11   -1    0    0    0    0  0.00000000000E+00  0.00000000000E+00  0.39999999674E+01  0.40000000000E+01  0.51100000000E-03 0. -1.
    9000002   -1    0    0    0    0 -0.00000000000E+00 -0.00000000000E+00  0.00000000000E+00  0.93800000000E+00  0.93800000000E+00 0.  1.
         11    1    1    2    0    0  0.20432884380E-01 -0.13930289721E-01  0.53286074874E-01  0.58747107438E-01  0.51100000000E-03 0. -1.
    9000002    1    1    2    0    0 -0.92463210293E+00  0.70570762676E+00  0.12361241754E+01  0.19392820211E+01  0.93800000000E+00 0.  1.
         22    1    1    2    0    0  0.90419921855E+00 -0.69177733704E+00  0.27105897171E+01  0.29399708715E+01  0.00000000000E+00 0. -1.
</event>
<event>
 5    1  0.1160133E+000  0.1589887E+01  0.7818608E-02  0.3364413E+00
         11   -1    0    0    0    0  0.00000000000E+00  0.00000000000E+00  0.39999999674E+01  0.40000000000E+01  0.51100000000E-03 0. -1.
    9000002   -1    0    0    0    0 -0.00000000000E+00 -0.00000000000E+00  0.00000000000E+00  0.93800000000E+00  0.93800000000E+00 0. -1.
         11    1    1    2    0    0  0.16113701398E+00 -0.63958570139E-01  0.31231342285E+00  0.35720550273E+00  0.51100000000E-03 0. -1.
    9000002    1    1    2    0    0 -0.90841418852E+00  0.39697346770E+00  0.80554621171E+00  0.15847879893E+01  0.93800000000E+00 0. -1.
         22    1    1    2    0    0  0.74727717454E+00 -0.33301489756E+00  0.28821403328E+01  0.29960065079E+01  0.00000000000E+00 0. -1.
</event>
<event>
 5    1  0.1160133E+000  0.1599633E+01  0.7818608E-02  0.3353762E+00
         11   -1    0    0    0    0  0.00000000000E+00  0.00000000000E+00  0.39999999674E+01  0.40000000000E+01  0.51100000000E-03 0. -1.
    9000002   -1    0    0    0    0 -0.00000000000E+00 -0.00000000000E+00  0.00000000000E+00  0.93800000000E+00  0.93800000000E+00 0.  1.
         11    1    1    2    0    0  0.27412297354E+00 -0.22437324714E+00  0.11640215012E+01  0.12167304858E+01  0.51100000000E-03 0. -1.
    9000002    1    1    2    0    0 -0.74463237533E+00  0.63589715297E+00  0.76259880914E+00  0.15557131828E+01  0.93800000000E+00 0.  1.
         22    1    1    2    0    0  0.47050940179E+00 -0.41152390583E+00  0.20733796570E+01  0.21655563314E+01  0.00000000000E+00 0. -1.
</event>
<event>
 5    1  0.1160133E+000  0.1599673E+01  0.7818608E-02  0.3353719E+00
         11   -1    0    0    0    0  0.00000000000E+00  0.00000000000E+00  0.39999999674E+01  0.40000000000E+01  0.51100000000E-03 0. -1.
    9000002   -1    0    0    0    0 -0.00000000000E+00 -0.00000000000E+00  0.00000000000E+00  0.93800000000E+00  0.93800000000E+00 0.  1.
         11    1    1    2    0    0 -0.22873474091E+00 -0.23520414172E+00  0.11981901681E+01  0.12422964662E+01  0.51100000000E-03 0. -1.
    9000002    1    1    2    0    0  0.63783666043E+00  0.65326387859E+00  0.64172066751E+00  0.14578198502E+01  0.93800000000E+00 0.  1.
         22    1    1    2    0    0 -0.40910191952E+00 -0.41805973687E+00  0.21600891318E+01  0.22378836836E+01  0.00000000000E+00 0. -1.
</event>
<event>
 5    1  0.1160133E+000  0.1599054E+01  0.7818608E-02  0.3354391E+00
         11   -1    0    0    0    0  0.00000000000E+00  0.00000000000E+00  0.39999999674E+01  0.40000000000E+01  0.51100000000E-03 0. -1.
    9000002   -1    0    0    0    0 -0.00000000000E+00 -0.00000000000E+00  0.00000000000E+00  0.93800000000E+00  0.93800000000E+00 0.  1.
         11    1    1    2    0    0 -0.36528377853E+00 -0.90973586507E-01  0.11058597484E+01  0.11681757045E+01  0.51100000000E-03 0. -1.
    9000002    1    1    2    0    0  0.96738335705E+00  0.26133546013E+00  0.80996498370E+00  0.15937421551E+01  0.93800000000E+00 0.  1.
         22    1    1    2    0    0 -0.60209957852E+00 -0.17036187362E+00  0.20841752353E+01  0.21760821404E+01  0.00000000000E+00 0. -1.
</event>
<event>
 5    1  0.1160133E+000  0.1597950E+01  0.7818608E-02  0.3355592E+00
         11   -1    0    0    0    0  0.00000000000E+00  0.00000000000E+00  0.39999999674E+01  0.40000000000E+01  0.51100000000E-03 0. -1.
    9000002   -1    0    0    0    0 -0.00000000000E+00 -0.00000000000E+00  0.00000000000E+00  0.93800000000E+00  0.93800000000E+00 0.  1.
         11    1    1    2    0    0  0.62903806727E-01  0.24530433786E+00  0.71234574339E+00  0.75602104886E+00  0.51100000000E-03 0. -1.
    9000002    1    1    2    0    0 -0.30297255512E+00 -0.92291025674E+00  0.75035519992E+00  0.15448082849E+01  0.93800000000E+00 0.  1.
         22    1    1    2    0    0  0.24006874839E+00  0.67760591888E+00  0.25372990241E+01  0.26371706662E+01  0.00000000000E+00 0. -1.
</event>
<event>
 5    1  0.1160133E+000  0.1599595E+01  0.7818608E-02  0.3353803E+00
         11   -1    0    0    0    0  0.00000000000E+00  0.00000000000E+00  0.39999999674E+01  0.40000000000E+01  0.51100000000E-03 0. -1.
    9000002   -1    0    0    0    0 -0.00000000000E+00 -0.00000000000E+00  0.00000000000E+00  0.93800000000E+00  0.93800000000E+00 0. -1.
         11    1    1    2    0    0 -0.37184118824E+00 -0.11298349959E+00  0.13153317268E+01  0.13715425451E+01  0.51100000000E-03 0. -1.
    9000002    1    1    2    0    0  0.92287376623E+00  0.25511745980E+00  0.72100067054E+00  0.15219943737E+01  0.93800000000E+00 0. -1.
         22    1    1    2    0    0 -0.55103257800E+00 -0.14213396021E+00  0.19636675700E+01  0.20444630812E+01  0.00000000000E+00 0. -1.
</event>
<event>
 5    1  0.1160133E+000  0.1599620E+01  0.7818608E-02  0.3353775E+00
         11   -1    0    0    0    0  0.00000000000E+00  0.00000000000E+00  0.39999999674E+01  0.40000000000E+01  0.51100000000E-03 0. -1.
    9000002   -1    0    0    0    0 -0.00000000000E+00 -0.00000000000E+00  0.00000000000E+00  0.93800000000E+00  0.93800000000E+00 0. -1.
         11    1    1    2    0    0 -0.77552022024E-01 -0.21747403224E+00  0.86224112192E+00  0.89261933895E+00  0.51100000000E-03 0. -1.
    9000002    1    1    2    0    0  0.33071200559E+00  0.85569134007E+00  0.64923036063E+00  0.14638723173E+01  0.93800000000E+00 0. -1.
         22    1    1    2    0    0 -0.25315998356E+00 -0.63821730783E+00  0.24885284848E+01  0.25815083438E+01  0.00000000000E+00 0. -1.
</event>
<event>
 5    1  0.1160133E+000  0.1599320E+01  0.7818608E-02  0.3354101E+00
         11   -1    0    0    0    0  0.00000000000E+00  0.00000000000E+00  0.39999999674E+01  0.40000000000E+01  0.51100000000E-03 0.  1.
    9000002   -1    0    0    0    0 -0.00000000000E+00 -0.00000000000E+00  0.00000000000E+00  0.93800000000E+00  0.93800000000E+00 0.  1.
         11    1    1    2    0    0 -0.99663847445E-01 -0.20314485806E+00  0.83177092206E+00  0.86199990937E+00  0.51100000000E-03 0.  1.
    9000002    1    1    2    0    0  0.43772584351E+00  0.86204483742E+00  0.73912146951E+00  0.15365122071E+01  0.93800000000E+00 0.  1.
         22    1    1    2    0    0 -0.33806199607E+00 -0.65889997936E+00  0.24291075758E+01  0.25394878836E+01  0.00000000000E+00 0.  1.
</event>
<event>
 5    1  0.1160133E+000  0.1580577E+01  0.7818608E-02  0.3374718E+00
         11   -1    0    0    0    0  0.00000000000E+00  0.00000000000E+00  0.39999999674E+01  0.40000000000E+01  0.51100000000E-03 0. -1.
    9000002   -1    0    0    0    0 -0.00000000000E+00 -0.00000000000E+00  0.00000000000E+00  0.93800000000E+00  0.93800000000E+00 0.  1.
         11    1    1    2    0    0  0.11791891832E+00  0.16908759344E+00  0.60036641740E+00  0.63477207076E+00  0.51100000000E-03 0. -1.
    9000002    1    1    2    0    0 -0.89749483282E+00 -0.26741592146E+00  0.71509468855E+00  0.15060586521E+01  0.93800000000E+00 0.  1.
         22    1    1    2    0    0  0.77957591450E+00  0.98328328023E-01  0.26845388614E+01  0.27971692771E+01  0.00000000000E+00 0. -1.
</event>
<event>
 5    1  0.1160133E+000  0.1590534E+01  0.7818608E-02  0.3363702E+00
         11   -1    0    0    0    0  0.00000000000E+00  0.00000000000E+00  0.39999999674E+01  0.40000000000E+01  0.51100000000E-03 0. -1.
    9000002   -1    0    0    0    0 -0.00000000000E+00 -0.00000000000E+00  0.00000000000E+00  0.93800000000E+00  0.93800000000E+00 0.  1.
         11    1    1    2    0    0 -0.13762141648E+00 -0.14585031744E-01  0.46716588278E+00  0.48723362013E+00  0.51100000000E-03 0. -1.
    9000002    1    1    2    0    0  0.87869333826E+00 -0.45332204570E+00  0.79887149941E+00  0.15797602769E+01  0.93800000000E+00 0.  1.
         22    1    1    2    0    0 -0.74107192177E+00  0.46790707744E+00  0.27339625852E+01  0.28710061030E+01  0.00000000000E+00 0. -1.
</event>
<event>
 5    1  0.1160133E+000  0.1599641E+01  0.7818608E-02  0.3353753E+00
         11   -1    0    0    0    0  0.00000000000E+00  0.00000000000E+00  0.39999999674E+01  0.40000000000E+01  0.51100000000E-03 0.  1.
    9000002   -1    0    0    0    0 -0.00000000000E+00 -0.00000000000E+00  0.00000000000E+00  0.93800000000E+00  0.93800000000E+00 0. -1.
         11    1    1    2    0    0  0.15224099099E-01 -0.10948583825E+00  0.40079108169E+00  0.41575554627E+00  0.51100000000E-03 0.  1.
    9000002    1    1    2    0    0 -0.88313815534E-01  0.91730650110E+00  0.65636291219E+00  0.14696621447E+01  0.93800000000E+00 0. -1.
         22    1    1    2    0    0  0.73089716435E-01 -0.80782066285E+00  0.29428459735E+01  0.30525823091E+01  0.00000000000E+00 0.  1.
</event>
<event>
 5    1  0.1160133E+000  0.1599675E+01  0.7818608E-02  0.3353716E+00
         11   -1    0    0    0    0  0.00000000000E+00  0.00000000000E+00  0.39999999674E+01  0.40000000000E+01  0.51100000000E-03 0. -1.
    9000002   -1    0    0    0    0 -0.00000000000E+00 -0.00000000000E+00  0.00000000000E+00  0.93800000000E+00  0.93800000000E+00 0.  1.
         11    1    1    2    0    0 -0.14457615504E-01  0.40244158972E-01  0.15497430488E+00  0.16076663607E+00  0.51100000000E-03 0.  1.
    9000002    1    1    2    0    0  0.32413834668E+00 -0.86739180735E+00  0.66398798006E+00  0.14758584800E+01  0.93800000000E+00 0.  1.
         22    1    1    2    0    0 -0.30968073118E+00  0.82714764838E+00  0.31810376824E+01  0.33013748840E+01  0.00000000000E+00 0. -1.
</event>
<event>
 5    1  0.1160133E+000  0.1598342E+01  0.7818608E-02  0.3355165E+00
         11   -1    0    0    0    0  0.00000000000E+00  0.00000000000E+00  0.39999999674E+01  0.40000000000E+01  0.51100000000E-03 0.  1.
    9000002   -1    0    0    0    0 -0.00000000000E+00 -0.00000000000E+00  0.00000000000E+00  0.93800000000E+00  0.93800000000E+00 0.  1.
         11    1    1    2    0    0  0.18609491901E+00  0.22279289782E+00  0.99503205702E+00  0.10365119632E+01  0.51100000000E-03 0.  1.
    9000002    1    1    2    0    0 -0.52194207754E+00 -0.82758202566E+00  0.76343265686E+00  0.15556313712E+01  0.93800000000E+00 0.  1.
         22    1    1    2    0    0  0.33584715853E+00  0.60478912784E+00  0.22415352535E+01  0.23458566656E+01  0.00000000000E+00 0.  1.
</event>
<event>
 5    1  0.1160133E+000  0.1579688E+01  0.7818608E-02  0.3375708E+00
         11   -1    0    0    0    0  0.00000000000E+00  0.00000000000E+00  0.39999999674E+01  0.40000000000E+01  0.51100000000E-03 0.  1.
    9000002   -1    0    0    0    0 -0.00000000000E+00 -0.00000000000E+00  0.00000000000E+00  0.93800000000E+00  0.93800000000E+00 0. -1.
         11    1    1    2    0    0 -0.26709089693E+00  0.19064349700E+00  0.10430759439E+01  0.10934761890E+01  0.51100000000E-03 0.  1.
    9000002    1    1    2    0    0  0.10854832748E+01 -0.22709256192E+00  0.11230980342E+01  0.18360387159E+01  0.93800000000E+00 0. -1.
         22    1    1    2    0    0 -0.81839237788E+00  0.36449064912E-01  0.18338259893E+01  0.20084850951E+01  0.00000000000E+00 0.  1.
</event>
<event>
 5    1  0.1160133E+000  0.1593370E+01  0.7818608E-02  0.3360591E+00
         11   -1    0    0    0    0  0.00000000000E+00  0.00000000000E+00  0.39999999674E+01  0.40000000000E+01  0.51100000000E-03 0.  1.
    9000002   -1    0    0    0    0 -0.00000000000E+00 -0.00000000000E+00  0.00000000000E+00  0.93800000000E+00  0.93800000000E+00 0.  1.
         11    1    1    2    0    0 -0.40644300337E+00  0.26050819509E+00  0.12232196063E+01  0.13150387451E+01  0.51100000000E-03 0.  1.
    9000002    1    1    2    0    0  0.78385368284E+00 -0.71035192797E+00  0.94800865427E+00  0.17022311436E+01  0.93800000000E+00 0.  1.
         22    1    1    2    0    0 -0.37741067948E+00  0.44984373288E+00  0.18287717067E+01  0.19207301113E+01  0.00000000000E+00 0. -1.
</event>
<event>
 5    1  0.1160133E+000  0.1599677E+01  0.7818608E-02  0.3353714E+00
         11   -1    0    0    0    0  0.00000000000E+00  0.00000000000E+00  0.39999999674E+01  0.40000000000E+01  0.51100000000E-03 0.  1.
    9000002   -1    0    0    0    0 -0.00000000000E+00 -0.00000000000E+00  0.00000000000E+00  0.93800000000E+00  0.93800000000E+00 0.  1.
         11    1    1    2    0    0 -0.36519564313E+00  0.41224553797E+00  0.13680552622E+01  0.14747507257E+01  0.51100000000E-03 0.  1.
    9000002    1    1    2    0    0  0.75675241936E+00 -0.85494993077E+00  0.11648341405E+01  0.18815674804E+01  0.93800000000E+00 0.  1.
         22    1    1    2    0    0 -0.39155677623E+00  0.44270439280E+00  0.14671105646E+01  0.15816817939E+01  0.00000000000E+00 0.  1.
</event>
<event>
 5    1  0.1160133E+000  0.1599661E+01  0.7818608E-02  0.3353731E+00
         11   -1    0    0    0    0  0.00000000000E+00  0.00000000000E+00  0.39999999674E+01  0.40000000000E+01  0.51100000000E-03 0. -1.
    9000002   -1    0    0    0    0 -0.00000000000E+00 -0.00000000000E+00  0.00000000000E+00  0.93800000000E+00  0.93800000000E+00 0.  1.
         11    1    1    2    0    0 -0.89620381939E-01 -0.25347947244E+00  0.88907324066E+00  0.92883536980E+00  0.51100000000E-03 0. -1.
    9000002    1    1    2    0    0  0.34031297533E+00  0.92441212587E+00  0.77415716504E+00  0.15650923346E+01  0.93800000000E+00 0.  1.
         22    1    1    2    0    0 -0.25069259339E+00 -0.67093265343E+00  0.23367695617E+01  0.24440722956E+01  0.00000000000E+00 0. -1.
</event>
<event>
 5    1  0.1160133E+000  0.1599673E+01  0.7818608E-02  0.3353718E+00
         11   -1    0    0    0    0  0.00000000000E+00  0.00000000000E+00  0.39999999674E+01  0.40000000000E+01  0.51100000000E-03 0. -1.
    9000002   -1    0    0    0    0 -0.00000000000E+00 -0.00000000000E+00  0.00000000000E+00  0.93800000000E+00  0.93800000000E+00 0. -1.
         11    1    1    2    0    0  0.10755213602E+00  0.90589764832E-01  0.41437542164E+00  0.43758567005E+00  0.51100000000E-03 0. -1.
    9000002    1    1    2    0    0 -0.80414494885E+00 -0.68277847984E+00  0.92654152148E+00  0.16885374566E+01  0.93800000000E+00 0. -1.
         22    1    1    2    0    0  0.69659281283E+00  0.59218871501E+00  0.26590830242E+01  0.28118768734E+01  0.00000000000E+00 0. -1.
</event>
<event>
 5    1  0.1160133E+000  0.1569233E+01  0.7818608E-02  0.3387449E+00
         11   -1    0    0    0    0  0.00000000000E+00  0.00000000000E+00  0.39999999674E+01  0.40000000000E+01  0.51100000000E-03 0. -1.
    9000002   -1    0    0    0    0 -0.00000000000E+00 -0.00000000000E+00  0.00000000000E+00  0.93800000000E+00  0.93800000000E+00 0. -1.
         11    1    1    2    0    0  0.27974029426E-01 -0.23438225139E+00  0.73205519796E+00  0.76917011127E+00  0.51100000000E-03 0. -1.
    9000002    1    1    2    0    0  0.58703334312E+00  0.72398140335E+00  0.72689418999E+00  0.15089653348E+01  0.93800000000E+00 0. -1.
         22    1    1    2    0    0 -0.61500737255E+00 -0.48959915196E+00  0.25410505794E+01  0.26598645539E+01  0.00000000000E+00 0. -1.
</event>
<event>
 5    1  0.1160133E+000  0.1571355E+01  0.7818608E-02  0.3385053E+00
         11   -1    0    0    0    0  0.00000000000E+00  0.00000000000E+00  0.39999999674E+01  0.40000000000E+01  0.51100000000E-03 0.  1.
    9000002   -1    0    0    0    0 -0.00000000000E+00 -0.00000000000E+00  0.00000000000E+00  0.93800000000E+00  0.93800000000E+00 0. -1.
         11    1    1    2    0    0  0.13269555477E-02 -0.11224889612E-01 -0.83479980760E-02  0.14060908602E-01  0.51100000000E-03 0.  1.
    9000002    1    1    2    0    0 -0.61044126328E+00 -0.74238023217E+00  0.77947248908E+00  0.15528001501E+01  0.93800000000E+00 0. -1.
         22    1    1    2    0    0  0.60911430773E+00  0.75360512178E+00  0.32288754764E+01  0.33711389413E+01  0.00000000000E+00 0.  1.
</event>
<event>
 5    1  0.1160133E+000  0.1566751E+01  0.7818608E-02  0.3390261E+00
         11   -1    0    0    0    0  0.00000000000E+00  0.00000000000E+00  0.39999999674E+01  0.40000000000E+01  0.51100000000E-03 0.  1.
    9000002   -1    0    0    0    0 -0.00000000000E+00 -0.00000000000E+00  0.00000000000E+00  0.93800000000E+00  0.93800000000E+00 0.  1.
         11    1    1    2    0    0  0.21476685754E+00 -0.13544360479E+00  0.11485580353E+01  0.11762889079E+01  0.51100000000E-03 0.  1.
    9000002    1    1    2    0    0 -0.45071468983E+00  0.92489007590E+00  0.93899789351E+00  0.16793232054E+01  0.93800000000E+00 0.  1.
         22    1    1    2    0    0  0.23594783229E+00 -0.78944647111E+00  0.19124440385E+01  0.20823878867E+01  0.00000000000E+00 0.  1.
</event>
<event>
 5    1  0.1160133E+000  0.1599480E+01  0.7818608E-02  0.3353928E+00
         11   -1    0    0    0    0  0.00000000000E+00  0.00000000000E+00  0.39999999674E+01  0.40000000000E+01  0.51100000000E-03 0.  1.
    9000002   -1    0    0    0    0 -0.00000000000E+00 -0.00000000000E+00  0.00000000000E+00  0.93800000000E+00  0.93800000000E+00 0.  1.
         11    1    1    2    0    0  0.19434508151E+00 -0.23926307088E+00  0.10459480051E+01  0.10904239168E+01  0.51100000000E-03 0.  1.
    9000002    1    1    2    0    0 -0.63221810469E+00  0.70797743346E+00  0.70579496223E+00  0.15096099850E+01  0.93800000000E+00 0.  1.
         22    1    1    2    0    0  0.43787302317E+00 -0.46871436258E+00  0.22482570001E+01  0.23379660982E+01  0.00000000000E+00 0.  1.
</event>
<event>
 5    1  0.1201536E+000  0.1599483E+01  0.7818608E-02  0.3353925E+00
         11   -1    0    0    0    0  0.00000000000E+00  0.00000000000E+00  0.39999999674E+01  0.40000000000E+01  0.51100000000E-03 0.  1.
    9000002   -1    0    0    0    0 -0.00000000000E+00 -0.00000000000E+00  0.00000000000E+00  0.93800000000E+00  0.93800000000E+00 0.  1.
         11    1    1    2    0    0 -0.32934636687E+00  0.73604613640E-02  0.13031844329E+01  0.13441774931E+01  0.51100000000E-03 0.  1.
    9000002    1    1    2    0    0  0.89042797878E+00 -0.47408351614E-01  0.60672287394E+00  0.14293586614E+01  0.93800000000E+00 0.  1.
         22    1    1    2    0    0 -0.56108161191E+00  0.40047890250E-01  0.20900926606E+01  0.21644638455E+01  0.00000000000E+00 0.  1.
</event>
<event>
 5    1  0.1160133E+000  0.1599676E+01  0.7818608E-02  0.3353715E+00
         11   -1    0    0    0    0  0.00000000000E+00  0.00000000000E+00  0.39999999674E+01  0.40000000000E+01  0.51100000000E-03 0.  1.
    9000002   -1    0    0    0    0 -0.00000000000E+00 -0.00000000000E+00  0.00000000000E+00  0.93800000000E+00  0.93800000000E+00 0.  1.
         11    1    1    2    0    0 -0.37267721056E+00  0.19871502021E+00  0.11349798103E+01  0.12110142003E+01  0.51100000000E-03 0.  1.
    9000002    1    1    2    0    0  0.96933066712E+00 -0.51914384289E+00  0.10407071571E+01  0.17810187137E+01  0.93800000000E+00 0.  1.
         22    1    1    2    0    0 -0.59665345656E+00  0.32042882269E+00  0.18243130000E+01  0.19459670859E+01  0.00000000000E+00 0.  1.
</event>
<event>
 5    1  0.1160133E+000  0.1544302E+01  0.7818608E-02  0.3416127E+00
         11   -1    0    0    0    0  0.00000000000E+00  0.00000000000E+00  0.39999999674E+01  0.40000000000E+01  0.51100000000E-03 0.  1.
    9000002   -1    0    0    0    0 -0.00000000000E+00 -0.00000000000E+00  0.00000000000E+00  0.93800000000E+00  0.93800000000E+00 0. -1.
         11    1    1    2    0    0 -0.18787889315E+00  0.41951724651E-01  0.32974125531E+00  0.38182192481E+00  0.51100000000E-03 0.  1.
    9000002    1    1    2    0    0  0.20300739562E+00 -0.87855530259E+00  0.71476638678E+00  0.14845222834E+01  0.93800000000E+00 0. -1.
         22    1    1    2    0    0 -0.15128502463E-01  0.83660357793E+00  0.29554923253E+01  0.30716557917E+01  0.00000000000E+00 0.  1.
</event>
<event>
 5    1  0.1160133E+000  0.1470528E+01  0.7818608E-02  0.3507106E+00
         11   -1    0    0    0    0  0.00000000000E+00  0.00000000000E+00  0.39999999674E+01  0.40000000000E+01  0.51100000000E-03 0.  1.
    9000002   -1    0    0    0    0 -0.00000000000E+00 -0.00000000000E+00  0.00000000000E+00  0.93800000000E+00  0.93800000000E+00 0.  1.
         11    1    1    2    0    0  0.91798929311E-01 -0.24345995832E+00  0.62846192556E+00  0.68019441906E+00  0.51100000000E-03 0.  1.
    9000002    1    1    2    0    0 -0.44084321103E+00 -0.49311198785E+00  0.46369524170E+00  0.12378850700E+01  0.93800000000E+00 0.  1.
         22    1    1    2    0    0  0.34904428172E+00  0.73657194617E+00  0.29078428001E+01  0.30199205110E+01  0.00000000000E+00 0.  1.
</event>
<event>
 5    1  0.1160133E+000  0.1599677E+01  0.7818608E-02  0.3353714E+00
         11   -1    0    0    0    0  0.00000000000E+00  0.00000000000E+00  0.39999999674E+01  0.40000000000E+01  0.51100000000E-03 0.  1.
    9000002   -1    0    0    0    0 -0.00000000000E+00 -0.00000000000E+00  0.00000000000E+00  0.93800000000E+00  0.93800000000E+00 0.  1.
         11    1    1    2    0    0 -0.31775270376E+00  0.58124372701E-01  0.11517818022E+01  0.11962218876E+01  0.51100000000E-03 0. -1.
    9000002    1    1    2    0    0  0.91648221561E+00 -0.16714816439E+00  0.67384050976E+00  0.14838406899E+01  0.93800000000E+00 0.  1.
         22    1    1    2    0    0 -0.59872951185E+00  0.10902379168E+00  0.21743776554E+01  0.22579374225E+01  0.00000000000E+00 0.  1.
</event>
<event>
 5    1  0.1160133E+000  0.1599676E+01  0.7818608E-02  0.3353715E+00
         11   -1    0    0    0    0  0.00000000000E+00  0.00000000000E+00  0.39999999674E+01  0.40000000000E+01  0.51100000000E-03 0.  1.
    9000002   -1    0    0    0    0 -0.00000000000E+00 -0.00000000000E+00  0.00000000000E+00  0.93800000000E+00  0.93800000000E+00 0. -1.
         11    1    1    2    0    0 -0.98860045348E-01 -0.29223205712E+00  0.10963892603E+01  0.11389655636E+01  0.51100000000E-03 0.  1.
    9000002    1    1    2    0    0  0.29758068108E+00  0.88420000131E+00  0.67619638489E+00  0.14857487860E+01  0.93800000000E+00 0. -1.
         22    1    1    2    0    0 -0.19872063574E+00 -0.59196794419E+00  0.22274143222E+01  0.23132856504E+01  0.00000000000E+00 0.  1.
</event>
<event>
 5    1  0.1160133E+000  0.1599201E+01  0.7818608E-02  0.3354232E+00
         11   -1    0    0    0    0  0.00000000000E+00  0.00000000000E+00  0.39999999674E+01  0.40000000000E+01  0.51100000000E-03 0. -1.
    9000002   -1    0    0    0    0 -0.00000000000E+00 -0.00000000000E+00  0.00000000000E+00  0.93800000000E+00  0.93800000000E+00 0. -1.
         11    1    1    2    0    0  0.43007802755E+00 -0.67583084994E-01  0.65066664414E+00  0.78288053116E+00  0.51100000000E-03 0. -1.
    9000002    1    1    2    0    0 -0.12812730521E+01  0.18926228875E+00  0.21907425724E+01  0.27123196469E+01  0.93800000000E+00 0. -1.
         22    1    1    2    0    0  0.85119502458E+00 -0.12167920376E+00  0.11585907508E+01  0.14427998220E+01  0.00000000000E+00 0. -1.
</event>
<event>
 5    1  0.1160133E+000  0.1599561E+01  0.7818608E-02  0.3353840E+00
         11   -1    0    0    0    0  0.00000000000E+00  0.00000000000E+00  0.39999999674E+01  0.40000000000E+01  0.51100000000E-03 0. -1.
    9000002   -1    0    0    0    0 -0.00000000000E+00 -0.00000000000E+00  0.00000000000E+00  0.93800000000E+00  0.93800000000E+00 0.  1.
         11    1    1    2    0    0 -0.23629496751E+00  0.34284416033E+00  0.11397749431E+01  0.12134515285E+01  0.51100000000E-03 0. -1.
    9000002    1    1    2    0    0  0.60352230331E+00 -0.88631338268E+00  0.96938911539E+00  0.17231801531E+01  0.93800000000E+00 0.  1.
         22    1    1    2    0    0 -0.36722733580E+00  0.54346922234E+00  0.18908359089E+01  0.20013683185E+01  0.00000000000E+00 0. -1.
</event>
<event>
 5    1  0.1174913E+000  0.1588023E+01  0.7818608E-02  0.3366466E+00
         11   -1    0    0    0    0  0.00000000000E+00  0.00000000000E+00  0.39999999674E+01  0.40000000000E+01  0.51100000000E-03 0.  1.
    9000002   -1    0    0    0    0 -0.00000000000E+00 -0.00000000000E+00  0.00000000000E+00  0.93800000000E+00  0.93800000000E+00 0.  1.
         11    1    1    2    0    0 -0.13203752323E+00  0.35177192865E-01  0.11433143556E+01  0.11514509626E+01  0.51100000000E-03 0.  1.
    9000002    1    1    2    0    0  0.78770272061E+00 -0.11756626930E+00  0.48184490753E+00  0.13214824700E+01  0.93800000000E+00 0.  1.
         22    1    1    2    0    0 -0.65566519738E+00  0.82389076438E-01  0.23748407042E+01  0.24650665673E+01  0.00000000000E+00 0. -1.
</event>
<event>
 5    1  0.1160133E+000  0.1599676E+01  0.7818608E-02  0.3353715E+00
         11   -1    0    0    0    0  0.00000000000E+00  0.00000000000E+00  0.39999999674E+01  0.40000000000E+01  0.51100000000E-03 0. -1.
    9000002   -1    0    0    0    0 -0.00000000000E+00 -0.00000000000E+00  0.00000000000E+00  0.93800000000E+00  0.93800000000E+00 0. -1.
         11    1    1    2    0    0 -0.11868037273E+00  0.49096893748E-01  0.44168193981E+00  0.45997688303E+00  0.51100000000E-03 0. -1.
    9000002    1    1    2    0    0  0.88516638983E+00 -0.36795623174E+00  0.72294120088E+00  0.15236138967E+01  0.93800000000E+00 0. -1.
         22    1    1    2    0    0 -0.76648601710E+00  0.31885933799E+00  0.28353768267E+01  0.29544092203E+01  0.00000000000E+00 0. -1.
</event>
<event>
 5    1  0.1160133E+000  0.1596303E+01  0.7818608E-02  0.3357385E+00
         11   -1    0    0    0    0  0.00000000000E+00  0.00000000000E+00  0.39999999674E+01  0.40000000000E+01  0.51100000000E-03 0. -1.
    9000002   -1    0    0    0    0 -0.00000000000E+00 -0.00000000000E+00  0.00000000000E+00  0.93800000000E+00  0.93800000000E+00 0. -1.
         11    1    1    2    0    0  0.62022891927E-01  0.28101908242E+00  0.13470412551E+01  0.13774392792E+01  0.51100000000E-03 0. -1.
    9000002    1    1    2    0    0 -0.79692094982E-01 -0.87142495977E+00  0.58499042890E+00  0.14098900994E+01  0.93800000000E+00 0. -1.
         22    1    1    2    0    0  0.17669203055E-01  0.59040587735E+00  0.20679682834E+01  0.21506706214E+01  0.00000000000E+00 0. -1.
</event>
<event>
 5    1  0.1271222E+000  0.1563448E+01  0.7818608E-02  0.3394016E+00
         11   -1    0    0    0    0  0.00000000000E+00  0.00000000000E+00  0.39999999674E+01  0.40000000000E+01  0.51100000000E-03 0. -1.
    9000002   -1    0    0    0    0 -0.00000000000E+00 -0.00000000000E+00  0.00000000000E+00  0.93800000000E+00  0.93800000000E+00 0. -1.
         11    1    1    2    0    0 -0.57624794856E-01  0.31393108844E-02  0.14115327268E+01  0.14127120628E+01  0.51100000000E-03 0. -1.
    9000002    1    1    2    0    0  0.67943062131E+00 -0.22885689293E+00  0.41187662775E+00  0.12503950588E+01  0.93800000000E+00 0. -1.
         22    1    1    2    0    0 -0.62180582645E+00  0.22571758204E+00  0.21765906128E+01  0.22748928784E+01  0.00000000000E+00 0. -1.
</event>
<event>
 5    1  0.1160133E+000  0.1120927E+01  0.7818608E-02  0.4194563E+00
         11   -1    0    0    0    0  0.00000000000E+00  0.00000000000E+00  0.39999999674E+01  0.40000000000E+01  0.51100000000E-03 0. -1.
    9000002   -1    0    0    0    0 -0.00000000000E+00 -0.00000000000E+00  0.00000000000E+00  0.93800000000E+00  0.93800000000E+00 0. -1.
         11    1    1    2    0    0  0.52222320622E+00 -0.99801678816E-02  0.22573302812E+00  0.56900996649E+00  0.51100000000E-03 0. -1.
    9000002    1    1    2    0    0  0.16997369620E+00  0.48651607743E+00  0.98021461557E+00  0.14512937827E+01  0.93800000000E+00 0. -1.
         22    1    1    2    0    0 -0.69219690242E+00 -0.47653590955E+00  0.27940523237E+01  0.29176962509E+01  0.00000000000E+00 0. -1.
</event>
<event>
 5    1  0.1160133E+000  0.1518125E+01  0.7818608E-02  0.3447321E+00
         11   -1    0    0    0    0  0.00000000000E+00  0.00000000000E+00  0.39999999674E+01  0.40000000000E+01  0.51100000000E-03 0. -1.
    9000002   -1    0    0    0    0 -0.00000000000E+00 -0.00000000000E+00  0.00000000000E+00  0.93800000000E+00  0.93800000000E+00 0. -1.
         11    1    1    2    0    0  0.69178533894E-01  0.91548329098E-01  0.12083642510E+00  0.16663873759E+00  0.51100000000E-03 0. -1.
    9000002    1    1    2    0    0 -0.35941132931E+00  0.90468616600E+00  0.91910370768E+00  0.16346954420E+01  0.93800000000E+00 0. -1.
         22    1    1    2    0    0  0.29023279541E+00 -0.99623449509E+00  0.29600598346E+01  0.31366658204E+01  0.00000000000E+00 0. -1.
</event>
<event>
 5    1  0.1160133E+000  0.1599669E+01  0.7818608E-02  0.3353723E+00
         11   -1    0    0    0    0  0.00000000000E+00  0.00000000000E+00  0.39999999674E+01  0.40000000000E+01  0.51100000000E-03 0. -1.
    9000002   -1    0    0    0    0 -0.00000000000E+00 -0.00000000000E+00  0.00000000000E+00  0.93800000000E+00  0.93800000000E+00 0. -1.
         11    1    1    2    0    0 -0.26938667274E-01  0.50201109060E-01  0.18807250004E+00  0.19651302639E+00  0.51100000000E-03 0. -1.
    9000002    1    1    2    0    0  0.48819272723E+00 -0.85348607037E+00  0.77052137570E+00  0.15621516577E+01  0.93800000000E+00 0. -1.
         22    1    1    2    0    0 -0.46125405996E+00  0.80328496131E+00  0.30414060916E+01  0.31793353159E+01  0.00000000000E+00 0. -1.
</event>
<event>
 5    1  0.1160133E+000  0.1584029E+01  0.7818608E-02  0.3370883E+00
         11   -1    0    0    0    0  0.00000000000E+00  0.00000000000E+00  0.39999999674E+01  0.40000000000E+01  0.51100000000E-03 0. -1.
    9000002   -1    0    0    0    0 -0.00000000000E+00 -0.00000000000E+00  0.00000000000E+00  0.93800000000E+00  0.93800000000E+00 0. -1.
         11    1    1    2    0    0  0.10083491542E+00  0.25233394852E+00  0.92041071438E+00  0.95968549328E+00  0.51100000000E-03 0. -1.
    9000002    1    1    2    0    0 -0.68604104674E+00 -0.94383750761E+00  0.13056970178E+01  0.19864969824E+01  0.93800000000E+00 0. -1.
         22    1    1    2    0    0  0.58520613133E+00  0.69150355910E+00  0.17738922352E+01  0.19918175244E+01  0.00000000000E+00 0. -1.
</event>
<event>
 5    1  0.1160133E+000  0.1599675E+01  0.7818608E-02  0.3353716E+00
         11   -1    0    0    0    0  0.00000000000E+00  0.00000000000E+00  0.39999999674E+01  0.40000000000E+01  0.51100000000E-03 0. -1.
    9000002   -1    0    0    0    0 -0.00000000000E+00 -0.00000000000E+00  0.00000000000E+00  0.93800000000E+00  0.93800000000E+00 0. -1.
         11    1    1    2    0    0 -0.14002072419E+00 -0.11816975760E+00  0.61147221562E+00  0.63833253591E+00  0.51100000000E-03 0. -1.
    9000002    1    1    2    0    0  0.73877853451E+00  0.62877222323E+00  0.74485127325E+00  0.15413616224E+01  0.93800000000E+00 0. -1.
         22    1    1    2    0    0 -0.59875781032E+00 -0.51060246563E+00  0.26436764785E+01  0.27583058417E+01  0.00000000000E+00 0. -1.
</event>
<event>
 5    1  0.1160133E+000  0.1599574E+01  0.7818608E-02  0.3353826E+00
         11   -1    0    0    0    0  0.00000000000E+00  0.00000000000E+00  0.39999999674E+01  0.40000000000E+01  0.51100000000E-03 0. -1.
    9000002   -1    0    0    0    0 -0.00000000000E+00 -0.00000000000E+00  0.00000000000E+00  0.93800000000E+00  0.93800000000E+00 0. -1.
         11    1    1    2    0    0 -0.30077860317E+00  0.14974368872E+00  0.11090103485E+01  0.11587903842E+01  0.51100000000E-03 0. -1.
    9000002    1    1    2    0    0  0.85747429054E+00 -0.42651778417E+00  0.72142622160E+00  0.15223269597E+01  0.93800000000E+00 0. -1.
         22    1    1    2    0    0 -0.55669568736E+00  0.27677409545E+00  0.21695633973E+01  0.22568826560E+01  0.00000000000E+00 0. -1.
</event>
<event>
 5    1  0.1236621E+000  0.1563717E+01  0.7818608E-02  0.3393711E+00
         11   -1    0    0    0    0  0.00000000000E+00  0.00000000000E+00  0.39999999674E+01  0.40000000000E+01  0.51100000000E-03 0.  1.
    9000002   -1    0    0    0    0 -0.00000000000E+00 -0.00000000000E+00  0.00000000000E+00  0.93800000000E+00  0.93800000000E+00 0. -1.
         11    1    1    2    0    0 -0.15799874500E-01 -0.13024630056E-01  0.11619524861E+01  0.11621330036E+01  0.51100000000E-03 0.  1.
    9000002    1    1    2    0    0 -0.10515603515E+00  0.69142374344E+00  0.39098225080E+00  0.12336270527E+01  0.93800000000E+00 0. -1.
         22    1    1    2    0    0  0.12095590965E+00 -0.67839911338E+00  0.24470652305E+01  0.25422399437E+01  0.00000000000E+00 0.  1.
</event>
<event>
 5    1  0.1160133E+000  0.1598475E+01  0.7818608E-02  0.3355020E+00
         11   -1    0    0    0    0  0.00000000000E+00  0.00000000000E+00  0.39999999674E+01  0.40000000000E+01  0.51100000000E-03 0. -1.
    9000002   -1    0    0    0    0 -0.00000000000E+00 -0.00000000000E+00  0.00000000000E+00  0.93800000000E+00  0.93800000000E+00 0.  1.
         11    1    1    2    0    0  0.15512916104E+00 -0.11880654226E+00  0.72633981923E+00  0.75216344315E+00  0.51100000000E-03 0. -1.
    9000002    1    1    2    0    0 -0.83508953304E+00  0.45193066441E+00  0.70818144007E+00  0.15109536081E+01  0.93800000000E+00 0.  1.
         22    1    1    2    0    0  0.67996037200E+00 -0.33312412215E+00  0.25654787081E+01  0.26748829488E+01  0.00000000000E+00 0. -1.
</event>
<event>
 5    1  0.1160133E+000  0.1512457E+01  0.7818608E-02  0.3454229E+00
         11   -1    0    0    0    0  0.00000000000E+00  0.00000000000E+00  0.39999999674E+01  0.40000000000E+01  0.51100000000E-03 0.  1.
    9000002   -1    0    0    0    0 -0.00000000000E+00 -0.00000000000E+00  0.00000000000E+00  0.93800000000E+00  0.93800000000E+00 0.  1.
         11    1    1    2    0    0 -0.13258187335E+00  0.51356597860E-03  0.98241945871E+00  0.99132561294E+00  0.51100000000E-03 0.  1.
    9000002    1    1    2    0    0 -0.63576045570E+00 -0.29646149168E+00  0.45754032560E+00  0.12574847604E+01  0.93800000000E+00 0.  1.
         22    1    1    2    0    0  0.76834232905E+00  0.29594792570E+00  0.25600401830E+01  0.26891896267E+01  0.00000000000E+00 0.  1.
</event>
<event>
 5    1  0.1160133E+000  0.1599340E+01  0.7818608E-02  0.3354080E+00
         11   -1    0    0    0    0  0.00000000000E+00  0.00000000000E+00  0.39999999674E+01  0.40000000000E+01  0.51100000000E-03 0.  1.
    9000002   -1    0    0    0    0 -0.00000000000E+00 -0.00000000000E+00  0.00000000000E+00  0.93800000000E+00  0.93800000000E+00 0.  1.
         11    1    1    2    0    0  0.22703182107E+00  0.86350560764E-01  0.61768520855E+00  0.66372821629E+00  0.51100000000E-03 0.  1.
    9000002    1    1    2    0    0 -0.10892489336E+01 -0.32529575344E+00  0.11501947107E+01  0.18695112835E+01  0.93800000000E+00 0.  1.
         22    1    1    2    0    0  0.86221711253E+00  0.23894519268E+00  0.22321200481E+01  0.24047605002E+01  0.00000000000E+00 0.  1.
</event>
<event>
 5    1  0.1160133E+000  0.1520165E+01  0.7818608E-02  0.3444850E+00
         11   -1    0    0    0    0  0.00000000000E+00  0.00000000000E+00  0.39999999674E+01  0.40000000000E+01  0.51100000000E-03 0. -1.
    9000002   -1    0    0    0    0 -0.00000000000E+00 -0.00000000000E+00  0.00000000000E+00  0.93800000000E+00  0.93800000000E+00 0. -1.
         11    1    1    2    0    0 -0.48131143802E-02  0.22463188464E+00  0.88896700543E+00  0.91692161472E+00  0.51100000000E-03 0. -1.
    9000002    1    1    2    0    0 -0.77222360501E+00 -0.33154829057E-01  0.54295032611E+00  0.13311902927E+01  0.93800000000E+00 0. -1.
         22    1    1    2    0    0  0.77703671939E+00 -0.19147705558E+00  0.25680826358E+01  0.26898880926E+01  0.00000000000E+00 0. -1.
</event>
<event>
 5    1  0.1160133E+000  0.1599176E+01  0.7818608E-02  0.3354258E+00
         11   -1    0    0    0    0  0.00000000000E+00  0.00000000000E+00  0.39999999674E+01  0.40000000000E+01  0.51100000000E-03 0. -1.
    9000002   -1    0    0    0    0 -0.00000000000E+00 -0.00000000000E+00  0.00000000000E+00  0.93800000000E+00  0.93800000000E+00 0.  1.
         11    1    1    2    0    0 -0.43727994738E-01 -0.59353943097E-01  0.26023425255E+00  0.27047579449E+00  0.51100000000E-03 0. -1.
    9000002    1    1    2    0    0  0.67445272783E+00  0.61603026349E+00  0.64324225707E+00  0.14587612446E+01  0.93800000000E+00 0.  1.
         22    1    1    2    0    0 -0.63072473310E+00 -0.55667632039E+00  0.30965234577E+01  0.32087629609E+01  0.00000000000E+00 0. -1.
</event>
<event>
 5    1  0.1160133E+000  0.1599676E+01  0.7818608E-02  0.3353716E+00
         11   -1    0    0    0    0  0.00000000000E+00  0.00000000000E+00  0.39999999674E+01  0.40000000000E+01  0.51100000000E-03 0.  1.
    9000002   -1    0    0    0    0 -0.00000000000E+00 -0.00000000000E+00  0.00000000000E+00  0.93800000000E+00  0.93800000000E+00 0. -1.
         11    1    1    2    0    0 -0.18566641956E+00 -0.65206895946E+00  0.10117506971E+01  0.12179103749E+01  0.51100000000E-03 0.  1.
    9000002    1    1    2    0    0  0.35681471023E+00  0.12430195790E+01  0.20702573075E+01  0.26149997573E+01  0.93800000000E+00 0. -1.
         22    1    1    2    0    0 -0.17114829067E+00 -0.59095061956E+00  0.91799196274E+00  0.11050898678E+01  0.00000000000E+00 0.  1.
</event>
<event>
 5    1  0.1160133E+000  0.1599676E+01  0.7818608E-02  0.3353715E+00
         11   -1    0    0    0    0  0.00000000000E+00  0.00000000000E+00  0.39999999674E+01  0.40000000000E+01  0.51100000000E-03 0.  1.
    9000002   -1    0    0    0    0 -0.00000000000E+00 -0.00000000000E+00  0.00000000000E+00  0.93800000000E+00  0.93800000000E+00 0.  1.
         11    1    1    2    0    0  0.24119018792E+00  0.47757111165E+00  0.12560073593E+01  0.13652112002E+01  0.51100000000E-03 0.  1.
    9000002    1    1    2    0    0 -0.52897802492E+00 -0.10425068254E+01  0.12565619466E+01  0.19558706904E+01  0.93800000000E+00 0.  1.
         22    1    1    2    0    0  0.28778783700E+00  0.56493571380E+00  0.14874306614E+01  0.16169181093E+01  0.00000000000E+00 0. -1.
</event>
<event>
 5    1  0.1160133E+000  0.1558720E+01  0.7818608E-02  0.3399423E+00
         11   -1    0    0    0    0  0.00000000000E+00  0.00000000000E+00  0.39999999674E+01  0.40000000000E+01  0.51100000000E-03 0.  1.
    9000002   -1    0    0    0    0 -0.00000000000E+00 -0.00000000000E+00  0.00000000000E+00  0.93800000000E+00  0.93800000000E+00 0. -1.
         11    1    1    2    0    0 -0.30799194151E+00 -0.41901014483E+00  0.57550200410E+00  0.77564898978E+00  0.51100000000E-03 0.  1.
    9000002    1    1    2    0    0  0.84463515494E+00  0.85154791712E+00  0.15845544807E+01  0.21975439250E+01  0.93800000000E+00 0. -1.
         22    1    1    2    0    0 -0.53664321343E+00 -0.43253777229E+00  0.18399434826E+01  0.19648070852E+01  0.00000000000E+00 0.  1.
</event>
<event>
 5    1  0.1160133E+000  0.1521141E+01  0.7818608E-02  0.3443669E+00
         11   -1    0    0    0    0  0.00000000000E+00  0.00000000000E+00  0.39999999674E+01  0.40000000000E+01  0.51100000000E-03 0. -1.
    9000002   -1    0    0    0    0 -0.00000000000E+00 -0.00000000000E+00  0.00000000000E+00  0.93800000000E+00  0.93800000000E+00 0. -1.
         11    1    1    2    0    0 -0.24173541767E+00  0.15728676572E+00  0.97666368577E+00  0.10183552205E+01  0.51100000000E-03 0. -1.
    9000002    1    1    2    0    0  0.65679514297E+00  0.49835953036E+00  0.62025356475E+00  0.13943817863E+01  0.93800000000E+00 0. -1.
         22    1    1    2    0    0 -0.41505972530E+00 -0.65564629608E+00  0.24030827168E+01  0.25252629933E+01  0.00000000000E+00 0. -1.
</event>
<event>
 5    1  0.1160133E+000  0.1595979E+01  0.7818608E-02  0.3357739E+00
         11   -1    0    0    0    0  0.00000000000E+00  0.00000000000E+00  0.39999999674E+01  0.40000000000E+01  0.51100000000E-03 0.  1.
    9000002   -1    0    0    0    0 -0.00000000000E+00 -0.00000000000E+00  0.00000000000E+00  0.93800000000E+00  0.93800000000E+00 0.  1.
         11    1    1    2    0    0 -0.25272972771E+00 -0.11180094270E+00  0.12699139171E+01  0.12996358660E+01  0.51100000000E-03 0.  1.
    9000002    1    1    2    0    0  0.76697045869E+00  0.46571348829E+00  0.62125057615E+00  0.14390722762E+01  0.93800000000E+00 0.  1.
         22    1    1    2    0    0 -0.51424073097E+00 -0.35391254559E+00  0.21088354741E+01  0.21992918579E+01  0.00000000000E+00 0.  1.
</event>
<event>
 5    1  0.1160133E+000  0.1461978E+01  0.7818608E-02  0.3518293E+00
         11   -1    0    0    0    0  0.00000000000E+00  0.00000000000E+00  0.39999999674E+01  0.40000000000E+01  0.51100000000E-03 0.  1.
    9000002   -1    0    0    0    0 -0.00000000000E+00 -0.00000000000E+00  0.00000000000E+00  0.93800000000E+00  0.93800000000E+00 0.  1.
         11    1    1    2    0    0  0.10839307921E+00  0.26598385272E+00  0.46275655260E+00  0.54464700277E+00  0.51100000000E-03 0.  1.
    9000002    1    1    2    0    0  0.71720607925E+00 -0.23937389371E+00  0.60730814904E+00  0.13492040650E+01  0.93800000000E+00 0.  1.
         22    1    1    2    0    0 -0.82559915846E+00 -0.26609959014E-01  0.29299352657E+01  0.30441489322E+01  0.00000000000E+00 0.  1.
</event>
<event>
 5    1  0.1160133E+000  0.1594388E+01  0.7818608E-02  0.3359477E+00
         11   -1    0    0    0    0  0.00000000000E+00  0.00000000000E+00  0.39999999674E+01  0.40000000000E+01  0.51100000000E-03 0. -1.
    9000002   -1    0    0    0    0 -0.00000000000E+00 -0.00000000000E+00  0.00000000000E+00  0.93800000000E+00  0.93800000000E+00 0.  1.
         11    1    1    2    0    0 -0.57376115345E-01  0.69721042749E-01  0.50299943151E+00  0.51103985327E+00  0.51100000000E-03 0. -1.
    9000002    1    1    2    0    0  0.52759085816E+00 -0.83224701055E+00  0.78468701177E+00  0.15705301355E+01  0.93800000000E+00 0.  1.
         22    1    1    2    0    0 -0.47021474282E+00  0.76252596780E+00  0.27123135241E+01  0.28564300112E+01  0.00000000000E+00 0. -1.
</event>
<event>
 5    1  0.1160133E+000  0.1599584E+01  0.7818608E-02  0.3353815E+00
         11   -1    0    0    0    0  0.00000000000E+00  0.00000000000E+00  0.39999999674E+01  0.40000000000E+01  0.51100000000E-03 0.  1.
    9000002   -1    0    0    0    0 -0.00000000000E+00 -0.00000000000E+00  0.00000000000E+00  0.93800000000E+00  0.93800000000E+00 0.  1.
         11    1    1    2    0    0 -0.15732154868E+00 -0.51305700979E-01  0.57116802317E+00  0.59465579661E+00  0.51100000000E-03 0.  1.
    9000002    1    1    2    0    0  0.93891625168E+00  0.26824128180E+00  0.75734669330E+00  0.15514300264E+01  0.93800000000E+00 0.  1.
         22    1    1    2    0    0 -0.78159470300E+00 -0.21693558082E+00  0.26714852509E+01  0.27919141770E+01  0.00000000000E+00 0.  1.
</event>
<event>
 5    1  0.1740049E+000  0.1527717E+01  0.7818608E-02  0.3435758E+00
         11   -1    0    0    0    0  0.00000000000E+00  0.00000000000E+00  0.39999999674E+01  0.40000000000E+01  0.51100000000E-03 0. -1.
    9000002   -1    0    0    0    0 -0.00000000000E+00 -0.00000000000E+00  0.00000000000E+00  0.93800000000E+00  0.93800000000E+00 0.  1.
         11    1    1    2    0    0 -0.37987954381E-01  0.11761855732E+00  0.14276313837E+01  0.14329720299E+01  0.51100000000E-03 0. -1.
    9000002    1    1    2    0    0  0.10188637414E+00  0.51702950398E+00  0.26077564292E+00  0.11070448397E+01  0.93800000000E+00 0.  1.
         22    1    1    2    0    0 -0.63898419759E-01 -0.63464806130E+00  0.23115929408E+01  0.23979831304E+01  0.00000000000E+00 0.  1.
</event>
<event>
 5    1  0.1160133E+000  0.1599540E+01  0.7818608E-02  0.3353863E+00
         11   -1    0    0    0    0  0.00000000000E+00  0.00000000000E+00  0.39999999674E+01  0.40000000000E+01  0.51100000000E-03 0.  1.
    9000002   -1    0    0    0    0 -0.00000000000E+00 -0.00000000000E+00  0.00000000000E+00  0.93800000000E+00  0.93800000000E+00 0.  1.
         11    1    1    2    0    0  0.33771395413E+00 -0.33332953717E+00  0.12546686384E+01  0.13413996230E+01  0.51100000000E-03 0.  1.
    9000002    1    1    2    0    0 -0.79055270018E+00  0.79912556667E+00  0.11109216103E+01  0.18378155695E+01  0.93800000000E+00 0.  1.
         22    1    1    2    0    0  0.45283874605E+00 -0.46579602950E+00  0.16344097186E+01  0.17587848076E+01  0.00000000000E+00 0.  1.
</event>
<event>
 5    1  0.1160133E+000  0.1599523E+01  0.7818608E-02  0.3353882E+00
         11   -1    0    0    0    0  0.00000000000E+00  0.00000000000E+00  0.39999999674E+01  0.40000000000E+01  0.51100000000E-03 0. -1.
    9000002   -1    0    0    0    0 -0.00000000000E+00 -0.00000000000E+00  0.00000000000E+00  0.93800000000E+00  0.93800000000E+00 0. -1.
         11    1    1    2    0    0 -0.34562078907E+00  0.74113263530E-01  0.13342614505E+01  0.13802899642E+01  0.51100000000E-03 0. -1.
    9000002    1    1    2    0    0  0.90311392205E+00 -0.19057104145E+00  0.65906711815E+00  0.14717831173E+01  0.93800000000E+00 0. -1.
         22    1    1    2    0    0 -0.55749313298E+00  0.11645777792E+00  0.20066713987E+01  0.20859269186E+01  0.00000000000E+00 0. -1.
</event>
<event>
 5    1  0.1160133E+000  0.1599508E+01  0.7818608E-02  0.3353897E+00
         11   -1    0    0    0    0  0.00000000000E+00  0.00000000000E+00  0.39999999674E+01  0.40000000000E+01  0.51100000000E-03 0. -1.
    9000002   -1    0    0    0    0 -0.00000000000E+00 -0.00000000000E+00  0.00000000000E+00  0.93800000000E+00  0.93800000000E+00 0. -1.
         11    1    1    2    0    0 -0.40156971776E+00 -0.25711716003E+00  0.13523463824E+01  0.14339485595E+01  0.51100000000E-03 0. -1.
    9000002    1    1    2    0    0  0.92122763615E+00  0.58076005820E+00  0.10126564169E+01  0.17581978334E+01  0.93800000000E+00 0. -1.
         22    1    1    2    0    0 -0.51965791839E+00 -0.32364289817E+00  0.16349971681E+01  0.17458536071E+01  0.00000000000E+00 0. -1.
</event>
<event>
 5    1  0.1160133E+000  0.1599671E+01  0.7818608E-02  0.3353721E+00
         11   -1    0    0    0    0  0.00000000000E+00  0.00000000000E+00  0.39999999674E+01  0.40000000000E+01  0.51100000000E-03 0. -1.
    9000002   -1    0    0    0    0 -0.00000000000E+00 -0.00000000000E+00  0.00000000000E+00  0.93800000000E+00  0.93800000000E+00 0. -1.
         11    1    1    2    0    0  0.72437662081E-01  0.29879331525E+00  0.10723197269E+01  0.11155243242E+01  0.51100000000E-03 0. -1.
    9000002    1    1    2    0    0 -0.22745476976E+00 -0.92393457049E+00  0.70978516132E+00  0.15129539775E+01  0.93800000000E+00 0. -1.
         22    1    1    2    0    0  0.15501710768E+00  0.62514125524E+00  0.22178950792E+01  0.23095216983E+01  0.00000000000E+00 0. -1.
</event>
<event>
 5    1  0.1160133E+000  0.1599148E+01  0.7818608E-02  0.3354288E+00
         11   -1    0    0    0    0  0.00000000000E+00  0.00000000000E+00  0.39999999674E+01  0.40000000000E+01  0.51100000000E-03 0. -1.
    9000002   -1    0    0    0    0 -0.00000000000E+00 -0.00000000000E+00  0.00000000000E+00  0.93800000000E+00  0.93800000000E+00 0. -1.
         11    1    1    2    0    0  0.48732373758E-02 -0.34999791252E-01  0.15291387247E+00  0.15694472704E+00  0.51100000000E-03 0. -1.
    9000002    1    1    2    0    0 -0.28591852703E+00  0.92464020886E+00  0.74139213669E+00  0.15382507014E+01  0.93800000000E+00 0. -1.
         22    1    1    2    0    0  0.28104528966E+00 -0.88964041761E+00  0.31056939582E+01  0.32428045716E+01  0.00000000000E+00 0. -1.
</event>
<event>
 5    1  0.1160133E+000  0.1596004E+01  0.7818608E-02  0.3357712E+00
         11   -1    0    0    0    0  0.00000000000E+00  0.00000000000E+00  0.39999999674E+01  0.40000000000E+01  0.51100000000E-03 0.  1.
    9000002   -1    0    0    0    0 -0.00000000000E+00 -0.00000000000E+00  0.00000000000E+00  0.93800000000E+00  0.93800000000E+00 0.  1.
         11    1    1    2    0    0 -0.23185336444E+00  0.58135442595E-02  0.39598125481E+00  0.45890216298E+00  0.51100000000E-03 0.  1.
    9000002    1    1    2    0    0  0.11936023874E+01 -0.26276557788E+00  0.14941453530E+01  0.21461702505E+01  0.93800000000E+00 0.  1.
         22    1    1    2    0    0 -0.96174902296E+00  0.25695203362E+00  0.21098733596E+01  0.23329275866E+01  0.00000000000E+00 0.  1.
</event>
<event>
 5    1  0.1160133E+000  0.1599648E+01  0.7818608E-02  0.3353745E+00
         11   -1    0    0    0    0  0.00000000000E+00  0.00000000000E+00  0.39999999674E+01  0.40000000000E+01  0.51100000000E-03 0.  1.
    9000002   -1    0    0    0    0 -0.00000000000E+00 -0.00000000000E+00  0.00000000000E+00  0.93800000000E+00  0.93800000000E+00 0.  1.
         11    1    1    2    0    0 -0.10325038175E+00 -0.90123003292E-01  0.47642368991E+00  0.49574448104E+00  0.51100000000E-03 0.  1.
    9000002    1    1    2    0    0  0.72403175612E+00  0.64311559698E+00  0.74159877147E+00  0.15387112766E+01  0.93800000000E+00 0.  1.
         22    1    1    2    0    0 -0.62078137437E+00 -0.55299259369E+00  0.27819775060E+01  0.29035442423E+01  0.00000000000E+00 0.  1.
</event>
<event>
 5    1  0.1160133E+000  0.1599676E+01  0.7818608E-02  0.3353715E+00
         11   -1    0    0    0    0  0.00000000000E+00  0.00000000000E+00  0.39999999674E+01  0.40000000000E+01  0.51100000000E-03 0.  1.
    9000002   -1    0    0    0    0 -0.00000000000E+00 -0.00000000000E+00  0.00000000000E+00  0.93800000000E+00  0.93800000000E+00 0. -1.
         11    1    1    2    0    0  0.13669802603E+00  0.14435305326E+00  0.62663823779E+00  0.65741911783E+00  0.51100000000E-03 0.  1.
    9000002    1    1    2    0    0 -0.69118215744E+00 -0.73545001811E+00  0.82388012493E+00  0.16053790718E+01  0.93800000000E+00 0. -1.
         22    1    1    2    0    0  0.55448413141E+00  0.59109696486E+00  0.25494816046E+01  0.26752018104E+01  0.00000000000E+00 0.  1.
</event>
<event>
 5    1  0.1160133E+000  0.1595936E+01  0.7818608E-02  0.3357787E+00
         11   -1    0    0    0    0  0.00000000000E+00  0.00000000000E+00  0.39999999674E+01  0.40000000000E+01  0.51100000000E-03 0. -1.
    9000002   -1    0    0    0    0 -0.00000000000E+00 -0.00000000000E+00  0.00000000000E+00  0.93800000000E+00  0.93800000000E+00 0. -1.
         11    1    1    2    0    0 -0.65606801940E-01 -0.50446454011E-01  0.15183179779E+00  0.17292267961E+00  0.51100000000E-03 0. -1.
    9000002    1    1    2    0    0  0.11497341410E+01  0.27788695528E+00  0.13217579277E+01  0.20064889171E+01  0.93800000000E+00 0. -1.
         22    1    1    2    0    0 -0.10841273390E+01 -0.22744050127E+00  0.25264102419E+01  0.27585884033E+01  0.00000000000E+00 0. -1.
</event>
<event>
 5    1  0.1160133E+000  0.1599673E+01  0.7818608E-02  0.3353719E+00
         11   -1    0    0    0    0  0.00000000000E+00  0.00000000000E+00  0.39999999674E+01  0.40000000000E+01  0.51100000000E-03 0.  1.
    9000002   -1    0    0    0    0 -0.00000000000E+00 -0.00000000000E+00  0.00000000000E+00  0.93800000000E+00  0.93800000000E+00 0. -1.
         11    1    1    2    0    0  0.25420096945E+00  0.11466520990E+00  0.74757111537E+00  0.79789039153E+00  0.51100000000E-03 0.  1.
    9000002    1    1    2    0    0 -0.10026114819E+01 -0.46091477142E+00  0.10514125178E+01  0.17896883787E+01  0.93800000000E+00 0. -1.
         22    1    1    2    0    0  0.74841051250E+00  0.34624956152E+00  0.22010163342E+01  0.23504212298E+01  0.00000000000E+00 0.  1.
</event>
<event>
 5    1  0.1160133E+000  0.1338166E+01  0.7818608E-02  0.3711424E+00
         11   -1    0    0    0    0  0.00000000000E+00  0.00000000000E+00  0.39999999674E+01  0.40000000000E+01  0.51100000000E-03 0. -1.
    9000002   -1    0    0    0    0 -0.00000000000E+00 -0.00000000000E+00  0.00000000000E+00  0.93800000000E+00  0.93800000000E+00 0. -1.
         11    1    1    2    0    0 -0.26919853952E-01  0.64453433968E+00  0.11052577110E+01  0.12797437487E+01  0.51100000000E-03 0. -1.
    9000002    1    1    2    0    0 -0.66702301280E+00 -0.32854955133E+00  0.82825044854E+00  0.14555779996E+01  0.93800000000E+00 0. -1.
         22    1    1    2    0    0  0.69394286675E+00 -0.31598478835E+00  0.20664918078E+01  0.22026782517E+01  0.00000000000E+00 0. -1.
</event>
<event>
 5    1  0.1160133E+000  0.1597322E+01  0.7818608E-02  0.3356275E+00
         11   -1    0    0    0    0  0.00000000000E+00  0.00000000000E+00  0.39999999674E+01  0.40000000000E+01  0.51100000000E-03 0.  1.
    9000002   -1    0    0    0    0 -0.00000000000E+00 -0.00000000000E+00  0.00000000000E+00  0.93800000000E+00  0.93800000000E+00 0. -1.
         11    1    1    2    0    0  0.81134116996E-01 -0.13491841057E+00  0.53441553959E+00  0.55712292407E+00  0.51100000000E-03 0.  1.
    9000002    1    1    2    0    0 -0.68695046325E+00  0.64348832862E+00  0.69504445661E+00  0.14996362775E+01  0.93800000000E+00 0. -1.
         22    1    1    2    0    0  0.60581634625E+00 -0.50856991805E+00  0.27705399712E+01  0.28812407985E+01  0.00000000000E+00 0.  1.
</event>
<event>
 5    1  0.1160133E+000  0.1465246E+01  0.7818608E-02  0.3514000E+00
         11   -1    0    0    0    0  0.00000000000E+00  0.00000000000E+00  0.39999999674E+01  0.40000000000E+01  0.51100000000E-03 0. -1.
    9000002   -1    0    0    0    0 -0.00000000000E+00 -0.00000000000E+00  0.00000000000E+00  0.93800000000E+00  0.93800000000E+00 0. -1.
         11    1    1    2    0    0 -0.40776249612E+00  0.33585936409E+00  0.71314232007E+00  0.88749309602E+00  0.51100000000E-03 0. -1.
    9000002    1    1    2    0    0 -0.59329797597E-01 -0.93223882827E+00  0.10524435085E+01  0.16911743246E+01  0.93800000000E+00 0. -1.
         22    1    1    2    0    0  0.46709229372E+00  0.59637946418E+00  0.22344141388E+01  0.23593325793E+01  0.00000000000E+00 0. -1.
</event>
<event>
 5    1  0.1160133E+000  0.1599668E+01  0.7818608E-02  0.3353724E+00
         11   -1    0    0    0    0  0.00000000000E+00  0.00000000000E+00  0.39999999674E+01  0.40000000000E+01  0.51100000000E-03 0. -1.
    9000002   -1    0    0    0    0 -0.00000000000E+00 -0.00000000000E+00  0.00000000000E+00  0.93800000000E+00  0.93800000000E+00 0.  1.
         11    1    1    2    0    0  0.24798647016E+00  0.20451748977E-01  0.68915536213E+00  0.73270112440E+00  0.51100000000E-03 0. -1.
    9000002    1    1    2    0    0 -0.10792306094E+01 -0.10234489850E+00  0.99929879349E+00  0.17474711057E+01  0.93800000000E+00 0.  1.
         22    1    1    2    0    0  0.83124413921E+00  0.81893149523E-01  0.23115458117E+01  0.24578277699E+01  0.00000000000E+00 0. -1.
</event>
<event>
 5    1  0.1160133E+000  0.1594918E+01  0.7818608E-02  0.3358898E+00
         11   -1    0    0    0    0  0.00000000000E+00  0.00000000000E+00  0.39999999674E+01  0.40000000000E+01  0.51100000000E-03 0. -1.
    9000002   -1    0    0    0    0 -0.00000000000E+00 -0.00000000000E+00  0.00000000000E+00  0.93800000000E+00  0.93800000000E+00 0.  1.
         11    1    1    2    0    0  0.84249057797E-01 -0.21855832335E+00  0.75011542833E+00  0.78583653604E+00  0.51100000000E-03 0. -1.
    9000002    1    1    2    0    0 -0.63269340422E+00  0.85593875976E+00  0.96060055183E+00  0.17133387068E+01  0.93800000000E+00 0.  1.
         22    1    1    2    0    0  0.54844434643E+00 -0.63738043640E+00  0.22892839872E+01  0.24388247571E+01  0.00000000000E+00 0. -1.
</event>
<event>
 5    1  0.1160133E+000  0.1599500E+01  0.7818608E-02  0.3353906E+00
         11   -1    0    0    0    0  0.00000000000E+00  0.00000000000E+00  0.39999999674E+01  0.40000000000E+01  0.51100000000E-03 0. -1.
    9000002   -1    0    0    0    0 -0.00000000000E+00 -0.00000000000E+00  0.00000000000E+00  0.93800000000E+00  0.93800000000E+00 0.  1.
         11    1    1    2    0    0  0.18736072116E-02 -0.55330608134E-01  0.15859262509E+00  0.16797877382E+00  0.51100000000E-03 0. -1.
    9000002    1    1    2    0    0  0.81151723002E-01  0.11004107337E+01  0.10516379900E+01  0.17897697749E+01  0.93800000000E+00 0.  1.
         22    1    1    2    0    0 -0.83025330214E-01 -0.10450801256E+01  0.27897693522E+01  0.29802514513E+01  0.00000000000E+00 0. -1.
</event>
<event>
 5    1  0.1160133E+000  0.1599668E+01  0.7818608E-02  0.3353724E+00
         11   -1    0    0    0    0  0.00000000000E+00  0.00000000000E+00  0.39999999674E+01  0.40000000000E+01  0.51100000000E-03 0.  1.
    9000002   -1    0    0    0    0 -0.00000000000E+00 -0.00000000000E+00  0.00000000000E+00  0.93800000000E+00  0.93800000000E+00 0.  1.
         11    1    1    2    0    0  0.40630618176E+00 -0.47525165365E-01  0.11374805624E+01  0.12088033941E+01  0.51100000000E-03 0.  1.
    9000002    1    1    2    0    0 -0.10701509217E+01  0.13275063696E+00  0.98453291191E+00  0.17355099485E+01  0.93800000000E+00 0.  1.
         22    1    1    2    0    0  0.66384473990E+00 -0.85225471591E-01  0.18779864931E+01  0.19936866574E+01  0.00000000000E+00 0.  1.
</event>
<event>
 5    1  0.1160133E+000  0.1599667E+01  0.7818608E-02  0.3353725E+00
         11   -1    0    0    0    0  0.00000000000E+00  0.00000000000E+00  0.39999999674E+01  0.40000000000E+01  0.51100000000E-03 0.  1.
    9000002   -1    0    0    0    0 -0.00000000000E+00 -0.00000000000E+00  0.00000000000E+00  0.93800000000E+00  0.93800000000E+00 0. -1.
         11    1    1    2    0    0  0.38405449338E+00 -0.69336745014E-01  0.13970908882E+01  0.14505752821E+01  0.51100000000E-03 0.  1.
    9000002    1    1    2    0    0 -0.90940550358E+00  0.16215040124E+00  0.66012728065E+00  0.14727264339E+01  0.93800000000E+00 0. -1.
         22    1    1    2    0    0  0.52535101020E+00 -0.92813656225E-01  0.19427817985E+01  0.20146982839E+01  0.00000000000E+00 0.  1.
</event>
<event>
 5    1  0.1160133E+000  0.1599545E+01  0.7818608E-02  0.3353857E+00
         11   -1    0    0    0    0  0.00000000000E+00  0.00000000000E+00  0.39999999674E+01  0.40000000000E+01  0.51100000000E-03 0. -1.
    9000002   -1    0    0    0    0 -0.00000000000E+00 -0.00000000000E+00  0.00000000000E+00  0.93800000000E+00  0.93800000000E+00 0. -1.
         11    1    1    2    0    0  0.17499996244E-02  0.36839024715E-02  0.12521257994E-01  0.13178644044E-01  0.51100000000E-03 0. -1.
    9000002    1    1    2    0    0 -0.37651170565E-01 -0.92590923024E+00  0.66541441260E+00  0.14769379993E+01  0.93800000000E+00 0. -1.
         22    1    1    2    0    0  0.35901170940E-01  0.92222532776E+00  0.33220642968E+01  0.34478833567E+01  0.00000000000E+00 0. -1.
</event>
<event>
 5    1  0.1160133E+000  0.1598219E+01  0.7818608E-02  0.3355299E+00
         11   -1    0    0    0    0  0.00000000000E+00  0.00000000000E+00  0.39999999674E+01  0.40000000000E+01  0.51100000000E-03 0.  1.
    9000002   -1    0    0    0    0 -0.00000000000E+00 -0.00000000000E+00  0.00000000000E+00  0.93800000000E+00  0.93800000000E+00 0.  1.
         11    1    1    2    0    0 -0.14154272300E+00 -0.13418548144E+00  0.49322189684E+00  0.53038494182E+00  0.51100000000E-03 0.  1.
    9000002    1    1    2    0    0  0.66043594502E+00  0.89573441663E+00  0.10818598042E+01  0.18134994951E+01  0.93800000000E+00 0.  1.
         22    1    1    2    0    0 -0.51889322202E+00 -0.76154893518E+00  0.24249182663E+01  0.25941155631E+01  0.00000000000E+00 0.  1.
</event>
<event>
 5    1  0.1160133E+000  0.1599199E+01  0.7818608E-02  0.3354234E+00
         11   -1    0    0    0    0  0.00000000000E+00  0.00000000000E+00  0.39999999674E+01  0.40000000000E+01  0.51100000000E-03 0.  1.
    9000002   -1    0    0    0    0 -0.00000000000E+00 -0.00000000000E+00  0.00000000000E+00  0.93800000000E+00  0.93800000000E+00 0.  1.
         11    1    1    2    0    0  0.28458099479E+00  0.10059728823E+00  0.72890311588E+00  0.78892722760E+00  0.51100000000E-03 0.  1.
    9000002    1    1    2    0    0 -0.10979719424E+01 -0.44587863105E+00  0.13177665771E+01  0.20051690431E+01  0.93800000000E+00 0.  1.
         22    1    1    2    0    0  0.81339094762E+00  0.34528134282E+00  0.19533302744E+01  0.21439037293E+01  0.00000000000E+00 0.  1.
</event>
<event>
 5    1  0.1160133E+000  0.1599672E+01  0.7818608E-02  0.3353720E+00
         11   -1    0    0    0    0  0.00000000000E+00  0.00000000000E+00  0.39999999674E+01  0.40000000000E+01  0.51100000000E-03 0. -1.
    9000002   -1    0    0    0    0 -0.00000000000E+00 -0.00000000000E+00  0.00000000000E+00  0.93800000000E+00  0.93800000000E+00 0.  1.
         11    1    1    2    0    0  0.72903397864E-01  0.12890214513E+00  0.54094909064E+00  0.56085367809E+00  0.51100000000E-03 0.  1.
    9000002    1    1    2    0    0 -0.45336054367E+00 -0.78898039819E+00  0.63657136274E+00  0.14536481525E+01  0.93800000000E+00 0.  1.
         22    1    1    2    0    0  0.38045714580E+00  0.66007825307E+00  0.28224795140E+01  0.29234981695E+01  0.00000000000E+00 0. -1.
</event>
<event>
 5    1  0.1226710E+000  0.1599237E+01  0.7818608E-02  0.3354192E+00
         11   -1    0    0    0    0  0.00000000000E+00  0.00000000000E+00  0.39999999674E+01  0.40000000000E+01  0.51100000000E-03 0. -1.
    9000002   -1    0    0    0    0 -0.00000000000E+00 -0.00000000000E+00  0.00000000000E+00  0.93800000000E+00  0.93800000000E+00 0. -1.
         11    1    1    2    0    0 -0.28018257158E+00  0.22175163414E+00  0.14414931982E+01  0.14851191744E+01  0.51100000000E-03 0. -1.
    9000002    1    1    2    0    0  0.67285825946E+00 -0.58125690765E+00  0.60300729616E+00  0.14262046239E+01  0.93800000000E+00 0. -1.
         22    1    1    2    0    0 -0.39267568788E+00  0.35950527351E+00  0.19554994730E+01  0.20266762017E+01  0.00000000000E+00 0. -1.
</event>
<event>
 5    1  0.1160133E+000  0.1596457E+01  0.7818608E-02  0.3357218E+00
         11   -1    0    0    0    0  0.00000000000E+00  0.00000000000E+00  0.39999999674E+01  0.40000000000E+01  0.51100000000E-03 0.  1.
    9000002   -1    0    0    0    0 -0.00000000000E+00 -0.00000000000E+00  0.00000000000E+00  0.93800000000E+00  0.93800000000E+00 0.  1.
         11    1    1    2    0    0  0.84076323315E-01  0.11158687479E+00  0.68474733174E+00  0.69885594239E+00  0.51100000000E-03 0.  1.
    9000002    1    1    2    0    0 -0.31692543572E+00 -0.81328230588E+00  0.58130031044E+00  0.14069910774E+01  0.93800000000E+00 0.  1.
         22    1    1    2    0    0  0.23284911240E+00  0.70169543110E+00  0.27339523252E+01  0.28321529802E+01  0.00000000000E+00 0.  1.
</event>
<event>
 5    1  0.1160133E+000  0.1564856E+01  0.7818608E-02  0.3392414E+00
         11   -1    0    0    0    0  0.00000000000E+00  0.00000000000E+00  0.39999999674E+01  0.40000000000E+01  0.51100000000E-03 0.  1.
    9000002   -1    0    0    0    0 -0.00000000000E+00 -0.00000000000E+00  0.00000000000E+00  0.93800000000E+00  0.93800000000E+00 0.  1.
         11    1    1    2    0    0  0.94651396103E-01  0.13177654831E+00  0.27320013518E+00  0.31774599990E+00  0.51100000000E-03 0.  1.
    9000002    1    1    2    0    0 -0.10172968333E+01 -0.15464973029E-01  0.91578677028E+00  0.16594099617E+01  0.93800000000E+00 0.  1.
         22    1    1    2    0    0  0.92264543722E+00 -0.11631157528E+00  0.28110130619E+01  0.29608440384E+01  0.00000000000E+00 0.  1.
</event>
<event>
 5    1  0.1160133E+000  0.1599634E+01  0.7818608E-02  0.3353761E+00
         11   -1    0    0    0    0  0.00000000000E+00  0.00000000000E+00  0.39999999674E+01  0.40000000000E+01  0.51100000000E-03 0. -1.
    9000002   -1    0    0    0    0 -0.00000000000E+00 -0.00000000000E+00  0.00000000000E+00  0.93800000000E+00  0.93800000000E+00 0. -1.
         11    1    1    2    0    0  0.20416219208E+00  0.16866690838E+00  0.93717385100E+00  0.97387155969E+00  0.51100000000E-03 0. -1.
    9000002    1    1    2    0    0 -0.73383563701E+00 -0.60992108905E+00  0.71482863826E+00  0.15170176199E+01  0.93800000000E+00 0. -1.
         22    1    1    2    0    0  0.52967344493E+00  0.44125418067E+00  0.23479974781E+01  0.24471108204E+01  0.00000000000E+00 0. -1.
</event>
<event>
 5    1  0.1160133E+000  0.1599518E+01  0.7818608E-02  0.3353886E+00
         11   -1    0    0    0    0  0.00000000000E+00  0.00000000000E+00  0.39999999674E+01  0.40000000000E+01  0.51100000000E-03 0.  1.
    9000002   -1    0    0    0    0 -0.00000000000E+00 -0.00000000000E+00  0.00000000000E+00  0.93800000000E+00  0.93800000000E+00 0.  1.
         11    1    1    2    0    0  0.11665735351E+00  0.22166660002E+00  0.80408816024E+00  0.84220131219E+00  0.51100000000E-03 0.  1.
    9000002    1    1    2    0    0 -0.49031844011E+00 -0.84414604401E+00  0.75694324080E+00  0.15510647266E+01  0.93800000000E+00 0.  1.
         22    1    1    2    0    0  0.37366108660E+00  0.62247944399E+00  0.24389685663E+01  0.25447339612E+01  0.00000000000E+00 0.  1.
</event>
<event>
 5    1  0.1160133E+000  0.1599495E+01  0.7818608E-02  0.3353912E+00
         11   -1    0    0    0    0  0.00000000000E+00  0.00000000000E+00  0.39999999674E+01  0.40000000000E+01  0.51100000000E-03 0. -1.
    9000002   -1    0    0    0    0 -0.00000000000E+00 -0.00000000000E+00  0.00000000000E+00  0.93800000000E+00  0.93800000000E+00 0.  1.
         11    1    1    2    0    0 -0.19785671968E-01  0.33837440894E+00  0.86598580345E+00  0.92995719597E+00  0.51100000000E-03 0. -1.
    9000002    1    1    2    0    0  0.71993644837E-01 -0.10997778405E+01  0.10481469920E+01  0.17869388630E+01  0.93800000000E+00 0.  1.
         22    1    1    2    0    0 -0.52207972869E-01  0.76140343152E+00  0.20858671719E+01  0.22211039410E+01  0.00000000000E+00 0. -1.
</event>
<event>
 5    1  0.1160133E+000  0.1485582E+01  0.7818608E-02  0.3487749E+00
         11   -1    0    0    0    0  0.00000000000E+00  0.00000000000E+00  0.39999999674E+01  0.40000000000E+01  0.51100000000E-03 0.  1.
    9000002   -1    0    0    0    0 -0.00000000000E+00 -0.00000000000E+00  0.00000000000E+00  0.93800000000E+00  0.93800000000E+00 0.  1.
         11    1    1    2    0    0 -0.18121354559E+00 -0.10569379359E+00  0.98140674880E+00  0.10035780960E+01  0.51100000000E-03 0.  1.
    9000002    1    1    2    0    0 -0.17841668070E+00 -0.63735057028E+00  0.44423710755E+00  0.12309503926E+01  0.93800000000E+00 0.  1.
         22    1    1    2    0    0  0.35963022629E+00  0.74304436387E+00  0.25743561110E+01  0.27034715113E+01  0.00000000000E+00 0.  1.
</event>
<event>
 5    1  0.1160133E+000  0.1599643E+01  0.7818608E-02  0.3353751E+00
         11   -1    0    0    0    0  0.00000000000E+00  0.00000000000E+00  0.39999999674E+01  0.40000000000E+01  0.51100000000E-03 0. -1.
    9000002   -1    0    0    0    0 -0.00000000000E+00 -0.00000000000E+00  0.00000000000E+00  0.93800000000E+00  0.93800000000E+00 0. -1.
         11    1    1    2    0    0 -0.34632242595E+00 -0.80974750136E-01  0.11957265587E+01  0.12475008606E+01  0.51100000000E-03 0. -1.
    9000002    1    1    2    0    0  0.94871753543E+00  0.23527880494E+00  0.75914653079E+00  0.15529225780E+01  0.93800000000E+00 0. -1.
         22    1    1    2    0    0 -0.60239510948E+00 -0.15430405480E+00  0.20451268779E+01  0.21375765614E+01  0.00000000000E+00 0. -1.
</event>
<event>
 5    1  0.1160133E+000  0.1532828E+01  0.7818608E-02  0.3429660E+00
         11   -1    0    0    0    0  0.00000000000E+00  0.00000000000E+00  0.39999999674E+01  0.40000000000E+01  0.51100000000E-03 0.  1.
    9000002   -1    0    0    0    0 -0.00000000000E+00 -0.00000000000E+00  0.00000000000E+00  0.93800000000E+00  0.93800000000E+00 0.  1.
         11    1    1    2    0    0  0.18798936190E+00  0.37980024387E+00  0.10534724465E+01  0.11355142809E+01  0.51100000000E-03 0.  1.
    9000002    1    1    2    0    0 -0.10509236938E+01 -0.55961059498E+00  0.17282269202E+01  0.22987424640E+01  0.93800000000E+00 0.  1.
         22    1    1    2    0    0  0.86293433194E+00  0.17981035111E+00  0.12183006007E+01  0.15037432551E+01  0.00000000000E+00 0.  1.
</event>
<event>
 5    1  0.1160133E+000  0.1599180E+01  0.7818608E-02  0.3354254E+00
         11   -1    0    0    0    0  0.00000000000E+00  0.00000000000E+00  0.39999999674E+01  0.40000000000E+01  0.51100000000E-03 0.  1.
    9000002   -1    0    0    0    0 -0.00000000000E+00 -0.00000000000E+00  0.00000000000E+00  0.93800000000E+00  0.93800000000E+00 0.  1.
         11    1    1    2    0    0 -0.67805812124E-01  0.50687194876E-01  0.18147777200E+00  0.20025299681E+00  0.51100000000E-03 0.  1.
    9000002    1    1    2    0    0  0.97516156333E+00 -0.59197438197E+00  0.11632447002E+01  0.18799882915E+01  0.93800000000E+00 0.  1.
         22    1    1    2    0    0 -0.90735575120E+00  0.54128718709E+00  0.26552774952E+01  0.28577587117E+01  0.00000000000E+00 0.  1.
</event>
<event>
 5    1  0.1160133E+000  0.1599591E+01  0.7818608E-02  0.3353807E+00
         11   -1    0    0    0    0  0.00000000000E+00  0.00000000000E+00  0.39999999674E+01  0.40000000000E+01  0.51100000000E-03 0.  1.
    9000002   -1    0    0    0    0 -0.00000000000E+00 -0.00000000000E+00  0.00000000000E+00  0.93800000000E+00  0.93800000000E+00 0.  1.
         11    1    1    2    0    0  0.34191251459E+00 -0.12217153273E-02  0.12752334436E+01  0.13202750687E+01  0.51100000000E-03 0.  1.
    9000002    1    1    2    0    0 -0.91967586027E+00  0.21587673737E-01  0.65365526958E+00  0.14674395821E+01  0.93800000000E+00 0.  1.
         22    1    1    2    0    0  0.57776334568E+00 -0.20365958409E-01  0.20711112542E+01  0.21502853493E+01  0.00000000000E+00 0.  1.
</event>
<event>
 5    1  0.1160133E+000  0.1599675E+01  0.7818608E-02  0.3353716E+00
         11   -1    0    0    0    0  0.00000000000E+00  0.00000000000E+00  0.39999999674E+01  0.40000000000E+01  0.51100000000E-03 0. -1.
    9000002   -1    0    0    0    0 -0.00000000000E+00 -0.00000000000E+00  0.00000000000E+00  0.93800000000E+00  0.93800000000E+00 0. -1.
         11    1    1    2    0    0 -0.46464150336E+00  0.41044903327E+00  0.12828676569E+01  0.14248192243E+01  0.51100000000E-03 0. -1.
    9000002    1    1    2    0    0  0.91785258104E+00 -0.80696220820E+00  0.14754214600E+01  0.21331558430E+01  0.93800000000E+00 0. -1.
         22    1    1    2    0    0 -0.45321107767E+00  0.39651317493E+00  0.12417108504E+01  0.13800249327E+01  0.00000000000E+00 0. -1.
</event>
<event>
 5    1  0.1160133E+000  0.1541166E+01  0.7818608E-02  0.3419805E+00
         11   -1    0    0    0    0  0.00000000000E+00  0.00000000000E+00  0.39999999674E+01  0.40000000000E+01  0.51100000000E-03 0.  1.
    9000002   -1    0    0    0    0 -0.00000000000E+00 -0.00000000000E+00  0.00000000000E+00  0.93800000000E+00  0.93800000000E+00 0.  1.
         11    1    1    2    0    0 -0.31890371070E+00  0.10970124901E+00  0.70407998697E+00  0.78068100393E+00  0.51100000000E-03 0.  1.
    9000002    1    1    2    0    0 -0.68758012282E+00  0.18347798581E+00  0.72957354299E+00  0.13851181001E+01  0.93800000000E+00 0.  1.
         22    1    1    2    0    0  0.10064838335E+01 -0.29317923482E+00  0.25663464374E+01  0.27722008960E+01  0.00000000000E+00 0.  1.
</event>
<event>
 5    1  0.1160133E+000  0.1599660E+01  0.7818608E-02  0.3353732E+00
         11   -1    0    0    0    0  0.00000000000E+00  0.00000000000E+00  0.39999999674E+01  0.40000000000E+01  0.51100000000E-03 0. -1.
    9000002   -1    0    0    0    0 -0.00000000000E+00 -0.00000000000E+00  0.00000000000E+00  0.93800000000E+00  0.93800000000E+00 0.  1.
         11    1    1    2    0    0 -0.10830224384E+00 -0.23236386007E+00  0.90664106895E+00  0.94218927425E+00  0.51100000000E-03 0. -1.
    9000002    1    1    2    0    0  0.39764871901E+00  0.86086978036E+00  0.70383435652E+00  0.15081273434E+01  0.93800000000E+00 0.  1.
         22    1    1    2    0    0 -0.28934647517E+00 -0.62850592030E+00  0.23895245419E+01  0.24876833824E+01  0.00000000000E+00 0. -1.
</event>
<event>
 5    1  0.1160133E+000  0.1599540E+01  0.7818608E-02  0.3353862E+00
         11   -1    0    0    0    0  0.00000000000E+00  0.00000000000E+00  0.39999999674E+01  0.40000000000E+01  0.51100000000E-03 0.  1.
    9000002   -1    0    0    0    0 -0.00000000000E+00 -0.00000000000E+00  0.00000000000E+00  0.93800000000E+00  0.93800000000E+00 0. -1.
         11    1    1    2    0    0 -0.26004940792E+00  0.23360134408E+00  0.12080413026E+01  0.12576006252E+01  0.51100000000E-03 0.  1.
    9000002    1    1    2    0    0  0.73814444724E+00 -0.62958499326E+00  0.74517885281E+00  0.15415479271E+01  0.93800000000E+00 0. -1.
         22    1    1    2    0    0 -0.47809503932E+00  0.39598364918E+00  0.20467798119E+01  0.21388514478E+01  0.00000000000E+00 0. -1.
</event>
<event>
 5    1  0.1160133E+000  0.1599676E+01  0.7818608E-02  0.3353715E+00
         11   -1    0    0    0    0  0.00000000000E+00  0.00000000000E+00  0.39999999674E+01  0.40000000000E+01  0.51100000000E-03 0. -1.
    9000002   -1    0    0    0    0 -0.00000000000E+00 -0.00000000000E+00  0.00000000000E+00  0.93800000000E+00  0.93800000000E+00 0. -1.
         11    1    1    2    0    0 -0.67158257150E+00 -0.12559503045E+00  0.13329670052E+01  0.14978646669E+01  0.51100000000E-03 0. -1.
    9000002    1    1    2    0    0  0.12198390342E+01  0.22855908221E+00  0.15743547708E+01  0.22132969678E+01  0.93800000000E+00 0. -1.
         22    1    1    2    0    0 -0.54825646271E+00 -0.10296405176E+00  0.10926781913E+01  0.12268383653E+01  0.00000000000E+00 0.  1.
</event>
<event>
 5    1  0.1160133E+000  0.1599677E+01  0.7818608E-02  0.3353714E+00
         11   -1    0    0    0    0  0.00000000000E+00  0.00000000000E+00  0.39999999674E+01  0.40000000000E+01  0.51100000000E-03 0.  1.
    9000002   -1    0    0    0    0 -0.00000000000E+00 -0.00000000000E+00  0.00000000000E+00  0.93800000000E+00  0.93800000000E+00 0.  1.
         11    1    1    2    0    0 -0.36644207876E+00 -0.18827008902E+00  0.12144228170E+01  0.12823994943E+01  0.51100000000E-03 0.  1.
    9000002    1    1    2    0    0  0.93163891087E+00  0.47927683290E+00  0.90944728567E+00  0.16746927205E+01  0.93800000000E+00 0.  1.
         22    1    1    2    0    0 -0.56519683211E+00 -0.29100674388E+00  0.18761298647E+01  0.19809077851E+01  0.00000000000E+00 0.  1.
</event>
<event>
 5    1  0.1160133E+000  0.1599658E+01  0.7818608E-02  0.3353734E+00
         11   -1    0    0    0    0  0.00000000000E+00  0.00000000000E+00  0.39999999674E+01  0.40000000000E+01  0.51100000000E-03 0. -1.
    9000002   -1    0    0    0    0 -0.00000000000E+00 -0.00000000000E+00  0.00000000000E+00  0.93800000000E+00  0.93800000000E+00 0. -1.
         11    1    1    2    0    0  0.54884047840E-01  0.35583491163E+00  0.79146962966E+00  0.86951433504E+00  0.51100000000E-03 0. -1.
    9000002    1    1    2    0    0 -0.18164085296E+00 -0.11899106467E+01  0.13916530443E+01  0.20652900383E+01  0.93800000000E+00 0. -1.
         22    1    1    2    0    0  0.12675680512E+00  0.83407573504E+00  0.18168772934E+01  0.20031956267E+01  0.00000000000E+00 0. -1.
</event>
<event>
 5    1  0.1160133E+000  0.1551010E+01  0.7818608E-02  0.3408315E+00
         11   -1    0    0    0    0  0.00000000000E+00  0.00000000000E+00  0.39999999674E+01  0.40000000000E+01  0.51100000000E-03 0. -1.
    9000002   -1    0    0    0    0 -0.00000000000E+00 -0.00000000000E+00  0.00000000000E+00  0.93800000000E+00  0.93800000000E+00 0. -1.
         11    1    1    2    0    0  0.11408090638E+00 -0.24522564019E+00  0.12201063654E+01  0.12497239183E+01  0.51100000000E-03 0. -1.
    9000002    1    1    2    0    0 -0.89926278093E+00  0.62440269920E+00  0.11670862925E+01  0.18548548984E+01  0.93800000000E+00 0. -1.
         22    1    1    2    0    0  0.78518187455E+00 -0.37917705902E+00  0.16128073094E+01  0.18334211833E+01  0.00000000000E+00 0. -1.
</event>
<event>
 5    1  0.1160133E+000  0.1599677E+01  0.7818608E-02  0.3353714E+00
         11   -1    0    0    0    0  0.00000000000E+00  0.00000000000E+00  0.39999999674E+01  0.40000000000E+01  0.51100000000E-03 0. -1.
    9000002   -1    0    0    0    0 -0.00000000000E+00 -0.00000000000E+00  0.00000000000E+00  0.93800000000E+00  0.93800000000E+00 0. -1.
         11    1    1    2    0    0  0.24774051866E+00 -0.39398295975E+00  0.14209490278E+01  0.14952238421E+01  0.51100000000E-03 0. -1.
    9000002    1    1    2    0    0 -0.54705593823E+00  0.86983997720E+00  0.86355272327E+00  0.16375161347E+01  0.93800000000E+00 0. -1.
         22    1    1    2    0    0  0.29931541957E+00 -0.47585701745E+00  0.17154982163E+01  0.18052600233E+01  0.00000000000E+00 0.  1.
</event>
<event>
 5    1  0.1160133E+000  0.1599672E+01  0.7818608E-02  0.3353719E+00
         11   -1    0    0    0    0  0.00000000000E+00  0.00000000000E+00  0.39999999674E+01  0.40000000000E+01  0.51100000000E-03 0.  1.
    9000002   -1    0    0    0    0 -0.00000000000E+00 -0.00000000000E+00  0.00000000000E+00  0.93800000000E+00  0.93800000000E+00 0. -1.
         11    1    1    2    0    0  0.20739755376E-01 -0.13276722965E-01  0.82540393974E-01  0.86137022146E-01  0.51100000000E-03 0.  1.
    9000002    1    1    2    0    0 -0.81725615877E+00  0.50106005130E+00  0.72300379144E+00  0.15236624582E+01  0.93800000000E+00 0. -1.
         22    1    1    2    0    0  0.79651640340E+00 -0.48778332834E+00  0.31944557819E+01  0.33282005197E+01  0.00000000000E+00 0.  1.
</event>
<event>
 5    1  0.1160133E+000  0.1541546E+01  0.7818608E-02  0.3419358E+00
         11   -1    0    0    0    0  0.00000000000E+00  0.00000000000E+00  0.39999999674E+01  0.40000000000E+01  0.51100000000E-03 0. -1.
    9000002   -1    0    0    0    0 -0.00000000000E+00 -0.00000000000E+00  0.00000000000E+00  0.93800000000E+00  0.93800000000E+00 0.  1.
         11    1    1    2    0    0  0.43086732691E-01 -0.28136662606E-01  0.12663416965E+01  0.12673869543E+01  0.51100000000E-03 0. -1.
    9000002    1    1    2    0    0  0.64253643903E+00  0.28607258242E+00  0.42261261497E+00  0.12462487794E+01  0.93800000000E+00 0.  1.
         22    1    1    2    0    0 -0.68562317172E+00 -0.25793591981E+00  0.23110456559E+01  0.24243642663E+01  0.00000000000E+00 0. -1.
</event>
<event>
 5    1  0.1160133E+000  0.1599587E+01  0.7818608E-02  0.3353812E+00
         11   -1    0    0    0    0  0.00000000000E+00  0.00000000000E+00  0.39999999674E+01  0.40000000000E+01  0.51100000000E-03 0.  1.
    9000002   -1    0    0    0    0 -0.00000000000E+00 -0.00000000000E+00  0.00000000000E+00  0.93800000000E+00  0.93800000000E+00 0.  1.
         11    1    1    2    0    0 -0.75806901721E-02  0.31290806277E+00  0.99205999944E+00  0.10402654595E+01  0.51100000000E-03 0.  1.
    9000002    1    1    2    0    0  0.36126292231E-01 -0.98394802489E+00  0.77339164384E+00  0.15644287965E+01  0.93800000000E+00 0.  1.
         22    1    1    2    0    0 -0.28545602059E-01  0.67103996212E+00  0.22345483241E+01  0.23333057440E+01  0.00000000000E+00 0.  1.
</event>
<event>
 5    1  0.1160133E+000  0.1598869E+01  0.7818608E-02  0.3354592E+00
         11   -1    0    0    0    0  0.00000000000E+00  0.00000000000E+00  0.39999999674E+01  0.40000000000E+01  0.51100000000E-03 0. -1.
    9000002   -1    0    0    0    0 -0.00000000000E+00 -0.00000000000E+00  0.00000000000E+00  0.93800000000E+00  0.93800000000E+00 0. -1.
         11    1    1    2    0    0 -0.15366403545E+00 -0.52366536213E+00  0.95335824187E+00  0.10985127426E+01  0.51100000000E-03 0. -1.
    9000002    1    1    2    0    0  0.28123577374E+00  0.12379350827E+01  0.17741044134E+01  0.23746299289E+01  0.93800000000E+00 0. -1.
         22    1    1    2    0    0 -0.12757173828E+00 -0.71426972059E+00  0.12725373121E+01  0.14648573285E+01  0.00000000000E+00 0. -1.
</event>
<event>
 5    1  0.1160133E+000  0.1599631E+01  0.7818608E-02  0.3353764E+00
         11   -1    0    0    0    0  0.00000000000E+00  0.00000000000E+00  0.39999999674E+01  0.40000000000E+01  0.51100000000E-03 0.  1.
    9000002   -1    0    0    0    0 -0.00000000000E+00 -0.00000000000E+00  0.00000000000E+00  0.93800000000E+00  0.93800000000E+00 0. -1.
         11    1    1    2    0    0 -0.14033235330E+00 -0.13831752539E+00  0.69258868225E+00  0.72007239297E+00  0.51100000000E-03 0.  1.
    9000002    1    1    2    0    0  0.69424025866E+00  0.63989370036E+00  0.69638350291E+00  0.15020743882E+01  0.93800000000E+00 0. -1.
         22    1    1    2    0    0 -0.55390790536E+00 -0.50157617497E+00  0.26110277822E+01  0.27158532189E+01  0.00000000000E+00 0.  1.
</event>
<event>
 5    1  0.1160133E+000  0.1599559E+01  0.7818608E-02  0.3353842E+00
         11   -1    0    0    0    0  0.00000000000E+00  0.00000000000E+00  0.39999999674E+01  0.40000000000E+01  0.51100000000E-03 0. -1.
    9000002   -1    0    0    0    0 -0.00000000000E+00 -0.00000000000E+00  0.00000000000E+00  0.93800000000E+00  0.93800000000E+00 0.  1.
         11    1    1    2    0    0 -0.34158977676E+00  0.21948065473E+00  0.13939640859E+01  0.14518923745E+01  0.51100000000E-03 0. -1.
    9000002    1    1    2    0    0  0.80735949270E+00 -0.48928609643E+00  0.69630886783E+00  0.15019721282E+01  0.93800000000E+00 0.  1.
         22    1    1    2    0    0 -0.46576971594E+00  0.26980544171E+00  0.19097270137E+01  0.19841354972E+01  0.00000000000E+00 0. -1.
</event>
<event>
 5    1  0.1160133E+000  0.1599638E+01  0.7818608E-02  0.3353756E+00
         11   -1    0    0    0    0  0.00000000000E+00  0.00000000000E+00  0.39999999674E+01  0.40000000000E+01  0.51100000000E-03 0. -1.
    9000002   -1    0    0    0    0 -0.00000000000E+00 -0.00000000000E+00  0.00000000000E+00  0.93800000000E+00  0.93800000000E+00 0. -1.
         11    1    1    2    0    0 -0.35277550526E-01 -0.57253311842E-01  0.24212644975E+00  0.25129251098E+00  0.51100000000E-03 0. -1.
    9000002    1    1    2    0    0  0.51690629423E+00  0.81070729950E+00  0.72842307643E+00  0.15280322708E+01  0.93800000000E+00 0. -1.
         22    1    1    2    0    0 -0.48162874371E+00 -0.75345398766E+00  0.30294504412E+01  0.31586752182E+01  0.00000000000E+00 0. -1.
</event>
<event>
 5    1  0.1160133E+000  0.1472958E+01  0.7818608E-02  0.3503952E+00
         11   -1    0    0    0    0  0.00000000000E+00  0.00000000000E+00  0.39999999674E+01  0.40000000000E+01  0.51100000000E-03 0. -1.
    9000002   -1    0    0    0    0 -0.00000000000E+00 -0.00000000000E+00  0.00000000000E+00  0.93800000000E+00  0.93800000000E+00 0. -1.
         11    1    1    2    0    0 -0.43711481646E+00 -0.65633937910E+00  0.11503517122E+01  0.13946899534E+01  0.51100000000E-03 0. -1.
    9000002    1    1    2    0    0  0.48543668751E-01  0.11058888219E+01  0.16019946695E+01  0.21613832365E+01  0.93800000000E+00 0. -1.
         22    1    1    2    0    0  0.38857114771E+00 -0.44954944281E+00  0.12476535857E+01  0.13819268101E+01  0.00000000000E+00 0. -1.
</event>
<event>
 5    1  0.1160133E+000  0.1593162E+01  0.7818608E-02  0.3360818E+00
         11   -1    0    0    0    0  0.00000000000E+00  0.00000000000E+00  0.39999999674E+01  0.40000000000E+01  0.51100000000E-03 0.  1.
    9000002   -1    0    0    0    0 -0.00000000000E+00 -0.00000000000E+00  0.00000000000E+00  0.93800000000E+00  0.93800000000E+00 0.  1.
         11    1    1    2    0    0 -0.35082279698E-02 -0.19992978201E-01  0.25377876052E+00  0.25458976266E+00  0.51100000000E-03 0.  1.
    9000002    1    1    2    0    0  0.52124612782E+00  0.75911547242E+00  0.66566983324E+00  0.14734022374E+01  0.93800000000E+00 0.  1.
         22    1    1    2    0    0 -0.51773789985E+00 -0.73912249422E+00  0.30805513736E+01  0.32100080000E+01  0.00000000000E+00 0.  1.
</event>
<event>
 5    1  0.1160133E+000  0.1599676E+01  0.7818608E-02  0.3353715E+00
         11   -1    0    0    0    0  0.00000000000E+00  0.00000000000E+00  0.39999999674E+01  0.40000000000E+01  0.51100000000E-03 0. -1.
    9000002   -1    0    0    0    0 -0.00000000000E+00 -0.00000000000E+00  0.00000000000E+00  0.93800000000E+00  0.93800000000E+00 0.  1.
         11    1    1    2    0    0 -0.22746256823E-01 -0.21420028430E+00  0.74434480436E+00  0.77488618706E+00  0.51100000000E-03 0.  1.
    9000002    1    1    2    0    0  0.10464539343E+00  0.94821984743E+00  0.71432138664E+00  0.15166313266E+01  0.93800000000E+00 0.  1.
         22    1    1    2    0    0 -0.81899136605E-01 -0.73401956313E+00  0.25413337764E+01  0.26464824863E+01  0.00000000000E+00 0. -1.
</event>
<event>
 5    1  0.1160133E+000  0.1599667E+01  0.7818608E-02  0.3353725E+00
         11   -1    0    0    0    0  0.00000000000E+00  0.00000000000E+00  0.39999999674E+01  0.40000000000E+01  0.51100000000E-03 0. -1.
    9000002   -1    0    0    0    0 -0.00000000000E+00 -0.00000000000E+00  0.00000000000E+00  0.93800000000E+00  0.93800000000E+00 0.  1.
         11    1    1    2    0    0 -0.25874198356E+00  0.30324122362E+00  0.12584633802E+01  0.13200882524E+01  0.51100000000E-03 0. -1.
    9000002    1    1    2    0    0  0.64575523093E+00 -0.76912993891E+00  0.81338388389E+00  0.15968713235E+01  0.93800000000E+00 0.  1.
         22    1    1    2    0    0 -0.38701324737E+00  0.46588871528E+00  0.19281527033E+01  0.20210404241E+01  0.00000000000E+00 0. -1.
</event>
<event>
 5    1  0.1160133E+000  0.1599355E+01  0.7818608E-02  0.3354064E+00
         11   -1    0    0    0    0  0.00000000000E+00  0.00000000000E+00  0.39999999674E+01  0.40000000000E+01  0.51100000000E-03 0. -1.
    9000002   -1    0    0    0    0 -0.00000000000E+00 -0.00000000000E+00  0.00000000000E+00  0.93800000000E+00  0.93800000000E+00 0.  1.
         11    1    1    2    0    0 -0.23499691299E+00  0.78753780053E-01  0.80953678176E+00  0.84662610941E+00  0.51100000000E-03 0. -1.
    9000002    1    1    2    0    0  0.88332868885E+00 -0.31611431764E+00  0.68608674663E+00  0.14935718457E+01  0.93800000000E+00 0.  1.
         22    1    1    2    0    0 -0.64833177586E+00  0.23736053759E+00  0.25043764390E+01  0.25978020449E+01  0.00000000000E+00 0. -1.
</event>
<event>
 5    1  0.1160133E+000  0.1588818E+01  0.7818608E-02  0.3365590E+00
         11   -1    0    0    0    0  0.00000000000E+00  0.00000000000E+00  0.39999999674E+01  0.40000000000E+01  0.51100000000E-03 0. -1.
    9000002   -1    0    0    0    0 -0.00000000000E+00 -0.00000000000E+00  0.00000000000E+00  0.93800000000E+00  0.93800000000E+00 0. -1.
         11    1    1    2    0    0  0.14897301522E+00 -0.17172954174E+00  0.41588820014E+00  0.47396967298E+00  0.51100000000E-03 0. -1.
    9000002    1    1    2    0    0 -0.95924392601E+00  0.56031880847E+00  0.11023682376E+01  0.18246001776E+01  0.93800000000E+00 0. -1.
         22    1    1    2    0    0  0.81027091079E+00 -0.38858926673E+00  0.24817435296E+01  0.26394301494E+01  0.00000000000E+00 0. -1.
</event>
<event>
 5    1  0.1160133E+000  0.1599624E+01  0.7818608E-02  0.3353771E+00
         11   -1    0    0    0    0  0.00000000000E+00  0.00000000000E+00  0.39999999674E+01  0.40000000000E+01  0.51100000000E-03 0. -1.
    9000002   -1    0    0    0    0 -0.00000000000E+00 -0.00000000000E+00  0.00000000000E+00  0.93800000000E+00  0.93800000000E+00 0.  1.
         11    1    1    2    0    0 -0.22794271819E+00  0.11356746975E+00  0.82243097323E+00  0.86095785019E+00  0.51100000000E-03 0. -1.
    9000002    1    1    2    0    0  0.88894256662E+00 -0.46920753851E+00  0.81535751161E+00  0.15984450171E+01  0.93800000000E+00 0.  1.
         22    1    1    2    0    0 -0.66099984843E+00  0.35564006876E+00  0.23622114825E+01  0.24785971327E+01  0.00000000000E+00 0. -1.
</event>
<event>
 5    1  0.1160133E+000  0.1496285E+01  0.7818608E-02  0.3474244E+00
         11   -1    0    0    0    0  0.00000000000E+00  0.00000000000E+00  0.39999999674E+01  0.40000000000E+01  0.51100000000E-03 0.  1.
    9000002   -1    0    0    0    0 -0.00000000000E+00 -0.00000000000E+00  0.00000000000E+00  0.93800000000E+00  0.93800000000E+00 0. -1.
         11    1    1    2    0    0 -0.33561824112E+00 -0.18260659152E+00  0.61752577351E+00  0.72617016815E+00  0.51100000000E-03 0.  1.
    9000002    1    1    2    0    0  0.87175848831E+00 -0.45950033249E+00  0.10048698868E+01  0.16913636235E+01  0.93800000000E+00 0. -1.
         22    1    1    2    0    0 -0.53614024719E+00  0.64210692400E+00  0.23776043071E+01  0.25204662084E+01  0.00000000000E+00 0.  1.
</event>
<event>
 5    1  0.1160133E+000  0.1597607E+01  0.7818608E-02  0.3355964E+00
         11   -1    0    0    0    0  0.00000000000E+00  0.00000000000E+00  0.39999999674E+01  0.40000000000E+01  0.51100000000E-03 0. -1.
    9000002   -1    0    0    0    0 -0.00000000000E+00 -0.00000000000E+00  0.00000000000E+00  0.93800000000E+00  0.93800000000E+00 0. -1.
         11    1    1    2    0    0 -0.96590586449E-01 -0.28904747324E+00  0.10325512541E+01  0.10765874496E+01  0.51100000000E-03 0. -1.
    9000002    1    1    2    0    0  0.19107390817E+00  0.10024099102E+01  0.85214468507E+00  0.16270615940E+01  0.93800000000E+00 0. -1.
         22    1    1    2    0    0 -0.94483321720E-01 -0.71336243696E+00  0.21153040282E+01  0.22343509563E+01  0.00000000000E+00 0. -1.
</event>
<event>
 5    1  0.1160133E+000  0.1596574E+01  0.7818608E-02  0.3357091E+00
         11   -1    0    0    0    0  0.00000000000E+00  0.00000000000E+00  0.39999999674E+01  0.40000000000E+01  0.51100000000E-03 0.  1.
    9000002   -1    0    0    0    0 -0.00000000000E+00 -0.00000000000E+00  0.00000000000E+00  0.93800000000E+00  0.93800000000E+00 0. -1.
         11    1    1    2    0    0  0.17969967013E+00  0.11594876392E+00  0.54096769623E+00  0.58170645242E+00  0.51100000000E-03 0.  1.
    9000002    1    1    2    0    0 -0.88851776146E+00 -0.43361115486E+00  0.78721542749E+00  0.15738597699E+01  0.93800000000E+00 0. -1.
         22    1    1    2    0    0  0.70881809133E+00  0.31766239094E+00  0.26718168436E+01  0.27824337777E+01  0.00000000000E+00 0.  1.
</event>
<event>
 5    1  0.1160133E+000  0.1599528E+01  0.7818608E-02  0.3353876E+00
         11   -1    0    0    0    0  0.00000000000E+00  0.00000000000E+00  0.39999999674E+01  0.40000000000E+01  0.51100000000E-03 0. -1.
    9000002   -1    0    0    0    0 -0.00000000000E+00 -0.00000000000E+00  0.00000000000E+00  0.93800000000E+00  0.93800000000E+00 0.  1.
         11    1    1    2    0    0  0.15064391931E+00  0.10933086023E+00  0.62542900492E+00  0.65254005911E+00  0.51100000000E-03 0. -1.
    9000002    1    1    2    0    0 -0.75850008217E+00 -0.53633172190E+00  0.66944817530E+00  0.14801955783E+01  0.93800000000E+00 0.  1.
         22    1    1    2    0    0  0.60785616286E+00  0.42700086166E+00  0.27051227871E+01  0.28052643626E+01  0.00000000000E+00 0. -1.
</event>
<event>
 5    1  0.1160133E+000  0.1576227E+01  0.7818608E-02  0.3379577E+00
         11   -1    0    0    0    0  0.00000000000E+00  0.00000000000E+00  0.39999999674E+01  0.40000000000E+01  0.51100000000E-03 0.  1.
    9000002   -1    0    0    0    0 -0.00000000000E+00 -0.00000000000E+00  0.00000000000E+00  0.93800000000E+00  0.93800000000E+00 0.  1.
         11    1    1    2    0    0 -0.22081562450E-01 -0.37298911082E+00  0.93005822034E+00  0.10023058548E+01  0.51100000000E-03 0.  1.
    9000002    1    1    2    0    0 -0.31906681260E+00  0.11981132368E+01  0.17348490439E+01  0.23295544991E+01  0.93800000000E+00 0.  1.
         22    1    1    2    0    0  0.34114837505E+00 -0.82512412595E+00  0.13350927031E+01  0.16061396461E+01  0.00000000000E+00 0. -1.
</event>
<event>
 5    1  0.1160133E+000  0.1559240E+01  0.7818608E-02  0.3398827E+00
         11   -1    0    0    0    0  0.00000000000E+00  0.00000000000E+00  0.39999999674E+01  0.40000000000E+01  0.51100000000E-03 0.  1.
    9000002   -1    0    0    0    0 -0.00000000000E+00 -0.00000000000E+00  0.00000000000E+00  0.93800000000E+00  0.93800000000E+00 0.  1.
         11    1    1    2    0    0 -0.32911233815E-01 -0.14979461088E+00  0.18837008906E+00  0.24290970819E+00  0.51100000000E-03 0.  1.
    9000002    1    1    2    0    0  0.81816409051E+00  0.48931213091E+00  0.78696578953E+00  0.15517660888E+01  0.93800000000E+00 0.  1.
         22    1    1    2    0    0 -0.78525285669E+00 -0.33951752003E+00  0.30246640888E+01  0.31433242030E+01  0.00000000000E+00 0.  1.
</event>
<event>
 5    1  0.1160133E+000  0.1599674E+01  0.7818608E-02  0.3353718E+00
         11   -1    0    0    0    0  0.00000000000E+00  0.00000000000E+00  0.39999999674E+01  0.40000000000E+01  0.51100000000E-03 0. -1.
    9000002   -1    0    0    0    0 -0.00000000000E+00 -0.00000000000E+00  0.00000000000E+00  0.93800000000E+00  0.93800000000E+00 0.  1.
         11    1    1    2    0    0 -0.43963519728E-01  0.35282558533E+00  0.99821205250E+00  0.10596443968E+01  0.51100000000E-03 0. -1.
    9000002    1    1    2    0    0  0.12680600136E+00 -0.10684048099E+01  0.97827157331E+00  0.17304415249E+01  0.93800000000E+00 0.  1.
         22    1    1    2    0    0 -0.82842481629E-01  0.71557922461E+00  0.20235163415E+01  0.21479140783E+01  0.00000000000E+00 0. -1.
</event>
<event>
 5    1  0.1160133E+000  0.1599677E+01  0.7818608E-02  0.3353714E+00
         11   -1    0    0    0    0  0.00000000000E+00  0.00000000000E+00  0.39999999674E+01  0.40000000000E+01  0.51100000000E-03 0. -1.
    9000002   -1    0    0    0    0 -0.00000000000E+00 -0.00000000000E+00  0.00000000000E+00  0.93800000000E+00  0.93800000000E+00 0.  1.
         11    1    1    2    0    0  0.35377809444E+00  0.91078579193E-01  0.11043679476E+01  0.11632209904E+01  0.51100000000E-03 0. -1.
    9000002    1    1    2    0    0 -0.10016950490E+01 -0.25631106312E+00  0.87788369668E+00  0.16491246518E+01  0.93800000000E+00 0.  1.
         22    1    1    2    0    0  0.64791695451E+00  0.16523248393E+00  0.20177483231E+01  0.21256543578E+01  0.00000000000E+00 0. -1.
</event>
<event>
 5    1  0.1160133E+000  0.1599637E+01  0.7818608E-02  0.3353757E+00
         11   -1    0    0    0    0  0.00000000000E+00  0.00000000000E+00  0.39999999674E+01  0.40000000000E+01  0.51100000000E-03 0.  1.
    9000002   -1    0    0    0    0 -0.00000000000E+00 -0.00000000000E+00  0.00000000000E+00  0.93800000000E+00  0.93800000000E+00 0. -1.
         11    1    1    2    0    0 -0.18717832762E+00 -0.53567869847E-01  0.67009731265E+00  0.69780793386E+00  0.51100000000E-03 0.  1.
    9000002    1    1    2    0    0  0.92847239811E+00  0.28370655646E+00  0.74631235049E+00  0.15425227806E+01  0.93800000000E+00 0. -1.
         22    1    1    2    0    0 -0.74129407049E+00 -0.23013868661E+00  0.25835903042E+01  0.26976692855E+01  0.00000000000E+00 0.  1.
</event>
<event>
 5    1  0.1160133E+000  0.1521544E+01  0.7818608E-02  0.3443182E+00
         11   -1    0    0    0    0  0.00000000000E+00  0.00000000000E+00  0.39999999674E+01  0.40000000000E+01  0.51100000000E-03 0. -1.
    9000002   -1    0    0    0    0 -0.00000000000E+00 -0.00000000000E+00  0.00000000000E+00  0.93800000000E+00  0.93800000000E+00 0.  1.
         11    1    1    2    0    0 -0.28775306885E+00 -0.11742972154E+00  0.19692123780E+00  0.36792635560E+00  0.51100000000E-03 0. -1.
    9000002    1    1    2    0    0 -0.29638722032E+00  0.71101713339E+00  0.80009467967E+00  0.14537490309E+01  0.93800000000E+00 0.  1.
         22    1    1    2    0    0  0.58414028917E+00 -0.59358741185E+00  0.30029840499E+01  0.31163246135E+01  0.00000000000E+00 0. -1.
</event>
<event>
 5    1  0.1160133E+000  0.1599593E+01  0.7818608E-02  0.3353806E+00
         11   -1    0    0    0    0  0.00000000000E+00  0.00000000000E+00  0.39999999674E+01  0.40000000000E+01  0.51100000000E-03 0.  1.
    9000002   -1    0    0    0    0 -0.00000000000E+00 -0.00000000000E+00  0.00000000000E+00  0.93800000000E+00  0.93800000000E+00 0.  1.
         11    1    1    2    0    0 -0.72918984698E-01  0.10438007607E-01  0.23389931655E+00  0.24522496149E+00  0.51100000000E-03 0.  1.
    9000002    1    1    2    0    0  0.94351951743E+00 -0.13053775320E+00  0.71174231800E+00  0.15144934176E+01  0.93800000000E+00 0.  1.
         22    1    1    2    0    0 -0.87060053274E+00  0.12009974559E+00  0.30543583328E+01  0.31782816209E+01  0.00000000000E+00 0.  1.
</event>
<event>
 5    1  0.1160133E+000  0.1599673E+01  0.7818608E-02  0.3353718E+00
         11   -1    0    0    0    0  0.00000000000E+00  0.00000000000E+00  0.39999999674E+01  0.40000000000E+01  0.51100000000E-03 0. -1.
    9000002   -1    0    0    0    0 -0.00000000000E+00 -0.00000000000E+00  0.00000000000E+00  0.93800000000E+00  0.93800000000E+00 0. -1.
         11    1    1    2    0    0  0.12867707925E+00  0.18832033584E+00  0.62218416894E+00  0.66267317798E+00  0.51100000000E-03 0. -1.
    9000002    1    1    2    0    0 -0.60835546495E+00 -0.90430235385E+00  0.10145726895E+01  0.17598468289E+01  0.93800000000E+00 0. -1.
         22    1    1    2    0    0  0.47967838570E+00  0.71598201801E+00  0.23632431090E+01  0.25154799931E+01  0.00000000000E+00 0. -1.
</event>
<event>
 5    1  0.1160133E+000  0.1599675E+01  0.7818608E-02  0.3353717E+00
         11   -1    0    0    0    0  0.00000000000E+00  0.00000000000E+00  0.39999999674E+01  0.40000000000E+01  0.51100000000E-03 0. -1.
    9000002   -1    0    0    0    0 -0.00000000000E+00 -0.00000000000E+00  0.00000000000E+00  0.93800000000E+00  0.93800000000E+00 0.  1.
         11    1    1    2    0    0 -0.11048506617E+00 -0.41439575223E-01  0.24419913622E+00  0.27121516826E+00  0.51100000000E-03 0. -1.
    9000002    1    1    2    0    0  0.11462250684E+01  0.43179809912E+00  0.14886898581E+01  0.21439036824E+01  0.93800000000E+00 0.  1.
         22    1    1    2    0    0 -0.10357400023E+01 -0.39035852390E+00  0.22671109731E+01  0.25228811493E+01  0.00000000000E+00 0. -1.
</event>
<event>
 5    1  0.1160133E+000  0.1584967E+01  0.7818608E-02  0.3369843E+00
         11   -1    0    0    0    0  0.00000000000E+00  0.00000000000E+00  0.39999999674E+01  0.40000000000E+01  0.51100000000E-03 0.  1.
    9000002   -1    0    0    0    0 -0.00000000000E+00 -0.00000000000E+00  0.00000000000E+00  0.93800000000E+00  0.93800000000E+00 0.  1.
         11    1    1    2    0    0 -0.31566015871E+00  0.24751442625E+00  0.11551043679E+01  0.12227718875E+01  0.51100000000E-03 0.  1.
    9000002    1    1    2    0    0  0.52717898845E+00 -0.86538265622E+00  0.86255236761E+00  0.16280802850E+01  0.93800000000E+00 0.  1.
         22    1    1    2    0    0 -0.21151882974E+00  0.61786822997E+00  0.19823432318E+01  0.20871478275E+01  0.00000000000E+00 0.  1.
</event>
<event>
 5    1  0.1160133E+000  0.1474300E+01  0.7818608E-02  0.3502216E+00
         11   -1    0    0    0    0  0.00000000000E+00  0.00000000000E+00  0.39999999674E+01  0.40000000000E+01  0.51100000000E-03 0.  1.
    9000002   -1    0    0    0    0 -0.00000000000E+00 -0.00000000000E+00  0.00000000000E+00  0.93800000000E+00  0.93800000000E+00 0. -1.
         11    1    1    2    0    0  0.41818246320E+00 -0.32139933543E+00  0.12421452038E+01  0.13494810387E+01  0.51100000000E-03 0.  1.
    9000002    1    1    2    0    0 -0.52601654432E+00 -0.30170288701E+00  0.46467363275E+00  0.12097452715E+01  0.93800000000E+00 0. -1.
         22    1    1    2    0    0  0.10783408113E+00  0.62310222243E+00  0.22931811308E+01  0.23787736899E+01  0.00000000000E+00 0. -1.
</event>
<event>
 5    1  0.1160133E+000  0.1599677E+01  0.7818608E-02  0.3353714E+00
         11   -1    0    0    0    0  0.00000000000E+00  0.00000000000E+00  0.39999999674E+01  0.40000000000E+01  0.51100000000E-03 0. -1.
    9000002   -1    0    0    0    0 -0.00000000000E+00 -0.00000000000E+00  0.00000000000E+00  0.93800000000E+00  0.93800000000E+00 0.  1.
         11    1    1    2    0    0 -0.42644493646E+00  0.23786700899E-01  0.11636335827E+01  0.12395420391E+01  0.51100000000E-03 0.  1.
    9000002    1    1    2    0    0  0.10908215182E+01 -0.60499490196E-01  0.10215092008E+01  0.17654678757E+01  0.93800000000E+00 0.  1.
         22    1    1    2    0    0 -0.66437658173E+00  0.36712789297E-01  0.18148571839E+01  0.19329900852E+01  0.00000000000E+00 0. -1.
</event>
<event>
 5    1  0.1160133E+000  0.1599336E+01  0.7818608E-02  0.3354084E+00
         11   -1    0    0    0    0  0.00000000000E+00  0.00000000000E+00  0.39999999674E+01  0.40000000000E+01  0.51100000000E-03 0. -1.
    9000002   -1    0    0    0    0 -0.00000000000E+00 -0.00000000000E+00  0.00000000000E+00  0.93800000000E+00  0.93800000000E+00 0.  1.
         11    1    1    2    0    0 -0.12670950710E+00  0.54322336144E-01  0.36125796570E+00  0.38667013628E+00  0.51100000000E-03 0. -1.
    9000002    1    1    2    0    0  0.94948460964E+00 -0.46053850942E+00  0.92818427017E+00  0.16896706135E+01  0.93800000000E+00 0.  1.
         22    1    1    2    0    0 -0.82277510255E+00  0.40621617328E+00  0.27105577315E+01  0.28616592503E+01  0.00000000000E+00 0. -1.
</event>
<event>
 5    1  0.1160133E+000  0.1593976E+01  0.7818608E-02  0.3359927E+00
         11   -1    0    0    0    0  0.00000000000E+00  0.00000000000E+00  0.39999999674E+01  0.40000000000E+01  0.51100000000E-03 0.  1.
    9000002   -1    0    0    0    0 -0.00000000000E+00 -0.00000000000E+00  0.00000000000E+00  0.93800000000E+00  0.93800000000E+00 0.  1.
         11    1    1    2    0    0 -0.10235220144E-01 -0.34677551421E-02  0.47170954106E-01  0.48395713543E-01  0.51100000000E-03 0.  1.
    9000002    1    1    2    0    0  0.84786917290E+00 -0.96887626828E+00  0.21038481837E+01  0.26388680410E+01  0.93800000000E+00 0.  1.
         22    1    1    2    0    0 -0.83763395275E+00  0.97234402342E+00  0.18489808296E+01  0.22507362455E+01  0.00000000000E+00 0.  1.
</event>
<event>
 5    1  0.1160133E+000  0.1599677E+01  0.7818608E-02  0.3353715E+00
         11   -1    0    0    0    0  0.00000000000E+00  0.00000000000E+00  0.39999999674E+01  0.40000000000E+01  0.51100000000E-03 0. -1.
    9000002   -1    0    0    0    0 -0.00000000000E+00 -0.00000000000E+00  0.00000000000E+00  0.93800000000E+00  0.93800000000E+00 0.  1.
         11    1    1    2    0    0  0.10334080045E+00  0.27047113369E-01  0.35770126300E+00  0.37331129377E+00  0.51100000000E-03 0. -1.
    9000002    1    1    2    0    0 -0.93974784303E+00 -0.24324066262E+00  0.74598468490E+00  0.15422805123E+01  0.93800000000E+00 0.  1.
         22    1    1    2    0    0  0.83640704258E+00  0.21619354926E+00  0.28963140195E+01  0.30224081940E+01  0.00000000000E+00 0. -1.
</event>
<event>
 5    1  0.1160133E+000  0.1543728E+01  0.7818608E-02  0.3416799E+00
         11   -1    0    0    0    0  0.00000000000E+00  0.00000000000E+00  0.39999999674E+01  0.40000000000E+01  0.51100000000E-03 0.  1.
    9000002   -1    0    0    0    0 -0.00000000000E+00 -0.00000000000E+00  0.00000000000E+00  0.93800000000E+00  0.93800000000E+00 0.  1.
         11    1    1    2    0    0  0.44170321261E-01  0.21633471142E-01  0.87673759774E+00  0.87811622282E+00  0.51100000000E-03 0.  1.
    9000002    1    1    2    0    0  0.54846014417E+00  0.58334431424E+00  0.54908584449E+00  0.13499771788E+01  0.93800000000E+00 0.  1.
         22    1    1    2    0    0 -0.59263046543E+00 -0.60497778538E+00  0.25741765251E+01  0.27099065984E+01  0.00000000000E+00 0.  1.
</event>
<event>
 5    1  0.1160133E+000  0.1599677E+01  0.7818608E-02  0.3353714E+00
         11   -1    0    0    0    0  0.00000000000E+00  0.00000000000E+00  0.39999999674E+01  0.40000000000E+01  0.51100000000E-03 0.  1.
    9000002   -1    0    0    0    0 -0.00000000000E+00 -0.00000000000E+00  0.00000000000E+00  0.93800000000E+00  0.93800000000E+00 0.  1.
         11    1    1    2    0    0 -0.11191036579E+00 -0.13605527320E+00  0.65571733867E+00  0.67897014418E+00  0.51100000000E-03 0. -1.
    9000002    1    1    2    0    0  0.57567354577E+00  0.69977662681E+00  0.63016342241E+00  0.14484603197E+01  0.93800000000E+00 0.  1.
         22    1    1    2    0    0 -0.46376317997E+00 -0.56372135361E+00  0.27141192063E+01  0.28105695361E+01  0.00000000000E+00 0.  1.
</event>
<event>
 5    1  0.1160133E+000  0.1599668E+01  0.7818608E-02  0.3353724E+00
         11   -1    0    0    0    0  0.00000000000E+00  0.00000000000E+00  0.39999999674E+01  0.40000000000E+01  0.51100000000E-03 0. -1.
    9000002   -1    0    0    0    0 -0.00000000000E+00 -0.00000000000E+00  0.00000000000E+00  0.93800000000E+00  0.93800000000E+00 0. -1.
         11    1    1    2    0    0 -0.34879487979E+00 -0.15599844930E+00  0.13306428881E+01  0.13844147287E+01  0.51100000000E-03 0. -1.
    9000002    1    1    2    0    0  0.85980032221E+00  0.39385403720E+00  0.69915133592E+00  0.15043384550E+01  0.93800000000E+00 0. -1.
         22    1    1    2    0    0 -0.51100544242E+00 -0.23785558790E+00  0.19702057433E+01  0.20492468163E+01  0.00000000000E+00 0. -1.
</event>
<event>
 5    1  0.1160133E+000  0.1494028E+01  0.7818608E-02  0.3477075E+00
         11   -1    0    0    0    0  0.00000000000E+00  0.00000000000E+00  0.39999999674E+01  0.40000000000E+01  0.51100000000E-03 0. -1.
    9000002   -1    0    0    0    0 -0.00000000000E+00 -0.00000000000E+00  0.00000000000E+00  0.93800000000E+00  0.93800000000E+00 0. -1.
         11    1    1    2    0    0 -0.35745041402E+00 -0.19078384421E-01  0.93641274294E+00  0.10024988127E+01  0.51100000000E-03 0. -1.
    9000002    1    1    2    0    0 -0.42522855350E+00  0.23847142088E+00  0.36693633907E+00  0.11190059062E+01  0.93800000000E+00 0. -1.
         22    1    1    2    0    0  0.78267896752E+00 -0.21939303645E+00  0.26966508854E+01  0.28164952810E+01  0.00000000000E+00 0. -1.
</event>
<event>
 5    1  0.1160133E+000  0.1599674E+01  0.7818608E-02  0.3353717E+00
         11   -1    0    0    0    0  0.00000000000E+00  0.00000000000E+00  0.39999999674E+01  0.40000000000E+01  0.51100000000E-03 0. -1.
    9000002   -1    0    0    0    0 -0.00000000000E+00 -0.00000000000E+00  0.00000000000E+00  0.93800000000E+00  0.93800000000E+00 0. -1.
         11    1    1    2    0    0 -0.26907729009E-01  0.30844592923E+00  0.10253926398E+01  0.10711177545E+01  0.51100000000E-03 0. -1.
    9000002    1    1    2    0    0  0.89456008135E-01 -0.97666251575E+00  0.76557019972E+00  0.15581443379E+01  0.93800000000E+00 0. -1.
         22    1    1    2    0    0 -0.62548279126E-01  0.66821658653E+00  0.22090371278E+01  0.23087379076E+01  0.00000000000E+00 0. -1.
</event>
<event>
 5    1  0.1160133E+000  0.1586230E+01  0.7818608E-02  0.3368446E+00
         11   -1    0    0    0    0  0.00000000000E+00  0.00000000000E+00  0.39999999674E+01  0.40000000000E+01  0.51100000000E-03 0.  1.
    9000002   -1    0    0    0    0 -0.00000000000E+00 -0.00000000000E+00  0.00000000000E+00  0.93800000000E+00  0.93800000000E+00 0.  1.
         11    1    1    2    0    0 -0.29574167432E+00 -0.20656645477E-01  0.89859564809E+00  0.94623688092E+00  0.51100000000E-03 0.  1.
    9000002    1    1    2    0    0  0.87940073646E+00 -0.33301805253E+00  0.71238077517E+00  0.15071751880E+01  0.93800000000E+00 0.  1.
         22    1    1    2    0    0 -0.58365906214E+00  0.35367469801E+00  0.23890235441E+01  0.24845879310E+01  0.00000000000E+00 0.  1.
</event>
<event>
 5    1  0.1160133E+000  0.1599675E+01  0.7818608E-02  0.3353716E+00
         11   -1    0    0    0    0  0.00000000000E+00  0.00000000000E+00  0.39999999674E+01  0.40000000000E+01  0.51100000000E-03 0. -1.
    9000002   -1    0    0    0    0 -0.00000000000E+00 -0.00000000000E+00  0.00000000000E+00  0.93800000000E+00  0.93800000000E+00 0.  1.
         11    1    1    2    0    0  0.84269901093E-03 -0.37798761681E-01  0.13946172608E+00  0.14449668054E+00  0.51100000000E-03 0.  1.
    9000002    1    1    2    0    0 -0.32395418019E-01  0.90754482237E+00  0.63348388734E+00  0.14511488219E+01  0.93800000000E+00 0.  1.
         22    1    1    2    0    0  0.31552719008E-01 -0.86974606069E+00  0.32270543539E+01  0.33423544976E+01  0.00000000000E+00 0. -1.
</event>
<event>
 5    1  0.1160133E+000  0.1577035E+01  0.7818608E-02  0.3378673E+00
         11   -1    0    0    0    0  0.00000000000E+00  0.00000000000E+00  0.39999999674E+01  0.40000000000E+01  0.51100000000E-03 0. -1.
    9000002   -1    0    0    0    0 -0.00000000000E+00 -0.00000000000E+00  0.00000000000E+00  0.93800000000E+00  0.93800000000E+00 0.  1.
         11    1    1    2    0    0 -0.10146609939E-01  0.48495356708E-01  0.10890217660E+00  0.11964404919E+00  0.51100000000E-03 0. -1.
    9000002    1    1    2    0    0 -0.11336404957E+01 -0.10763399984E+00  0.12283596937E+01  0.19197493035E+01  0.93800000000E+00 0.  1.
         22    1    1    2    0    0  0.11437871056E+01  0.59138643128E-01  0.26627380971E+01  0.28986066473E+01  0.00000000000E+00 0. -1.
</event>
<event>
 5    1  0.1160133E+000  0.1599659E+01  0.7818608E-02  0.3353734E+00
         11   -1    0    0    0    0  0.00000000000E+00  0.00000000000E+00  0.39999999674E+01  0.40000000000E+01  0.51100000000E-03 0.  1.
    9000002   -1    0    0    0    0 -0.00000000000E+00 -0.00000000000E+00  0.00000000000E+00  0.93800000000E+00  0.93800000000E+00 0.  1.
         11    1    1    2    0    0 -0.66891894648E-01 -0.34436484854E+00  0.87224942717E+00  0.94014945556E+00  0.51100000000E-03 0.  1.
    9000002    1    1    2    0    0  0.21198120462E+00  0.11140660850E+01  0.11407663953E+01  0.18620610198E+01  0.93800000000E+00 0.  1.
         22    1    1    2    0    0 -0.14508930997E+00 -0.76970123649E+00  0.19869841449E+01  0.21357895246E+01  0.00000000000E+00 0.  1.
</event>
<event>
 5    1  0.1160133E+000  0.1593857E+01  0.7818608E-02  0.3360057E+00
         11   -1    0    0    0    0  0.00000000000E+00  0.00000000000E+00  0.39999999674E+01  0.40000000000E+01  0.51100000000E-03 0.  1.
    9000002   -1    0    0    0    0 -0.00000000000E+00 -0.00000000000E+00  0.00000000000E+00  0.93800000000E+00  0.93800000000E+00 0. -1.
         11    1    1    2    0    0 -0.25393039360E+00 -0.17595043865E+00  0.12855653157E+01  0.13221640003E+01  0.51100000000E-03 0.  1.
    9000002    1    1    2    0    0  0.85835928629E+00  0.33351208709E+00  0.66458745009E+00  0.14729329433E+01  0.93800000000E+00 0. -1.
         22    1    1    2    0    0 -0.60442889269E+00 -0.15756164844E+00  0.20498472016E+01  0.21429030564E+01  0.00000000000E+00 0. -1.
</event>
<event>
 5    1  0.1160133E+000  0.1599676E+01  0.7818608E-02  0.3353715E+00
         11   -1    0    0    0    0  0.00000000000E+00  0.00000000000E+00  0.39999999674E+01  0.40000000000E+01  0.51100000000E-03 0.  1.
    9000002   -1    0    0    0    0 -0.00000000000E+00 -0.00000000000E+00  0.00000000000E+00  0.93800000000E+00  0.93800000000E+00 0. -1.
         11    1    1    2    0    0  0.13100851632E+00  0.29966305984E+00  0.11463950611E+01  0.11921338340E+01  0.51100000000E-03 0.  1.
    9000002    1    1    2    0    0 -0.37769611166E+00 -0.86221590915E+00  0.69116224098E+00  0.14978717803E+01  0.93800000000E+00 0. -1.
         22    1    1    2    0    0  0.24668759534E+00  0.56255284931E+00  0.21624426652E+01  0.22479943858E+01  0.00000000000E+00 0.  1.
</event>
<event>
 5    1  0.1160133E+000  0.1599061E+01  0.7818608E-02  0.3354383E+00
         11   -1    0    0    0    0  0.00000000000E+00  0.00000000000E+00  0.39999999674E+01  0.40000000000E+01  0.51100000000E-03 0. -1.
    9000002   -1    0    0    0    0 -0.00000000000E+00 -0.00000000000E+00  0.00000000000E+00  0.93800000000E+00  0.93800000000E+00 0.  1.
         11    1    1    2    0    0  0.10380080820E-01 -0.17643192187E-01  0.35271275270E-01  0.40784216170E-01  0.51100000000E-03 0. -1.
    9000002    1    1    2    0    0 -0.82588863358E+00  0.82106945808E+00  0.12429493012E+01  0.19444829789E+01  0.93800000000E+00 0.  1.
         22    1    1    2    0    0  0.81550855276E+00 -0.80342626589E+00  0.27217793909E+01  0.29527328049E+01  0.00000000000E+00 0. -1.
</event>
<event>
 5    1  0.1160133E+000  0.1599673E+01  0.7818608E-02  0.3353718E+00
         11   -1    0    0    0    0  0.00000000000E+00  0.00000000000E+00  0.39999999674E+01  0.40000000000E+01  0.51100000000E-03 0.  1.
    9000002   -1    0    0    0    0 -0.00000000000E+00 -0.00000000000E+00  0.00000000000E+00  0.93800000000E+00  0.93800000000E+00 0. -1.
         11    1    1    2    0    0  0.18710057296E+00  0.17914622702E+00  0.85044822874E+00  0.88902331012E+00  0.51100000000E-03 0.  1.
    9000002    1    1    2    0    0 -0.71092037191E+00 -0.68610910533E+00  0.78002418243E+00  0.15698519691E+01  0.93800000000E+00 0. -1.
         22    1    1    2    0    0  0.52381979895E+00  0.50696287831E+00  0.23695275562E+01  0.24791247208E+01  0.00000000000E+00 0.  1.
</event>
<event>
 5    1  0.1160133E+000  0.1598601E+01  0.7818608E-02  0.3354883E+00
         11   -1    0    0    0    0  0.00000000000E+00  0.00000000000E+00  0.39999999674E+01  0.40000000000E+01  0.51100000000E-03 0.  1.
    9000002   -1    0    0    0    0 -0.00000000000E+00 -0.00000000000E+00  0.00000000000E+00  0.93800000000E+00  0.93800000000E+00 0.  1.
         11    1    1    2    0    0 -0.18984920644E+00 -0.57701035761E-01  0.85789962453E+00  0.88054764641E+00  0.51100000000E-03 0.  1.
    9000002    1    1    2    0    0  0.88268911115E+00  0.22106908966E+00  0.63824728935E+00  0.14543779467E+01  0.93800000000E+00 0.  1.
         22    1    1    2    0    0 -0.69283990472E+00 -0.16336805390E+00  0.25038530535E+01  0.26030744069E+01  0.00000000000E+00 0.  1.
</event>
<event>
 5    1  0.1160133E+000  0.1599425E+01  0.7818608E-02  0.3353987E+00
         11   -1    0    0    0    0  0.00000000000E+00  0.00000000000E+00  0.39999999674E+01  0.40000000000E+01  0.51100000000E-03 0.  1.
    9000002   -1    0    0    0    0 -0.00000000000E+00 -0.00000000000E+00  0.00000000000E+00  0.93800000000E+00  0.93800000000E+00 0. -1.
         11    1    1    2    0    0  0.18188502619E+00 -0.27569641849E+00  0.91807659886E+00  0.97568211033E+00  0.51100000000E-03 0.  1.
    9000002    1    1    2    0    0 -0.56007104496E+00  0.88991621854E+00  0.91895309923E+00  0.16822453002E+01  0.93800000000E+00 0. -1.
         22    1    1    2    0    0  0.37818601877E+00 -0.61421980006E+00  0.21629702693E+01  0.22800725895E+01  0.00000000000E+00 0.  1.
</event>
<event>
 5    1  0.1160133E+000  0.1580846E+01  0.7818608E-02  0.3374418E+00
         11   -1    0    0    0    0  0.00000000000E+00  0.00000000000E+00  0.39999999674E+01  0.40000000000E+01  0.51100000000E-03 0.  1.
    9000002   -1    0    0    0    0 -0.00000000000E+00 -0.00000000000E+00  0.00000000000E+00  0.93800000000E+00  0.93800000000E+00 0.  1.
         11    1    1    2    0    0  0.11386487316E+00  0.19165774845E+00  0.33433850676E+00  0.40184623938E+00  0.51100000000E-03 0.  1.
    9000002    1    1    2    0    0 -0.30439717972E+00 -0.10115915749E+01  0.97404761624E+00  0.17159801619E+01  0.93800000000E+00 0.  1.
         22    1    1    2    0    0  0.19053230656E+00  0.81993382645E+00  0.26916138444E+01  0.28201735987E+01  0.00000000000E+00 0.  1.
</event>
<event>
 5    1  0.1160133E+000  0.1599675E+01  0.7818608E-02  0.3353716E+00
         11   -1    0    0    0    0  0.00000000000E+00  0.00000000000E+00  0.39999999674E+01  0.40000000000E+01  0.51100000000E-03 0.  1.
    9000002   -1    0    0    0    0 -0.00000000000E+00 -0.00000000000E+00  0.00000000000E+00  0.93800000000E+00  0.93800000000E+00 0. -1.
         11    1    1    2    0    0  0.24046519843E-01  0.55171071588E-01  0.16527273928E+00  0.17589036849E+00  0.51100000000E-03 0.  1.
    9000002    1    1    2    0    0 -0.43803537713E+00 -0.10017186724E+01  0.10236728612E+01  0.17672196856E+01  0.93800000000E+00 0. -1.
         22    1    1    2    0    0  0.41398885729E+00  0.94654760085E+00  0.28110543669E+01  0.29948899459E+01  0.00000000000E+00 0.  1.
</event>
<event>
 5    1  0.1160133E+000  0.1599656E+01  0.7818608E-02  0.3353736E+00
         11   -1    0    0    0    0  0.00000000000E+00  0.00000000000E+00  0.39999999674E+01  0.40000000000E+01  0.51100000000E-03 0.  1.
    9000002   -1    0    0    0    0 -0.00000000000E+00 -0.00000000000E+00  0.00000000000E+00  0.93800000000E+00  0.93800000000E+00 0. -1.
         11    1    1    2    0    0 -0.35838375929E+00 -0.11296187340E+00  0.11671940352E+01  0.12261898225E+01  0.51100000000E-03 0.  1.
    9000002    1    1    2    0    0  0.96861382592E+00  0.29309048016E+00  0.82969724847E+00  0.16100795935E+01  0.93800000000E+00 0. -1.
         22    1    1    2    0    0 -0.61023006663E+00 -0.18012860676E+00  0.20031086837E+01  0.21017305840E+01  0.00000000000E+00 0.  1.
</event>
<event>
 5    1  0.1160133E+000  0.1599515E+01  0.7818608E-02  0.3353889E+00
         11   -1    0    0    0    0  0.00000000000E+00  0.00000000000E+00  0.39999999674E+01  0.40000000000E+01  0.51100000000E-03 0.  1.
    9000002   -1    0    0    0    0 -0.00000000000E+00 -0.00000000000E+00  0.00000000000E+00  0.93800000000E+00  0.93800000000E+00 0.  1.
         11    1    1    2    0    0 -0.22786623436E+00  0.24909302278E+00  0.90916919547E+00  0.96982433558E+00  0.51100000000E-03 0.  1.
    9000002    1    1    2    0    0  0.76975905170E+00 -0.81476386987E+00  0.11014943544E+01  0.18301647396E+01  0.93800000000E+00 0.  1.
         22    1    1    2    0    0 -0.54189281734E+00  0.56567084709E+00  0.19893364175E+01  0.21380109248E+01  0.00000000000E+00 0.  1.
</event>
<event>
 5    1  0.1160133E+000  0.1599676E+01  0.7818608E-02  0.3353716E+00
         11   -1    0    0    0    0  0.00000000000E+00  0.00000000000E+00  0.39999999674E+01  0.40000000000E+01  0.51100000000E-03 0. -1.
    9000002   -1    0    0    0    0 -0.00000000000E+00 -0.00000000000E+00  0.00000000000E+00  0.93800000000E+00  0.93800000000E+00 0.  1.
         11    1    1    2    0    0 -0.97392926218E-01 -0.36068781482E+00  0.95358518626E+00  0.10241611447E+01  0.51100000000E-03 0. -1.
    9000002    1    1    2    0    0  0.28997158068E+00  0.10893158343E+01  0.11199903029E+01  0.18452411179E+01  0.93800000000E+00 0.  1.
         22    1    1    2    0    0 -0.19257865446E+00 -0.72862801949E+00  0.19264244782E+01  0.20685977374E+01  0.00000000000E+00 0.  1.
</event>
<event>
 5    1  0.1160133E+000  0.1599501E+01  0.7818608E-02  0.3353905E+00
         11   -1    0    0    0    0  0.00000000000E+00  0.00000000000E+00  0.39999999674E+01  0.40000000000E+01  0.51100000000E-03 0. -1.
    9000002   -1    0    0    0    0 -0.00000000000E+00 -0.00000000000E+00  0.00000000000E+00  0.93800000000E+00  0.93800000000E+00 0. -1.
         11    1    1    2    0    0 -0.93258704803E-01 -0.25124123535E+00  0.10712392004E+01  0.11042522493E+01  0.51100000000E-03 0. -1.
    9000002    1    1    2    0    0  0.29553266316E+00  0.84345831004E+00  0.61001223394E+00  0.14320336593E+01  0.93800000000E+00 0. -1.
         22    1    1    2    0    0 -0.20227395836E+00 -0.59221707470E+00  0.23187485330E+01  0.24017140914E+01  0.00000000000E+00 0. -1.
</event>
<event>
 5    1  0.1160133E+000  0.1599614E+01  0.7818608E-02  0.3353783E+00
         11   -1    0    0    0    0  0.00000000000E+00  0.00000000000E+00  0.39999999674E+01  0.40000000000E+01  0.51100000000E-03 0. -1.
    9000002   -1    0    0    0    0 -0.00000000000E+00 -0.00000000000E+00  0.00000000000E+00  0.93800000000E+00  0.93800000000E+00 0.  1.
         11    1    1    2    0    0 -0.17910566755E+00 -0.16003918665E+00  0.94030687846E+00  0.97049918507E+00  0.51100000000E-03 0. -1.
    9000002    1    1    2    0    0  0.67140391342E+00  0.59393657300E+00  0.61419214498E+00  0.14354859312E+01  0.93800000000E+00 0.  1.
         22    1    1    2    0    0 -0.49229824587E+00 -0.43389738635E+00  0.24455009439E+01  0.25320148837E+01  0.00000000000E+00 0. -1.
</event>
<event>
 5    1  0.1160133E+000  0.1598991E+01  0.7818608E-02  0.3354460E+00
         11   -1    0    0    0    0  0.00000000000E+00  0.00000000000E+00  0.39999999674E+01  0.40000000000E+01  0.51100000000E-03 0. -1.
    9000002   -1    0    0    0    0 -0.00000000000E+00 -0.00000000000E+00  0.00000000000E+00  0.93800000000E+00  0.93800000000E+00 0. -1.
         11    1    1    2    0    0 -0.75260498941E-01 -0.39029814245E-01  0.31782012993E+00  0.32893367904E+00  0.51100000000E-03 0. -1.
    9000002    1    1    2    0    0  0.93389268446E+00  0.42667621977E+00  0.86315760972E+00  0.16367935734E+01  0.93800000000E+00 0. -1.
         22    1    1    2    0    0 -0.85863218552E+00 -0.38764640552E+00  0.28190222277E+01  0.29722727476E+01  0.00000000000E+00 0. -1.
</event>
<event>
 5    1  0.1160133E+000  0.1599661E+01  0.7818608E-02  0.3353731E+00
         11   -1    0    0    0    0  0.00000000000E+00  0.00000000000E+00  0.39999999674E+01  0.40000000000E+01  0.51100000000E-03 0.  1.
    9000002   -1    0    0    0    0 -0.00000000000E+00 -0.00000000000E+00  0.00000000000E+00  0.93800000000E+00  0.93800000000E+00 0. -1.
         11    1    1    2    0    0  0.33181330566E+00  0.71335227159E-01  0.10964600231E+01  0.11477864034E+01  0.51100000000E-03 0.  1.
    9000002    1    1    2    0    0 -0.96920868195E+00 -0.22188768281E+00  0.79276146655E+00  0.15801627624E+01  0.93800000000E+00 0. -1.
         22    1    1    2    0    0  0.63739537629E+00  0.15055245565E+00  0.21107784777E+01  0.22100508342E+01  0.00000000000E+00 0.  1.
</event>
<event>
 5    1  0.1160133E+000  0.1598588E+01  0.7818608E-02  0.3354897E+00
         11   -1    0    0    0    0  0.00000000000E+00  0.00000000000E+00  0.39999999674E+01  0.40000000000E+01  0.51100000000E-03 0.  1.
    9000002   -1    0    0    0    0 -0.00000000000E+00 -0.00000000000E+00  0.00000000000E+00  0.93800000000E+00  0.93800000000E+00 0.  1.
         11    1    1    2    0    0  0.18734486396E+00  0.40481517987E+00  0.13446550798E+01  0.14167113230E+01  0.51100000000E-03 0.  1.
    9000002    1    1    2    0    0 -0.44085374686E+00 -0.87587302812E+00  0.76720126386E+00  0.15588288446E+01  0.93800000000E+00 0.  1.
         22    1    1    2    0    0  0.25350888289E+00  0.47105784825E+00  0.18881436237E+01  0.19624598324E+01  0.00000000000E+00 0.  1.
</event>
<event>
 5    1  0.1160133E+000  0.1595993E+01  0.7818608E-02  0.3357724E+00
         11   -1    0    0    0    0  0.00000000000E+00  0.00000000000E+00  0.39999999674E+01  0.40000000000E+01  0.51100000000E-03 0. -1.
    9000002   -1    0    0    0    0 -0.00000000000E+00 -0.00000000000E+00  0.00000000000E+00  0.93800000000E+00  0.93800000000E+00 0. -1.
         11    1    1    2    0    0 -0.41831377441E-01  0.34588918537E+00  0.95470420991E+00  0.10162920753E+01  0.51100000000E-03 0. -1.
    9000002    1    1    2    0    0 -0.19501362472E-02 -0.98399493312E+00  0.77886765182E+00  0.15667573681E+01  0.93800000000E+00 0. -1.
         22    1    1    2    0    0  0.43781513688E-01  0.63810574775E+00  0.22664281056E+01  0.23549505566E+01  0.00000000000E+00 0. -1.
</event>
<event>
 5    1  0.1160133E+000  0.1562549E+01  0.7818608E-02  0.3395042E+00
         11   -1    0    0    0    0  0.00000000000E+00  0.00000000000E+00  0.39999999674E+01  0.40000000000E+01  0.51100000000E-03 0. -1.
    9000002   -1    0    0    0    0 -0.00000000000E+00 -0.00000000000E+00  0.00000000000E+00  0.93800000000E+00  0.93800000000E+00 0. -1.
         11    1    1    2    0    0  0.11601915744E+00 -0.82086345035E-01 -0.12590375332E+00  0.18987003227E+00  0.51100000000E-03 0. -1.
    9000002    1    1    2    0    0 -0.89316081855E+00 -0.27168021091E+00  0.15699623109E+01  0.20533319367E+01  0.93800000000E+00 0. -1.
         22    1    1    2    0    0  0.77714166111E+00  0.35376655594E+00  0.25559414098E+01  0.26947980310E+01  0.00000000000E+00 0. -1.
</event>
<event>
 5    1  0.1160133E+000  0.1584004E+01  0.7818608E-02  0.3370910E+00
         11   -1    0    0    0    0  0.00000000000E+00  0.00000000000E+00  0.39999999674E+01  0.40000000000E+01  0.51100000000E-03 0. -1.
    9000002   -1    0    0    0    0 -0.00000000000E+00 -0.00000000000E+00  0.00000000000E+00  0.93800000000E+00  0.93800000000E+00 0. -1.
         11    1    1    2    0    0  0.85880987784E-02  0.29896471386E-01  0.94990615182E-02  0.32527645668E-01  0.51100000000E-03 0. -1.
    9000002    1    1    2    0    0 -0.36522359605E+00 -0.96148285958E+00  0.89911480720E+00  0.16571327650E+01  0.93800000000E+00 0. -1.
         22    1    1    2    0    0  0.35663549727E+00  0.93158638820E+00  0.30913860986E+01  0.32483395893E+01  0.00000000000E+00 0. -1.
</event>
<event>
 5    1  0.1160133E+000  0.1591716E+01  0.7818608E-02  0.3362404E+00
         11   -1    0    0    0    0  0.00000000000E+00  0.00000000000E+00  0.39999999674E+01  0.40000000000E+01  0.51100000000E-03 0.  1.
    9000002   -1    0    0    0    0 -0.00000000000E+00 -0.00000000000E+00  0.00000000000E+00  0.93800000000E+00  0.93800000000E+00 0.  1.
         11    1    1    2    0    0 -0.89651441590E-01  0.10196384827E+00  0.67922093658E+00  0.69265817626E+00  0.51100000000E-03 0.  1.
    9000002    1    1    2    0    0  0.24412779017E+00 -0.88340926865E+00  0.66051405474E+00  0.14683777206E+01  0.93800000000E+00 0.  1.
         22    1    1    2    0    0 -0.15447634858E+00  0.78144542038E+00  0.26602649760E+01  0.27769641031E+01  0.00000000000E+00 0.  1.
</event>
<event>
 5    1  0.1160133E+000  0.1599642E+01  0.7818608E-02  0.3353752E+00
         11   -1    0    0    0    0  0.00000000000E+00  0.00000000000E+00  0.39999999674E+01  0.40000000000E+01  0.51100000000E-03 0.  1.
    9000002   -1    0    0    0    0 -0.00000000000E+00 -0.00000000000E+00  0.00000000000E+00  0.93800000000E+00  0.93800000000E+00 0.  1.
         11    1    1    2    0    0  0.12278866718E+00 -0.76083421134E-01  0.46728693975E+00  0.48910437428E+00  0.51100000000E-03 0.  1.
    9000002    1    1    2    0    0 -0.86180334048E+00  0.53457784929E+00  0.83433066410E+00  0.16138246905E+01  0.93800000000E+00 0.  1.
         22    1    1    2    0    0  0.73901467330E+00 -0.45849442816E+00  0.26983823635E+01  0.28350709352E+01  0.00000000000E+00 0.  1.
</event>
<event>
 5    1  0.1160133E+000  0.1598194E+01  0.7818608E-02  0.3355326E+00
         11   -1    0    0    0    0  0.00000000000E+00  0.00000000000E+00  0.39999999674E+01  0.40000000000E+01  0.51100000000E-03 0. -1.
    9000002   -1    0    0    0    0 -0.00000000000E+00 -0.00000000000E+00  0.00000000000E+00  0.93800000000E+00  0.93800000000E+00 0. -1.
         11    1    1    2    0    0 -0.41853194741E+00  0.16323986516E+00  0.13989092736E+01  0.14692731745E+01  0.51100000000E-03 0. -1.
    9000002    1    1    2    0    0  0.87084415322E+00 -0.40151766461E+00  0.72619815871E+00  0.15253831453E+01  0.93800000000E+00 0. -1.
         22    1    1    2    0    0 -0.45231220582E+00  0.23827779945E+00  0.18748925351E+01  0.19433436802E+01  0.00000000000E+00 0. -1.
</event>
<event>
 5    1  0.1160133E+000  0.1599662E+01  0.7818608E-02  0.3353731E+00
         11   -1    0    0    0    0  0.00000000000E+00  0.00000000000E+00  0.39999999674E+01  0.40000000000E+01  0.51100000000E-03 0.  1.
    9000002   -1    0    0    0    0 -0.00000000000E+00 -0.00000000000E+00  0.00000000000E+00  0.93800000000E+00  0.93800000000E+00 0. -1.
         11    1    1    2    0    0  0.38094735401E-01 -0.21982197537E+00  0.74378784953E+00  0.77652658419E+00  0.51100000000E-03 0.  1.
    9000002    1    1    2    0    0 -0.17588898022E+00  0.94930445487E+00  0.73593675726E+00  0.15341325862E+01  0.93800000000E+00 0. -1.
         22    1    1    2    0    0  0.13779424482E+00 -0.72948247950E+00  0.25202753606E+01  0.26273408296E+01  0.00000000000E+00 0.  1.
</event>
<event>
 5    1  0.1160133E+000  0.1548979E+01  0.7818608E-02  0.3410672E+00
         11   -1    0    0    0    0  0.00000000000E+00  0.00000000000E+00  0.39999999674E+01  0.40000000000E+01  0.51100000000E-03 0.  1.
    9000002   -1    0    0    0    0 -0.00000000000E+00 -0.00000000000E+00  0.00000000000E+00  0.93800000000E+00  0.93800000000E+00 0.  1.
         11    1    1    2    0    0 -0.94030439256E-01 -0.12473030121E+00  0.46501548652E+00  0.49054972773E+00  0.51100000000E-03 0.  1.
    9000002    1    1    2    0    0  0.96090281171E+00 -0.41007009346E+00  0.10241420493E+01  0.17378730196E+01  0.93800000000E+00 0.  1.
         22    1    1    2    0    0 -0.86687237245E+00  0.53480039467E+00  0.25108424315E+01  0.27095772527E+01  0.00000000000E+00 0.  1.
</event>
<event>
 5    1  0.1160133E+000  0.1599675E+01  0.7818608E-02  0.3353716E+00
         11   -1    0    0    0    0  0.00000000000E+00  0.00000000000E+00  0.39999999674E+01  0.40000000000E+01  0.51100000000E-03 0.  1.
    9000002   -1    0    0    0    0 -0.00000000000E+00 -0.00000000000E+00  0.00000000000E+00  0.93800000000E+00  0.93800000000E+00 0.  1.
         11    1    1    2    0    0  0.18237061714E-01  0.16565060218E+00  0.54480953672E+00  0.56972836058E+00  0.51100000000E-03 0.  1.
    9000002    1    1    2    0    0 -0.11445593673E+00 -0.97971462295E+00  0.77675632426E+00  0.15672062057E+01  0.93800000000E+00 0.  1.
         22    1    1    2    0    0  0.96218875014E-01  0.81406402077E+00  0.26784341064E+01  0.28010654337E+01  0.00000000000E+00 0.  1.
</event>
<event>
 5    1  0.1160133E+000  0.1563845E+01  0.7818608E-02  0.3393564E+00
         11   -1    0    0    0    0  0.00000000000E+00  0.00000000000E+00  0.39999999674E+01  0.40000000000E+01  0.51100000000E-03 0. -1.
    9000002   -1    0    0    0    0 -0.00000000000E+00 -0.00000000000E+00  0.00000000000E+00  0.93800000000E+00  0.93800000000E+00 0. -1.
         11    1    1    2    0    0  0.45787287745E-01 -0.46302379910E-01  0.79531540993E+00  0.79797697241E+00  0.51100000000E-03 0. -1.
    9000002    1    1    2    0    0  0.37317300631E+00  0.79892698008E+00  0.64628957386E+00  0.14405126259E+01  0.93800000000E+00 0. -1.
         22    1    1    2    0    0 -0.41896029406E+00 -0.75262460017E+00  0.25583949836E+01  0.26995104017E+01  0.00000000000E+00 0. -1.
</event>
<event>
 5    1  0.1160133E+000  0.1599136E+01  0.7818608E-02  0.3354302E+00
         11   -1    0    0    0    0  0.00000000000E+00  0.00000000000E+00  0.39999999674E+01  0.40000000000E+01  0.51100000000E-03 0.  1.
    9000002   -1    0    0    0    0 -0.00000000000E+00 -0.00000000000E+00  0.00000000000E+00  0.93800000000E+00  0.93800000000E+00 0.  1.
         11    1    1    2    0    0 -0.61432929735E-01  0.20810269884E+00  0.71981461789E+00  0.75180721157E+00  0.51100000000E-03 0.  1.
    9000002    1    1    2    0    0  0.35356639955E+00 -0.96652430325E+00  0.86823606167E+00  0.16409924700E+01  0.93800000000E+00 0.  1.
         22    1    1    2    0    0 -0.29213346982E+00  0.75842160441E+00  0.24119492878E+01  0.25452003185E+01  0.00000000000E+00 0.  1.
</event>
<event>
 5    1  0.1160133E+000  0.1599510E+01  0.7818608E-02  0.3353895E+00
         11   -1    0    0    0    0  0.00000000000E+00  0.00000000000E+00  0.39999999674E+01  0.40000000000E+01  0.51100000000E-03 0.  1.
    9000002   -1    0    0    0    0 -0.00000000000E+00 -0.00000000000E+00  0.00000000000E+00  0.93800000000E+00  0.93800000000E+00 0. -1.
         11    1    1    2    0    0 -0.26280101699E+00  0.14731457406E+00  0.10157419818E+01  0.10594800578E+01  0.51100000000E-03 0.  1.
    9000002    1    1    2    0    0  0.80798816769E+00 -0.48889343396E+00  0.69699864446E+00  0.15025021728E+01  0.93800000000E+00 0. -1.
         22    1    1    2    0    0 -0.54518715070E+00  0.34157885990E+00  0.22872593411E+01  0.23760177694E+01  0.00000000000E+00 0.  1.
</event>
<event>
 5    1  0.1160133E+000  0.1530607E+01  0.7818608E-02  0.3432304E+00
         11   -1    0    0    0    0  0.00000000000E+00  0.00000000000E+00  0.39999999674E+01  0.40000000000E+01  0.51100000000E-03 0.  1.
    9000002   -1    0    0    0    0 -0.00000000000E+00 -0.00000000000E+00  0.00000000000E+00  0.93800000000E+00  0.93800000000E+00 0. -1.
         11    1    1    2    0    0 -0.16171031937E+00  0.20881598930E-01  0.52103875021E+00  0.54595595876E+00  0.51100000000E-03 0.  1.
    9000002    1    1    2    0    0  0.12949011628E+00  0.10063383727E+01  0.99170789847E+00  0.17008272007E+01  0.93800000000E+00 0. -1.
         22    1    1    2    0    0  0.32220203084E-01 -0.10272199717E+01  0.24872533187E+01  0.26912168406E+01  0.00000000000E+00 0.  1.
</event>
<event>
 5    1  0.1160133E+000  0.1561350E+01  0.7818608E-02  0.3396412E+00
         11   -1    0    0    0    0  0.00000000000E+00  0.00000000000E+00  0.39999999674E+01  0.40000000000E+01  0.51100000000E-03 0.  1.
    9000002   -1    0    0    0    0 -0.00000000000E+00 -0.00000000000E+00  0.00000000000E+00  0.93800000000E+00  0.93800000000E+00 0. -1.
         11    1    1    2    0    0 -0.15330947337E+00 -0.96750382884E-01  0.99187806987E+00  0.10083088802E+01  0.51100000000E-03 0.  1.
    9000002    1    1    2    0    0  0.83947531025E+00 -0.32674928904E+00  0.68347657811E+00  0.14691725995E+01  0.93800000000E+00 0. -1.
         22    1    1    2    0    0 -0.68616583688E+00  0.42349967192E+00  0.23246453194E+01  0.24605185203E+01  0.00000000000E+00 0.  1.
</event>
<event>
 5    1  0.1160133E+000  0.1599677E+01  0.7818608E-02  0.3353715E+00
         11   -1    0    0    0    0  0.00000000000E+00  0.00000000000E+00  0.39999999674E+01  0.40000000000E+01  0.51100000000E-03 0.  1.
    9000002   -1    0    0    0    0 -0.00000000000E+00 -0.00000000000E+00  0.00000000000E+00  0.93800000000E+00  0.93800000000E+00 0.  1.
         11    1    1    2    0    0 -0.19837832032E+00  0.12103561348E+00  0.73877091787E+00  0.77445871931E+00  0.51100000000E-03 0.  1.
    9000002    1    1    2    0    0  0.85523330542E+00 -0.52507262462E+00  0.81187162731E+00  0.15956518439E+01  0.93800000000E+00 0.  1.
         22    1    1    2    0    0 -0.65685498510E+00  0.40403701114E+00  0.24493574222E+01  0.25678894368E+01  0.00000000000E+00 0.  1.
</event>
<event>
 5    1  0.1160133E+000  0.1564264E+01  0.7818608E-02  0.3393088E+00
         11   -1    0    0    0    0  0.00000000000E+00  0.00000000000E+00  0.39999999674E+01  0.40000000000E+01  0.51100000000E-03 0. -1.
    9000002   -1    0    0    0    0 -0.00000000000E+00 -0.00000000000E+00  0.00000000000E+00  0.93800000000E+00  0.93800000000E+00 0. -1.
         11    1    1    2    0    0  0.54380422133E-01  0.16197860538E+00  0.80150300043E+00  0.81951303817E+00  0.51100000000E-03 0. -1.
    9000002    1    1    2    0    0  0.57710704880E+00 -0.54013419992E+00  0.50550554707E+00  0.13267167587E+01  0.93800000000E+00 0. -1.
         22    1    1    2    0    0 -0.63148747093E+00  0.37815559454E+00  0.26929914199E+01  0.27917702031E+01  0.00000000000E+00 0. -1.
</event>
<event>
 5    1  0.1160133E+000  0.1586784E+01  0.7818608E-02  0.3367834E+00
         11   -1    0    0    0    0  0.00000000000E+00  0.00000000000E+00  0.39999999674E+01  0.40000000000E+01  0.51100000000E-03 0. -1.
    9000002   -1    0    0    0    0 -0.00000000000E+00 -0.00000000000E+00  0.00000000000E+00  0.93800000000E+00  0.93800000000E+00 0.  1.
         11    1    1    2    0    0  0.14987832409E-01  0.63063727670E-01  0.59356254685E+00  0.59709164038E+00  0.51100000000E-03 0. -1.
    9000002    1    1    2    0    0 -0.67647906235E+00 -0.50728365983E+00  0.55357042910E+00  0.13788563570E+01  0.93800000000E+00 0.  1.
         22    1    1    2    0    0  0.66149122994E+00  0.44421993216E+00  0.28528669914E+01  0.29620520026E+01  0.00000000000E+00 0. -1.
</event>
<event>
 5    1  0.1160133E+000  0.1599492E+01  0.7818608E-02  0.3353915E+00
         11   -1    0    0    0    0  0.00000000000E+00  0.00000000000E+00  0.39999999674E+01  0.40000000000E+01  0.51100000000E-03 0. -1.
    9000002   -1    0    0    0    0 -0.00000000000E+00 -0.00000000000E+00  0.00000000000E+00  0.93800000000E+00  0.93800000000E+00 0. -1.
         11    1    1    2    0    0  0.38267020779E+00  0.36414844716E+00  0.84664103326E+00  0.99791877416E+00  0.51100000000E-03 0. -1.
    9000002    1    1    2    0    0 -0.94351946650E+00 -0.86711047003E+00  0.18841671182E+01  0.24641508233E+01  0.93800000000E+00 0. -1.
         22    1    1    2    0    0  0.56084925870E+00  0.50296202288E+00  0.12691918159E+01  0.14759304025E+01  0.00000000000E+00 0.  1.
</event>
<event>
 5    1  0.1160133E+000  0.1599677E+01  0.7818608E-02  0.3353714E+00
         11   -1    0    0    0    0  0.00000000000E+00  0.00000000000E+00  0.39999999674E+01  0.40000000000E+01  0.51100000000E-03 0.  1.
    9000002   -1    0    0    0    0 -0.00000000000E+00 -0.00000000000E+00  0.00000000000E+00  0.93800000000E+00  0.93800000000E+00 0.  1.
         11    1    1    2    0    0  0.15482668953E+00  0.11199255038E+00  0.70360872687E+00  0.72909473787E+00  0.51100000000E-03 0. -1.
    9000002    1    1    2    0    0 -0.73918395552E+00 -0.53518586808E+00  0.64099809382E+00  0.14572369024E+01  0.93800000000E+00 0.  1.
         22    1    1    2    0    0  0.58435726599E+00  0.42319331770E+00  0.26553931467E+01  0.27516683597E+01  0.00000000000E+00 0.  1.
</event>
<event>
 5    1  0.1160133E+000  0.1602658E+01  0.7818608E-02  0.3350484E+00
         11   -1    0    0    0    0  0.00000000000E+00  0.00000000000E+00  0.39999999674E+01  0.40000000000E+01  0.51100000000E-03 0.  1.
    9000002   -1    0    0    0    0 -0.00000000000E+00 -0.00000000000E+00  0.00000000000E+00  0.93800000000E+00  0.93800000000E+00 0.  1.
         11    1    1    2    0    0  0.37609540905E-01  0.38006052347E+00  0.34842143429E+00  0.51697024678E+00  0.51100000000E-03 0.  1.
    9000002    1    1    2    0    0 -0.49701885313E+00  0.54010218139E+00  0.92848098493E+00  0.15101851033E+01  0.93800000000E+00 0.  1.
         22    1    1    2    0    0  0.45940931222E+00 -0.92016270485E+00  0.27230975481E+01  0.29108446500E+01  0.00000000000E+00 0.  1.
</event>
<event>
 5    1  0.1160133E+000  0.1599671E+01  0.7818608E-02  0.3353720E+00
         11   -1    0    0    0    0  0.00000000000E+00  0.00000000000E+00  0.39999999674E+01  0.40000000000E+01  0.51100000000E-03 0. -1.
    9000002   -1    0    0    0    0 -0.00000000000E+00 -0.00000000000E+00  0.00000000000E+00  0.93800000000E+00  0.93800000000E+00 0. -1.
         11    1    1    2    0    0 -0.32874793975E-01 -0.12760659349E+00  0.49077088060E+00  0.50815402503E+00  0.51100000000E-03 0. -1.
    9000002    1    1    2    0    0  0.23902719577E+00  0.87289824858E+00  0.62833025395E+00  0.14469721009E+01  0.93800000000E+00 0. -1.
         22    1    1    2    0    0 -0.20615240179E+00 -0.74529165508E+00  0.28808988328E+01  0.29828738741E+01  0.00000000000E+00 0. -1.
</event>
<event>
 5    1  0.1160133E+000  0.1599673E+01  0.7818608E-02  0.3353718E+00
         11   -1    0    0    0    0  0.00000000000E+00  0.00000000000E+00  0.39999999674E+01  0.40000000000E+01  0.51100000000E-03 0.  1.
    9000002   -1    0    0    0    0 -0.00000000000E+00 -0.00000000000E+00  0.00000000000E+00  0.93800000000E+00  0.93800000000E+00 0.  1.
         11    1    1    2    0    0 -0.39181209518E+00 -0.77982187070E-01  0.12549164334E+01  0.13169713191E+01  0.51100000000E-03 0.  1.
    9000002    1    1    2    0    0  0.99017061421E+00  0.19190578961E+00  0.82246624925E+00  0.16042320308E+01  0.93800000000E+00 0.  1.
         22    1    1    2    0    0 -0.59835851904E+00 -0.11392360254E+00  0.19226172848E+01  0.20167966502E+01  0.00000000000E+00 0.  1.
</event>
<event>
 5    1  0.1160133E+000  0.1553465E+01  0.7818608E-02  0.3405473E+00
         11   -1    0    0    0    0  0.00000000000E+00  0.00000000000E+00  0.39999999674E+01  0.40000000000E+01  0.51100000000E-03 0. -1.
    9000002   -1    0    0    0    0 -0.00000000000E+00 -0.00000000000E+00  0.00000000000E+00  0.93800000000E+00  0.93800000000E+00 0. -1.
         11    1    1    2    0    0  0.76514591284E-01  0.50201459062E-02 -0.52748451248E-01  0.93071718445E-01  0.51100000000E-03 0. -1.
    9000002    1    1    2    0    0 -0.85547170679E+00  0.72374204513E+00  0.30448756518E+01  0.33773874702E+01  0.93800000000E+00 0. -1.
         22    1    1    2    0    0  0.77895711551E+00 -0.72876219104E+00  0.10078727668E+01  0.14675408113E+01  0.00000000000E+00 0. -1.
</event>
<event>
 5    1  0.1160133E+000  0.1574343E+01  0.7818608E-02  0.3381690E+00
         11   -1    0    0    0    0  0.00000000000E+00  0.00000000000E+00  0.39999999674E+01  0.40000000000E+01  0.51100000000E-03 0.  1.
    9000002   -1    0    0    0    0 -0.00000000000E+00 -0.00000000000E+00  0.00000000000E+00  0.93800000000E+00  0.93800000000E+00 0. -1.
         11    1    1    2    0    0 -0.94194736902E-01  0.28587750874E-01  0.57991035590E+00  0.58820590779E+00  0.51100000000E-03 0.  1.
    9000002    1    1    2    0    0  0.79514170803E+00  0.60956720940E+00  0.85952341898E+00  0.16193971182E+01  0.93800000000E+00 0. -1.
         22    1    1    2    0    0 -0.70094697113E+00 -0.63815496027E+00  0.25605661925E+01  0.27303969740E+01  0.00000000000E+00 0.  1.
</event>
<event>
 5    1  0.1160133E+000  0.1599677E+01  0.7818608E-02  0.3353714E+00
         11   -1    0    0    0    0  0.00000000000E+00  0.00000000000E+00  0.39999999674E+01  0.40000000000E+01  0.51100000000E-03 0.  1.
    9000002   -1    0    0    0    0 -0.00000000000E+00 -0.00000000000E+00  0.00000000000E+00  0.93800000000E+00  0.93800000000E+00 0.  1.
         11    1    1    2    0    0  0.24359275273E+00 -0.88959234784E-02  0.83534419385E+00  0.87018202117E+00  0.51100000000E-03 0.  1.
    9000002    1    1    2    0    0 -0.95731272105E+00  0.32725424777E-01  0.72157861629E+00  0.15225105250E+01  0.93800000000E+00 0.  1.
         22    1    1    2    0    0  0.71371996832E+00 -0.23829501299E-01  0.24430771572E+01  0.25453074538E+01  0.00000000000E+00 0.  1.
</event>
<event>
 5    1  0.1160133E+000  0.1599612E+01  0.7818608E-02  0.3353785E+00
         11   -1    0    0    0    0  0.00000000000E+00  0.00000000000E+00  0.39999999674E+01  0.40000000000E+01  0.51100000000E-03 0. -1.
    9000002   -1    0    0    0    0 -0.00000000000E+00 -0.00000000000E+00  0.00000000000E+00  0.93800000000E+00  0.93800000000E+00 0. -1.
         11    1    1    2    0    0  0.45646324310E+00 -0.22368945210E+00  0.11817205146E+01  0.12864133469E+01  0.51100000000E-03 0. -1.
    9000002    1    1    2    0    0 -0.10514355192E+01  0.53412780448E+00  0.12944120949E+01  0.19864933511E+01  0.93800000000E+00 0. -1.
         22    1    1    2    0    0  0.59497227614E+00 -0.31043835238E+00  0.15238673578E+01  0.16650933020E+01  0.00000000000E+00 0.  1.
</event>
<event>
 5    1  0.1160133E+000  0.1597346E+01  0.7818608E-02  0.3356249E+00
         11   -1    0    0    0    0  0.00000000000E+00  0.00000000000E+00  0.39999999674E+01  0.40000000000E+01  0.51100000000E-03 0. -1.
    9000002   -1    0    0    0    0 -0.00000000000E+00 -0.00000000000E+00  0.00000000000E+00  0.93800000000E+00  0.93800000000E+00 0.  1.
         11    1    1    2    0    0 -0.58308953851E-01 -0.23765372090E+00  0.10747475228E+01  0.11022530218E+01  0.51100000000E-03 0. -1.
    9000002    1    1    2    0    0  0.29754752302E+00  0.86883323274E+00  0.65459050101E+00  0.14668805128E+01  0.93800000000E+00 0.  1.
         22    1    1    2    0    0 -0.23923856917E+00 -0.63117951184E+00  0.22706619435E+01  0.23688664654E+01  0.00000000000E+00 0. -1.
</event>
<event>
 5    1  0.1160133E+000  0.1599137E+01  0.7818608E-02  0.3354301E+00
         11   -1    0    0    0    0  0.00000000000E+00  0.00000000000E+00  0.39999999674E+01  0.40000000000E+01  0.51100000000E-03 0. -1.
    9000002   -1    0    0    0    0 -0.00000000000E+00 -0.00000000000E+00  0.00000000000E+00  0.93800000000E+00  0.93800000000E+00 0. -1.
         11    1    1    2    0    0  0.10772163850E+00 -0.33906070284E-01  0.24926080717E+00  0.27365084344E+00  0.51100000000E-03 0. -1.
    9000002    1    1    2    0    0 -0.10995178430E+01  0.25902746581E+00  0.11287150866E+01  0.18519925653E+01  0.93800000000E+00 0. -1.
         22    1    1    2    0    0  0.99179620452E+00 -0.22512139552E+00  0.26220240736E+01  0.28123565912E+01  0.00000000000E+00 0. -1.
</event>
<event>
 5    1  0.1160133E+000  0.1599665E+01  0.7818608E-02  0.3353727E+00
         11   -1    0    0    0    0  0.00000000000E+00  0.00000000000E+00  0.39999999674E+01  0.40000000000E+01  0.51100000000E-03 0.  1.
    9000002   -1    0    0    0    0 -0.00000000000E+00 -0.00000000000E+00  0.00000000000E+00  0.93800000000E+00  0.93800000000E+00 0. -1.
         11    1    1    2    0    0 -0.13939266049E-01  0.41030167174E-01  0.12800239666E+00  0.13513938149E+00  0.51100000000E-03 0.  1.
    9000002    1    1    2    0    0  0.30083172559E+00 -0.99411169809E+00  0.88850654417E+00  0.16577230391E+01  0.93800000000E+00 0. -1.
         22    1    1    2    0    0 -0.28689245954E+00  0.95308153092E+00  0.29834910265E+01  0.31451375794E+01  0.00000000000E+00 0.  1.
</event>
<event>
 5    1  0.1160133E+000  0.1599671E+01  0.7818608E-02  0.3353721E+00
         11   -1    0    0    0    0  0.00000000000E+00  0.00000000000E+00  0.39999999674E+01  0.40000000000E+01  0.51100000000E-03 0. -1.
    9000002   -1    0    0    0    0 -0.00000000000E+00 -0.00000000000E+00  0.00000000000E+00  0.93800000000E+00  0.93800000000E+00 0.  1.
         11    1    1    2    0    0 -0.18278255643E-01  0.51833990021E-01  0.19436265364E+00  0.20198504747E+00  0.51100000000E-03 0. -1.
    9000002    1    1    2    0    0  0.31964902146E+00 -0.86786629465E+00  0.66205113132E+00  0.14742873203E+01  0.93800000000E+00 0.  1.
         22    1    1    2    0    0 -0.30137076582E+00  0.81603230462E+00  0.31435861824E+01  0.32617276322E+01  0.00000000000E+00 0. -1.
</event>
<event>
 5    1  0.1160133E+000  0.1599672E+01  0.7818608E-02  0.3353719E+00
         11   -1    0    0    0    0  0.00000000000E+00  0.00000000000E+00  0.39999999674E+01  0.40000000000E+01  0.51100000000E-03 0. -1.
    9000002   -1    0    0    0    0 -0.00000000000E+00 -0.00000000000E+00  0.00000000000E+00  0.93800000000E+00  0.93800000000E+00 0.  1.
         11    1    1    2    0    0  0.37043348773E-01  0.79222168539E-01  0.14536909729E+00  0.16964904139E+00  0.51100000000E-03 0. -1.
    9000002    1    1    2    0    0 -0.52595401206E+00 -0.11680096578E+01  0.18764208434E+01  0.24579815633E+01  0.93800000000E+00 0.  1.
         22    1    1    2    0    0  0.48891066328E+00  0.10887874893E+01  0.19782100266E+01  0.23103693954E+01  0.00000000000E+00 0. -1.
</event>
<event>
 5    1  0.1160133E+000  0.1596926E+01  0.7818608E-02  0.3356707E+00
         11   -1    0    0    0    0  0.00000000000E+00  0.00000000000E+00  0.39999999674E+01  0.40000000000E+01  0.51100000000E-03 0. -1.
    9000002   -1    0    0    0    0 -0.00000000000E+00 -0.00000000000E+00  0.00000000000E+00  0.93800000000E+00  0.93800000000E+00 0. -1.
         11    1    1    2    0    0  0.99539547481E-02  0.16213631448E+00  0.47260228502E+00  0.49974037921E+00  0.51100000000E-03 0. -1.
    9000002    1    1    2    0    0 -0.35185232274E+00 -0.98270395517E+00  0.90636766682E+00  0.16705847683E+01  0.93800000000E+00 0. -1.
         22    1    1    2    0    0  0.34189836799E+00  0.82056764069E+00  0.26210300155E+01  0.27676748525E+01  0.00000000000E+00 0. -1.
</event>
<event>
 5    1  0.1160133E+000  0.1598161E+01  0.7818608E-02  0.3355362E+00
         11   -1    0    0    0    0  0.00000000000E+00  0.00000000000E+00  0.39999999674E+01  0.40000000000E+01  0.51100000000E-03 0. -1.
    9000002   -1    0    0    0    0 -0.00000000000E+00 -0.00000000000E+00  0.00000000000E+00  0.93800000000E+00  0.93800000000E+00 0. -1.
         11    1    1    2    0    0  0.11005048821E+00 -0.16578970415E+00  0.71153526628E+00  0.73883694564E+00  0.51100000000E-03 0. -1.
    9000002    1    1    2    0    0 -0.42558529078E+00  0.90736004042E+00  0.81201233970E+00  0.15948771497E+01  0.93800000000E+00 0. -1.
         22    1    1    2    0    0  0.31553480257E+00 -0.74157033627E+00  0.24764523614E+01  0.26042859047E+01  0.00000000000E+00 0. -1.
</event>
<event>
 5    1  0.1160133E+000  0.1599516E+01  0.7818608E-02  0.3353889E+00
         11   -1    0    0    0    0  0.00000000000E+00  0.00000000000E+00  0.39999999674E+01  0.40000000000E+01  0.51100000000E-03 0. -1.
    9000002   -1    0    0    0    0 -0.00000000000E+00 -0.00000000000E+00  0.00000000000E+00  0.93800000000E+00  0.93800000000E+00 0. -1.
         11    1    1    2    0    0 -0.10697593773E+00 -0.30789462513E+00  0.11578160039E+01  0.12028221446E+01  0.51100000000E-03 0. -1.
    9000002    1    1    2    0    0  0.27067317847E+00  0.87480895988E+00  0.64658185502E+00  0.14616657556E+01  0.93800000000E+00 0. -1.
         22    1    1    2    0    0 -0.16369724075E+00 -0.56691433475E+00  0.21956021085E+01  0.22735120999E+01  0.00000000000E+00 0. -1.
</event>
<event>
 5    1  0.1160133E+000  0.1599675E+01  0.7818608E-02  0.3353716E+00
         11   -1    0    0    0    0  0.00000000000E+00  0.00000000000E+00  0.39999999674E+01  0.40000000000E+01  0.51100000000E-03 0. -1.
    9000002   -1    0    0    0    0 -0.00000000000E+00 -0.00000000000E+00  0.00000000000E+00  0.93800000000E+00  0.93800000000E+00 0.  1.
         11    1    1    2    0    0 -0.25971168875E+00  0.27448498354E+00  0.11796774948E+01  0.12387216880E+01  0.51100000000E-03 0. -1.
    9000002    1    1    2    0    0  0.69345450694E+00 -0.73694867804E+00  0.82951040171E+00  0.16099391336E+01  0.93800000000E+00 0.  1.
         22    1    1    2    0    0 -0.43374281818E+00  0.46246369451E+00  0.19908120709E+01  0.20893391784E+01  0.00000000000E+00 0. -1.
</event>
<event>
 5    1  0.1160133E+000  0.1599676E+01  0.7818608E-02  0.3353715E+00
         11   -1    0    0    0    0  0.00000000000E+00  0.00000000000E+00  0.39999999674E+01  0.40000000000E+01  0.51100000000E-03 0. -1.
    9000002   -1    0    0    0    0 -0.00000000000E+00 -0.00000000000E+00  0.00000000000E+00  0.93800000000E+00  0.93800000000E+00 0. -1.
         11    1    1    2    0    0  0.60036441204E-01 -0.13549647563E+00  0.47681327280E+00  0.49931435732E+00  0.51100000000E-03 0.  1.
    9000002    1    1    2    0    0 -0.40569371934E+00  0.90728346801E+00  0.79186202764E+00  0.15794429892E+01  0.93800000000E+00 0. -1.
         22    1    1    2    0    0  0.34565727814E+00 -0.77178699238E+00  0.27313246669E+01  0.28592426535E+01  0.00000000000E+00 0. -1.
</event>
<event>
 5    1  0.1160133E+000  0.1599676E+01  0.7818608E-02  0.3353715E+00
         11   -1    0    0    0    0  0.00000000000E+00  0.00000000000E+00  0.39999999674E+01  0.40000000000E+01  0.51100000000E-03 0.  1.
    9000002   -1    0    0    0    0 -0.00000000000E+00 -0.00000000000E+00  0.00000000000E+00  0.93800000000E+00  0.93800000000E+00 0.  1.
         11    1    1    2    0    0  0.56483394505E+00  0.17830853490E+00  0.11299547483E+01  0.12757857631E+01  0.51100000000E-03 0.  1.
    9000002    1    1    2    0    0 -0.11913459148E+01 -0.37408211845E+00  0.16194174096E+01  0.22497998281E+01  0.93800000000E+00 0.  1.
         22    1    1    2    0    0  0.62651196975E+00  0.19577358355E+00  0.12506278095E+01  0.14124144088E+01  0.00000000000E+00 0. -1.
</event>
<event>
 5    1  0.1160133E+000  0.1596167E+01  0.7818608E-02  0.3357534E+00
         11   -1    0    0    0    0  0.00000000000E+00  0.00000000000E+00  0.39999999674E+01  0.40000000000E+01  0.51100000000E-03 0.  1.
    9000002   -1    0    0    0    0 -0.00000000000E+00 -0.00000000000E+00  0.00000000000E+00  0.93800000000E+00  0.93800000000E+00 0.  1.
         11    1    1    2    0    0 -0.13045673042E+00  0.37335910132E-01  0.62349668406E+00  0.63809192508E+00  0.51100000000E-03 0.  1.
    9000002    1    1    2    0    0  0.96347817889E+00 -0.93222291023E-01  0.74701352945E+00  0.15410560697E+01  0.93800000000E+00 0.  1.
         22    1    1    2    0    0 -0.83302144847E+00  0.55886380891E-01  0.26294897538E+01  0.27588520052E+01  0.00000000000E+00 0.  1.
</event>
<event>
 5    1  0.1160133E+000  0.1598740E+01  0.7818608E-02  0.3354732E+00
         11   -1    0    0    0    0  0.00000000000E+00  0.00000000000E+00  0.39999999674E+01  0.40000000000E+01  0.51100000000E-03 0.  1.
    9000002   -1    0    0    0    0 -0.00000000000E+00 -0.00000000000E+00  0.00000000000E+00  0.93800000000E+00  0.93800000000E+00 0.  1.
         11    1    1    2    0    0  0.10221127882E-01 -0.11260000697E+00  0.32726597971E+00  0.34624632218E+00  0.51100000000E-03 0.  1.
    9000002    1    1    2    0    0  0.98332225369E-01  0.11015579396E+01  0.10607298606E+01  0.17966888874E+01  0.93800000000E+00 0.  1.
         22    1    1    2    0    0 -0.10855335325E+00 -0.98895793264E+00  0.26120041271E+01  0.27950647905E+01  0.00000000000E+00 0.  1.
</event>
<event>
 5    1  0.1160133E+000  0.1599628E+01  0.7818608E-02  0.3353767E+00
         11   -1    0    0    0    0  0.00000000000E+00  0.00000000000E+00  0.39999999674E+01  0.40000000000E+01  0.51100000000E-03 0.  1.
    9000002   -1    0    0    0    0 -0.00000000000E+00 -0.00000000000E+00  0.00000000000E+00  0.93800000000E+00  0.93800000000E+00 0.  1.
         11    1    1    2    0    0 -0.37779614817E+00  0.10685009982E+00  0.13136597505E+01  0.13710758822E+01  0.51100000000E-03 0.  1.
    9000002    1    1    2    0    0  0.92228596007E+00 -0.27694627772E+00  0.73126314152E+00  0.15303268981E+01  0.93800000000E+00 0.  1.
         22    1    1    2    0    0 -0.54448981190E+00  0.17009617790E+00  0.19550770753E+01  0.20365972197E+01  0.00000000000E+00 0.  1.
</event>
<event>
 5    1  0.1160133E+000  0.1596845E+01  0.7818608E-02  0.3356795E+00
         11   -1    0    0    0    0  0.00000000000E+00  0.00000000000E+00  0.39999999674E+01  0.40000000000E+01  0.51100000000E-03 0.  1.
    9000002   -1    0    0    0    0 -0.00000000000E+00 -0.00000000000E+00  0.00000000000E+00  0.93800000000E+00  0.93800000000E+00 0.  1.
         11    1    1    2    0    0  0.26078543031E+00  0.79197673132E-01  0.76213737178E+00  0.80940406886E+00  0.51100000000E-03 0.  1.
    9000002    1    1    2    0    0 -0.88268622193E+00 -0.40286157179E+00  0.75023372174E+00  0.15440618672E+01  0.93800000000E+00 0.  1.
         22    1    1    2    0    0  0.62190079162E+00  0.32366389866E+00  0.24876288738E+01  0.25845340640E+01  0.00000000000E+00 0.  1.
</event>
<event>
 5    1  0.1160133E+000  0.1594829E+01  0.7818608E-02  0.3358995E+00
         11   -1    0    0    0    0  0.00000000000E+00  0.00000000000E+00  0.39999999674E+01  0.40000000000E+01  0.51100000000E-03 0.  1.
    9000002   -1    0    0    0    0 -0.00000000000E+00 -0.00000000000E+00  0.00000000000E+00  0.93800000000E+00  0.93800000000E+00 0.  1.
         11    1    1    2    0    0 -0.21807899950E+00 -0.10594107922E-02  0.42987597706E+00  0.48203027825E+00  0.51100000000E-03 0.  1.
    9000002    1    1    2    0    0  0.12027018328E+01 -0.34755379273E+00  0.16738251641E+01  0.22910303397E+01  0.93800000000E+00 0.  1.
         22    1    1    2    0    0 -0.98462283334E+00  0.34861320352E+00  0.18962988262E+01  0.21649393820E+01  0.00000000000E+00 0.  1.
</event>
<event>
 5    1  0.1160133E+000  0.1599534E+01  0.7818608E-02  0.3353869E+00
         11   -1    0    0    0    0  0.00000000000E+00  0.00000000000E+00  0.39999999674E+01  0.40000000000E+01  0.51100000000E-03 0.  1.
    9000002   -1    0    0    0    0 -0.00000000000E+00 -0.00000000000E+00  0.00000000000E+00  0.93800000000E+00  0.93800000000E+00 0. -1.
         11    1    1    2    0    0  0.23268553250E+00  0.31610382532E+00  0.12905004882E+01  0.13488721053E+01  0.51100000000E-03 0.  1.
    9000002    1    1    2    0    0 -0.57098189128E+00 -0.77079935545E+00  0.72440283527E+00  0.15247148698E+01  0.93800000000E+00 0. -1.
         22    1    1    2    0    0  0.33829635878E+00  0.45469553013E+00  0.19850966439E+01  0.20644130248E+01  0.00000000000E+00 0.  1.
</event>
<event>
 5    1  0.1160133E+000  0.1594140E+01  0.7818608E-02  0.3359748E+00
         11   -1    0    0    0    0  0.00000000000E+00  0.00000000000E+00  0.39999999674E+01  0.40000000000E+01  0.51100000000E-03 0. -1.
    9000002   -1    0    0    0    0 -0.00000000000E+00 -0.00000000000E+00  0.00000000000E+00  0.93800000000E+00  0.93800000000E+00 0.  1.
         11    1    1    2    0    0  0.42119172849E-01 -0.31368879832E+00  0.49812543528E+00  0.59017276903E+00  0.51100000000E-03 0. -1.
    9000002    1    1    2    0    0 -0.31833159489E+00  0.11831746576E+01  0.15196454886E+01  0.21657339831E+01  0.93800000000E+00 0.  1.
         22    1    1    2    0    0  0.27621242204E+00 -0.86948585924E+00  0.19822290435E+01  0.21820932478E+01  0.00000000000E+00 0. -1.
</event>
<event>
 5    1  0.1160133E+000  0.1599411E+01  0.7818608E-02  0.3354003E+00
         11   -1    0    0    0    0  0.00000000000E+00  0.00000000000E+00  0.39999999674E+01  0.40000000000E+01  0.51100000000E-03 0.  1.
    9000002   -1    0    0    0    0 -0.00000000000E+00 -0.00000000000E+00  0.00000000000E+00  0.93800000000E+00  0.93800000000E+00 0.  1.
         11    1    1    2    0    0  0.62426134008E-01 -0.23785558887E-02  0.25686600899E+00  0.26435409479E+00  0.51100000000E-03 0.  1.
    9000002    1    1    2    0    0 -0.94055804852E+00 -0.51007906754E-03  0.69024880974E+00  0.14969759925E+01  0.93800000000E+00 0.  1.
         22    1    1    2    0    0  0.87813191452E+00  0.28886349563E-02  0.30528851486E+01  0.31766699127E+01  0.00000000000E+00 0.  1.
</event>
<event>
 5    1  0.1160133E+000  0.1573927E+01  0.7818608E-02  0.3382158E+00
         11   -1    0    0    0    0  0.00000000000E+00  0.00000000000E+00  0.39999999674E+01  0.40000000000E+01  0.51100000000E-03 0.  1.
    9000002   -1    0    0    0    0 -0.00000000000E+00 -0.00000000000E+00  0.00000000000E+00  0.93800000000E+00  0.93800000000E+00 0.  1.
         11    1    1    2    0    0 -0.34488764237E-01  0.11074083936E+00  0.18670093381E+00  0.21979651537E+00  0.51100000000E-03 0.  1.
    9000002    1    1    2    0    0 -0.68985645758E+00 -0.85330389548E+00  0.11046930793E+01  0.18177514323E+01  0.93800000000E+00 0.  1.
         22    1    1    2    0    0  0.72434522182E+00  0.74256305612E+00  0.27086059542E+01  0.29004520523E+01  0.00000000000E+00 0.  1.
</event>
<event>
 5    1  0.1160133E+000  0.1599673E+01  0.7818608E-02  0.3353719E+00
         11   -1    0    0    0    0  0.00000000000E+00  0.00000000000E+00  0.39999999674E+01  0.40000000000E+01  0.51100000000E-03 0. -1.
    9000002   -1    0    0    0    0 -0.00000000000E+00 -0.00000000000E+00  0.00000000000E+00  0.93800000000E+00  0.93800000000E+00 0. -1.
         11    1    1    2    0    0 -0.18327302509E+00  0.26499790113E+00  0.10281684308E+01  0.10774708686E+01  0.51100000000E-03 0. -1.
    9000002    1    1    2    0    0  0.56301621586E+00 -0.82378143228E+00  0.79994469688E+00  0.15859882173E+01  0.93800000000E+00 0. -1.
         22    1    1    2    0    0 -0.37974319077E+00  0.55878353116E+00  0.21718868397E+01  0.22745409141E+01  0.00000000000E+00 0. -1.
</event>
<event>
 5    1  0.1160133E+000  0.1599594E+01  0.7818608E-02  0.3353804E+00
         11   -1    0    0    0    0  0.00000000000E+00  0.00000000000E+00  0.39999999674E+01  0.40000000000E+01  0.51100000000E-03 0. -1.
    9000002   -1    0    0    0    0 -0.00000000000E+00 -0.00000000000E+00  0.00000000000E+00  0.93800000000E+00  0.93800000000E+00 0.  1.
         11    1    1    2    0    0 -0.15456107335E+00 -0.16326696752E-01  0.34720326163E+00  0.38040248741E+00  0.51100000000E-03 0. -1.
    9000002    1    1    2    0    0  0.11797903450E+01  0.72509863415E-01  0.13046307287E+01  0.19947602054E+01  0.93800000000E+00 0.  1.
         22    1    1    2    0    0 -0.10252292717E+01 -0.56183166663E-01  0.23481659770E+01  0.25628373072E+01  0.00000000000E+00 0. -1.
</event>
<event>
 5    1  0.1160133E+000  0.1593087E+01  0.7818608E-02  0.3360901E+00
         11   -1    0    0    0    0  0.00000000000E+00  0.00000000000E+00  0.39999999674E+01  0.40000000000E+01  0.51100000000E-03 0. -1.
    9000002   -1    0    0    0    0 -0.00000000000E+00 -0.00000000000E+00  0.00000000000E+00  0.93800000000E+00  0.93800000000E+00 0. -1.
         11    1    1    2    0    0  0.12967005215E-01 -0.33966421978E-01  0.17630403649E+00  0.18001454233E+00  0.51100000000E-03 0. -1.
    9000002    1    1    2    0    0  0.34977599079E+00  0.10833569412E+01  0.11745918811E+01  0.18856074864E+01  0.93800000000E+00 0. -1.
         22    1    1    2    0    0 -0.36274299601E+00 -0.10493905192E+01  0.26491040498E+01  0.28723779712E+01  0.00000000000E+00 0. -1.
</event>
<event>
 5    1  0.1160133E+000  0.1598363E+01  0.7818608E-02  0.3355142E+00
         11   -1    0    0    0    0  0.00000000000E+00  0.00000000000E+00  0.39999999674E+01  0.40000000000E+01  0.51100000000E-03 0. -1.
    9000002   -1    0    0    0    0 -0.00000000000E+00 -0.00000000000E+00  0.00000000000E+00  0.93800000000E+00  0.93800000000E+00 0. -1.
         11    1    1    2    0    0 -0.31097299707E+00  0.30038261940E+00  0.11526059851E+01  0.12310299513E+01  0.51100000000E-03 0. -1.
    9000002    1    1    2    0    0  0.87650615476E+00 -0.71696647295E+00  0.11394777680E+01  0.18602573872E+01  0.93800000000E+00 0. -1.
         22    1    1    2    0    0 -0.56553315770E+00  0.41658385356E+00  0.17079162142E+01  0.18467126615E+01  0.00000000000E+00 0. -1.
</event>
<event>
 5    1  0.1160133E+000  0.1599273E+01  0.7818608E-02  0.3354153E+00
         11   -1    0    0    0    0  0.00000000000E+00  0.00000000000E+00  0.39999999674E+01  0.40000000000E+01  0.51100000000E-03 0. -1.
    9000002   -1    0    0    0    0 -0.00000000000E+00 -0.00000000000E+00  0.00000000000E+00  0.93800000000E+00  0.93800000000E+00 0.  1.
         11    1    1    2    0    0 -0.61198829528E-01 -0.48501003251E+00  0.13864947880E+01  0.14701524025E+01  0.51100000000E-03 0. -1.
    9000002    1    1    2    0    0  0.18312543530E+00  0.10461797103E+01  0.94479100525E+00  0.17030857157E+01  0.93800000000E+00 0.  1.
         22    1    1    2    0    0 -0.12192660577E+00 -0.56116967784E+00  0.16687141741E+01  0.17647618818E+01  0.00000000000E+00 0. -1.
</event>
<event>
 5    1  0.1160133E+000  0.1508736E+01  0.7818608E-02  0.3458793E+00
         11   -1    0    0    0    0  0.00000000000E+00  0.00000000000E+00  0.39999999674E+01  0.40000000000E+01  0.51100000000E-03 0. -1.
    9000002   -1    0    0    0    0 -0.00000000000E+00 -0.00000000000E+00  0.00000000000E+00  0.93800000000E+00  0.93800000000E+00 0. -1.
         11    1    1    2    0    0 -0.13446222095E+00  0.36716715930E-01  0.13783468835E+01  0.13853766991E+01  0.51100000000E-03 0. -1.
    9000002    1    1    2    0    0 -0.35351186566E+00 -0.67249239891E+00  0.54067352058E+00  0.13226445182E+01  0.93800000000E+00 0. -1.
         22    1    1    2    0    0  0.48797408661E+00  0.63577568298E+00  0.20809795633E+01  0.22299787827E+01  0.00000000000E+00 0. -1.
</event>
<event>
 5    1  0.1160133E+000  0.1599674E+01  0.7818608E-02  0.3353717E+00
         11   -1    0    0    0    0  0.00000000000E+00  0.00000000000E+00  0.39999999674E+01  0.40000000000E+01  0.51100000000E-03 0. -1.
    9000002   -1    0    0    0    0 -0.00000000000E+00 -0.00000000000E+00  0.00000000000E+00  0.93800000000E+00  0.93800000000E+00 0.  1.
         11    1    1    2    0    0  0.18657347595E+00 -0.14619569359E+00  0.86433467011E+00  0.89624635332E+00  0.51100000000E-03 0. -1.
    9000002    1    1    2    0    0 -0.71754273228E+00  0.56580743882E+00  0.64303298074E+00  0.14588834925E+01  0.93800000000E+00 0.  1.
         22    1    1    2    0    0  0.53096925633E+00 -0.41961174523E+00  0.24926323165E+01  0.25828701541E+01  0.00000000000E+00 0. -1.
</event>
<event>
 5    1  0.1160133E+000  0.1598745E+01  0.7818608E-02  0.3354726E+00
         11   -1    0    0    0    0  0.00000000000E+00  0.00000000000E+00  0.39999999674E+01  0.40000000000E+01  0.51100000000E-03 0. -1.
    9000002   -1    0    0    0    0 -0.00000000000E+00 -0.00000000000E+00  0.00000000000E+00  0.93800000000E+00  0.93800000000E+00 0. -1.
         11    1    1    2    0    0  0.29713709106E+00  0.31696974616E+00  0.12911777247E+01  0.13623143722E+01  0.51100000000E-03 0. -1.
    9000002    1    1    2    0    0 -0.63930423347E+00 -0.79940373525E+00  0.85670814280E+00  0.16314254739E+01  0.93800000000E+00 0. -1.
         22    1    1    2    0    0  0.34216714240E+00  0.48243398909E+00  0.18521140998E+01  0.19442601539E+01  0.00000000000E+00 0. -1.
</event>
<event>
 5    1  0.1160133E+000  0.1599336E+01  0.7818608E-02  0.3354084E+00
         11   -1    0    0    0    0  0.00000000000E+00  0.00000000000E+00  0.39999999674E+01  0.40000000000E+01  0.51100000000E-03 0. -1.
    9000002   -1    0    0    0    0 -0.00000000000E+00 -0.00000000000E+00  0.00000000000E+00  0.93800000000E+00  0.93800000000E+00 0. -1.
         11    1    1    2    0    0 -0.83467312953E-01  0.32154837850E+00  0.10563495513E+01  0.11073548608E+01  0.51100000000E-03 0. -1.
    9000002    1    1    2    0    0  0.26651994808E+00 -0.92754187672E+00  0.73577608592E+00  0.15338113523E+01  0.93800000000E+00 0. -1.
         22    1    1    2    0    0 -0.18305263512E+00  0.60599349821E+00  0.22078743301E+01  0.22968337869E+01  0.00000000000E+00 0.  1.
</event>
<event>
 5    1  0.1160133E+000  0.1595754E+01  0.7818608E-02  0.3357985E+00
         11   -1    0    0    0    0  0.00000000000E+00  0.00000000000E+00  0.39999999674E+01  0.40000000000E+01  0.51100000000E-03 0.  1.
    9000002   -1    0    0    0    0 -0.00000000000E+00 -0.00000000000E+00  0.00000000000E+00  0.93800000000E+00  0.93800000000E+00 0.  1.
         11    1    1    2    0    0 -0.58986202950E-01  0.29486278864E+00  0.13376374778E+01  0.13710206853E+01  0.51100000000E-03 0.  1.
    9000002    1    1    2    0    0  0.12223258360E-01 -0.88095671771E+00  0.59526924494E+00  0.14178940794E+01  0.93800000000E+00 0.  1.
         22    1    1    2    0    0  0.46762944590E-01  0.58609392907E+00  0.20670932446E+01  0.21490852353E+01  0.00000000000E+00 0.  1.
</event>
<event>
 5    1  0.1160133E+000  0.1590447E+01  0.7818608E-02  0.3363798E+00
         11   -1    0    0    0    0  0.00000000000E+00  0.00000000000E+00  0.39999999674E+01  0.40000000000E+01  0.51100000000E-03 0.  1.
    9000002   -1    0    0    0    0 -0.00000000000E+00 -0.00000000000E+00  0.00000000000E+00  0.93800000000E+00  0.93800000000E+00 0.  1.
         11    1    1    2    0    0  0.53980621215E-01 -0.23038091184E+00  0.11120276514E+01  0.11369234938E+01  0.51100000000E-03 0.  1.
    9000002    1    1    2    0    0  0.14228653445E+00  0.84395384901E+00  0.56387946830E+00  0.13893551065E+01  0.93800000000E+00 0.  1.
         22    1    1    2    0    0 -0.19626715566E+00 -0.61357293717E+00  0.23240928476E+01  0.24117213998E+01  0.00000000000E+00 0.  1.
</event>
<event>
 5    1  0.1160133E+000  0.1594803E+01  0.7818608E-02  0.3359023E+00
         11   -1    0    0    0    0  0.00000000000E+00  0.00000000000E+00  0.39999999674E+01  0.40000000000E+01  0.51100000000E-03 0. -1.
    9000002   -1    0    0    0    0 -0.00000000000E+00 -0.00000000000E+00  0.00000000000E+00  0.93800000000E+00  0.93800000000E+00 0.  1.
         11    1    1    2    0    0 -0.87212950613E-01 -0.12087964765E+00  0.40189069841E+00  0.42864248805E+00  0.51100000000E-03 0. -1.
    9000002    1    1    2    0    0  0.93642847062E+00  0.58571890259E+00  0.10673116510E+01  0.17997119419E+01  0.93800000000E+00 0.  1.
         22    1    1    2    0    0 -0.84921552000E+00 -0.46483925494E+00  0.25307976179E+01  0.27096455701E+01  0.00000000000E+00 0. -1.
</event>
<event>
 5    1  0.1160133E+000  0.1599676E+01  0.7818608E-02  0.3353715E+00
         11   -1    0    0    0    0  0.00000000000E+00  0.00000000000E+00  0.39999999674E+01  0.40000000000E+01  0.51100000000E-03 0. -1.
    9000002   -1    0    0    0    0 -0.00000000000E+00 -0.00000000000E+00  0.00000000000E+00  0.93800000000E+00  0.93800000000E+00 0.  1.
         11    1    1    2    0    0  0.41141803049E+00  0.37253199176E+00  0.84061567704E+00  0.10073131878E+01  0.51100000000E-03 0. -1.
    9000002    1    1    2    0    0 -0.95692708013E+00 -0.86842432554E+00  0.20458654082E+01  0.25952417064E+01  0.93800000000E+00 0.  1.
         22    1    1    2    0    0  0.54550904963E+00  0.49589233378E+00  0.11135188821E+01  0.13354451058E+01  0.00000000000E+00 0. -1.
</event>
<event>
 5    1  0.1160133E+000  0.1599675E+01  0.7818608E-02  0.3353716E+00
         11   -1    0    0    0    0  0.00000000000E+00  0.00000000000E+00  0.39999999674E+01  0.40000000000E+01  0.51100000000E-03 0.  1.
    9000002   -1    0    0    0    0 -0.00000000000E+00 -0.00000000000E+00  0.00000000000E+00  0.93800000000E+00  0.93800000000E+00 0. -1.
         11    1    1    2    0    0  0.46403823694E+00 -0.40760874439E-01  0.11263033527E+01  0.12188324075E+01  0.51100000000E-03 0.  1.
    9000002    1    1    2    0    0 -0.11518146981E+01  0.10291594070E+00  0.12127705350E+01  0.19203971361E+01  0.93800000000E+00 0. -1.
         22    1    1    2    0    0  0.68777646116E+00 -0.62155066266E-01  0.16609260796E+01  0.17987704564E+01  0.00000000000E+00 0.  1.
</event>
<event>
 5    1  0.1160133E+000  0.1599606E+01  0.7818608E-02  0.3353791E+00
         11   -1    0    0    0    0  0.00000000000E+00  0.00000000000E+00  0.39999999674E+01  0.40000000000E+01  0.51100000000E-03 0. -1.
    9000002   -1    0    0    0    0 -0.00000000000E+00 -0.00000000000E+00  0.00000000000E+00  0.93800000000E+00  0.93800000000E+00 0.  1.
         11    1    1    2    0    0 -0.29539075068E+00 -0.80578305185E-01  0.87169136545E+00  0.92390186523E+00  0.51100000000E-03 0. -1.
    9000002    1    1    2    0    0  0.10126955221E+01  0.30200906091E+00  0.93114836856E+00  0.16922301787E+01  0.93800000000E+00 0.  1.
         22    1    1    2    0    0 -0.71730477139E+00 -0.22143075573E+00  0.21971602333E+01  0.23218679561E+01  0.00000000000E+00 0. -1.
</event>
<event>
 5    1  0.1160133E+000  0.1599672E+01  0.7818608E-02  0.3353719E+00
         11   -1    0    0    0    0  0.00000000000E+00  0.00000000000E+00  0.39999999674E+01  0.40000000000E+01  0.51100000000E-03 0. -1.
    9000002   -1    0    0    0    0 -0.00000000000E+00 -0.00000000000E+00  0.00000000000E+00  0.93800000000E+00  0.93800000000E+00 0.  1.
         11    1    1    2    0    0 -0.10075354769E+00 -0.38104008043E-02  0.31570483992E+00  0.33141454947E+00  0.51100000000E-03 0. -1.
    9000002    1    1    2    0    0  0.10197296977E+01  0.29771938846E-01  0.84728975528E+00  0.16243395440E+01  0.93800000000E+00 0.  1.
         22    1    1    2    0    0 -0.91897614997E+00 -0.25961538042E-01  0.28370053722E+01  0.29822459066E+01  0.00000000000E+00 0. -1.
</event>
<event>
 5    1  0.1160133E+000  0.1599310E+01  0.7818608E-02  0.3354113E+00
         11   -1    0    0    0    0  0.00000000000E+00  0.00000000000E+00  0.39999999674E+01  0.40000000000E+01  0.51100000000E-03 0.  1.
    9000002   -1    0    0    0    0 -0.00000000000E+00 -0.00000000000E+00  0.00000000000E+00  0.93800000000E+00  0.93800000000E+00 0. -1.
         11    1    1    2    0    0 -0.28808457746E+00 -0.22644728593E+00  0.12203528836E+01  0.12741791549E+01  0.51100000000E-03 0.  1.
    9000002    1    1    2    0    0  0.78794441117E+00  0.63466886329E+00  0.82990876019E+00  0.16100476736E+01  0.93800000000E+00 0. -1.
         22    1    1    2    0    0 -0.49985983370E+00 -0.40822157735E+00  0.19497383235E+01  0.20537731715E+01  0.00000000000E+00 0. -1.
</event>
<event>
 5    1  0.1160133E+000  0.1599675E+01  0.7818608E-02  0.3353716E+00
         11   -1    0    0    0    0  0.00000000000E+00  0.00000000000E+00  0.39999999674E+01  0.40000000000E+01  0.51100000000E-03 0.  1.
    9000002   -1    0    0    0    0 -0.00000000000E+00 -0.00000000000E+00  0.00000000000E+00  0.93800000000E+00  0.93800000000E+00 0.  1.
         11    1    1    2    0    0  0.33193106441E+00  0.30601513759E+00  0.10261244669E+01  0.11210509260E+01  0.51100000000E-03 0.  1.
    9000002    1    1    2    0    0 -0.86787327962E+00 -0.80546762820E+00  0.13120975520E+01  0.20008563456E+01  0.93800000000E+00 0.  1.
         22    1    1    2    0    0  0.53594221521E+00  0.49945249061E+00  0.16617779484E+01  0.18160927284E+01  0.00000000000E+00 0.  1.
</event>
<event>
 5    1  0.1160133E+000  0.1590502E+01  0.7818608E-02  0.3363737E+00
         11   -1    0    0    0    0  0.00000000000E+00  0.00000000000E+00  0.39999999674E+01  0.40000000000E+01  0.51100000000E-03 0. -1.
    9000002   -1    0    0    0    0 -0.00000000000E+00 -0.00000000000E+00  0.00000000000E+00  0.93800000000E+00  0.93800000000E+00 0. -1.
         11    1    1    2    0    0 -0.23115591535E+00  0.17807318800E+00  0.84276987013E+00  0.89185449071E+00  0.51100000000E-03 0. -1.
    9000002    1    1    2    0    0  0.10662901181E+01 -0.38501473994E+00  0.11673921484E+01  0.18782596716E+01  0.93800000000E+00 0. -1.
         22    1    1    2    0    0 -0.83513420275E+00  0.20694155194E+00  0.19898379488E+01  0.21678858376E+01  0.00000000000E+00 0. -1.
</event>
<event>
 5    1  0.1160133E+000  0.1562759E+01  0.7818608E-02  0.3394802E+00
         11   -1    0    0    0    0  0.00000000000E+00  0.00000000000E+00  0.39999999674E+01  0.40000000000E+01  0.51100000000E-03 0.  1.
    9000002   -1    0    0    0    0 -0.00000000000E+00 -0.00000000000E+00  0.00000000000E+00  0.93800000000E+00  0.93800000000E+00 0.  1.
         11    1    1    2    0    0 -0.98022848275E-02  0.41209254566E-01  0.52636591056E+00  0.52806781797E+00  0.51100000000E-03 0.  1.
    9000002    1    1    2    0    0 -0.30410886731E-01  0.82131647662E+00  0.55282296090E+00  0.13641637742E+01  0.93800000000E+00 0.  1.
         22    1    1    2    0    0  0.40213171558E-01 -0.86252573118E+00  0.29208110959E+01  0.30457684078E+01  0.00000000000E+00 0.  1.
</event>
<event>
 5    1  0.1160133E+000  0.1596916E+01  0.7818608E-02  0.3356717E+00
         11   -1    0    0    0    0  0.00000000000E+00  0.00000000000E+00  0.39999999674E+01  0.40000000000E+01  0.51100000000E-03 0. -1.
    9000002   -1    0    0    0    0 -0.00000000000E+00 -0.00000000000E+00  0.00000000000E+00  0.93800000000E+00  0.93800000000E+00 0. -1.
         11    1    1    2    0    0 -0.12518443799E-01  0.16784317120E+00  0.59303951110E+00  0.61646099990E+00  0.51100000000E-03 0. -1.
    9000002    1    1    2    0    0 -0.19612311731E+00 -0.89220871741E+00  0.64695494972E+00  0.14604435557E+01  0.93800000000E+00 0. -1.
         22    1    1    2    0    0  0.20864156111E+00  0.72436554621E+00  0.27600055065E+01  0.28610954443E+01  0.00000000000E+00 0. -1.
</event>
<event>
 5    1  0.1160133E+000  0.1599537E+01  0.7818608E-02  0.3353867E+00
         11   -1    0    0    0    0  0.00000000000E+00  0.00000000000E+00  0.39999999674E+01  0.40000000000E+01  0.51100000000E-03 0. -1.
    9000002   -1    0    0    0    0 -0.00000000000E+00 -0.00000000000E+00  0.00000000000E+00  0.93800000000E+00  0.93800000000E+00 0. -1.
         11    1    1    2    0    0  0.17677726759E+00  0.90559467440E-01  0.54583189197E+00  0.58084760040E+00  0.51100000000E-03 0. -1.
    9000002    1    1    2    0    0 -0.97037902577E+00 -0.44432893240E+00  0.95693207658E+00  0.17130752035E+01  0.93800000000E+00 0. -1.
         22    1    1    2    0    0  0.79360175819E+00  0.35376946496E+00  0.24972359988E+01  0.26440771960E+01  0.00000000000E+00 0. -1.
</event>
<event>
 5    1  0.1160133E+000  0.1599676E+01  0.7818608E-02  0.3353715E+00
         11   -1    0    0    0    0  0.00000000000E+00  0.00000000000E+00  0.39999999674E+01  0.40000000000E+01  0.51100000000E-03 0.  1.
    9000002   -1    0    0    0    0 -0.00000000000E+00 -0.00000000000E+00  0.00000000000E+00  0.93800000000E+00  0.93800000000E+00 0.  1.
         11    1    1    2    0    0 -0.11994124527E+00  0.70506023290E-02  0.17101945434E+00  0.20900604822E+00  0.51100000000E-03 0. -1.
    9000002    1    1    2    0    0  0.12932589418E+01 -0.71903865955E-01  0.21454127719E+01  0.26758790739E+01  0.93800000000E+00 0.  1.
         22    1    1    2    0    0 -0.11733176965E+01  0.64853263626E-01  0.16835677411E+01  0.20531148778E+01  0.00000000000E+00 0.  1.
</event>
<event>
 5    1  0.1160133E+000  0.1598483E+01  0.7818608E-02  0.3355011E+00
         11   -1    0    0    0    0  0.00000000000E+00  0.00000000000E+00  0.39999999674E+01  0.40000000000E+01  0.51100000000E-03 0. -1.
    9000002   -1    0    0    0    0 -0.00000000000E+00 -0.00000000000E+00  0.00000000000E+00  0.93800000000E+00  0.93800000000E+00 0.  1.
         11    1    1    2    0    0 -0.12146599950E+00  0.60965209208E-02  0.56704320663E+00  0.57993914845E+00  0.51100000000E-03 0. -1.
    9000002    1    1    2    0    0  0.87601911018E+00 -0.15411104869E+00  0.60465871312E+00  0.14271005066E+01  0.93800000000E+00 0.  1.
         22    1    1    2    0    0 -0.75455311068E+00  0.14801452777E+00  0.28282980476E+01  0.29309603449E+01  0.00000000000E+00 0. -1.
</event>
<event>
 5    1  0.1160133E+000  0.1597762E+01  0.7818608E-02  0.3355796E+00
         11   -1    0    0    0    0  0.00000000000E+00  0.00000000000E+00  0.39999999674E+01  0.40000000000E+01  0.51100000000E-03 0. -1.
    9000002   -1    0    0    0    0 -0.00000000000E+00 -0.00000000000E+00  0.00000000000E+00  0.93800000000E+00  0.93800000000E+00 0. -1.
         11    1    1    2    0    0  0.17762574826E-01  0.86256978125E-01  0.26065350812E+00  0.27512958357E+00  0.51100000000E-03 0. -1.
    9000002    1    1    2    0    0 -0.44118201326E+00 -0.80767255342E+00  0.65726648497E+00  0.14692922632E+01  0.93800000000E+00 0. -1.
         22    1    1    2    0    0  0.42341943843E+00  0.72141557530E+00  0.30820799743E+01  0.31935781533E+01  0.00000000000E+00 0. -1.
</event>
<event>
 5    1  0.1160133E+000  0.1599524E+01  0.7818608E-02  0.3353880E+00
         11   -1    0    0    0    0  0.00000000000E+00  0.00000000000E+00  0.39999999674E+01  0.40000000000E+01  0.51100000000E-03 0. -1.
    9000002   -1    0    0    0    0 -0.00000000000E+00 -0.00000000000E+00  0.00000000000E+00  0.93800000000E+00  0.93800000000E+00 0. -1.
         11    1    1    2    0    0  0.10478989638E+00  0.25361945745E+00  0.78153706809E+00  0.82831407177E+00  0.51100000000E-03 0. -1.
    9000002    1    1    2    0    0 -0.39935387767E+00 -0.95853943810E+00  0.88828503080E+00  0.16574606089E+01  0.93800000000E+00 0. -1.
         22    1    1    2    0    0  0.29456398130E+00  0.70491998065E+00  0.23301778685E+01  0.24522253194E+01  0.00000000000E+00 0. -1.
</event>
<event>
 5    1  0.1160133E+000  0.1520723E+01  0.7818608E-02  0.3444174E+00
         11   -1    0    0    0    0  0.00000000000E+00  0.00000000000E+00  0.39999999674E+01  0.40000000000E+01  0.51100000000E-03 0. -1.
    9000002   -1    0    0    0    0 -0.00000000000E+00 -0.00000000000E+00  0.00000000000E+00  0.93800000000E+00  0.93800000000E+00 0. -1.
         11    1    1    2    0    0 -0.15567849824E+00 -0.63963039124E+00  0.12261866664E+01  0.13917244103E+01  0.51100000000E-03 0. -1.
    9000002    1    1    2    0    0 -0.22737323777E+00  0.99275241651E+00  0.10283065112E+01  0.17246780078E+01  0.93800000000E+00 0. -1.
         22    1    1    2    0    0  0.38305173601E+00 -0.35312202527E+00  0.17455067898E+01  0.18215975819E+01  0.00000000000E+00 0. -1.
</event>
<event>
 5    1  0.1160133E+000  0.1599511E+01  0.7818608E-02  0.3353895E+00
         11   -1    0    0    0    0  0.00000000000E+00  0.00000000000E+00  0.39999999674E+01  0.40000000000E+01  0.51100000000E-03 0. -1.
    9000002   -1    0    0    0    0 -0.00000000000E+00 -0.00000000000E+00  0.00000000000E+00  0.93800000000E+00  0.93800000000E+00 0. -1.
         11    1    1    2    0    0 -0.47132643851E-01  0.31492576035E+00  0.12151318843E+01  0.12561629982E+01  0.51100000000E-03 0. -1.
    9000002    1    1    2    0    0  0.16803797869E+00 -0.89151532910E+00  0.63221912569E+00  0.14500280574E+01  0.93800000000E+00 0. -1.
         22    1    1    2    0    0 -0.12090533484E+00  0.57658956875E+00  0.21526489574E+01  0.22318089445E+01  0.00000000000E+00 0. -1.
</event>
<event>
 5    1  0.1160133E+000  0.1562535E+01  0.7818608E-02  0.3395058E+00
         11   -1    0    0    0    0  0.00000000000E+00  0.00000000000E+00  0.39999999674E+01  0.40000000000E+01  0.51100000000E-03 0. -1.
    9000002   -1    0    0    0    0 -0.00000000000E+00 -0.00000000000E+00  0.00000000000E+00  0.93800000000E+00  0.93800000000E+00 0. -1.
         11    1    1    2    0    0 -0.47363818441E+00  0.96390778002E-01  0.96272741046E+00  0.10772505000E+01  0.51100000000E-03 0. -1.
    9000002    1    1    2    0    0 -0.47735964193E-01  0.65052962564E+00  0.67044705254E+00  0.13246927064E+01  0.93800000000E+00 0. -1.
         22    1    1    2    0    0  0.52137414861E+00 -0.74692040364E+00  0.23668255044E+01  0.25360567936E+01  0.00000000000E+00 0. -1.
</event>
<event>
 5    1  0.1160133E+000  0.1599621E+01  0.7818608E-02  0.3353775E+00
         11   -1    0    0    0    0  0.00000000000E+00  0.00000000000E+00  0.39999999674E+01  0.40000000000E+01  0.51100000000E-03 0. -1.
    9000002   -1    0    0    0    0 -0.00000000000E+00 -0.00000000000E+00  0.00000000000E+00  0.93800000000E+00  0.93800000000E+00 0. -1.
         11    1    1    2    0    0 -0.24030300281E+00  0.27143869196E+00  0.10858589072E+01  0.11447769757E+01  0.51100000000E-03 0. -1.
    9000002    1    1    2    0    0  0.66936445614E+00 -0.77871926848E+00  0.86211599183E+00  0.16363191796E+01  0.93800000000E+00 0. -1.
         22    1    1    2    0    0 -0.42906145333E+00  0.50728057653E+00  0.20520250684E+01  0.21569038447E+01  0.00000000000E+00 0.  1.
</event>
<event>
 5    1  0.1160133E+000  0.1589488E+01  0.7818608E-02  0.3364853E+00
         11   -1    0    0    0    0  0.00000000000E+00  0.00000000000E+00  0.39999999674E+01  0.40000000000E+01  0.51100000000E-03 0.  1.
    9000002   -1    0    0    0    0 -0.00000000000E+00 -0.00000000000E+00  0.00000000000E+00  0.93800000000E+00  0.93800000000E+00 0.  1.
         11    1    1    2    0    0 -0.15507248388E+00  0.36100248681E+00  0.60819196912E+00  0.72406353530E+00  0.51100000000E-03 0.  1.
    9000002    1    1    2    0    0  0.64515962599E+00 -0.10255387021E+01  0.14749537441E+01  0.21268034981E+01  0.93800000000E+00 0.  1.
         22    1    1    2    0    0 -0.49008714212E+00  0.66453621531E+00  0.19168542542E+01  0.20871329666E+01  0.00000000000E+00 0.  1.
</event>
<event>
 5    1  0.1160133E+000  0.1598950E+01  0.7818608E-02  0.3354504E+00
         11   -1    0    0    0    0  0.00000000000E+00  0.00000000000E+00  0.39999999674E+01  0.40000000000E+01  0.51100000000E-03 0.  1.
    9000002   -1    0    0    0    0 -0.00000000000E+00 -0.00000000000E+00  0.00000000000E+00  0.93800000000E+00  0.93800000000E+00 0.  1.
         11    1    1    2    0    0 -0.11091907182E+00  0.35668935253E+00  0.10442693508E+01  0.11090667576E+01  0.51100000000E-03 0.  1.
    9000002    1    1    2    0    0  0.24346903726E+00 -0.10669000505E+01  0.10282715590E+01  0.17705194969E+01  0.93800000000E+00 0.  1.
         22    1    1    2    0    0 -0.13254996544E+00  0.71021069801E+00  0.19274590576E+01  0.20584137455E+01  0.00000000000E+00 0. -1.
</event>
<event>
 5    1  0.1160133E+000  0.1592557E+01  0.7818608E-02  0.3361482E+00
         11   -1    0    0    0    0  0.00000000000E+00  0.00000000000E+00  0.39999999674E+01  0.40000000000E+01  0.51100000000E-03 0.  1.
    9000002   -1    0    0    0    0 -0.00000000000E+00 -0.00000000000E+00  0.00000000000E+00  0.93800000000E+00  0.93800000000E+00 0.  1.
         11    1    1    2    0    0  0.21799198692E+00  0.17348751846E+00  0.97678543607E+00  0.10157403579E+01  0.51100000000E-03 0.  1.
    9000002    1    1    2    0    0 -0.87661466111E+00 -0.30593640432E+00  0.68008910807E+00  0.14847274304E+01  0.93800000000E+00 0.  1.
         22    1    1    2    0    0  0.65862267419E+00  0.13244888586E+00  0.23431254232E+01  0.24375322117E+01  0.00000000000E+00 0.  1.
</event>
<event>
 5    1  0.1160133E+000  0.1599258E+01  0.7818608E-02  0.3354169E+00
         11   -1    0    0    0    0  0.00000000000E+00  0.00000000000E+00  0.39999999674E+01  0.40000000000E+01  0.51100000000E-03 0. -1.
    9000002   -1    0    0    0    0 -0.00000000000E+00 -0.00000000000E+00  0.00000000000E+00  0.93800000000E+00  0.93800000000E+00 0. -1.
         11    1    1    2    0    0 -0.39691507265E+00 -0.81367828608E-01  0.13279143482E+01  0.13883512076E+01  0.51100000000E-03 0. -1.
    9000002    1    1    2    0    0  0.95687304205E+00  0.25559256532E+00  0.78567527693E+00  0.15741865261E+01  0.93800000000E+00 0. -1.
         22    1    1    2    0    0 -0.55995796940E+00 -0.17422473672E+00  0.18864103422E+01  0.19754622663E+01  0.00000000000E+00 0. -1.
</event>
<event>
 5    1  0.1160133E+000  0.1592920E+01  0.7818608E-02  0.3361083E+00
         11   -1    0    0    0    0  0.00000000000E+00  0.00000000000E+00  0.39999999674E+01  0.40000000000E+01  0.51100000000E-03 0.  1.
    9000002   -1    0    0    0    0 -0.00000000000E+00 -0.00000000000E+00  0.00000000000E+00  0.93800000000E+00  0.93800000000E+00 0.  1.
         11    1    1    2    0    0 -0.28571799828E+00  0.76729290347E-01  0.14292169641E+01  0.14595148338E+01  0.51100000000E-03 0.  1.
    9000002    1    1    2    0    0  0.79855972201E+00 -0.38563115057E+00  0.60880918826E+00  0.14272006312E+01  0.93800000000E+00 0.  1.
         22    1    1    2    0    0 -0.51284172373E+00  0.30890186022E+00  0.19619738150E+01  0.20512845350E+01  0.00000000000E+00 0.  1.
</event>
<event>
 5    1  0.1160133E+000  0.1599675E+01  0.7818608E-02  0.3353716E+00
         11   -1    0    0    0    0  0.00000000000E+00  0.00000000000E+00  0.39999999674E+01  0.40000000000E+01  0.51100000000E-03 0.  1.
    9000002   -1    0    0    0    0 -0.00000000000E+00 -0.00000000000E+00  0.00000000000E+00  0.93800000000E+00  0.93800000000E+00 0.  1.
         11    1    1    2    0    0 -0.32668151221E-01  0.28930587352E+00  0.10324873026E+01  0.10727513168E+01  0.51100000000E-03 0.  1.
    9000002    1    1    2    0    0  0.10069743170E+00 -0.93228884354E+00  0.68469796287E+00  0.14926345035E+01  0.93800000000E+00 0.  1.
         22    1    1    2    0    0 -0.68029280481E-01  0.64298297001E+00  0.22828147019E+01  0.23726141797E+01  0.00000000000E+00 0.  1.
</event>
<event>
 5    1  0.1160133E+000  0.1599517E+01  0.7818608E-02  0.3353888E+00
         11   -1    0    0    0    0  0.00000000000E+00  0.00000000000E+00  0.39999999674E+01  0.40000000000E+01  0.51100000000E-03 0. -1.
    9000002   -1    0    0    0    0 -0.00000000000E+00 -0.00000000000E+00  0.00000000000E+00  0.93800000000E+00  0.93800000000E+00 0.  1.
         11    1    1    2    0    0 -0.36224432888E+00  0.73780566074E-02  0.87824521097E+00  0.95004752578E+00  0.51100000000E-03 0. -1.
    9000002    1    1    2    0    0  0.11333222290E+01 -0.40464229725E-01  0.11411573469E+01  0.18622944770E+01  0.93800000000E+00 0.  1.
         22    1    1    2    0    0 -0.77107790008E+00  0.33086173118E-01  0.19805974095E+01  0.21256579973E+01  0.00000000000E+00 0. -1.
</event>
<event>
 5    1  0.1160133E+000  0.1599673E+01  0.7818608E-02  0.3353718E+00
         11   -1    0    0    0    0  0.00000000000E+00  0.00000000000E+00  0.39999999674E+01  0.40000000000E+01  0.51100000000E-03 0. -1.
    9000002   -1    0    0    0    0 -0.00000000000E+00 -0.00000000000E+00  0.00000000000E+00  0.93800000000E+00  0.93800000000E+00 0. -1.
         11    1    1    2    0    0  0.13547513131E+00 -0.38993705045E+00  0.86072734947E+00  0.95459742602E+00  0.51100000000E-03 0. -1.
    9000002    1    1    2    0    0 -0.39643811209E+00  0.11504224321E+01  0.14501123198E+01  0.21126534711E+01  0.93800000000E+00 0. -1.
         22    1    1    2    0    0  0.26096298078E+00 -0.76048538170E+00  0.16891602981E+01  0.18707491029E+01  0.00000000000E+00 0. -1.
</event>
<event>
 5    1  0.1160133E+000  0.1599672E+01  0.7818608E-02  0.3353720E+00
         11   -1    0    0    0    0  0.00000000000E+00  0.00000000000E+00  0.39999999674E+01  0.40000000000E+01  0.51100000000E-03 0.  1.
    9000002   -1    0    0    0    0 -0.00000000000E+00 -0.00000000000E+00  0.00000000000E+00  0.93800000000E+00  0.93800000000E+00 0.  1.
         11    1    1    2    0    0  0.52189907463E-05 -0.34676219184E+00  0.50602782685E+00  0.61343984252E+00  0.51100000000E-03 0.  1.
    9000002    1    1    2    0    0 -0.90036960975E-02  0.12945498111E+01  0.21139369037E+01  0.26503798808E+01  0.93800000000E+00 0.  1.
         22    1    1    2    0    0  0.89984771067E-02 -0.94778761927E+00  0.13800352368E+01  0.16741802766E+01  0.00000000000E+00 0.  1.
</event>
<event>
 5    1  0.1160133E+000  0.1596322E+01  0.7818608E-02  0.3357365E+00
         11   -1    0    0    0    0  0.00000000000E+00  0.00000000000E+00  0.39999999674E+01  0.40000000000E+01  0.51100000000E-03 0. -1.
    9000002   -1    0    0    0    0 -0.00000000000E+00 -0.00000000000E+00  0.00000000000E+00  0.93800000000E+00  0.93800000000E+00 0. -1.
         11    1    1    2    0    0 -0.35866866577E+00 -0.48728610024E-01  0.77352286520E+00  0.85402316910E+00  0.51100000000E-03 0. -1.
    9000002    1    1    2    0    0  0.11798105398E+01 -0.41478578350E-01  0.13113743056E+01  0.19983042690E+01  0.93800000000E+00 0. -1.
         22    1    1    2    0    0 -0.82114187399E+00  0.90207188374E-01  0.19151027965E+01  0.20856725619E+01  0.00000000000E+00 0. -1.
</event>
<event>
 5    1  0.1160133E+000  0.1598535E+01  0.7818608E-02  0.3354955E+00
         11   -1    0    0    0    0  0.00000000000E+00  0.00000000000E+00  0.39999999674E+01  0.40000000000E+01  0.51100000000E-03 0. -1.
    9000002   -1    0    0    0    0 -0.00000000000E+00 -0.00000000000E+00  0.00000000000E+00  0.93800000000E+00  0.93800000000E+00 0.  1.
         11    1    1    2    0    0  0.62542174271E-01 -0.53741281570E-01  0.27430546245E+00  0.28643218527E+00  0.51100000000E-03 0. -1.
    9000002    1    1    2    0    0 -0.58888139794E+00  0.84542145324E+00  0.87203521619E+00  0.16437177838E+01  0.93800000000E+00 0.  1.
         22    1    1    2    0    0  0.52633922367E+00 -0.79168017167E+00  0.28536592887E+01  0.30078500309E+01  0.00000000000E+00 0. -1.
</event>
<event>
 5    1  0.1160133E+000  0.1599648E+01  0.7818608E-02  0.3353745E+00
         11   -1    0    0    0    0  0.00000000000E+00  0.00000000000E+00  0.39999999674E+01  0.40000000000E+01  0.51100000000E-03 0. -1.
    9000002   -1    0    0    0    0 -0.00000000000E+00 -0.00000000000E+00  0.00000000000E+00  0.93800000000E+00  0.93800000000E+00 0. -1.
         11    1    1    2    0    0  0.33641999606E+00  0.22294699576E+00  0.13624482620E+01  0.14209677352E+01  0.51100000000E-03 0. -1.
    9000002    1    1    2    0    0 -0.79840012007E+00 -0.54720009190E+00  0.74065971209E+00  0.15379504223E+01  0.93800000000E+00 0. -1.
         22    1    1    2    0    0  0.46198012400E+00  0.32425309614E+00  0.18968919933E+01  0.19790818425E+01  0.00000000000E+00 0.  1.
</event>
<event>
 5    1  0.1160133E+000  0.1599677E+01  0.7818608E-02  0.3353714E+00
         11   -1    0    0    0    0  0.00000000000E+00  0.00000000000E+00  0.39999999674E+01  0.40000000000E+01  0.51100000000E-03 0.  1.
    9000002   -1    0    0    0    0 -0.00000000000E+00 -0.00000000000E+00  0.00000000000E+00  0.93800000000E+00  0.93800000000E+00 0. -1.
         11    1    1    2    0    0  0.28696701835E+00 -0.17437152963E+00  0.11318207925E+01  0.11805820884E+01  0.51100000000E-03 0.  1.
    9000002    1    1    2    0    0 -0.82591398301E+00  0.50170035297E+00  0.73760928205E+00  0.15354962079E+01  0.93800000000E+00 0. -1.
         22    1    1    2    0    0  0.53894696465E+00 -0.32732882334E+00  0.21305698928E+01  0.22219217037E+01  0.00000000000E+00 0.  1.
</event>
<event>
 5    1  0.1160133E+000  0.1599676E+01  0.7818608E-02  0.3353715E+00
         11   -1    0    0    0    0  0.00000000000E+00  0.00000000000E+00  0.39999999674E+01  0.40000000000E+01  0.51100000000E-03 0. -1.
    9000002   -1    0    0    0    0 -0.00000000000E+00 -0.00000000000E+00  0.00000000000E+00  0.93800000000E+00  0.93800000000E+00 0. -1.
         11    1    1    2    0    0  0.30684107284E+00  0.16432173189E-01  0.90319983000E+00  0.95403965029E+00  0.51100000000E-03 0. -1.
    9000002    1    1    2    0    0 -0.10493940896E+01 -0.59147806855E-01  0.91737845409E+00  0.16811167854E+01  0.93800000000E+00 0. -1.
         22    1    1    2    0    0  0.74255301671E+00  0.42715633666E-01  0.21794216833E+01  0.23028435643E+01  0.00000000000E+00 0. -1.
</event>
<event>
 5    1  0.1160133E+000  0.1599665E+01  0.7818608E-02  0.3353727E+00
         11   -1    0    0    0    0  0.00000000000E+00  0.00000000000E+00  0.39999999674E+01  0.40000000000E+01  0.51100000000E-03 0.  1.
    9000002   -1    0    0    0    0 -0.00000000000E+00 -0.00000000000E+00  0.00000000000E+00  0.93800000000E+00  0.93800000000E+00 0. -1.
         11    1    1    2    0    0  0.94250628561E-01 -0.18893810307E+00  0.37637657260E+00  0.43155575920E+00  0.51100000000E-03 0.  1.
    9000002    1    1    2    0    0 -0.56332450322E+00  0.11297537811E+01  0.17114790466E+01  0.23243671459E+01  0.93800000000E+00 0.  1.
         22    1    1    2    0    0  0.46907387466E+00 -0.94081567806E+00  0.19121443482E+01  0.21820770949E+01  0.00000000000E+00 0.  1.
</event>
<event>
 5    1  0.1160133E+000  0.1580397E+01  0.7818608E-02  0.3374918E+00
         11   -1    0    0    0    0  0.00000000000E+00  0.00000000000E+00  0.39999999674E+01  0.40000000000E+01  0.51100000000E-03 0.  1.
    9000002   -1    0    0    0    0 -0.00000000000E+00 -0.00000000000E+00  0.00000000000E+00  0.93800000000E+00  0.93800000000E+00 0.  1.
         11    1    1    2    0    0  0.13919672593E+00  0.31681713235E+00  0.55789616082E+00  0.65650377854E+00  0.51100000000E-03 0.  1.
    9000002    1    1    2    0    0 -0.26139904721E-01 -0.12699200686E+01  0.22967819350E+01  0.27871906164E+01  0.93800000000E+00 0.  1.
         22    1    1    2    0    0 -0.11305682121E+00  0.95310293624E+00  0.11453218716E+01  0.14943056051E+01  0.00000000000E+00 0.  1.
</event>
<event>
 5    1  0.1160133E+000  0.1599677E+01  0.7818608E-02  0.3353714E+00
         11   -1    0    0    0    0  0.00000000000E+00  0.00000000000E+00  0.39999999674E+01  0.40000000000E+01  0.51100000000E-03 0.  1.
    9000002   -1    0    0    0    0 -0.00000000000E+00 -0.00000000000E+00  0.00000000000E+00  0.93800000000E+00  0.93800000000E+00 0.  1.
         11    1    1    2    0    0  0.36355792511E+00 -0.21307449628E+00  0.11748391147E+01  0.12481275225E+01  0.51100000000E-03 0.  1.
    9000002    1    1    2    0    0 -0.93231707804E+00  0.54670610949E+00  0.99076531505E+00  0.17405638781E+01  0.93800000000E+00 0.  1.
         22    1    1    2    0    0  0.56875915293E+00 -0.33363161321E+00  0.18343955376E+01  0.19493085994E+01  0.00000000000E+00 0.  1.
</event>
<event>
 5    1  0.1160133E+000  0.1599657E+01  0.7818608E-02  0.3353736E+00
         11   -1    0    0    0    0  0.00000000000E+00  0.00000000000E+00  0.39999999674E+01  0.40000000000E+01  0.51100000000E-03 0. -1.
    9000002   -1    0    0    0    0 -0.00000000000E+00 -0.00000000000E+00  0.00000000000E+00  0.93800000000E+00  0.93800000000E+00 0.  1.
         11    1    1    2    0    0 -0.24591200497E+00 -0.43305584918E+00  0.12578203159E+01  0.13528201251E+01  0.51100000000E-03 0. -1.
    9000002    1    1    2    0    0  0.56077787746E+00  0.99137572609E+00  0.11561441295E+01  0.18745161793E+01  0.93800000000E+00 0.  1.
         22    1    1    2    0    0 -0.31486587249E+00 -0.55831987691E+00  0.15860355220E+01  0.17106636957E+01  0.00000000000E+00 0. -1.
</event>
<event>
 5    1  0.1160133E+000  0.1599652E+01  0.7818608E-02  0.3353741E+00
         11   -1    0    0    0    0  0.00000000000E+00  0.00000000000E+00  0.39999999674E+01  0.40000000000E+01  0.51100000000E-03 0.  1.
    9000002   -1    0    0    0    0 -0.00000000000E+00 -0.00000000000E+00  0.00000000000E+00  0.93800000000E+00  0.93800000000E+00 0.  1.
         11    1    1    2    0    0 -0.90210321739E-01  0.13040039191E+00  0.51371720701E+00  0.53763165295E+00  0.51100000000E-03 0.  1.
    9000002    1    1    2    0    0  0.58725485824E+00 -0.81446410259E+00  0.81305909257E+00  0.15965992393E+01  0.93800000000E+00 0.  1.
         22    1    1    2    0    0 -0.49704453651E+00  0.68406371068E+00  0.26732236678E+01  0.28037691077E+01  0.00000000000E+00 0.  1.
</event>
<event>
 5    1  0.1160133E+000  0.1590974E+01  0.7818608E-02  0.3363218E+00
         11   -1    0    0    0    0  0.00000000000E+00  0.00000000000E+00  0.39999999674E+01  0.40000000000E+01  0.51100000000E-03 0. -1.
    9000002   -1    0    0    0    0 -0.00000000000E+00 -0.00000000000E+00  0.00000000000E+00  0.93800000000E+00  0.93800000000E+00 0. -1.
         11    1    1    2    0    0  0.39831739876E+00 -0.42007754987E-01  0.91237991568E+00  0.99642298914E+00  0.51100000000E-03 0. -1.
    9000002    1    1    2    0    0 -0.10022219374E+01  0.21242172260E+00  0.87489936922E+00  0.16416043087E+01  0.93800000000E+00 0. -1.
         22    1    1    2    0    0  0.60390453864E+00 -0.17041396761E+00  0.22127206825E+01  0.22999727022E+01  0.00000000000E+00 0. -1.
</event>
<event>
 5    1  0.1160133E+000  0.1599531E+01  0.7818608E-02  0.3353873E+00
         11   -1    0    0    0    0  0.00000000000E+00  0.00000000000E+00  0.39999999674E+01  0.40000000000E+01  0.51100000000E-03 0. -1.
    9000002   -1    0    0    0    0 -0.00000000000E+00 -0.00000000000E+00  0.00000000000E+00  0.93800000000E+00  0.93800000000E+00 0. -1.
         11    1    1    2    0    0 -0.33877224790E+00 -0.30159475643E+00  0.13977922136E+01  0.14695405291E+01  0.51100000000E-03 0. -1.
    9000002    1    1    2    0    0  0.77761924589E+00  0.65165598607E+00  0.83547297586E+00  0.16146845850E+01  0.93800000000E+00 0. -1.
         22    1    1    2    0    0 -0.43884699799E+00 -0.35006122963E+00  0.17667347779E+01  0.18537748859E+01  0.00000000000E+00 0. -1.
</event>
<event>
 5    1  0.1160133E+000  0.1599650E+01  0.7818608E-02  0.3353744E+00
         11   -1    0    0    0    0  0.00000000000E+00  0.00000000000E+00  0.39999999674E+01  0.40000000000E+01  0.51100000000E-03 0. -1.
    9000002   -1    0    0    0    0 -0.00000000000E+00 -0.00000000000E+00  0.00000000000E+00  0.93800000000E+00  0.93800000000E+00 0. -1.
         11    1    1    2    0    0  0.13294791623E+00 -0.70524769752E-01  0.43275538100E+00  0.45817722825E+00  0.51100000000E-03 0. -1.
    9000002    1    1    2    0    0 -0.91736761705E+00  0.51444918519E+00  0.91911993115E+00  0.16825120376E+01  0.93800000000E+00 0. -1.
         22    1    1    2    0    0  0.78441970082E+00 -0.44392441544E+00  0.26481246552E+01  0.27973107341E+01  0.00000000000E+00 0. -1.
</event>
<event>
 5    1  0.1160133E+000  0.1595657E+01  0.7818608E-02  0.3358091E+00
         11   -1    0    0    0    0  0.00000000000E+00  0.00000000000E+00  0.39999999674E+01  0.40000000000E+01  0.51100000000E-03 0.  1.
    9000002   -1    0    0    0    0 -0.00000000000E+00 -0.00000000000E+00  0.00000000000E+00  0.93800000000E+00  0.93800000000E+00 0. -1.
         11    1    1    2    0    0 -0.29672593215E+00  0.24601124526E+00  0.13448562142E+01  0.13990018977E+01  0.51100000000E-03 0.  1.
    9000002    1    1    2    0    0  0.61017268233E+00 -0.74287223661E+00  0.73519861356E+00  0.15311860970E+01  0.93800000000E+00 0. -1.
         22    1    1    2    0    0 -0.31344675017E+00  0.49686099134E+00  0.19199451396E+01  0.20078120054E+01  0.00000000000E+00 0.  1.
</event>
<event>
 5    1  0.1160133E+000  0.1599553E+01  0.7818608E-02  0.3353848E+00
         11   -1    0    0    0    0  0.00000000000E+00  0.00000000000E+00  0.39999999674E+01  0.40000000000E+01  0.51100000000E-03 0. -1.
    9000002   -1    0    0    0    0 -0.00000000000E+00 -0.00000000000E+00  0.00000000000E+00  0.93800000000E+00  0.93800000000E+00 0. -1.
         11    1    1    2    0    0  0.95433870448E-01 -0.12625070698E+00  0.53171535074E+00  0.55476872657E+00  0.51100000000E-03 0. -1.
    9000002    1    1    2    0    0 -0.52983453652E+00  0.79195953178E+00  0.71244620530E+00  0.15150406369E+01  0.93800000000E+00 0. -1.
         22    1    1    2    0    0  0.43440066608E+00 -0.66570882480E+00  0.27558384113E+01  0.28681906365E+01  0.00000000000E+00 0. -1.
</event>
<event>
 5    1  0.1160133E+000  0.1599677E+01  0.7818608E-02  0.3353714E+00
         11   -1    0    0    0    0  0.00000000000E+00  0.00000000000E+00  0.39999999674E+01  0.40000000000E+01  0.51100000000E-03 0. -1.
    9000002   -1    0    0    0    0 -0.00000000000E+00 -0.00000000000E+00  0.00000000000E+00  0.93800000000E+00  0.93800000000E+00 0.  1.
         11    1    1    2    0    0 -0.34220386261E+00 -0.99340969638E-01  0.12446176515E+01  0.12946217484E+01  0.51100000000E-03 0. -1.
    9000002    1    1    2    0    0  0.90757366659E+00  0.26512679859E+00  0.69875609767E+00  0.15040233587E+01  0.93800000000E+00 0.  1.
         22    1    1    2    0    0 -0.56536980398E+00 -0.16578582895E+00  0.20566262182E+01  0.21393548928E+01  0.00000000000E+00 0.  1.
</event>
<event>
 5    1  0.1160133E+000  0.1599676E+01  0.7818608E-02  0.3353716E+00
         11   -1    0    0    0    0  0.00000000000E+00  0.00000000000E+00  0.39999999674E+01  0.40000000000E+01  0.51100000000E-03 0. -1.
    9000002   -1    0    0    0    0 -0.00000000000E+00 -0.00000000000E+00  0.00000000000E+00  0.93800000000E+00  0.93800000000E+00 0. -1.
         11    1    1    2    0    0  0.34309305757E+00  0.34097713484E-01  0.75488701587E+00  0.82989768530E+00  0.51100000000E-03 0. -1.
    9000002    1    1    2    0    0 -0.11952983032E+01 -0.11693284854E+00  0.13801621192E+01  0.20559919261E+01  0.93800000000E+00 0. -1.
         22    1    1    2    0    0  0.85220524566E+00  0.82835135056E-01  0.18649508322E+01  0.20521103886E+01  0.00000000000E+00 0. -1.
</event>
<event>
 5    1  0.1160133E+000  0.1599634E+01  0.7818608E-02  0.3353761E+00
         11   -1    0    0    0    0  0.00000000000E+00  0.00000000000E+00  0.39999999674E+01  0.40000000000E+01  0.51100000000E-03 0.  1.
    9000002   -1    0    0    0    0 -0.00000000000E+00 -0.00000000000E+00  0.00000000000E+00  0.93800000000E+00  0.93800000000E+00 0. -1.
         11    1    1    2    0    0 -0.10257094417E+00 -0.45558885831E+00  0.12144731400E+01  0.13011638157E+01  0.51100000000E-03 0.  1.
    9000002    1    1    2    0    0  0.24542270903E+00  0.11001386678E+01  0.11199033922E+01  0.18451463363E+01  0.93800000000E+00 0. -1.
         22    1    1    2    0    0 -0.14285176486E+00 -0.64454980949E+00  0.16656234352E+01  0.17916898480E+01  0.00000000000E+00 0.  1.
</event>
<event>
 5    1  0.1160133E+000  0.1599667E+01  0.7818608E-02  0.3353725E+00
         11   -1    0    0    0    0  0.00000000000E+00  0.00000000000E+00  0.39999999674E+01  0.40000000000E+01  0.51100000000E-03 0. -1.
    9000002   -1    0    0    0    0 -0.00000000000E+00 -0.00000000000E+00  0.00000000000E+00  0.93800000000E+00  0.93800000000E+00 0.  1.
         11    1    1    2    0    0 -0.13871576351E+00 -0.32464172973E+00  0.85311480325E+00  0.92327647234E+00  0.51100000000E-03 0. -1.
    9000002    1    1    2    0    0  0.45226306329E+00  0.10571756727E+01  0.11910043121E+01  0.19027605086E+01  0.93800000000E+00 0.  1.
         22    1    1    2    0    0 -0.31354729978E+00 -0.73253394302E+00  0.19558808520E+01  0.21119630191E+01  0.00000000000E+00 0. -1.
</event>
<event>
 5    1  0.1160133E+000  0.1599677E+01  0.7818608E-02  0.3353714E+00
         11   -1    0    0    0    0  0.00000000000E+00  0.00000000000E+00  0.39999999674E+01  0.40000000000E+01  0.51100000000E-03 0. -1.
    9000002   -1    0    0    0    0 -0.00000000000E+00 -0.00000000000E+00  0.00000000000E+00  0.93800000000E+00  0.93800000000E+00 0. -1.
         11    1    1    2    0    0 -0.43130964007E+00 -0.28657545486E+00  0.12226703163E+01  0.13278088946E+01  0.51100000000E-03 0. -1.
    9000002    1    1    2    0    0  0.97031455631E+00  0.64669280991E+00  0.12460683013E+01  0.19473705708E+01  0.93800000000E+00 0. -1.
         22    1    1    2    0    0 -0.53900491625E+00 -0.36011735506E+00  0.15312613497E+01  0.16628205346E+01  0.00000000000E+00 0.  1.
</event>
<event>
 5    1  0.1160133E+000  0.1584692E+01  0.7818608E-02  0.3370147E+00
         11   -1    0    0    0    0  0.00000000000E+00  0.00000000000E+00  0.39999999674E+01  0.40000000000E+01  0.51100000000E-03 0.  1.
    9000002   -1    0    0    0    0 -0.00000000000E+00 -0.00000000000E+00  0.00000000000E+00  0.93800000000E+00  0.93800000000E+00 0.  1.
         11    1    1    2    0    0  0.30113143760E-01 -0.16824684889E+00  0.12993911783E+00  0.21470500472E+00  0.51100000000E-03 0.  1.
    9000002    1    1    2    0    0 -0.34098148099E+00  0.12171411972E+01  0.18760952825E+01  0.24489341709E+01  0.93800000000E+00 0.  1.
         22    1    1    2    0    0  0.31086833723E+00 -0.10488943483E+01  0.19939655670E+01  0.22743608244E+01  0.00000000000E+00 0.  1.
</event>
<event>
 5    1  0.1160133E+000  0.1599677E+01  0.7818608E-02  0.3353714E+00
         11   -1    0    0    0    0  0.00000000000E+00  0.00000000000E+00  0.39999999674E+01  0.40000000000E+01  0.51100000000E-03 0. -1.
    9000002   -1    0    0    0    0 -0.00000000000E+00 -0.00000000000E+00  0.00000000000E+00  0.93800000000E+00  0.93800000000E+00 0.  1.
         11    1    1    2    0    0 -0.67877110388E+00  0.13428514645E+00  0.10251317844E+01  0.12367934947E+01  0.51100000000E-03 0. -1.
    9000002    1    1    2    0    0  0.12691120510E+01 -0.25072444315E+00  0.20821081427E+01  0.26246002481E+01  0.93800000000E+00 0.  1.
         22    1    1    2    0    0 -0.59034094708E+00  0.11643929670E+00  0.89276004023E+00  0.10766062572E+01  0.00000000000E+00 0.  1.
</event>
<event>
 5    1  0.1275167E+000  0.1559539E+01  0.7818608E-02  0.3398485E+00
         11   -1    0    0    0    0  0.00000000000E+00  0.00000000000E+00  0.39999999674E+01  0.40000000000E+01  0.51100000000E-03 0. -1.
    9000002   -1    0    0    0    0 -0.00000000000E+00 -0.00000000000E+00  0.00000000000E+00  0.93800000000E+00  0.93800000000E+00 0.  1.
         11    1    1    2    0    0  0.69796577266E-01 -0.31788534143E-01  0.73885862561E+00  0.74282864973E+00  0.51100000000E-03 0. -1.
    9000002    1    1    2    0    0  0.56098258152E+00  0.45690662870E+00  0.42460106377E+00  0.12584097852E+01  0.93800000000E+00 0.  1.
         22    1    1    2    0    0 -0.63077915879E+00 -0.42511809456E+00  0.28365402780E+01  0.29367615651E+01  0.00000000000E+00 0. -1.
</event>
<event>
 5    1  0.1169464E+000  0.1616487E+01  0.7818608E-02  0.3335661E+00
         11   -1    0    0    0    0  0.00000000000E+00  0.00000000000E+00  0.39999999674E+01  0.40000000000E+01  0.51100000000E-03 0.  1.
    9000002   -1    0    0    0    0 -0.00000000000E+00 -0.00000000000E+00  0.00000000000E+00  0.93800000000E+00  0.93800000000E+00 0.  1.
         11    1    1    2    0    0  0.23665166586E+00  0.46470597515E+00  0.12672530186E+01  0.13703598537E+01  0.51100000000E-03 0.  1.
    9000002    1    1    2    0    0  0.23238359495E+00  0.29290047119E+00  0.42816133203E+00  0.10967948520E+01  0.93800000000E+00 0.  1.
         22    1    1    2    0    0 -0.46903526082E+00 -0.75760644634E+00  0.23045856167E+01  0.24708452943E+01  0.00000000000E+00 0.  1.
</event>
<event>
 5    1  0.1160133E+000  0.1573682E+01  0.7818608E-02  0.3382433E+00
         11   -1    0    0    0    0  0.00000000000E+00  0.00000000000E+00  0.39999999674E+01  0.40000000000E+01  0.51100000000E-03 0.  1.
    9000002   -1    0    0    0    0 -0.00000000000E+00 -0.00000000000E+00  0.00000000000E+00  0.93800000000E+00  0.93800000000E+00 0.  1.
         11    1    1    2    0    0 -0.26909645838E+00 -0.15947777928E+00  0.11731653634E+01  0.12141512661E+01  0.51100000000E-03 0.  1.
    9000002    1    1    2    0    0  0.38879863894E+00  0.82206002088E+00  0.67779249875E+00  0.14717994873E+01  0.93800000000E+00 0.  1.
         22    1    1    2    0    0 -0.11970218056E+00 -0.66258224160E+00  0.21490421052E+01  0.22520492465E+01  0.00000000000E+00 0.  1.
</event>
<event>
 5    1  0.1160133E+000  0.1570188E+01  0.7818608E-02  0.3386370E+00
         11   -1    0    0    0    0  0.00000000000E+00  0.00000000000E+00  0.39999999674E+01  0.40000000000E+01  0.51100000000E-03 0.  1.
    9000002   -1    0    0    0    0 -0.00000000000E+00 -0.00000000000E+00  0.00000000000E+00  0.93800000000E+00  0.93800000000E+00 0. -1.
         11    1    1    2    0    0  0.21009274359E+00  0.14687305437E-01  0.22496720386E+00  0.30816421237E+00  0.51100000000E-03 0.  1.
    9000002    1    1    2    0    0 -0.10835830082E+01  0.14562876028E+00  0.11037308952E+01  0.18147798105E+01  0.93800000000E+00 0. -1.
         22    1    1    2    0    0  0.87349026456E+00 -0.16031606572E+00  0.26713018683E+01  0.28150559772E+01  0.00000000000E+00 0.  1.
</event>
<event>
 5    1  0.1160133E+000  0.1599676E+01  0.7818608E-02  0.3353715E+00
         11   -1    0    0    0    0  0.00000000000E+00  0.00000000000E+00  0.39999999674E+01  0.40000000000E+01  0.51100000000E-03 0. -1.
    9000002   -1    0    0    0    0 -0.00000000000E+00 -0.00000000000E+00  0.00000000000E+00  0.93800000000E+00  0.93800000000E+00 0.  1.
         11    1    1    2    0    0 -0.13699311266E+00  0.15089224475E+00  0.50063288379E+00  0.54052671340E+00  0.51100000000E-03 0. -1.
    9000002    1    1    2    0    0  0.77106379870E+00 -0.84705333872E+00  0.11766265116E+01  0.18911194272E+01  0.93800000000E+00 0.  1.
         22    1    1    2    0    0 -0.63407068605E+00  0.69616109397E+00  0.23227405720E+01  0.25063538594E+01  0.00000000000E+00 0. -1.
</event>
<event>
 5    1  0.1160133E+000  0.1599191E+01  0.7818608E-02  0.3354241E+00
         11   -1    0    0    0    0  0.00000000000E+00  0.00000000000E+00  0.39999999674E+01  0.40000000000E+01  0.51100000000E-03 0. -1.
    9000002   -1    0    0    0    0 -0.00000000000E+00 -0.00000000000E+00  0.00000000000E+00  0.93800000000E+00  0.93800000000E+00 0.  1.
         11    1    1    2    0    0 -0.35924434845E+00  0.75746116004E-01  0.13638414983E+01  0.14123943747E+01  0.51100000000E-03 0. -1.
    9000002    1    1    2    0    0  0.90855230372E+00 -0.12747713436E+00  0.65004721673E+00  0.14642824496E+01  0.93800000000E+00 0.  1.
         22    1    1    2    0    0 -0.54930795526E+00  0.51731018359E-01  0.19861112523E+01  0.20613231756E+01  0.00000000000E+00 0.  1.
</event>
<event>
 5    1  0.1160133E+000  0.1599255E+01  0.7818608E-02  0.3354172E+00
         11   -1    0    0    0    0  0.00000000000E+00  0.00000000000E+00  0.39999999674E+01  0.40000000000E+01  0.51100000000E-03 0.  1.
    9000002   -1    0    0    0    0 -0.00000000000E+00 -0.00000000000E+00  0.00000000000E+00  0.93800000000E+00  0.93800000000E+00 0.  1.
         11    1    1    2    0    0  0.26927786018E+00  0.11117562581E+00  0.10791318703E+01  0.11177640361E+01  0.51100000000E-03 0.  1.
    9000002    1    1    2    0    0 -0.85909767855E+00 -0.40207476618E+00  0.70500221083E+00  0.15088356624E+01  0.93800000000E+00 0.  1.
         22    1    1    2    0    0  0.58981981837E+00  0.29089914037E+00  0.22158658862E+01  0.23114003015E+01  0.00000000000E+00 0.  1.
</event>
<event>
 5    1  0.1160133E+000  0.1573506E+01  0.7818608E-02  0.3382630E+00
         11   -1    0    0    0    0  0.00000000000E+00  0.00000000000E+00  0.39999999674E+01  0.40000000000E+01  0.51100000000E-03 0. -1.
    9000002   -1    0    0    0    0 -0.00000000000E+00 -0.00000000000E+00  0.00000000000E+00  0.93800000000E+00  0.93800000000E+00 0. -1.
         11    1    1    2    0    0  0.21277259956E+00 -0.56508592861E-01 -0.54499740843E-01  0.22679480387E+00  0.51100000000E-03 0. -1.
    9000002    1    1    2    0    0  0.17703127986E+00  0.88764910261E+00  0.14505800907E+01  0.19502019390E+01  0.93800000000E+00 0. -1.
         22    1    1    2    0    0 -0.38980387942E+00 -0.83114050975E+00  0.26039196175E+01  0.27610032571E+01  0.00000000000E+00 0. -1.
</event>
<event>
 5    1  0.1160133E+000  0.1597795E+01  0.7818608E-02  0.3355761E+00
         11   -1    0    0    0    0  0.00000000000E+00  0.00000000000E+00  0.39999999674E+01  0.40000000000E+01  0.51100000000E-03 0.  1.
    9000002   -1    0    0    0    0 -0.00000000000E+00 -0.00000000000E+00  0.00000000000E+00  0.93800000000E+00  0.93800000000E+00 0.  1.
         11    1    1    2    0    0 -0.15583028192E+00  0.91771126337E-01  0.58468600922E+00  0.61201552831E+00  0.51100000000E-03 0.  1.
    9000002    1    1    2    0    0  0.72642143049E+00 -0.68328521725E+00  0.80248441753E+00  0.15869442407E+01  0.93800000000E+00 0.  1.
         22    1    1    2    0    0 -0.57059114857E+00  0.59151409091E+00  0.26128295406E+01  0.27390402310E+01  0.00000000000E+00 0.  1.
</event>
<event>
 5    1  0.1160133E+000  0.1599677E+01  0.7818608E-02  0.3353714E+00
         11   -1    0    0    0    0  0.00000000000E+00  0.00000000000E+00  0.39999999674E+01  0.40000000000E+01  0.51100000000E-03 0. -1.
    9000002   -1    0    0    0    0 -0.00000000000E+00 -0.00000000000E+00  0.00000000000E+00  0.93800000000E+00  0.93800000000E+00 0. -1.
         11    1    1    2    0    0 -0.55208434817E+00  0.12332364343E+00  0.10966877615E+01  0.12339895283E+01  0.51100000000E-03 0. -1.
    9000002    1    1    2    0    0  0.12132904848E+01 -0.27210944990E+00  0.15879295681E+01  0.22242935207E+01  0.93800000000E+00 0. -1.
         22    1    1    2    0    0 -0.66120613662E+00  0.14878580646E+00  0.13153826377E+01  0.14797169510E+01  0.00000000000E+00 0. -1.
</event>
<event>
 5    1  0.1160133E+000  0.1598906E+01  0.7818608E-02  0.3354552E+00
         11   -1    0    0    0    0  0.00000000000E+00  0.00000000000E+00  0.39999999674E+01  0.40000000000E+01  0.51100000000E-03 0. -1.
    9000002   -1    0    0    0    0 -0.00000000000E+00 -0.00000000000E+00  0.00000000000E+00  0.93800000000E+00  0.93800000000E+00 0. -1.
         11    1    1    2    0    0  0.62920009679E-02 -0.17045230086E+00  0.75033853141E+00  0.76948148060E+00  0.51100000000E-03 0. -1.
    9000002    1    1    2    0    0 -0.86502531321E-01  0.88606814702E+00  0.60532325557E+00  0.14278864426E+01  0.93800000000E+00 0. -1.
         22    1    1    2    0    0  0.80210530353E-01 -0.71561584616E+00  0.26443381804E+01  0.27406320769E+01  0.00000000000E+00 0. -1.
</event>
<event>
 5    1  0.1160133E+000  0.1596616E+01  0.7818608E-02  0.3357044E+00
         11   -1    0    0    0    0  0.00000000000E+00  0.00000000000E+00  0.39999999674E+01  0.40000000000E+01  0.51100000000E-03 0.  1.
    9000002   -1    0    0    0    0 -0.00000000000E+00 -0.00000000000E+00  0.00000000000E+00  0.93800000000E+00  0.93800000000E+00 0. -1.
         11    1    1    2    0    0  0.14515566451E+00  0.12706548088E+00  0.56471812906E+00  0.59676011075E+00  0.51100000000E-03 0.  1.
    9000002    1    1    2    0    0 -0.84581532774E+00 -0.44219568705E+00  0.72048468116E+00  0.15198298491E+01  0.93800000000E+00 0. -1.
         22    1    1    2    0    0  0.70065966323E+00  0.31513020617E+00  0.27147971571E+01  0.28214100402E+01  0.00000000000E+00 0.  1.
</event>
<event>
 5    1  0.1160133E+000  0.1599653E+01  0.7818608E-02  0.3353740E+00
         11   -1    0    0    0    0  0.00000000000E+00  0.00000000000E+00  0.39999999674E+01  0.40000000000E+01  0.51100000000E-03 0.  1.
    9000002   -1    0    0    0    0 -0.00000000000E+00 -0.00000000000E+00  0.00000000000E+00  0.93800000000E+00  0.93800000000E+00 0.  1.
         11    1    1    2    0    0  0.41386330347E+00  0.36458115843E-02  0.12192680524E+01  0.12875989168E+01  0.51100000000E-03 0.  1.
    9000002    1    1    2    0    0 -0.10506252621E+01 -0.23129031043E-01  0.91700324399E+00  0.16807996141E+01  0.93800000000E+00 0.  1.
         22    1    1    2    0    0  0.63676195862E+00  0.19483219459E-01  0.18637286710E+01  0.19696014690E+01  0.00000000000E+00 0.  1.
</event>
<event>
 5    1  0.1160133E+000  0.1599630E+01  0.7818608E-02  0.3353766E+00
         11   -1    0    0    0    0  0.00000000000E+00  0.00000000000E+00  0.39999999674E+01  0.40000000000E+01  0.51100000000E-03 0. -1.
    9000002   -1    0    0    0    0 -0.00000000000E+00 -0.00000000000E+00  0.00000000000E+00  0.93800000000E+00  0.93800000000E+00 0. -1.
         11    1    1    2    0    0 -0.43021237890E-01 -0.12728968240E-02  0.12900239101E+00  0.13599384245E+00  0.51100000000E-03 0. -1.
    9000002    1    1    2    0    0  0.10713633893E+01  0.80876747358E-01  0.97459465519E+00  0.17274372064E+01  0.93800000000E+00 0. -1.
         22    1    1    2    0    0 -0.10283421514E+01 -0.79603850534E-01  0.28964029212E+01  0.30745689511E+01  0.00000000000E+00 0. -1.
</event>
<event>
 5    1  0.1160133E+000  0.1599663E+01  0.7818608E-02  0.3353730E+00
         11   -1    0    0    0    0  0.00000000000E+00  0.00000000000E+00  0.39999999674E+01  0.40000000000E+01  0.51100000000E-03 0.  1.
    9000002   -1    0    0    0    0 -0.00000000000E+00 -0.00000000000E+00  0.00000000000E+00  0.93800000000E+00  0.93800000000E+00 0. -1.
         11    1    1    2    0    0 -0.10745925604E-01  0.15768786814E+00  0.53933816045E+00  0.56202032980E+00  0.51100000000E-03 0.  1.
    9000002    1    1    2    0    0  0.73667384587E-01 -0.96959645602E+00  0.74924402542E+00  0.15449125479E+01  0.93800000000E+00 0. -1.
         22    1    1    2    0    0 -0.62921458983E-01  0.81190858788E+00  0.27114177815E+01  0.28310671223E+01  0.00000000000E+00 0.  1.
</event>
<event>
 5    1  0.1160133E+000  0.1599474E+01  0.7818608E-02  0.3353935E+00
         11   -1    0    0    0    0  0.00000000000E+00  0.00000000000E+00  0.39999999674E+01  0.40000000000E+01  0.51100000000E-03 0.  1.
    9000002   -1    0    0    0    0 -0.00000000000E+00 -0.00000000000E+00  0.00000000000E+00  0.93800000000E+00  0.93800000000E+00 0.  1.
         11    1    1    2    0    0  0.11868448831E+00 -0.69344785721E+00  0.12861636034E+01  0.14660058029E+01  0.51100000000E-03 0.  1.
    9000002    1    1    2    0    0 -0.18365979809E+00  0.12483594713E+01  0.17084967323E+01  0.23218392226E+01  0.93800000000E+00 0.  1.
         22    1    1    2    0    0  0.64975309777E-01 -0.55491161413E+00  0.10053396317E+01  0.11501549745E+01  0.00000000000E+00 0. -1.
</event>
<event>
 5    1  0.1160133E+000  0.1598366E+01  0.7818608E-02  0.3355139E+00
         11   -1    0    0    0    0  0.00000000000E+00  0.00000000000E+00  0.39999999674E+01  0.40000000000E+01  0.51100000000E-03 0. -1.
    9000002   -1    0    0    0    0 -0.00000000000E+00 -0.00000000000E+00  0.00000000000E+00  0.93800000000E+00  0.93800000000E+00 0.  1.
         11    1    1    2    0    0  0.77638178999E-01 -0.15171348629E+00  0.73658089457E+00  0.75603990909E+00  0.51100000000E-03 0. -1.
    9000002    1    1    2    0    0 -0.52436688967E+00  0.71836568437E+00  0.60470141918E+00  0.14270661154E+01  0.93800000000E+00 0.  1.
         22    1    1    2    0    0  0.44672871067E+00 -0.56665219808E+00  0.26587176536E+01  0.27548939755E+01  0.00000000000E+00 0. -1.
</event>
<event>
 5    1  0.1160133E+000  0.1592256E+01  0.7818608E-02  0.3361811E+00
         11   -1    0    0    0    0  0.00000000000E+00  0.00000000000E+00  0.39999999674E+01  0.40000000000E+01  0.51100000000E-03 0. -1.
    9000002   -1    0    0    0    0 -0.00000000000E+00 -0.00000000000E+00  0.00000000000E+00  0.93800000000E+00  0.93800000000E+00 0. -1.
         11    1    1    2    0    0  0.32718791005E+00 -0.63087663330E-01  0.89409238667E+00  0.95416635802E+00  0.51100000000E-03 0. -1.
    9000002    1    1    2    0    0 -0.90640229434E+00  0.44348053745E+00  0.83830053624E+00  0.16127094888E+01  0.93800000000E+00 0. -1.
         22    1    1    2    0    0  0.57921438429E+00 -0.38039287412E+00  0.22676070445E+01  0.23711241532E+01  0.00000000000E+00 0. -1.
</event>
<event>
 5    1  0.1160133E+000  0.1599634E+01  0.7818608E-02  0.3353761E+00
         11   -1    0    0    0    0  0.00000000000E+00  0.00000000000E+00  0.39999999674E+01  0.40000000000E+01  0.51100000000E-03 0.  1.
    9000002   -1    0    0    0    0 -0.00000000000E+00 -0.00000000000E+00  0.00000000000E+00  0.93800000000E+00  0.93800000000E+00 0.  1.
         11    1    1    2    0    0  0.11462064979E-01  0.90176212912E-01  0.32692323955E+00  0.33932608798E+00  0.51100000000E-03 0.  1.
    9000002    1    1    2    0    0 -0.11295363051E+00 -0.95274406245E+00  0.72455006469E+00  0.15248923134E+01  0.93800000000E+00 0.  1.
         22    1    1    2    0    0  0.10149156553E+00  0.86256784954E+00  0.29485266631E+01  0.30737815986E+01  0.00000000000E+00 0.  1.
</event>
<event>
 5    1  0.1160133E+000  0.1599636E+01  0.7818608E-02  0.3353759E+00
         11   -1    0    0    0    0  0.00000000000E+00  0.00000000000E+00  0.39999999674E+01  0.40000000000E+01  0.51100000000E-03 0. -1.
    9000002   -1    0    0    0    0 -0.00000000000E+00 -0.00000000000E+00  0.00000000000E+00  0.93800000000E+00  0.93800000000E+00 0.  1.
         11    1    1    2    0    0 -0.12210232236E+00 -0.14168432975E+00  0.68336338292E+00  0.70849784803E+00  0.51100000000E-03 0. -1.
    9000002    1    1    2    0    0  0.57963288675E+00  0.71792736748E+00  0.65837963153E+00  0.14712925364E+01  0.93800000000E+00 0.  1.
         22    1    1    2    0    0 -0.45753056439E+00 -0.57624303772E+00  0.26582569529E+01  0.27582096156E+01  0.00000000000E+00 0. -1.
</event>
<event>
 5    1  0.1160133E+000  0.1599623E+01  0.7818608E-02  0.3353773E+00
         11   -1    0    0    0    0  0.00000000000E+00  0.00000000000E+00  0.39999999674E+01  0.40000000000E+01  0.51100000000E-03 0. -1.
    9000002   -1    0    0    0    0 -0.00000000000E+00 -0.00000000000E+00  0.00000000000E+00  0.93800000000E+00  0.93800000000E+00 0. -1.
         11    1    1    2    0    0 -0.21709637976E+00  0.28897938477E+00  0.13357167789E+01  0.13837555772E+01  0.51100000000E-03 0. -1.
    9000002    1    1    2    0    0  0.55949145367E+00 -0.73663796436E+00  0.66240964017E+00  0.14745496630E+01  0.93800000000E+00 0. -1.
         22    1    1    2    0    0 -0.34239507391E+00  0.44765857959E+00  0.20018735483E+01  0.20796947598E+01  0.00000000000E+00 0. -1.
</event>
<event>
 5    1  0.1160133E+000  0.1599677E+01  0.7818608E-02  0.3353714E+00
         11   -1    0    0    0    0  0.00000000000E+00  0.00000000000E+00  0.39999999674E+01  0.40000000000E+01  0.51100000000E-03 0. -1.
    9000002   -1    0    0    0    0 -0.00000000000E+00 -0.00000000000E+00  0.00000000000E+00  0.93800000000E+00  0.93800000000E+00 0. -1.
         11    1    1    2    0    0  0.21617078592E-01 -0.27159028852E+00  0.85420942665E+00  0.89660615021E+00  0.51100000000E-03 0. -1.
    9000002    1    1    2    0    0 -0.79454815617E-01  0.10080314298E+01  0.82789346390E+00  0.16086304792E+01  0.93800000000E+00 0.  1.
         22    1    1    2    0    0  0.57837737025E-01 -0.73644114127E+00  0.23178970768E+01  0.24327633705E+01  0.00000000000E+00 0. -1.
</event>
<event>
 5    1  0.1247356E+000  0.1522899E+01  0.7818608E-02  0.3441547E+00
         11   -1    0    0    0    0  0.00000000000E+00  0.00000000000E+00  0.39999999674E+01  0.40000000000E+01  0.51100000000E-03 0. -1.
    9000002   -1    0    0    0    0 -0.00000000000E+00 -0.00000000000E+00  0.00000000000E+00  0.93800000000E+00  0.93800000000E+00 0.  1.
         11    1    1    2    0    0 -0.17151134414E-01  0.12398329796E+00  0.10420264241E+01  0.10495167217E+01  0.51100000000E-03 0. -1.
    9000002    1    1    2    0    0 -0.36278542976E+00  0.53368134987E+00  0.37895497321E+00  0.11999499669E+01  0.93800000000E+00 0.  1.
         22    1    1    2    0    0  0.37993656418E+00 -0.65766464783E+00  0.25790185701E+01  0.26885333114E+01  0.00000000000E+00 0. -1.
</event>
<event>
 5    1  0.1160133E+000  0.1599677E+01  0.7818608E-02  0.3353714E+00
         11   -1    0    0    0    0  0.00000000000E+00  0.00000000000E+00  0.39999999674E+01  0.40000000000E+01  0.51100000000E-03 0. -1.
    9000002   -1    0    0    0    0 -0.00000000000E+00 -0.00000000000E+00  0.00000000000E+00  0.93800000000E+00  0.93800000000E+00 0. -1.
         11    1    1    2    0    0  0.31121163957E+00  0.13545936859E+00  0.77307955080E+00  0.84430692176E+00  0.51100000000E-03 0. -1.
    9000002    1    1    2    0    0 -0.10852394011E+01 -0.47188216692E+00  0.13095608017E+01  0.19988023490E+01  0.93800000000E+00 0. -1.
         22    1    1    2    0    0  0.77402776148E+00  0.33642279833E+00  0.19173596148E+01  0.20948907292E+01  0.00000000000E+00 0. -1.
</event>
<event>
 5    1  0.1160133E+000  0.1586312E+01  0.7818608E-02  0.3368355E+00
         11   -1    0    0    0    0  0.00000000000E+00  0.00000000000E+00  0.39999999674E+01  0.40000000000E+01  0.51100000000E-03 0.  1.
    9000002   -1    0    0    0    0 -0.00000000000E+00 -0.00000000000E+00  0.00000000000E+00  0.93800000000E+00  0.93800000000E+00 0. -1.
         11    1    1    2    0    0  0.29144106786E-01  0.38692214045E-02  0.44402979972E-01  0.53256319681E-01  0.51100000000E-03 0.  1.
    9000002    1    1    2    0    0 -0.65107995011E-01  0.97564054641E+00  0.78466522220E+00  0.15657768161E+01  0.93800000000E+00 0. -1.
         22    1    1    2    0    0  0.35963888224E-01 -0.97950976781E+00  0.31709317652E+01  0.33189668642E+01  0.00000000000E+00 0.  1.
</event>
<event>
 5    1  0.1160133E+000  0.1535771E+01  0.7818608E-02  0.3426168E+00
         11   -1    0    0    0    0  0.00000000000E+00  0.00000000000E+00  0.39999999674E+01  0.40000000000E+01  0.51100000000E-03 0.  1.
    9000002   -1    0    0    0    0 -0.00000000000E+00 -0.00000000000E+00  0.00000000000E+00  0.93800000000E+00  0.93800000000E+00 0.  1.
         11    1    1    2    0    0 -0.22451663098E+00 -0.10079949492E+00  0.16275792038E+00  0.29505704115E+00  0.51100000000E-03 0.  1.
    9000002    1    1    2    0    0 -0.65818372997E+00 -0.51510168178E+00  0.99150034108E+00  0.16004538392E+01  0.93800000000E+00 0.  1.
         22    1    1    2    0    0  0.88270036095E+00  0.61590117670E+00  0.28457417059E+01  0.30424891197E+01  0.00000000000E+00 0.  1.
</event>
<event>
 5    1  0.1160133E+000  0.1573585E+01  0.7818608E-02  0.3382542E+00
         11   -1    0    0    0    0  0.00000000000E+00  0.00000000000E+00  0.39999999674E+01  0.40000000000E+01  0.51100000000E-03 0.  1.
    9000002   -1    0    0    0    0 -0.00000000000E+00 -0.00000000000E+00  0.00000000000E+00  0.93800000000E+00  0.93800000000E+00 0.  1.
         11    1    1    2    0    0 -0.19425392888E+00  0.44072101065E+00  0.10787715301E+01  0.11814050421E+01  0.51100000000E-03 0.  1.
    9000002    1    1    2    0    0  0.36056686053E+00 -0.12087519500E+01  0.20504410029E+01  0.25836489785E+01  0.93800000000E+00 0.  1.
         22    1    1    2    0    0 -0.16631293166E+00  0.76803093931E+00  0.87078743430E+00  0.11729459795E+01  0.00000000000E+00 0. -1.
</event>
<event>
 5    1  0.1160133E+000  0.1599677E+01  0.7818608E-02  0.3353714E+00
         11   -1    0    0    0    0  0.00000000000E+00  0.00000000000E+00  0.39999999674E+01  0.40000000000E+01  0.51100000000E-03 0. -1.
    9000002   -1    0    0    0    0 -0.00000000000E+00 -0.00000000000E+00  0.00000000000E+00  0.93800000000E+00  0.93800000000E+00 0.  1.
         11    1    1    2    0    0 -0.17969615061E+00 -0.27025786546E+00  0.12066926917E+01  0.12495749413E+01  0.51100000000E-03 0. -1.
    9000002    1    1    2    0    0  0.50088731474E+00  0.75481752785E+00  0.62974939733E+00  0.14481249621E+01  0.93800000000E+00 0.  1.
         22    1    1    2    0    0 -0.32119116414E+00 -0.48455966239E+00  0.21635578783E+01  0.22403000966E+01  0.00000000000E+00 0. -1.
</event>
<event>
 5    1  0.1160133E+000  0.1559438E+01  0.7818608E-02  0.3398600E+00
         11   -1    0    0    0    0  0.00000000000E+00  0.00000000000E+00  0.39999999674E+01  0.40000000000E+01  0.51100000000E-03 0. -1.
    9000002   -1    0    0    0    0 -0.00000000000E+00 -0.00000000000E+00  0.00000000000E+00  0.93800000000E+00  0.93800000000E+00 0. -1.
         11    1    1    2    0    0 -0.24256696670E+00 -0.88500717886E-01  0.50087747738E+00  0.56351541138E+00  0.51100000000E-03 0. -1.
    9000002    1    1    2    0    0  0.94225032410E+00 -0.42950853172E+00  0.97314009574E+00  0.17026916626E+01  0.93800000000E+00 0. -1.
         22    1    1    2    0    0 -0.69968335740E+00  0.51800924960E+00  0.25259823942E+01  0.26717929260E+01  0.00000000000E+00 0. -1.
</event>
<event>
 5    1  0.1160133E+000  0.1583720E+01  0.7818608E-02  0.3371225E+00
         11   -1    0    0    0    0  0.00000000000E+00  0.00000000000E+00  0.39999999674E+01  0.40000000000E+01  0.51100000000E-03 0.  1.
    9000002   -1    0    0    0    0 -0.00000000000E+00 -0.00000000000E+00  0.00000000000E+00  0.93800000000E+00  0.93800000000E+00 0.  1.
         11    1    1    2    0    0  0.31034984527E+00 -0.10270308360E+00  0.73280516173E+00  0.80241424216E+00  0.51100000000E-03 0.  1.
    9000002    1    1    2    0    0 -0.10521510270E+01 -0.69246388827E-01  0.96219190115E+00  0.17080615038E+01  0.93800000000E+00 0.  1.
         22    1    1    2    0    0  0.74180118178E+00  0.17194947243E+00  0.23050029045E+01  0.24275242540E+01  0.00000000000E+00 0.  1.
</event>
<event>
 5    1  0.1160133E+000  0.1482348E+01  0.7818608E-02  0.3491872E+00
         11   -1    0    0    0    0  0.00000000000E+00  0.00000000000E+00  0.39999999674E+01  0.40000000000E+01  0.51100000000E-03 0. -1.
    9000002   -1    0    0    0    0 -0.00000000000E+00 -0.00000000000E+00  0.00000000000E+00  0.93800000000E+00  0.93800000000E+00 0.  1.
         11    1    1    2    0    0  0.17547536674E+00 -0.32869596568E+00  0.12326361693E+01  0.12877207885E+01  0.51100000000E-03 0. -1.
    9000002    1    1    2    0    0  0.50225794067E+00  0.43470630964E+00  0.45137190299E+00  0.12348332719E+01  0.93800000000E+00 0.  1.
         22    1    1    2    0    0 -0.67773330741E+00 -0.10601034395E+00  0.23159918951E+01  0.24154459396E+01  0.00000000000E+00 0. -1.
</event>
<event>
 5    1  0.1160133E+000  0.1599674E+01  0.7818608E-02  0.3353717E+00
         11   -1    0    0    0    0  0.00000000000E+00  0.00000000000E+00  0.39999999674E+01  0.40000000000E+01  0.51100000000E-03 0.  1.
    9000002   -1    0    0    0    0 -0.00000000000E+00 -0.00000000000E+00  0.00000000000E+00  0.93800000000E+00  0.93800000000E+00 0. -1.
         11    1    1    2    0    0 -0.57419100721E-01 -0.20173811683E+00  0.72331427134E+00  0.75311288474E+00  0.51100000000E-03 0.  1.
    9000002    1    1    2    0    0  0.26727199327E+00  0.91348667517E+00  0.71026549095E+00  0.15133450670E+01  0.93800000000E+00 0. -1.
         22    1    1    2    0    0 -0.20985289255E+00 -0.71174855833E+00  0.25664202051E+01  0.26715420483E+01  0.00000000000E+00 0.  1.
</event>
<event>
 5    1  0.1160133E+000  0.1599675E+01  0.7818608E-02  0.3353716E+00
         11   -1    0    0    0    0  0.00000000000E+00  0.00000000000E+00  0.39999999674E+01  0.40000000000E+01  0.51100000000E-03 0. -1.
    9000002   -1    0    0    0    0 -0.00000000000E+00 -0.00000000000E+00  0.00000000000E+00  0.93800000000E+00  0.93800000000E+00 0. -1.
         11    1    1    2    0    0 -0.15460807960E+00  0.31251710154E-01  0.33102670400E+00  0.36668687944E+00  0.51100000000E-03 0. -1.
    9000002    1    1    2    0    0  0.11923963418E+01 -0.23446626252E+00  0.14427666056E+01  0.21067042846E+01  0.93800000000E+00 0. -1.
         22    1    1    2    0    0 -0.10377882622E+01  0.20321455237E+00  0.22262066578E+01  0.24646088360E+01  0.00000000000E+00 0. -1.
</event>
<event>
 5    1  0.1160133E+000  0.1599645E+01  0.7818608E-02  0.3353748E+00
         11   -1    0    0    0    0  0.00000000000E+00  0.00000000000E+00  0.39999999674E+01  0.40000000000E+01  0.51100000000E-03 0.  1.
    9000002   -1    0    0    0    0 -0.00000000000E+00 -0.00000000000E+00  0.00000000000E+00  0.93800000000E+00  0.93800000000E+00 0. -1.
         11    1    1    2    0    0  0.10947575450E+00  0.35247936575E-01  0.39203751123E+00  0.40855970089E+00  0.51100000000E-03 0.  1.
    9000002    1    1    2    0    0 -0.91171557604E+00 -0.26039724770E+00  0.70367701799E+00  0.15079911684E+01  0.93800000000E+00 0. -1.
         22    1    1    2    0    0  0.80223982153E+00  0.22514931112E+00  0.29042854381E+01  0.30214491307E+01  0.00000000000E+00 0.  1.
</event>
<event>
 5    1  0.1160133E+000  0.1587130E+01  0.7818608E-02  0.3367451E+00
         11   -1    0    0    0    0  0.00000000000E+00  0.00000000000E+00  0.39999999674E+01  0.40000000000E+01  0.51100000000E-03 0.  1.
    9000002   -1    0    0    0    0 -0.00000000000E+00 -0.00000000000E+00  0.00000000000E+00  0.93800000000E+00  0.93800000000E+00 0.  1.
         11    1    1    2    0    0 -0.68350541917E-01 -0.13275665041E+00  0.10260627309E+01  0.10368708279E+01  0.51100000000E-03 0.  1.
    9000002    1    1    2    0    0  0.26144992748E+00  0.85265253209E+00  0.62602110011E+00  0.14377478301E+01  0.93800000000E+00 0.  1.
         22    1    1    2    0    0 -0.19309938556E+00 -0.71989588167E+00  0.23479161363E+01  0.24633813420E+01  0.00000000000E+00 0.  1.
</event>
<event>
 5    1  0.1160133E+000  0.1589857E+01  0.7818608E-02  0.3364446E+00
         11   -1    0    0    0    0  0.00000000000E+00  0.00000000000E+00  0.39999999674E+01  0.40000000000E+01  0.51100000000E-03 0.  1.
    9000002   -1    0    0    0    0 -0.00000000000E+00 -0.00000000000E+00  0.00000000000E+00  0.93800000000E+00  0.93800000000E+00 0. -1.
         11    1    1    2    0    0  0.21164936253E+00  0.10725172140E+00  0.82392664646E+00  0.85741108243E+00  0.51100000000E-03 0.  1.
    9000002    1    1    2    0    0 -0.71022914009E+00 -0.78580070143E+00  0.95958364259E+00  0.17095475837E+01  0.93800000000E+00 0. -1.
         22    1    1    2    0    0  0.49857977756E+00  0.67854898004E+00  0.22164896783E+01  0.23710413339E+01  0.00000000000E+00 0.  1.
</event>
<event>
 5    1  0.1160133E+000  0.1599408E+01  0.7818608E-02  0.3354006E+00
         11   -1    0    0    0    0  0.00000000000E+00  0.00000000000E+00  0.39999999674E+01  0.40000000000E+01  0.51100000000E-03 0.  1.
    9000002   -1    0    0    0    0 -0.00000000000E+00 -0.00000000000E+00  0.00000000000E+00  0.93800000000E+00  0.93800000000E+00 0.  1.
         11    1    1    2    0    0  0.40628328743E+00 -0.14834375719E+00  0.95929162385E+00  0.10522892476E+01  0.51100000000E-03 0.  1.
    9000002    1    1    2    0    0 -0.10987257211E+01  0.41016052414E+00  0.12710252882E+01  0.19674295792E+01  0.93800000000E+00 0.  1.
         22    1    1    2    0    0  0.69244243363E+00 -0.26181676695E+00  0.17696830553E+01  0.19182811732E+01  0.00000000000E+00 0.  1.
</event>
<event>
 5    1  0.1160133E+000  0.1598089E+01  0.7818608E-02  0.3355440E+00
         11   -1    0    0    0    0  0.00000000000E+00  0.00000000000E+00  0.39999999674E+01  0.40000000000E+01  0.51100000000E-03 0.  1.
    9000002   -1    0    0    0    0 -0.00000000000E+00 -0.00000000000E+00  0.00000000000E+00  0.93800000000E+00  0.93800000000E+00 0.  1.
         11    1    1    2    0    0 -0.11225388889E+00 -0.33273760058E+00  0.13122133009E+01  0.13583884771E+01  0.51100000000E-03 0.  1.
    9000002    1    1    2    0    0  0.40401130119E+00  0.83359446580E+00  0.66720825250E+00  0.14775370442E+01  0.93800000000E+00 0.  1.
         22    1    1    2    0    0 -0.29175741230E+00 -0.50085686522E+00  0.20205784139E+01  0.21020744787E+01  0.00000000000E+00 0.  1.
</event>
<event>
 5    1  0.1160133E+000  0.1594806E+01  0.7818608E-02  0.3359020E+00
         11   -1    0    0    0    0  0.00000000000E+00  0.00000000000E+00  0.39999999674E+01  0.40000000000E+01  0.51100000000E-03 0. -1.
    9000002   -1    0    0    0    0 -0.00000000000E+00 -0.00000000000E+00  0.00000000000E+00  0.93800000000E+00  0.93800000000E+00 0.  1.
         11    1    1    2    0    0 -0.19113935827E+00 -0.36317315368E-01  0.53242797179E+00  0.56686242417E+00  0.51100000000E-03 0. -1.
    9000002    1    1    2    0    0  0.94527697620E+00  0.54111139831E+00  0.10250531358E+01  0.17654823812E+01  0.93800000000E+00 0.  1.
         22    1    1    2    0    0 -0.75413761793E+00 -0.50479408294E+00  0.24425188598E+01  0.26056551946E+01  0.00000000000E+00 0. -1.
</event>
<event>
 5    1  0.1160133E+000  0.1599673E+01  0.7818608E-02  0.3353718E+00
         11   -1    0    0    0    0  0.00000000000E+00  0.00000000000E+00  0.39999999674E+01  0.40000000000E+01  0.51100000000E-03 0.  1.
    9000002   -1    0    0    0    0 -0.00000000000E+00 -0.00000000000E+00  0.00000000000E+00  0.93800000000E+00  0.93800000000E+00 0.  1.
         11    1    1    2    0    0 -0.51587238464E-01  0.23029572107E+00  0.63794063849E+00  0.68019547314E+00  0.51100000000E-03 0.  1.
    9000002    1    1    2    0    0  0.23393528103E+00 -0.10753058573E+01  0.10430767077E+01  0.17829361796E+01  0.93800000000E+00 0.  1.
         22    1    1    2    0    0 -0.18234804257E+00  0.84501013622E+00  0.23189826212E+01  0.24748683472E+01  0.00000000000E+00 0.  1.
</event>
<event>
 5    1  0.1160133E+000  0.1599675E+01  0.7818608E-02  0.3353716E+00
         11   -1    0    0    0    0  0.00000000000E+00  0.00000000000E+00  0.39999999674E+01  0.40000000000E+01  0.51100000000E-03 0. -1.
    9000002   -1    0    0    0    0 -0.00000000000E+00 -0.00000000000E+00  0.00000000000E+00  0.93800000000E+00  0.93800000000E+00 0. -1.
         11    1    1    2    0    0 -0.15060448159E+00 -0.14813369159E+00  0.72322740400E+00  0.75344770188E+00  0.51100000000E-03 0. -1.
    9000002    1    1    2    0    0  0.67824851165E+00  0.67561837714E+00  0.72056790527E+00  0.15216909480E+01  0.93800000000E+00 0. -1.
         22    1    1    2    0    0 -0.52764403006E+00 -0.52748468555E+00  0.25562046581E+01  0.26628613501E+01  0.00000000000E+00 0. -1.
</event>
<event>
 5    1  0.1160133E+000  0.1594531E+01  0.7818608E-02  0.3359321E+00
         11   -1    0    0    0    0  0.00000000000E+00  0.00000000000E+00  0.39999999674E+01  0.40000000000E+01  0.51100000000E-03 0. -1.
    9000002   -1    0    0    0    0 -0.00000000000E+00 -0.00000000000E+00  0.00000000000E+00  0.93800000000E+00  0.93800000000E+00 0. -1.
         11    1    1    2    0    0 -0.18578173044E+00  0.36666636745E+00  0.90349812262E+00  0.99260676760E+00  0.51100000000E-03 0. -1.
    9000002    1    1    2    0    0  0.64755841737E+00 -0.10792078341E+01  0.17244644882E+01  0.23318754735E+01  0.93800000000E+00 0. -1.
         22    1    1    2    0    0 -0.46177668693E+00  0.71254146668E+00  0.13720373566E+01  0.16135177589E+01  0.00000000000E+00 0. -1.
</event>
<event>
 5    1  0.1160133E+000  0.1553064E+01  0.7818608E-02  0.3405937E+00
         11   -1    0    0    0    0  0.00000000000E+00  0.00000000000E+00  0.39999999674E+01  0.40000000000E+01  0.51100000000E-03 0.  1.
    9000002   -1    0    0    0    0 -0.00000000000E+00 -0.00000000000E+00  0.00000000000E+00  0.93800000000E+00  0.93800000000E+00 0.  1.
         11    1    1    2    0    0 -0.41019840580E+00  0.17151705135E+00  0.90527831630E+00  0.10085682536E+01  0.51100000000E-03 0.  1.
    9000002    1    1    2    0    0 -0.45854219560E+00 -0.31823111653E+00  0.52174405009E+00  0.12097904126E+01  0.93800000000E+00 0.  1.
         22    1    1    2    0    0  0.86874060140E+00  0.14671406518E+00  0.25729776010E+01  0.27196413338E+01  0.00000000000E+00 0.  1.
</event>
<event>
 5    1  0.1160133E+000  0.1599641E+01  0.7818608E-02  0.3353754E+00
         11   -1    0    0    0    0  0.00000000000E+00  0.00000000000E+00  0.39999999674E+01  0.40000000000E+01  0.51100000000E-03 0.  1.
    9000002   -1    0    0    0    0 -0.00000000000E+00 -0.00000000000E+00  0.00000000000E+00  0.93800000000E+00  0.93800000000E+00 0.  1.
         11    1    1    2    0    0  0.23190079336E+00  0.51963893928E-01  0.77337481264E+00  0.80906556359E+00  0.51100000000E-03 0.  1.
    9000002    1    1    2    0    0 -0.95673958240E+00 -0.24051374913E+00  0.77708153030E+00  0.15674492645E+01  0.93800000000E+00 0.  1.
         22    1    1    2    0    0  0.72483878904E+00  0.18854985520E+00  0.24495436244E+01  0.25614851719E+01  0.00000000000E+00 0.  1.
</event>
<event>
 5    1  0.1160133E+000  0.1578078E+01  0.7818608E-02  0.3377506E+00
         11   -1    0    0    0    0  0.00000000000E+00  0.00000000000E+00  0.39999999674E+01  0.40000000000E+01  0.51100000000E-03 0.  1.
    9000002   -1    0    0    0    0 -0.00000000000E+00 -0.00000000000E+00  0.00000000000E+00  0.93800000000E+00  0.93800000000E+00 0.  1.
         11    1    1    2    0    0  0.17008220309E+00 -0.40818046714E+00  0.90669859779E+00  0.10087823640E+01  0.51100000000E-03 0.  1.
    9000002    1    1    2    0    0 -0.61864270945E-01  0.10869914385E+01  0.10681164803E+01  0.17905570058E+01  0.93800000000E+00 0.  1.
         22    1    1    2    0    0 -0.10821793215E+00 -0.67881097135E+00  0.20251848892E+01  0.21386606302E+01  0.00000000000E+00 0.  1.
</event>
<event>
 5    1  0.1160133E+000  0.1599621E+01  0.7818608E-02  0.3353774E+00
         11   -1    0    0    0    0  0.00000000000E+00  0.00000000000E+00  0.39999999674E+01  0.40000000000E+01  0.51100000000E-03 0.  1.
    9000002   -1    0    0    0    0 -0.00000000000E+00 -0.00000000000E+00  0.00000000000E+00  0.93800000000E+00  0.93800000000E+00 0. -1.
         11    1    1    2    0    0 -0.73223942060E-02 -0.15379754375E+00  0.49889126524E+00  0.52211115442E+00  0.51100000000E-03 0.  1.
    9000002    1    1    2    0    0  0.33953888221E-01  0.96468451919E+00  0.73566638825E+00  0.15338898666E+01  0.93800000000E+00 0. -1.
         22    1    1    2    0    0 -0.26631494015E-01 -0.81088697545E+00  0.27654423139E+01  0.28819989790E+01  0.00000000000E+00 0.  1.
</event>
<event>
 5    1  0.1160133E+000  0.1599677E+01  0.7818608E-02  0.3353714E+00
         11   -1    0    0    0    0  0.00000000000E+00  0.00000000000E+00  0.39999999674E+01  0.40000000000E+01  0.51100000000E-03 0. -1.
    9000002   -1    0    0    0    0 -0.00000000000E+00 -0.00000000000E+00  0.00000000000E+00  0.93800000000E+00  0.93800000000E+00 0. -1.
         11    1    1    2    0    0 -0.44935089761E-01  0.19599538240E+00  0.69149613135E+00  0.72013923168E+00  0.51100000000E-03 0.  1.
    9000002    1    1    2    0    0  0.21359281305E+00 -0.93035400616E+00  0.71539795595E+00  0.15175041028E+01  0.93800000000E+00 0. -1.
         22    1    1    2    0    0 -0.16865772329E+00  0.73435862377E+00  0.25931058801E+01  0.27003566655E+01  0.00000000000E+00 0. -1.
</event>
<event>
 5    1  0.1160133E+000  0.1576503E+01  0.7818608E-02  0.3379268E+00
         11   -1    0    0    0    0  0.00000000000E+00  0.00000000000E+00  0.39999999674E+01  0.40000000000E+01  0.51100000000E-03 0.  1.
    9000002   -1    0    0    0    0 -0.00000000000E+00 -0.00000000000E+00  0.00000000000E+00  0.93800000000E+00  0.93800000000E+00 0. -1.
         11    1    1    2    0    0 -0.12128018867E+00 -0.64043987193E-01  0.79067018453E+00  0.80247748772E+00  0.51100000000E-03 0.  1.
    9000002    1    1    2    0    0  0.86882746920E-01  0.79390973919E+00  0.50025261346E+00  0.13296382828E+01  0.93800000000E+00 0. -1.
         22    1    1    2    0    0  0.34397441755E-01 -0.72986575200E+00  0.27090771694E+01  0.28058842295E+01  0.00000000000E+00 0.  1.
</event>
<event>
 5    1  0.1160133E+000  0.1661286E+01  0.7818608E-02  0.3289419E+00
         11   -1    0    0    0    0  0.00000000000E+00  0.00000000000E+00  0.39999999674E+01  0.40000000000E+01  0.51100000000E-03 0.  1.
    9000002   -1    0    0    0    0 -0.00000000000E+00 -0.00000000000E+00  0.00000000000E+00  0.93800000000E+00  0.93800000000E+00 0.  1.
         11    1    1    2    0    0 -0.10569268820E+00 -0.45437635271E+00  0.10016968046E+01  0.11050002551E+01  0.51100000000E-03 0.  1.
    9000002    1    1    2    0    0 -0.93420513295E-01 -0.65697161456E+00  0.93648839963E+00  0.14822933641E+01  0.93800000000E+00 0.  1.
         22    1    1    2    0    0  0.19911320150E+00  0.11113479673E+01  0.20618147631E+01  0.23507063808E+01  0.00000000000E+00 0.  1.
</event>
<event>
 5    1  0.1160133E+000  0.1599677E+01  0.7818608E-02  0.3353714E+00
         11   -1    0    0    0    0  0.00000000000E+00  0.00000000000E+00  0.39999999674E+01  0.40000000000E+01  0.51100000000E-03 0. -1.
    9000002   -1    0    0    0    0 -0.00000000000E+00 -0.00000000000E+00  0.00000000000E+00  0.93800000000E+00  0.93800000000E+00 0.  1.
         11    1    1    2    0    0 -0.26896796253E-01 -0.44145269199E+00  0.14293557998E+01  0.14962159538E+01  0.51100000000E-03 0.  1.
    9000002    1    1    2    0    0  0.60446944926E-01  0.99118911728E+00  0.79017856783E+00  0.15780798042E+01  0.93800000000E+00 0.  1.
         22    1    1    2    0    0 -0.33550148673E-01 -0.54973642529E+00  0.17804655997E+01  0.18637042420E+01  0.00000000000E+00 0. -1.
</event>
<event>
 5    1  0.1160133E+000  0.1599676E+01  0.7818608E-02  0.3353715E+00
         11   -1    0    0    0    0  0.00000000000E+00  0.00000000000E+00  0.39999999674E+01  0.40000000000E+01  0.51100000000E-03 0. -1.
    9000002   -1    0    0    0    0 -0.00000000000E+00 -0.00000000000E+00  0.00000000000E+00  0.93800000000E+00  0.93800000000E+00 0. -1.
         11    1    1    2    0    0  0.24932708177E-01  0.78592915632E-01  0.19263336105E+00  0.20953844334E+00  0.51100000000E-03 0.  1.
    9000002    1    1    2    0    0 -0.35434482039E+00 -0.11180358233E+01  0.12702767039E+01  0.19669802385E+01  0.93800000000E+00 0. -1.
         22    1    1    2    0    0  0.32941211221E+00  0.10394429077E+01  0.25370899024E+01  0.27614813182E+01  0.00000000000E+00 0. -1.
</event>
<event>
 5    1  0.1160133E+000  0.1599675E+01  0.7818608E-02  0.3353716E+00
         11   -1    0    0    0    0  0.00000000000E+00  0.00000000000E+00  0.39999999674E+01  0.40000000000E+01  0.51100000000E-03 0. -1.
    9000002   -1    0    0    0    0 -0.00000000000E+00 -0.00000000000E+00  0.00000000000E+00  0.93800000000E+00  0.93800000000E+00 0. -1.
         11    1    1    2    0    0  0.25947797875E+00  0.24107099878E+00  0.12733623610E+01  0.13217019374E+01  0.51100000000E-03 0. -1.
    9000002    1    1    2    0    0 -0.68060814117E+00 -0.63365173306E+00  0.67087666727E+00  0.14814389840E+01  0.93800000000E+00 0. -1.
         22    1    1    2    0    0  0.42113016241E+00  0.39258073428E+00  0.20557609391E+01  0.21348590786E+01  0.00000000000E+00 0. -1.
</event>
<event>
 5    1  0.1160133E+000  0.1597762E+01  0.7818608E-02  0.3355796E+00
         11   -1    0    0    0    0  0.00000000000E+00  0.00000000000E+00  0.39999999674E+01  0.40000000000E+01  0.51100000000E-03 0.  1.
    9000002   -1    0    0    0    0 -0.00000000000E+00 -0.00000000000E+00  0.00000000000E+00  0.93800000000E+00  0.93800000000E+00 0. -1.
         11    1    1    2    0    0  0.78746710595E-01  0.61968807741E-01  0.29286590150E+00  0.30953493332E+00  0.51100000000E-03 0.  1.
    9000002    1    1    2    0    0 -0.55245125109E+00 -0.76029927309E+00  0.69168810945E+00  0.14971752771E+01  0.93800000000E+00 0. -1.
         22    1    1    2    0    0  0.47370454050E+00  0.69833046535E+00  0.30154459564E+01  0.31312897896E+01  0.00000000000E+00 0.  1.
</event>
<event>
 5    1  0.1160133E+000  0.1598330E+01  0.7818608E-02  0.3355177E+00
         11   -1    0    0    0    0  0.00000000000E+00  0.00000000000E+00  0.39999999674E+01  0.40000000000E+01  0.51100000000E-03 0. -1.
    9000002   -1    0    0    0    0 -0.00000000000E+00 -0.00000000000E+00  0.00000000000E+00  0.93800000000E+00  0.93800000000E+00 0. -1.
         11    1    1    2    0    0 -0.17443477723E+00  0.80675298488E-01  0.59105305816E+00  0.62151425887E+00  0.51100000000E-03 0. -1.
    9000002    1    1    2    0    0  0.10451491276E+01 -0.34744932559E+00  0.10491539291E+01  0.17870718228E+01  0.93800000000E+00 0. -1.
         22    1    1    2    0    0 -0.87071435038E+00  0.26677402711E+00  0.23597929801E+01  0.25294139183E+01  0.00000000000E+00 0. -1.
</event>
<event>
 5    1  0.1160133E+000  0.1599161E+01  0.7818608E-02  0.3354274E+00
         11   -1    0    0    0    0  0.00000000000E+00  0.00000000000E+00  0.39999999674E+01  0.40000000000E+01  0.51100000000E-03 0.  1.
    9000002   -1    0    0    0    0 -0.00000000000E+00 -0.00000000000E+00  0.00000000000E+00  0.93800000000E+00  0.93800000000E+00 0.  1.
         11    1    1    2    0    0  0.12637305383E+00  0.25293148724E+00  0.11831850236E+01  0.12164997111E+01  0.51100000000E-03 0.  1.
    9000002    1    1    2    0    0 -0.37388758498E+00 -0.80346030431E+00  0.59836850450E+00  0.14224026343E+01  0.93800000000E+00 0.  1.
         22    1    1    2    0    0  0.24751453115E+00  0.55052881707E+00  0.22184464393E+01  0.22990976546E+01  0.00000000000E+00 0.  1.
</event>
<event>
 5    1  0.1160133E+000  0.1599281E+01  0.7818608E-02  0.3354144E+00
         11   -1    0    0    0    0  0.00000000000E+00  0.00000000000E+00  0.39999999674E+01  0.40000000000E+01  0.51100000000E-03 0.  1.
    9000002   -1    0    0    0    0 -0.00000000000E+00 -0.00000000000E+00  0.00000000000E+00  0.93800000000E+00  0.93800000000E+00 0.  1.
         11    1    1    2    0    0  0.68914219242E-02 -0.55548243661E+00  0.13529768106E+01  0.14625849515E+01  0.51100000000E-03 0.  1.
    9000002    1    1    2    0    0 -0.59696867457E-01  0.11586239264E+01  0.12268666325E+01  0.19315845445E+01  0.93800000000E+00 0.  1.
         22    1    1    2    0    0  0.52805445532E-01 -0.60314148975E+00  0.14201565242E+01  0.15438305040E+01  0.00000000000E+00 0.  1.
</event>
<event>
 5    1  0.1346030E+000  0.1575572E+01  0.7818608E-02  0.3380311E+00
         11   -1    0    0    0    0  0.00000000000E+00  0.00000000000E+00  0.39999999674E+01  0.40000000000E+01  0.51100000000E-03 0. -1.
    9000002   -1    0    0    0    0 -0.00000000000E+00 -0.00000000000E+00  0.00000000000E+00  0.93800000000E+00  0.93800000000E+00 0. -1.
         11    1    1    2    0    0 -0.11176228930E+00 -0.69856265207E-02  0.14390635107E+01  0.14434138898E+01  0.51100000000E-03 0. -1.
    9000002    1    1    2    0    0  0.69239111630E+00 -0.19571560465E+00  0.40027939095E+00  0.12481096293E+01  0.93800000000E+00 0. -1.
         22    1    1    2    0    0 -0.58062882700E+00  0.20270123117E+00  0.21606570657E+01  0.22464764810E+01  0.00000000000E+00 0. -1.
</event>
<event>
 5    1  0.1160133E+000  0.1599663E+01  0.7818608E-02  0.3353729E+00
         11   -1    0    0    0    0  0.00000000000E+00  0.00000000000E+00  0.39999999674E+01  0.40000000000E+01  0.51100000000E-03 0.  1.
    9000002   -1    0    0    0    0 -0.00000000000E+00 -0.00000000000E+00  0.00000000000E+00  0.93800000000E+00  0.93800000000E+00 0. -1.
         11    1    1    2    0    0  0.39065433392E+00  0.27965446298E+00  0.13466699556E+01  0.14298033633E+01  0.51100000000E-03 0.  1.
    9000002    1    1    2    0    0 -0.86940788007E+00 -0.63475653500E+00  0.97973574439E+00  0.17316212200E+01  0.93800000000E+00 0. -1.
         22    1    1    2    0    0  0.47875354615E+00  0.35510207202E+00  0.16735942674E+01  0.17765754167E+01  0.00000000000E+00 0.  1.
</event>
<event>
 5    1  0.1160133E+000  0.1599105E+01  0.7818608E-02  0.3354336E+00
         11   -1    0    0    0    0  0.00000000000E+00  0.00000000000E+00  0.39999999674E+01  0.40000000000E+01  0.51100000000E-03 0.  1.
    9000002   -1    0    0    0    0 -0.00000000000E+00 -0.00000000000E+00  0.00000000000E+00  0.93800000000E+00  0.93800000000E+00 0. -1.
         11    1    1    2    0    0  0.13484403856E+00 -0.39104593696E+00  0.10865707164E+01  0.11626418290E+01  0.51100000000E-03 0.  1.
    9000002    1    1    2    0    0 -0.37876393401E+00  0.10842070963E+01  0.11882354325E+01  0.19001880403E+01  0.93800000000E+00 0. -1.
         22    1    1    2    0    0  0.24391989545E+00 -0.69316115932E+00  0.17251938184E+01  0.18751701307E+01  0.00000000000E+00 0.  1.
</event>
<event>
 5    1  0.1160133E+000  0.1594107E+01  0.7818608E-02  0.3359784E+00
         11   -1    0    0    0    0  0.00000000000E+00  0.00000000000E+00  0.39999999674E+01  0.40000000000E+01  0.51100000000E-03 0. -1.
    9000002   -1    0    0    0    0 -0.00000000000E+00 -0.00000000000E+00  0.00000000000E+00  0.93800000000E+00  0.93800000000E+00 0.  1.
         11    1    1    2    0    0  0.28640419342E+00 -0.93777282199E-01  0.77158040083E+00  0.82834661630E+00  0.51100000000E-03 0. -1.
    9000002    1    1    2    0    0 -0.90157090494E+00  0.58459495374E+00  0.98817142124E+00  0.17351968517E+01  0.93800000000E+00 0.  1.
         22    1    1    2    0    0  0.61516671152E+00 -0.49081767154E+00  0.22402481453E+01  0.23744565320E+01  0.00000000000E+00 0. -1.
</event>
<event>
 5    1  0.1160133E+000  0.1567128E+01  0.7818608E-02  0.3389833E+00
         11   -1    0    0    0    0  0.00000000000E+00  0.00000000000E+00  0.39999999674E+01  0.40000000000E+01  0.51100000000E-03 0. -1.
    9000002   -1    0    0    0    0 -0.00000000000E+00 -0.00000000000E+00  0.00000000000E+00  0.93800000000E+00  0.93800000000E+00 0.  1.
         11    1    1    2    0    0  0.12355414471E+00 -0.14389420243E-01  0.64132028969E+00  0.65327226880E+00  0.51100000000E-03 0. -1.
    9000002    1    1    2    0    0 -0.91135011179E-01  0.78715446251E+00  0.50433240291E+00  0.13274460105E+01  0.93800000000E+00 0.  1.
         22    1    1    2    0    0 -0.32419133526E-01 -0.77276504227E+00  0.28543472748E+01  0.29572817207E+01  0.00000000000E+00 0. -1.
</event>
<event>
 5    1  0.1160133E+000  0.1572912E+01  0.7818608E-02  0.3383299E+00
         11   -1    0    0    0    0  0.00000000000E+00  0.00000000000E+00  0.39999999674E+01  0.40000000000E+01  0.51100000000E-03 0.  1.
    9000002   -1    0    0    0    0 -0.00000000000E+00 -0.00000000000E+00  0.00000000000E+00  0.93800000000E+00  0.93800000000E+00 0.  1.
         11    1    1    2    0    0  0.63586067703E+00  0.86311951764E-01  0.11349073674E+01  0.13037574726E+01  0.51100000000E-03 0.  1.
    9000002    1    1    2    0    0 -0.10766431497E+01 -0.31039640474E+00  0.11803975033E+01  0.18784804140E+01  0.93800000000E+00 0.  1.
         22    1    1    2    0    0  0.44078247268E+00  0.22408445297E+00  0.16846950967E+01  0.17557621134E+01  0.00000000000E+00 0. -1.
</event>
<event>
 5    1  0.1160133E+000  0.1597643E+01  0.7818608E-02  0.3355925E+00
         11   -1    0    0    0    0  0.00000000000E+00  0.00000000000E+00  0.39999999674E+01  0.40000000000E+01  0.51100000000E-03 0.  1.
    9000002   -1    0    0    0    0 -0.00000000000E+00 -0.00000000000E+00  0.00000000000E+00  0.93800000000E+00  0.93800000000E+00 0.  1.
         11    1    1    2    0    0 -0.34481381779E+00 -0.12936880472E+00  0.95823645998E+00  0.10265720778E+01  0.51100000000E-03 0.  1.
    9000002    1    1    2    0    0  0.11273354357E+01  0.34186720163E+00  0.12968598096E+01  0.19873217490E+01  0.93800000000E+00 0.  1.
         22    1    1    2    0    0 -0.78252161796E+00 -0.21249839690E+00  0.17449036978E+01  0.19241061732E+01  0.00000000000E+00 0.  1.
</event>
<event>
 5    1  0.1160133E+000  0.1608532E+01  0.7818608E-02  0.3344155E+00
         11   -1    0    0    0    0  0.00000000000E+00  0.00000000000E+00  0.39999999674E+01  0.40000000000E+01  0.51100000000E-03 0. -1.
    9000002   -1    0    0    0    0 -0.00000000000E+00 -0.00000000000E+00  0.00000000000E+00  0.93800000000E+00  0.93800000000E+00 0. -1.
         11    1    1    2    0    0  0.11968129822E+00  0.49988930841E+00  0.92630962930E+00  0.10593690218E+01  0.51100000000E-03 0. -1.
    9000002    1    1    2    0    0  0.44651247809E+00  0.18031564581E+00  0.51942314383E+00  0.11753856931E+01  0.93800000000E+00 0. -1.
         22    1    1    2    0    0 -0.56619377630E+00 -0.68020495422E+00  0.25542671942E+01  0.27032452851E+01  0.00000000000E+00 0. -1.
</event>
<event>
 5    1  0.1160133E+000  0.1591797E+01  0.7818608E-02  0.3362315E+00
         11   -1    0    0    0    0  0.00000000000E+00  0.00000000000E+00  0.39999999674E+01  0.40000000000E+01  0.51100000000E-03 0.  1.
    9000002   -1    0    0    0    0 -0.00000000000E+00 -0.00000000000E+00  0.00000000000E+00  0.93800000000E+00  0.93800000000E+00 0. -1.
         11    1    1    2    0    0 -0.29587457159E-01  0.41404923199E-01  0.11717570865E+00  0.12775051118E+00  0.51100000000E-03 0.  1.
    9000002    1    1    2    0    0  0.99709917418E+00 -0.41973449693E-01  0.81561621032E+00  0.15940647214E+01  0.93800000000E+00 0. -1.
         22    1    1    2    0    0 -0.96751171702E+00  0.56852649369E-03  0.30672080484E+01  0.32161847674E+01  0.00000000000E+00 0.  1.
</event>
<event>
 5    1  0.1160133E+000  0.1599648E+01  0.7818608E-02  0.3353745E+00
         11   -1    0    0    0    0  0.00000000000E+00  0.00000000000E+00  0.39999999674E+01  0.40000000000E+01  0.51100000000E-03 0.  1.
    9000002   -1    0    0    0    0 -0.00000000000E+00 -0.00000000000E+00  0.00000000000E+00  0.93800000000E+00  0.93800000000E+00 0.  1.
         11    1    1    2    0    0  0.11756141975E+00 -0.13788021330E+00  0.58033666265E+00  0.60796590675E+00  0.51100000000E-03 0.  1.
    9000002    1    1    2    0    0 -0.64508321469E+00  0.74070778729E+00  0.76854978299E+00  0.15605425816E+01  0.93800000000E+00 0.  1.
         22    1    1    2    0    0  0.52752179495E+00 -0.60282757399E+00  0.26511135217E+01  0.27694915117E+01  0.00000000000E+00 0.  1.
</event>
<event>
 5    1  0.1160133E+000  0.1599427E+01  0.7818608E-02  0.3353985E+00
         11   -1    0    0    0    0  0.00000000000E+00  0.00000000000E+00  0.39999999674E+01  0.40000000000E+01  0.51100000000E-03 0. -1.
    9000002   -1    0    0    0    0 -0.00000000000E+00 -0.00000000000E+00  0.00000000000E+00  0.93800000000E+00  0.93800000000E+00 0. -1.
         11    1    1    2    0    0 -0.79621195798E-02  0.37989709020E+00  0.12412321225E+01  0.12980919219E+01  0.51100000000E-03 0. -1.
    9000002    1    1    2    0    0  0.26461532079E-02 -0.95681676750E+00  0.72004680598E+00  0.15211235096E+01  0.93800000000E+00 0. -1.
         22    1    1    2    0    0  0.53159663718E-02  0.57691967730E+00  0.20387210388E+01  0.21187845685E+01  0.00000000000E+00 0.  1.
</event>
<event>
 5    1  0.1160133E+000  0.1515107E+01  0.7818608E-02  0.3450992E+00
         11   -1    0    0    0    0  0.00000000000E+00  0.00000000000E+00  0.39999999674E+01  0.40000000000E+01  0.51100000000E-03 0. -1.
    9000002   -1    0    0    0    0 -0.00000000000E+00 -0.00000000000E+00  0.00000000000E+00  0.93800000000E+00  0.93800000000E+00 0. -1.
         11    1    1    2    0    0  0.17246295607E+00  0.62101234209E-01  0.34446419502E+00  0.39019979149E+00  0.51100000000E-03 0. -1.
    9000002    1    1    2    0    0 -0.28597742916E+00  0.98861860159E+00  0.10747197383E+01  0.17589816217E+01  0.93800000000E+00 0. -1.
         22    1    1    2    0    0  0.11351447309E+00 -0.10507198358E+01  0.25808160340E+01  0.27888185868E+01  0.00000000000E+00 0. -1.
</event>
<event>
 5    1  0.1160133E+000  0.1599054E+01  0.7818608E-02  0.3354391E+00
         11   -1    0    0    0    0  0.00000000000E+00  0.00000000000E+00  0.39999999674E+01  0.40000000000E+01  0.51100000000E-03 0.  1.
    9000002   -1    0    0    0    0 -0.00000000000E+00 -0.00000000000E+00  0.00000000000E+00  0.93800000000E+00  0.93800000000E+00 0. -1.
         11    1    1    2    0    0  0.58440730409E-01  0.10000023532E+00  0.21934493045E+00  0.24804803098E+00  0.51100000000E-03 0.  1.
    9000002    1    1    2    0    0 -0.47313020523E+00 -0.11698219338E+01  0.17124239999E+01  0.23247742908E+01  0.93800000000E+00 0.  1.
         22    1    1    2    0    0  0.41468947482E+00  0.10698216985E+01  0.20682310370E+01  0.23651776782E+01  0.00000000000E+00 0.  1.
</event>
<event>
 5    1  0.1160133E+000  0.1615419E+01  0.7818608E-02  0.3336796E+00
         11   -1    0    0    0    0  0.00000000000E+00  0.00000000000E+00  0.39999999674E+01  0.40000000000E+01  0.51100000000E-03 0.  1.
    9000002   -1    0    0    0    0 -0.00000000000E+00 -0.00000000000E+00  0.00000000000E+00  0.93800000000E+00  0.93800000000E+00 0.  1.
         11    1    1    2    0    0 -0.35786599637E-01 -0.48444964317E+00  0.10361760874E+01  0.11443921018E+01  0.51100000000E-03 0.  1.
    9000002    1    1    2    0    0 -0.93237140495E-01 -0.45245209850E+00  0.50898317669E+00  0.11628903388E+01  0.93800000000E+00 0.  1.
         22    1    1    2    0    0  0.12902374013E+00  0.93690174167E+00  0.24548407033E+01  0.26307175595E+01  0.00000000000E+00 0.  1.
</event>
<event>
 5    1  0.1160133E+000  0.1599676E+01  0.7818608E-02  0.3353715E+00
         11   -1    0    0    0    0  0.00000000000E+00  0.00000000000E+00  0.39999999674E+01  0.40000000000E+01  0.51100000000E-03 0. -1.
    9000002   -1    0    0    0    0 -0.00000000000E+00 -0.00000000000E+00  0.00000000000E+00  0.93800000000E+00  0.93800000000E+00 0.  1.
         11    1    1    2    0    0 -0.62392223241E-01 -0.29145432314E-01  0.25433601686E+00  0.26349443322E+00  0.51100000000E-03 0.  1.
    9000002    1    1    2    0    0  0.82517702886E+00  0.38368442739E+00  0.63666128487E+00  0.14537236534E+01  0.93800000000E+00 0.  1.
         22    1    1    2    0    0 -0.76278480562E+00 -0.35453899507E+00  0.31090026656E+01  0.32207819134E+01  0.00000000000E+00 0. -1.
</event>
<event>
 5    1  0.1160133E+000  0.1597366E+01  0.7818608E-02  0.3356228E+00
         11   -1    0    0    0    0  0.00000000000E+00  0.00000000000E+00  0.39999999674E+01  0.40000000000E+01  0.51100000000E-03 0.  1.
    9000002   -1    0    0    0    0 -0.00000000000E+00 -0.00000000000E+00  0.00000000000E+00  0.93800000000E+00  0.93800000000E+00 0.  1.
         11    1    1    2    0    0  0.13577742512E+00  0.33451262161E+00  0.98290167570E+00  0.10471056147E+01  0.51100000000E-03 0.  1.
    9000002    1    1    2    0    0 -0.45834188720E+00 -0.90061983692E+00  0.83117900697E+00  0.16099366192E+01  0.93800000000E+00 0.  1.
         22    1    1    2    0    0  0.32256446208E+00  0.56610721531E+00  0.21859192847E+01  0.22809577661E+01  0.00000000000E+00 0.  1.
</event>
<event>
 5    1  0.1160133E+000  0.1598021E+01  0.7818608E-02  0.3355514E+00
         11   -1    0    0    0    0  0.00000000000E+00  0.00000000000E+00  0.39999999674E+01  0.40000000000E+01  0.51100000000E-03 0. -1.
    9000002   -1    0    0    0    0 -0.00000000000E+00 -0.00000000000E+00  0.00000000000E+00  0.93800000000E+00  0.93800000000E+00 0. -1.
         11    1    1    2    0    0  0.42757533069E-01 -0.48963439810E+00  0.14146641088E+01  0.14976130516E+01  0.51100000000E-03 0. -1.
    9000002    1    1    2    0    0 -0.19681122832E+00  0.10432032054E+01  0.94649618068E+00  0.17037331386E+01  0.93800000000E+00 0.  1.
         22    1    1    2    0    0  0.15405369525E+00 -0.55356880732E+00  0.16388396779E+01  0.17366538098E+01  0.00000000000E+00 0. -1.
</event>
<event>
 5    1  0.1160133E+000  0.1589170E+01  0.7818608E-02  0.3365203E+00
         11   -1    0    0    0    0  0.00000000000E+00  0.00000000000E+00  0.39999999674E+01  0.40000000000E+01  0.51100000000E-03 0.  1.
    9000002   -1    0    0    0    0 -0.00000000000E+00 -0.00000000000E+00  0.00000000000E+00  0.93800000000E+00  0.93800000000E+00 0. -1.
         11    1    1    2    0    0 -0.10318855683E+00 -0.32827131129E+00  0.99969243919E+00  0.10572583252E+01  0.51100000000E-03 0.  1.
    9000002    1    1    2    0    0  0.57680144010E+00  0.78225905135E+00  0.76751848060E+00  0.15535629188E+01  0.93800000000E+00 0. -1.
         22    1    1    2    0    0 -0.47361288327E+00 -0.45398774006E+00  0.22327890476E+01  0.23271787560E+01  0.00000000000E+00 0.  1.
</event>
<event>
 5    1  0.1160133E+000  0.1540674E+01  0.7818608E-02  0.3420383E+00
         11   -1    0    0    0    0  0.00000000000E+00  0.00000000000E+00  0.39999999674E+01  0.40000000000E+01  0.51100000000E-03 0.  1.
    9000002   -1    0    0    0    0 -0.00000000000E+00 -0.00000000000E+00  0.00000000000E+00  0.93800000000E+00  0.93800000000E+00 0. -1.
         11    1    1    2    0    0 -0.19058784754E+00 -0.93852439497E+00  0.10252908577E+01  0.14029873027E+01  0.51100000000E-03 0.  1.
    9000002    1    1    2    0    0  0.29338863681E+00  0.11838051643E+01  0.19923803986E+01  0.25173190525E+01  0.93800000000E+00 0. -1.
         22    1    1    2    0    0 -0.10280078926E+00 -0.24528076935E+00  0.98232871105E+00  0.10176936448E+01  0.00000000000E+00 0.  1.
</event>
<event>
 5    1  0.1160133E+000  0.1599623E+01  0.7818608E-02  0.3353773E+00
         11   -1    0    0    0    0  0.00000000000E+00  0.00000000000E+00  0.39999999674E+01  0.40000000000E+01  0.51100000000E-03 0.  1.
    9000002   -1    0    0    0    0 -0.00000000000E+00 -0.00000000000E+00  0.00000000000E+00  0.93800000000E+00  0.93800000000E+00 0.  1.
         11    1    1    2    0    0  0.17898489781E+00  0.79326431506E-01  0.55369021229E+00  0.58728305670E+00  0.51100000000E-03 0.  1.
    9000002    1    1    2    0    0 -0.96819801585E+00 -0.46938021903E+00  0.97857851409E+00  0.17306603064E+01  0.93800000000E+00 0.  1.
         22    1    1    2    0    0  0.78921311804E+00  0.39005378752E+00  0.24677312410E+01  0.26200566369E+01  0.00000000000E+00 0.  1.
</event>
<event>
 5    1  0.1160133E+000  0.1599508E+01  0.7818608E-02  0.3353898E+00
         11   -1    0    0    0    0  0.00000000000E+00  0.00000000000E+00  0.39999999674E+01  0.40000000000E+01  0.51100000000E-03 0. -1.
    9000002   -1    0    0    0    0 -0.00000000000E+00 -0.00000000000E+00  0.00000000000E+00  0.93800000000E+00  0.93800000000E+00 0. -1.
         11    1    1    2    0    0 -0.37050033022E+00  0.10727986388E+00  0.13648122522E+01  0.14182708517E+01  0.51100000000E-03 0. -1.
    9000002    1    1    2    0    0  0.91155178952E+00 -0.28957311396E+00  0.71919776647E+00  0.15204830419E+01  0.93800000000E+00 0. -1.
         22    1    1    2    0    0 -0.54105145930E+00  0.18229325008E+00  0.19159899487E+01  0.19992461065E+01  0.00000000000E+00 0. -1.
</event>
<event>
 5    1  0.1160133E+000  0.1599675E+01  0.7818608E-02  0.3353717E+00
         11   -1    0    0    0    0  0.00000000000E+00  0.00000000000E+00  0.39999999674E+01  0.40000000000E+01  0.51100000000E-03 0. -1.
    9000002   -1    0    0    0    0 -0.00000000000E+00 -0.00000000000E+00  0.00000000000E+00  0.93800000000E+00  0.93800000000E+00 0. -1.
         11    1    1    2    0    0  0.37773484585E+00  0.11113177304E-01  0.13259413809E+01  0.13787414272E+01  0.51100000000E-03 0. -1.
    9000002    1    1    2    0    0 -0.94492103044E+00 -0.25900516095E-01  0.69834053942E+00  0.15036855055E+01  0.93800000000E+00 0. -1.
         22    1    1    2    0    0  0.56718618459E+00  0.14787338791E-01  0.19757180470E+01  0.20555730672E+01  0.00000000000E+00 0. -1.
</event>
<event>
 5    1  0.1160133E+000  0.1599676E+01  0.7818608E-02  0.3353715E+00
         11   -1    0    0    0    0  0.00000000000E+00  0.00000000000E+00  0.39999999674E+01  0.40000000000E+01  0.51100000000E-03 0.  1.
    9000002   -1    0    0    0    0 -0.00000000000E+00 -0.00000000000E+00  0.00000000000E+00  0.93800000000E+00  0.93800000000E+00 0. -1.
         11    1    1    2    0    0 -0.84848199728E-01 -0.69072378802E-02  0.28264610804E+00  0.29518809333E+00  0.51100000000E-03 0. -1.
    9000002    1    1    2    0    0  0.97477462495E+00  0.82823984891E-01  0.76071494387E+00  0.15542125362E+01  0.93800000000E+00 0. -1.
         22    1    1    2    0    0 -0.88992642522E+00 -0.75916747010E-01  0.29566389154E+01  0.30885993704E+01  0.00000000000E+00 0.  1.
</event>
<event>
 5    1  0.1160133E+000  0.1599674E+01  0.7818608E-02  0.3353718E+00
         11   -1    0    0    0    0  0.00000000000E+00  0.00000000000E+00  0.39999999674E+01  0.40000000000E+01  0.51100000000E-03 0. -1.
    9000002   -1    0    0    0    0 -0.00000000000E+00 -0.00000000000E+00  0.00000000000E+00  0.93800000000E+00  0.93800000000E+00 0. -1.
         11    1    1    2    0    0  0.12376895328E+00 -0.95297953650E-01  0.37185960343E+00  0.40333643469E+00  0.51100000000E-03 0. -1.
    9000002    1    1    2    0    0 -0.92652967661E+00  0.70950536434E+00  0.12493030717E+01  0.19499890432E+01  0.93800000000E+00 0. -1.
         22    1    1    2    0    0  0.80276072333E+00 -0.61420741069E+00  0.23788372922E+01  0.25846745221E+01  0.00000000000E+00 0. -1.
</event>
<event>
 5    1  0.1160133E+000  0.1599677E+01  0.7818608E-02  0.3353714E+00
         11   -1    0    0    0    0  0.00000000000E+00  0.00000000000E+00  0.39999999674E+01  0.40000000000E+01  0.51100000000E-03 0. -1.
    9000002   -1    0    0    0    0 -0.00000000000E+00 -0.00000000000E+00  0.00000000000E+00  0.93800000000E+00  0.93800000000E+00 0. -1.
         11    1    1    2    0    0  0.35473290741E+00 -0.13703438549E+00  0.11702508904E+01  0.12304882226E+01  0.51100000000E-03 0.  1.
    9000002    1    1    2    0    0 -0.95307049944E+00  0.36970573375E+00  0.85186723999E+00  0.16280502145E+01  0.93800000000E+00 0. -1.
         22    1    1    2    0    0  0.59833759203E+00 -0.23267134826E+00  0.19778818370E+01  0.20794615629E+01  0.00000000000E+00 0. -1.
</event>
<event>
 5    1  0.1160133E+000  0.1599675E+01  0.7818608E-02  0.3353716E+00
         11   -1    0    0    0    0  0.00000000000E+00  0.00000000000E+00  0.39999999674E+01  0.40000000000E+01  0.51100000000E-03 0.  1.
    9000002   -1    0    0    0    0 -0.00000000000E+00 -0.00000000000E+00  0.00000000000E+00  0.93800000000E+00  0.93800000000E+00 0.  1.
         11    1    1    2    0    0  0.48697822034E-01 -0.23364575640E+00  0.69539524489E+00  0.73521195930E+00  0.51100000000E-03 0.  1.
    9000002    1    1    2    0    0 -0.20947999363E+00  0.10340374808E+01  0.92685358871E+00  0.16887915663E+01  0.93800000000E+00 0.  1.
         22    1    1    2    0    0  0.16078217160E+00 -0.80039172443E+00  0.23777511338E+01  0.25139964744E+01  0.00000000000E+00 0.  1.
</event>
<event>
 5    1  0.1160133E+000  0.1599664E+01  0.7818608E-02  0.3353728E+00
         11   -1    0    0    0    0  0.00000000000E+00  0.00000000000E+00  0.39999999674E+01  0.40000000000E+01  0.51100000000E-03 0.  1.
    9000002   -1    0    0    0    0 -0.00000000000E+00 -0.00000000000E+00  0.00000000000E+00  0.93800000000E+00  0.93800000000E+00 0. -1.
         11    1    1    2    0    0 -0.65723337984E-01 -0.36777467513E+00  0.13444301407E+01  0.13953746570E+01  0.51100000000E-03 0.  1.
    9000002    1    1    2    0    0  0.17295265596E+00  0.91351390196E+00  0.67059112793E+00  0.14812011110E+01  0.93800000000E+00 0. -1.
         22    1    1    2    0    0 -0.10722931798E+00 -0.54573922683E+00  0.19849786987E+01  0.20614242321E+01  0.00000000000E+00 0.  1.
</event>
<event>
 5    1  0.1160133E+000  0.1596826E+01  0.7818608E-02  0.3356816E+00
         11   -1    0    0    0    0  0.00000000000E+00  0.00000000000E+00  0.39999999674E+01  0.40000000000E+01  0.51100000000E-03 0. -1.
    9000002   -1    0    0    0    0 -0.00000000000E+00 -0.00000000000E+00  0.00000000000E+00  0.93800000000E+00  0.93800000000E+00 0.  1.
         11    1    1    2    0    0 -0.56291112083E+00 -0.14009032636E-01  0.13895408021E+01  0.14992961964E+01  0.51100000000E-03 0. -1.
    9000002    1    1    2    0    0  0.11388361265E+01  0.15789738426E+00  0.11997150034E+01  0.19081507792E+01  0.93800000000E+00 0.  1.
         22    1    1    2    0    0 -0.57592500566E+00 -0.14388835163E+00  0.14107441619E+01  0.15305530243E+01  0.00000000000E+00 0.  1.
</event>
<event>
 5    1  0.1160133E+000  0.1599387E+01  0.7818608E-02  0.3354029E+00
         11   -1    0    0    0    0  0.00000000000E+00  0.00000000000E+00  0.39999999674E+01  0.40000000000E+01  0.51100000000E-03 0. -1.
    9000002   -1    0    0    0    0 -0.00000000000E+00 -0.00000000000E+00  0.00000000000E+00  0.93800000000E+00  0.93800000000E+00 0. -1.
         11    1    1    2    0    0  0.21992719783E+00 -0.19454799894E+00  0.42402209995E+00  0.51576341341E+00  0.51100000000E-03 0. -1.
    9000002    1    1    2    0    0 -0.10156498320E+01  0.80130996823E+00  0.20944273383E+01  0.26344092548E+01  0.93800000000E+00 0.  1.
         22    1    1    2    0    0  0.79572263419E+00 -0.60676196928E+00  0.14815505291E+01  0.17878273318E+01  0.00000000000E+00 0. -1.
</event>
<event>
 5    1  0.1160133E+000  0.1595715E+01  0.7818608E-02  0.3358027E+00
         11   -1    0    0    0    0  0.00000000000E+00  0.00000000000E+00  0.39999999674E+01  0.40000000000E+01  0.51100000000E-03 0. -1.
    9000002   -1    0    0    0    0 -0.00000000000E+00 -0.00000000000E+00  0.00000000000E+00  0.93800000000E+00  0.93800000000E+00 0.  1.
         11    1    1    2    0    0  0.28387924766E-01  0.73722292326E-01  0.29652517009E+00  0.30686851952E+00  0.51100000000E-03 0. -1.
    9000002    1    1    2    0    0  0.15589532046E+00 -0.92286279261E+00  0.68814885039E+00  0.14931081425E+01  0.93800000000E+00 0.  1.
         22    1    1    2    0    0 -0.18428324523E+00  0.84914050028E+00  0.30153259469E+01  0.31380233380E+01  0.00000000000E+00 0. -1.
</event>
<event>
 5    1  0.1160133E+000  0.1599675E+01  0.7818608E-02  0.3353716E+00
         11   -1    0    0    0    0  0.00000000000E+00  0.00000000000E+00  0.39999999674E+01  0.40000000000E+01  0.51100000000E-03 0.  1.
    9000002   -1    0    0    0    0 -0.00000000000E+00 -0.00000000000E+00  0.00000000000E+00  0.93800000000E+00  0.93800000000E+00 0. -1.
         11    1    1    2    0    0 -0.10941269473E+00 -0.25292065689E+00  0.76444283654E+00  0.81259652221E+00  0.51100000000E-03 0.  1.
    9000002    1    1    2    0    0  0.42487651780E+00  0.99639079521E+00  0.99700259825E+00  0.17456153222E+01  0.93800000000E+00 0. -1.
         22    1    1    2    0    0 -0.31546382307E+00 -0.74347013832E+00  0.22385545326E+01  0.23797881556E+01  0.00000000000E+00 0.  1.
</event>
<event>
 5    1  0.1160133E+000  0.1527841E+01  0.7818608E-02  0.3435610E+00
         11   -1    0    0    0    0  0.00000000000E+00  0.00000000000E+00  0.39999999674E+01  0.40000000000E+01  0.51100000000E-03 0.  1.
    9000002   -1    0    0    0    0 -0.00000000000E+00 -0.00000000000E+00  0.00000000000E+00  0.93800000000E+00  0.93800000000E+00 0. -1.
         11    1    1    2    0    0  0.21607299811E+00 -0.14956179300E+00  0.11945934279E+01  0.12231557503E+01  0.51100000000E-03 0.  1.
    9000002    1    1    2    0    0  0.22541501953E+00  0.70275645548E+00  0.48399276038E+00  0.12879330568E+01  0.93800000000E+00 0. -1.
         22    1    1    2    0    0 -0.44148801764E+00 -0.55319466248E+00  0.23214137791E+01  0.24269111928E+01  0.00000000000E+00 0.  1.
</event>
<event>
 5    1  0.1160133E+000  0.1569554E+01  0.7818608E-02  0.3387086E+00
         11   -1    0    0    0    0  0.00000000000E+00  0.00000000000E+00  0.39999999674E+01  0.40000000000E+01  0.51100000000E-03 0. -1.
    9000002   -1    0    0    0    0 -0.00000000000E+00 -0.00000000000E+00  0.00000000000E+00  0.93800000000E+00  0.93800000000E+00 0. -1.
         11    1    1    2    0    0 -0.69521282706E-01  0.18783114087E+00  0.13568576401E+01  0.13715599378E+01  0.51100000000E-03 0. -1.
    9000002    1    1    2    0    0  0.31378329453E+00 -0.92287449494E+00  0.81089315036E+00  0.15771965606E+01  0.93800000000E+00 0. -1.
         22    1    1    2    0    0 -0.24426201182E+00  0.73504335406E+00  0.18322491769E+01  0.19892435017E+01  0.00000000000E+00 0. -1.
</event>
<event>
 5    1  0.1160133E+000  0.1599612E+01  0.7818608E-02  0.3353785E+00
         11   -1    0    0    0    0  0.00000000000E+00  0.00000000000E+00  0.39999999674E+01  0.40000000000E+01  0.51100000000E-03 0. -1.
    9000002   -1    0    0    0    0 -0.00000000000E+00 -0.00000000000E+00  0.00000000000E+00  0.93800000000E+00  0.93800000000E+00 0.  1.
         11    1    1    2    0    0  0.26215173537E+00  0.15810341482E+00  0.89260478709E+00  0.94364388897E+00  0.51100000000E-03 0. -1.
    9000002    1    1    2    0    0 -0.92074542283E+00 -0.52034217828E+00  0.93314683175E+00  0.16938521558E+01  0.93800000000E+00 0.  1.
         22    1    1    2    0    0  0.65859368745E+00  0.36223876346E+00  0.21742483485E+01  0.23005039552E+01  0.00000000000E+00 0. -1.
</event>
<event>
 5    1  0.1160133E+000  0.1599113E+01  0.7818608E-02  0.3354327E+00
         11   -1    0    0    0    0  0.00000000000E+00  0.00000000000E+00  0.39999999674E+01  0.40000000000E+01  0.51100000000E-03 0.  1.
    9000002   -1    0    0    0    0 -0.00000000000E+00 -0.00000000000E+00  0.00000000000E+00  0.93800000000E+00  0.93800000000E+00 0. -1.
         11    1    1    2    0    0  0.46838910256E+00  0.11897087101E+00  0.13994610608E+01  0.14805519043E+01  0.51100000000E-03 0.  1.
    9000002    1    1    2    0    0 -0.98779233107E+00 -0.25796484238E+00  0.85007894853E+00  0.16262711238E+01  0.93800000000E+00 0. -1.
         22    1    1    2    0    0  0.51940322851E+00  0.13899397137E+00  0.17504599581E+01  0.18311769720E+01  0.00000000000E+00 0.  1.
</event>
<event>
 5    1  0.1160133E+000  0.1599675E+01  0.7818608E-02  0.3353716E+00
         11   -1    0    0    0    0  0.00000000000E+00  0.00000000000E+00  0.39999999674E+01  0.40000000000E+01  0.51100000000E-03 0. -1.
    9000002   -1    0    0    0    0 -0.00000000000E+00 -0.00000000000E+00  0.00000000000E+00  0.93800000000E+00  0.93800000000E+00 0.  1.
         11    1    1    2    0    0  0.34762931570E+00  0.86382996142E-02  0.11896883730E+01  0.12394674048E+01  0.51100000000E-03 0. -1.
    9000002    1    1    2    0    0 -0.96068016636E+00 -0.21684753399E-01  0.72731656294E+00  0.15271574880E+01  0.93800000000E+00 0.  1.
         22    1    1    2    0    0  0.61305085067E+00  0.13046453784E-01  0.20829950314E+01  0.21713751072E+01  0.00000000000E+00 0. -1.
</event>
<event>
 5    1  0.1160133E+000  0.1599676E+01  0.7818608E-02  0.3353715E+00
         11   -1    0    0    0    0  0.00000000000E+00  0.00000000000E+00  0.39999999674E+01  0.40000000000E+01  0.51100000000E-03 0. -1.
    9000002   -1    0    0    0    0 -0.00000000000E+00 -0.00000000000E+00  0.00000000000E+00  0.93800000000E+00  0.93800000000E+00 0. -1.
         11    1    1    2    0    0 -0.70266926639E-01 -0.32515619569E-01  0.28108731563E+00  0.29155624950E+00  0.51100000000E-03 0.  1.
    9000002    1    1    2    0    0  0.83477006964E+00  0.38227826188E+00  0.65044605150E+00  0.14648896902E+01  0.93800000000E+00 0. -1.
         22    1    1    2    0    0 -0.76450314300E+00 -0.34976264231E+00  0.30684666002E+01  0.31815540603E+01  0.00000000000E+00 0. -1.
</event>
<event>
 5    1  0.1160133E+000  0.1596202E+01  0.7818608E-02  0.3357496E+00
         11   -1    0    0    0    0  0.00000000000E+00  0.00000000000E+00  0.39999999674E+01  0.40000000000E+01  0.51100000000E-03 0. -1.
    9000002   -1    0    0    0    0 -0.00000000000E+00 -0.00000000000E+00  0.00000000000E+00  0.93800000000E+00  0.93800000000E+00 0. -1.
         11    1    1    2    0    0  0.13228237820E+00 -0.48363264161E-01  0.72254979125E+00  0.73614950578E+00  0.51100000000E-03 0. -1.
    9000002    1    1    2    0    0 -0.89050775053E+00  0.20399206902E+00  0.64820510566E+00  0.14610375344E+01  0.93800000000E+00 0. -1.
         22    1    1    2    0    0  0.75822537233E+00 -0.15562880486E+00  0.26292450704E+01  0.27408129598E+01  0.00000000000E+00 0. -1.
</event>
<event>
 5    1  0.1160133E+000  0.1547535E+01  0.7818608E-02  0.3412353E+00
         11   -1    0    0    0    0  0.00000000000E+00  0.00000000000E+00  0.39999999674E+01  0.40000000000E+01  0.51100000000E-03 0. -1.
    9000002   -1    0    0    0    0 -0.00000000000E+00 -0.00000000000E+00  0.00000000000E+00  0.93800000000E+00  0.93800000000E+00 0. -1.
         11    1    1    2    0    0  0.82375123484E-01 -0.64808703470E-01  0.32158950609E+00  0.33823941308E+00  0.51100000000E-03 0. -1.
    9000002    1    1    2    0    0 -0.20390174395E+00 -0.87939976694E+00  0.71090475854E+00  0.14832900751E+01  0.93800000000E+00 0. -1.
         22    1    1    2    0    0  0.12152662047E+00  0.94420847041E+00  0.29675057027E+01  0.31164705118E+01  0.00000000000E+00 0. -1.
</event>
<event>
 5    1  0.1160133E+000  0.1599491E+01  0.7818608E-02  0.3353916E+00
         11   -1    0    0    0    0  0.00000000000E+00  0.00000000000E+00  0.39999999674E+01  0.40000000000E+01  0.51100000000E-03 0.  1.
    9000002   -1    0    0    0    0 -0.00000000000E+00 -0.00000000000E+00  0.00000000000E+00  0.93800000000E+00  0.93800000000E+00 0. -1.
         11    1    1    2    0    0  0.29495259950E+00  0.54689223239E+00  0.74669786456E+00  0.97141449025E+00  0.51100000000E-03 0.  1.
    9000002    1    1    2    0    0 -0.62352480562E+00 -0.11225905884E+01  0.25027197479E+01  0.29652053805E+01  0.93800000000E+00 0. -1.
         22    1    1    2    0    0  0.32857220612E+00  0.57569835596E+00  0.75058235489E+00  0.10013801292E+01  0.00000000000E+00 0.  1.
</event>
<event>
 5    1  0.1400852E+000  0.1469099E+01  0.7818608E-02  0.3508966E+00
         11   -1    0    0    0    0  0.00000000000E+00  0.00000000000E+00  0.39999999674E+01  0.40000000000E+01  0.51100000000E-03 0.  1.
    9000002   -1    0    0    0    0 -0.00000000000E+00 -0.00000000000E+00  0.00000000000E+00  0.93800000000E+00  0.93800000000E+00 0. -1.
         11    1    1    2    0    0  0.21435553929E+00 -0.11980312986E+00  0.12740504731E+01  0.12974998868E+01  0.51100000000E-03 0.  1.
    9000002    1    1    2    0    0  0.34274381619E+00 -0.36773466088E+00  0.30230926283E+00  0.11063168600E+01  0.93800000000E+00 0. -1.
         22    1    1    2    0    0 -0.55709935548E+00  0.48753779074E+00  0.24236402315E+01  0.25341832532E+01  0.00000000000E+00 0.  1.
</event>
<event>
 5    1  0.1160133E+000  0.1599660E+01  0.7818608E-02  0.3353732E+00
         11   -1    0    0    0    0  0.00000000000E+00  0.00000000000E+00  0.39999999674E+01  0.40000000000E+01  0.51100000000E-03 0. -1.
    9000002   -1    0    0    0    0 -0.00000000000E+00 -0.00000000000E+00  0.00000000000E+00  0.93800000000E+00  0.93800000000E+00 0. -1.
         11    1    1    2    0    0 -0.84303213627E-01 -0.48852531104E-02  0.20729568497E+00  0.22383623401E+00  0.51100000000E-03 0. -1.
    9000002    1    1    2    0    0  0.11608168340E+01  0.70766718202E-01  0.12352938132E+01  0.19386331410E+01  0.93800000000E+00 0. -1.
         22    1    1    2    0    0 -0.10765136204E+01 -0.65881465092E-01  0.25574104692E+01  0.27755306250E+01  0.00000000000E+00 0. -1.
</event>
<event>
 5    1  0.1160133E+000  0.1599675E+01  0.7818608E-02  0.3353716E+00
         11   -1    0    0    0    0  0.00000000000E+00  0.00000000000E+00  0.39999999674E+01  0.40000000000E+01  0.51100000000E-03 0. -1.
    9000002   -1    0    0    0    0 -0.00000000000E+00 -0.00000000000E+00  0.00000000000E+00  0.93800000000E+00  0.93800000000E+00 0. -1.
         11    1    1    2    0    0  0.39472878656E+00  0.85215501696E-02  0.13196746357E+01  0.13774704487E+01  0.51100000000E-03 0. -1.
    9000002    1    1    2    0    0 -0.97204207481E+00 -0.17076133352E-01  0.74883630854E+00  0.15445896564E+01  0.93800000000E+00 0. -1.
         22    1    1    2    0    0  0.57731328825E+00  0.85545831823E-02  0.19314890231E+01  0.20159398950E+01  0.00000000000E+00 0. -1.
</event>
<event>
 5    1  0.1160133E+000  0.1599097E+01  0.7818608E-02  0.3354344E+00
         11   -1    0    0    0    0  0.00000000000E+00  0.00000000000E+00  0.39999999674E+01  0.40000000000E+01  0.51100000000E-03 0.  1.
    9000002   -1    0    0    0    0 -0.00000000000E+00 -0.00000000000E+00  0.00000000000E+00  0.93800000000E+00  0.93800000000E+00 0.  1.
         11    1    1    2    0    0 -0.13690872723E+00  0.45819723244E+00  0.12450198422E+01  0.13337028800E+01  0.51100000000E-03 0.  1.
    9000002    1    1    2    0    0  0.26740760969E+00 -0.10588820973E+01  0.10219824671E+01  0.17655113391E+01  0.93800000000E+00 0.  1.
         22    1    1    2    0    0 -0.13049888246E+00  0.60068486482E+00  0.17329976581E+01  0.18387857809E+01  0.00000000000E+00 0.  1.
</event>
<event>
 5    1  0.1160133E+000  0.1568162E+01  0.7818608E-02  0.3388661E+00
         11   -1    0    0    0    0  0.00000000000E+00  0.00000000000E+00  0.39999999674E+01  0.40000000000E+01  0.51100000000E-03 0. -1.
    9000002   -1    0    0    0    0 -0.00000000000E+00 -0.00000000000E+00  0.00000000000E+00  0.93800000000E+00  0.93800000000E+00 0. -1.
         11    1    1    2    0    0 -0.25675199593E-01 -0.55047321476E-01  0.69581442492E-01  0.92364829541E-01  0.51100000000E-03 0. -1.
    9000002    1    1    2    0    0 -0.90137558613E+00  0.37181951714E+00  0.81427066521E+00  0.15791163405E+01  0.93800000000E+00 0. -1.
         22    1    1    2    0    0  0.92705078572E+00 -0.31677219566E+00  0.31161478597E+01  0.32665188300E+01  0.00000000000E+00 0. -1.
</event>
<event>
 5    1  0.1160133E+000  0.1599676E+01  0.7818608E-02  0.3353716E+00
         11   -1    0    0    0    0  0.00000000000E+00  0.00000000000E+00  0.39999999674E+01  0.40000000000E+01  0.51100000000E-03 0.  1.
    9000002   -1    0    0    0    0 -0.00000000000E+00 -0.00000000000E+00  0.00000000000E+00  0.93800000000E+00  0.93800000000E+00 0.  1.
         11    1    1    2    0    0 -0.96480244245E-01  0.16601382190E+00  0.70992350947E+00  0.73543230620E+00  0.51100000000E-03 0.  1.
    9000002    1    1    2    0    0  0.45602800160E+00 -0.79087099573E+00  0.64157651027E+00  0.14577046644E+01  0.93800000000E+00 0.  1.
         22    1    1    2    0    0 -0.35954775735E+00  0.62485717383E+00  0.26484999476E+01  0.27448630294E+01  0.00000000000E+00 0.  1.
</event>
<event>
 5    1  0.1160133E+000  0.1592876E+01  0.7818608E-02  0.3361132E+00
         11   -1    0    0    0    0  0.00000000000E+00  0.00000000000E+00  0.39999999674E+01  0.40000000000E+01  0.51100000000E-03 0. -1.
    9000002   -1    0    0    0    0 -0.00000000000E+00 -0.00000000000E+00  0.00000000000E+00  0.93800000000E+00  0.93800000000E+00 0.  1.
         11    1    1    2    0    0  0.29066038767E+00  0.10331157578E+00  0.11651027854E+01  0.12052474867E+01  0.51100000000E-03 0. -1.
    9000002    1    1    2    0    0 -0.97161761850E+00 -0.76480438203E-01  0.76600097866E+00  0.15545068521E+01  0.93800000000E+00 0.  1.
         22    1    1    2    0    0  0.68095723083E+00 -0.26831137581E-01  0.20688962033E+01  0.21782456612E+01  0.00000000000E+00 0. -1.
</event>
<event>
 5    1  0.1160133E+000  0.1599606E+01  0.7818608E-02  0.3353791E+00
         11   -1    0    0    0    0  0.00000000000E+00  0.00000000000E+00  0.39999999674E+01  0.40000000000E+01  0.51100000000E-03 0. -1.
    9000002   -1    0    0    0    0 -0.00000000000E+00 -0.00000000000E+00  0.00000000000E+00  0.93800000000E+00  0.93800000000E+00 0. -1.
         11    1    1    2    0    0  0.25332760432E+00  0.23503212276E+00  0.12999428780E+01  0.13450898561E+01  0.51100000000E-03 0. -1.
    9000002    1    1    2    0    0 -0.67130640881E+00 -0.62497888680E+00  0.64894893413E+00  0.14636357547E+01  0.93800000000E+00 0. -1.
         22    1    1    2    0    0  0.41797880449E+00  0.38994676404E+00  0.20511081552E+01  0.21292743892E+01  0.00000000000E+00 0. -1.
</event>
<event>
 5    1  0.1160133E+000  0.1598579E+01  0.7818608E-02  0.3354907E+00
         11   -1    0    0    0    0  0.00000000000E+00  0.00000000000E+00  0.39999999674E+01  0.40000000000E+01  0.51100000000E-03 0.  1.
    9000002   -1    0    0    0    0 -0.00000000000E+00 -0.00000000000E+00  0.00000000000E+00  0.93800000000E+00  0.93800000000E+00 0. -1.
         11    1    1    2    0    0  0.28549444055E+00 -0.16215800656E+00  0.10099568347E+01  0.10619865177E+01  0.51100000000E-03 0.  1.
    9000002    1    1    2    0    0 -0.91639826803E+00  0.57747245444E+00  0.99963310864E+00  0.17471034810E+01  0.93800000000E+00 0. -1.
         22    1    1    2    0    0  0.63090382748E+00 -0.41531444788E+00  0.19904100240E+01  0.21289100013E+01  0.00000000000E+00 0. -1.
</event>
<event>
 5    1  0.1160133E+000  0.1599493E+01  0.7818608E-02  0.3353914E+00
         11   -1    0    0    0    0  0.00000000000E+00  0.00000000000E+00  0.39999999674E+01  0.40000000000E+01  0.51100000000E-03 0. -1.
    9000002   -1    0    0    0    0 -0.00000000000E+00 -0.00000000000E+00  0.00000000000E+00  0.93800000000E+00  0.93800000000E+00 0. -1.
         11    1    1    2    0    0  0.14707212263E+00 -0.43988315217E+00  0.89065609139E+00  0.10041891909E+01  0.51100000000E-03 0. -1.
    9000002    1    1    2    0    0 -0.38395597385E+00  0.11730463601E+01  0.15380562040E+01  0.21837858960E+01  0.93800000000E+00 0. -1.
         22    1    1    2    0    0  0.23688385122E+00 -0.73316320798E+00  0.15712876719E+01  0.17500249131E+01  0.00000000000E+00 0. -1.
</event>
<event>
 5    1  0.1160133E+000  0.1599465E+01  0.7818608E-02  0.3353944E+00
         11   -1    0    0    0    0  0.00000000000E+00  0.00000000000E+00  0.39999999674E+01  0.40000000000E+01  0.51100000000E-03 0. -1.
    9000002   -1    0    0    0    0 -0.00000000000E+00 -0.00000000000E+00  0.00000000000E+00  0.93800000000E+00  0.93800000000E+00 0.  1.
         11    1    1    2    0    0 -0.30223388483E+00  0.11855886063E+00  0.88119727576E+00  0.93910085960E+00  0.51100000000E-03 0. -1.
    9000002    1    1    2    0    0  0.98497544502E+00 -0.41887631240E+00  0.96474985451E+00  0.17193662420E+01  0.93800000000E+00 0.  1.
         22    1    1    2    0    0 -0.68274156019E+00  0.30031745177E+00  0.21540528371E+01  0.22795328984E+01  0.00000000000E+00 0. -1.
</event>
<event>
 5    1  0.1160133E+000  0.1599553E+01  0.7818608E-02  0.3353849E+00
         11   -1    0    0    0    0  0.00000000000E+00  0.00000000000E+00  0.39999999674E+01  0.40000000000E+01  0.51100000000E-03 0.  1.
    9000002   -1    0    0    0    0 -0.00000000000E+00 -0.00000000000E+00  0.00000000000E+00  0.93800000000E+00  0.93800000000E+00 0.  1.
         11    1    1    2    0    0  0.14907422087E-01  0.84788297309E-02  0.54161431922E-01  0.56814114581E-01  0.51100000000E-03 0.  1.
    9000002    1    1    2    0    0 -0.10001336390E+01 -0.49681421841E+00  0.10892817174E+01  0.18202940211E+01  0.93800000000E+00 0.  1.
         22    1    1    2    0    0  0.98522621690E+00  0.48833538868E+00  0.28565568180E+01  0.30608918643E+01  0.00000000000E+00 0.  1.
</event>
<event>
 5    1  0.1160133E+000  0.1598632E+01  0.7818608E-02  0.3354849E+00
         11   -1    0    0    0    0  0.00000000000E+00  0.00000000000E+00  0.39999999674E+01  0.40000000000E+01  0.51100000000E-03 0. -1.
    9000002   -1    0    0    0    0 -0.00000000000E+00 -0.00000000000E+00  0.00000000000E+00  0.93800000000E+00  0.93800000000E+00 0. -1.
         11    1    1    2    0    0  0.24342451217E-01  0.15722764170E-01  0.13193625208E+00  0.13508218231E+00  0.51100000000E-03 0. -1.
    9000002    1    1    2    0    0 -0.93550630716E+00 -0.19418007541E+00  0.71886547489E+00  0.15197004716E+01  0.93800000000E+00 0. -1.
         22    1    1    2    0    0  0.91116385594E+00  0.17845731124E+00  0.31491982404E+01  0.32832173461E+01  0.00000000000E+00 0. -1.
</event>
<event>
 5    1  0.1160133E+000  0.1599659E+01  0.7818608E-02  0.3353733E+00
         11   -1    0    0    0    0  0.00000000000E+00  0.00000000000E+00  0.39999999674E+01  0.40000000000E+01  0.51100000000E-03 0. -1.
    9000002   -1    0    0    0    0 -0.00000000000E+00 -0.00000000000E+00  0.00000000000E+00  0.93800000000E+00  0.93800000000E+00 0. -1.
         11    1    1    2    0    0  0.26179912805E+00 -0.19064365913E+00  0.10978162508E+01  0.11445892582E+01  0.51100000000E-03 0. -1.
    9000002    1    1    2    0    0 -0.79042794593E+00  0.56195325042E+00  0.74430379567E+00  0.15409088012E+01  0.93800000000E+00 0. -1.
         22    1    1    2    0    0  0.52862881788E+00 -0.37130959129E+00  0.21578799209E+01  0.22525019406E+01  0.00000000000E+00 0. -1.
</event>
<event>
 5    1  0.1160133E+000  0.1578985E+01  0.7818608E-02  0.3376493E+00
         11   -1    0    0    0    0  0.00000000000E+00  0.00000000000E+00  0.39999999674E+01  0.40000000000E+01  0.51100000000E-03 0. -1.
    9000002   -1    0    0    0    0 -0.00000000000E+00 -0.00000000000E+00  0.00000000000E+00  0.93800000000E+00  0.93800000000E+00 0.  1.
         11    1    1    2    0    0  0.63352599788E-01  0.11966378936E+00  0.11826999017E+01  0.11904252572E+01  0.51100000000E-03 0. -1.
    9000002    1    1    2    0    0 -0.63768649264E+00 -0.53426426315E+00  0.54440382411E+00  0.13668584014E+01  0.93800000000E+00 0.  1.
         22    1    1    2    0    0  0.57433389285E+00  0.41460047378E+00  0.22728962415E+01  0.23807163414E+01  0.00000000000E+00 0. -1.
</event>
<event>
 5    1  0.1160133E+000  0.1599676E+01  0.7818608E-02  0.3353715E+00
         11   -1    0    0    0    0  0.00000000000E+00  0.00000000000E+00  0.39999999674E+01  0.40000000000E+01  0.51100000000E-03 0. -1.
    9000002   -1    0    0    0    0 -0.00000000000E+00 -0.00000000000E+00  0.00000000000E+00  0.93800000000E+00  0.93800000000E+00 0.  1.
         11    1    1    2    0    0 -0.13420322662E+00 -0.19968916450E-01  0.42443722848E+00  0.44559677479E+00  0.51100000000E-03 0. -1.
    9000002    1    1    2    0    0  0.10048440523E+01  0.14594664182E+00  0.83694434671E+00  0.16159615810E+01  0.93800000000E+00 0.  1.
         22    1    1    2    0    0 -0.87064082570E+00 -0.12597772537E+00  0.27386183922E+01  0.28764416442E+01  0.00000000000E+00 0. -1.
</event>
<event>
 5    1  0.1160133E+000  0.1504095E+01  0.7818608E-02  0.3464520E+00
         11   -1    0    0    0    0  0.00000000000E+00  0.00000000000E+00  0.39999999674E+01  0.40000000000E+01  0.51100000000E-03 0. -1.
    9000002   -1    0    0    0    0 -0.00000000000E+00 -0.00000000000E+00  0.00000000000E+00  0.93800000000E+00  0.93800000000E+00 0. -1.
         11    1    1    2    0    0 -0.35099589716E+00  0.27560867447E+00  0.12008995997E+01  0.12811394815E+01  0.51100000000E-03 0. -1.
    9000002    1    1    2    0    0  0.29341733090E+00  0.52992979997E+00  0.50634335133E+00  0.12260289199E+01  0.93800000000E+00 0. -1.
         22    1    1    2    0    0  0.57578566267E-01 -0.80553847444E+00  0.22927570163E+01  0.24308315986E+01  0.00000000000E+00 0. -1.
</event>
<event>
 5    1  0.1160133E+000  0.1599661E+01  0.7818608E-02  0.3353732E+00
         11   -1    0    0    0    0  0.00000000000E+00  0.00000000000E+00  0.39999999674E+01  0.40000000000E+01  0.51100000000E-03 0.  1.
    9000002   -1    0    0    0    0 -0.00000000000E+00 -0.00000000000E+00  0.00000000000E+00  0.93800000000E+00  0.93800000000E+00 0. -1.
         11    1    1    2    0    0 -0.15217364635E+00  0.31992006580E+00  0.11955498276E+01  0.12469343682E+01  0.51100000000E-03 0.  1.
    9000002    1    1    2    0    0  0.40322463435E+00 -0.87682867649E+00  0.73525062470E+00  0.15335762501E+01  0.93800000000E+00 0. -1.
         22    1    1    2    0    0 -0.25105098800E+00  0.55690861069E+00  0.20691995150E+01  0.21574893817E+01  0.00000000000E+00 0.  1.
</event>
<event>
 5    1  0.1160133E+000  0.1047157E+01  0.7818608E-02  0.4419362E+00
         11   -1    0    0    0    0  0.00000000000E+00  0.00000000000E+00  0.39999999674E+01  0.40000000000E+01  0.51100000000E-03 0. -1.
    9000002   -1    0    0    0    0 -0.00000000000E+00 -0.00000000000E+00  0.00000000000E+00  0.93800000000E+00  0.93800000000E+00 0.  1.
         11    1    1    2    0    0  0.53347238858E+00  0.62035269052E+00  0.12117602372E+01  0.14621194833E+01  0.51100000000E-03 0. -1.
    9000002    1    1    2    0    0  0.28093841426E-01  0.14617641595E+00  0.69441056992E+00  0.11765232034E+01  0.93800000000E+00 0. -1.
         22    1    1    2    0    0 -0.56156623000E+00 -0.76652910647E+00  0.20938291603E+01  0.22993573133E+01  0.00000000000E+00 0.  1.
</event>
<event>
 5    1  0.1160133E+000  0.1599672E+01  0.7818608E-02  0.3353719E+00
         11   -1    0    0    0    0  0.00000000000E+00  0.00000000000E+00  0.39999999674E+01  0.40000000000E+01  0.51100000000E-03 0.  1.
    9000002   -1    0    0    0    0 -0.00000000000E+00 -0.00000000000E+00  0.00000000000E+00  0.93800000000E+00  0.93800000000E+00 0.  1.
         11    1    1    2    0    0  0.70683509871E-01 -0.20638360130E+00  0.14517961645E+00  0.26204528541E+00  0.51100000000E-03 0.  1.
    9000002    1    1    2    0    0 -0.37965033438E+00  0.10802002129E+01  0.32446354143E+01  0.35662963770E+01  0.93800000000E+00 0.  1.
         22    1    1    2    0    0  0.30896682451E+00 -0.87381661164E+00  0.61018493658E+00  0.11096583376E+01  0.00000000000E+00 0.  1.
</event>
<event>
 5    1  0.1160133E+000  0.1599676E+01  0.7818608E-02  0.3353715E+00
         11   -1    0    0    0    0  0.00000000000E+00  0.00000000000E+00  0.39999999674E+01  0.40000000000E+01  0.51100000000E-03 0. -1.
    9000002   -1    0    0    0    0 -0.00000000000E+00 -0.00000000000E+00  0.00000000000E+00  0.93800000000E+00  0.93800000000E+00 0. -1.
         11    1    1    2    0    0  0.17053329965E+00 -0.77810891877E-01  0.60994645796E+00  0.63809958775E+00  0.51100000000E-03 0. -1.
    9000002    1    1    2    0    0 -0.90283934405E+00  0.40931459232E+00  0.78664835382E+00  0.15752196511E+01  0.93800000000E+00 0. -1.
         22    1    1    2    0    0  0.73230604441E+00 -0.33150370044E+00  0.26034051556E+01  0.27246807611E+01  0.00000000000E+00 0. -1.
</event>
<event>
 5    1  0.1160133E+000  0.1599624E+01  0.7818608E-02  0.3353771E+00
         11   -1    0    0    0    0  0.00000000000E+00  0.00000000000E+00  0.39999999674E+01  0.40000000000E+01  0.51100000000E-03 0.  1.
    9000002   -1    0    0    0    0 -0.00000000000E+00 -0.00000000000E+00  0.00000000000E+00  0.93800000000E+00  0.93800000000E+00 0. -1.
         11    1    1    2    0    0 -0.10226295686E+00 -0.12951188255E+00  0.60747653483E+00  0.62949109728E+00  0.51100000000E-03 0.  1.
    9000002    1    1    2    0    0  0.54165679175E+00  0.74358455925E+00  0.65363974930E+00  0.14674464211E+01  0.93800000000E+00 0. -1.
         22    1    1    2    0    0 -0.43939383489E+00 -0.61407267671E+00  0.27388836832E+01  0.28410624817E+01  0.00000000000E+00 0.  1.
</event>
<event>
 5    1  0.1160133E+000  0.1559524E+01  0.7818608E-02  0.3398501E+00
         11   -1    0    0    0    0  0.00000000000E+00  0.00000000000E+00  0.39999999674E+01  0.40000000000E+01  0.51100000000E-03 0. -1.
    9000002   -1    0    0    0    0 -0.00000000000E+00 -0.00000000000E+00  0.00000000000E+00  0.93800000000E+00  0.93800000000E+00 0.  1.
         11    1    1    2    0    0  0.40869268169E-01 -0.96692828830E-01  0.12803644169E+01  0.12846606951E+01  0.51100000000E-03 0. -1.
    9000002    1    1    2    0    0 -0.71622185217E+00  0.16969054514E-01  0.41606241670E+00  0.12514845684E+01  0.93800000000E+00 0.  1.
         22    1    1    2    0    0  0.67535258400E+00  0.79723774316E-01  0.23035731337E+01  0.24018547365E+01  0.00000000000E+00 0. -1.
</event>
<event>
 5    1  0.1160133E+000  0.1598917E+01  0.7818608E-02  0.3354539E+00
         11   -1    0    0    0    0  0.00000000000E+00  0.00000000000E+00  0.39999999674E+01  0.40000000000E+01  0.51100000000E-03 0. -1.
    9000002   -1    0    0    0    0 -0.00000000000E+00 -0.00000000000E+00  0.00000000000E+00  0.93800000000E+00  0.93800000000E+00 0.  1.
         11    1    1    2    0    0  0.68185834414E-01 -0.21964108786E-01  0.14989875764E+00  0.16613737916E+00  0.51100000000E-03 0. -1.
    9000002    1    1    2    0    0 -0.10405053242E+01  0.36091613563E+00  0.10474299977E+01  0.17860194251E+01  0.93800000000E+00 0.  1.
         22    1    1    2    0    0  0.97231948983E+00 -0.33895202684E+00  0.28026712121E+01  0.29858431958E+01  0.00000000000E+00 0. -1.
</event>
<event>
 5    1  0.1160133E+000  0.1599356E+01  0.7818608E-02  0.3354063E+00
         11   -1    0    0    0    0  0.00000000000E+00  0.00000000000E+00  0.39999999674E+01  0.40000000000E+01  0.51100000000E-03 0. -1.
    9000002   -1    0    0    0    0 -0.00000000000E+00 -0.00000000000E+00  0.00000000000E+00  0.93800000000E+00  0.93800000000E+00 0. -1.
         11    1    1    2    0    0 -0.36122728720E+00 -0.44988433511E+00  0.11679342574E+01  0.13026710094E+01  0.51100000000E-03 0. -1.
    9000002    1    1    2    0    0  0.73224493911E+00  0.98105831466E+00  0.14870334387E+01  0.21423749708E+01  0.93800000000E+00 0. -1.
         22    1    1    2    0    0 -0.37101765191E+00 -0.53117397955E+00  0.13450322713E+01  0.14929540198E+01  0.00000000000E+00 0. -1.
</event>
<event>
 5    1  0.1160133E+000  0.1599472E+01  0.7818608E-02  0.3353937E+00
         11   -1    0    0    0    0  0.00000000000E+00  0.00000000000E+00  0.39999999674E+01  0.40000000000E+01  0.51100000000E-03 0.  1.
    9000002   -1    0    0    0    0 -0.00000000000E+00 -0.00000000000E+00  0.00000000000E+00  0.93800000000E+00  0.93800000000E+00 0.  1.
         11    1    1    2    0    0 -0.16899007799E+00 -0.17508640637E+00  0.28483477081E+00  0.37462515124E+00  0.51100000000E-03 0.  1.
    9000002    1    1    2    0    0  0.84085403573E+00  0.97285248288E+00  0.24791978021E+01  0.29461403912E+01  0.93800000000E+00 0.  1.
         22    1    1    2    0    0 -0.67186395774E+00 -0.79776607651E+00  0.12359673945E+01  0.16172344576E+01  0.00000000000E+00 0.  1.
</event>
<event>
 5    1  0.1160133E+000  0.1579519E+01  0.7818608E-02  0.3375897E+00
         11   -1    0    0    0    0  0.00000000000E+00  0.00000000000E+00  0.39999999674E+01  0.40000000000E+01  0.51100000000E-03 0. -1.
    9000002   -1    0    0    0    0 -0.00000000000E+00 -0.00000000000E+00  0.00000000000E+00  0.93800000000E+00  0.93800000000E+00 0.  1.
         11    1    1    2    0    0 -0.92567213468E-01 -0.71409312251E+00  0.13097918679E+01  0.14946747723E+01  0.51100000000E-03 0. -1.
    9000002    1    1    2    0    0 -0.89327849104E-01  0.11885484133E+01  0.14300950639E+01  0.20846205139E+01  0.93800000000E+00 0.  1.
         22    1    1    2    0    0  0.18189506257E+00 -0.47445529079E+00  0.12601130356E+01  0.13587047138E+01  0.00000000000E+00 0. -1.
</event>
<event>
 5    1  0.1160133E+000  0.1599676E+01  0.7818608E-02  0.3353715E+00
         11   -1    0    0    0    0  0.00000000000E+00  0.00000000000E+00  0.39999999674E+01  0.40000000000E+01  0.51100000000E-03 0. -1.
    9000002   -1    0    0    0    0 -0.00000000000E+00 -0.00000000000E+00  0.00000000000E+00  0.93800000000E+00  0.93800000000E+00 0.  1.
         11    1    1    2    0    0  0.11547744655E+00 -0.22241152056E+00  0.56846722347E+00  0.62125451340E+00  0.51100000000E-03 0.  1.
    9000002    1    1    2    0    0 -0.54862485398E+00  0.10502435914E+01  0.13153685560E+01  0.20035067432E+01  0.93800000000E+00 0.  1.
         22    1    1    2    0    0  0.43314740743E+00 -0.82783207086E+00  0.21161641879E+01  0.23132387435E+01  0.00000000000E+00 0. -1.
</event>
<event>
 5    1  0.1160133E+000  0.1599406E+01  0.7818608E-02  0.3354008E+00
         11   -1    0    0    0    0  0.00000000000E+00  0.00000000000E+00  0.39999999674E+01  0.40000000000E+01  0.51100000000E-03 0. -1.
    9000002   -1    0    0    0    0 -0.00000000000E+00 -0.00000000000E+00  0.00000000000E+00  0.93800000000E+00  0.93800000000E+00 0. -1.
         11    1    1    2    0    0 -0.18667829872E-01  0.77454768737E-01  0.28677510449E+00  0.29763728051E+00  0.51100000000E-03 0. -1.
    9000002    1    1    2    0    0  0.34213615602E+00 -0.89194386021E+00  0.71727064448E+00  0.15188621321E+01  0.93800000000E+00 0. -1.
         22    1    1    2    0    0 -0.32346832615E+00  0.81448909147E+00  0.29959542184E+01  0.31215005874E+01  0.00000000000E+00 0. -1.
</event>
<event>
 5    1  0.1160133E+000  0.1599677E+01  0.7818608E-02  0.3353714E+00
         11   -1    0    0    0    0  0.00000000000E+00  0.00000000000E+00  0.39999999674E+01  0.40000000000E+01  0.51100000000E-03 0.  1.
    9000002   -1    0    0    0    0 -0.00000000000E+00 -0.00000000000E+00  0.00000000000E+00  0.93800000000E+00  0.93800000000E+00 0. -1.
         11    1    1    2    0    0 -0.15369005159E+00  0.47033708567E+00  0.11247292329E+01  0.12287610486E+01  0.51100000000E-03 0. -1.
    9000002    1    1    2    0    0  0.36798660662E+00 -0.11243479778E+01  0.13081966975E+01  0.19976974539E+01  0.93800000000E+00 0. -1.
         22    1    1    2    0    0 -0.21429655504E+00  0.65401089212E+00  0.15670740369E+01  0.17115414975E+01  0.00000000000E+00 0.  1.
</event>
<event>
 5    1  0.1160133E+000  0.1599676E+01  0.7818608E-02  0.3353715E+00
         11   -1    0    0    0    0  0.00000000000E+00  0.00000000000E+00  0.39999999674E+01  0.40000000000E+01  0.51100000000E-03 0. -1.
    9000002   -1    0    0    0    0 -0.00000000000E+00 -0.00000000000E+00  0.00000000000E+00  0.93800000000E+00  0.93800000000E+00 0.  1.
         11    1    1    2    0    0 -0.26188778123E+00 -0.35112343036E+00  0.14279642710E+01  0.14936382071E+01  0.51100000000E-03 0. -1.
    9000002    1    1    2    0    0  0.59262280085E+00  0.79002334957E+00  0.77919022642E+00  0.15691781562E+01  0.93800000000E+00 0.  1.
         22    1    1    2    0    0 -0.33073501962E+00 -0.43889991921E+00  0.17928454699E+01  0.18751836367E+01  0.00000000000E+00 0. -1.
</event>
<event>
 5    1  0.1160133E+000  0.1599675E+01  0.7818608E-02  0.3353717E+00
         11   -1    0    0    0    0  0.00000000000E+00  0.00000000000E+00  0.39999999674E+01  0.40000000000E+01  0.51100000000E-03 0. -1.
    9000002   -1    0    0    0    0 -0.00000000000E+00 -0.00000000000E+00  0.00000000000E+00  0.93800000000E+00  0.93800000000E+00 0. -1.
         11    1    1    2    0    0  0.26913301857E+00 -0.25661693419E+00  0.11375562789E+01  0.11967954634E+01  0.51100000000E-03 0. -1.
    9000002    1    1    2    0    0 -0.73865962347E+00  0.71017248650E+00  0.85716904656E+00  0.16323436447E+01  0.93800000000E+00 0. -1.
         22    1    1    2    0    0  0.46952660490E+00 -0.45355555232E+00  0.20052746419E+01  0.21088608919E+01  0.00000000000E+00 0. -1.
</event>
<event>
 5    1  0.1160133E+000  0.1599490E+01  0.7818608E-02  0.3353917E+00
         11   -1    0    0    0    0  0.00000000000E+00  0.00000000000E+00  0.39999999674E+01  0.40000000000E+01  0.51100000000E-03 0. -1.
    9000002   -1    0    0    0    0 -0.00000000000E+00 -0.00000000000E+00  0.00000000000E+00  0.93800000000E+00  0.93800000000E+00 0.  1.
         11    1    1    2    0    0  0.45805882947E+00 -0.14515039853E+00  0.13607233565E+01  0.14430713231E+01  0.51100000000E-03 0. -1.
    9000002    1    1    2    0    0 -0.99816293833E+00  0.33490778295E+00  0.92203658271E+00  0.16847812720E+01  0.93800000000E+00 0.  1.
         22    1    1    2    0    0  0.54010410887E+00 -0.18975738441E+00  0.17172400281E+01  0.18101474049E+01  0.00000000000E+00 0.  1.
</event>
<event>
 5    1  0.1160133E+000  0.1598730E+01  0.7818608E-02  0.3354743E+00
         11   -1    0    0    0    0  0.00000000000E+00  0.00000000000E+00  0.39999999674E+01  0.40000000000E+01  0.51100000000E-03 0.  1.
    9000002   -1    0    0    0    0 -0.00000000000E+00 -0.00000000000E+00  0.00000000000E+00  0.93800000000E+00  0.93800000000E+00 0. -1.
         11    1    1    2    0    0 -0.11810645061E-01  0.17677718428E+00  0.46298087447E+00  0.49572292207E+00  0.51100000000E-03 0.  1.
    9000002    1    1    2    0    0  0.15799893043E-01 -0.10237307936E+01  0.85729749278E+00  0.16318937972E+01  0.93800000000E+00 0. -1.
         22    1    1    2    0    0 -0.39892479823E-02  0.84695360928E+00  0.26797216001E+01  0.28103832807E+01  0.00000000000E+00 0.  1.
</event>
<event>
 5    1  0.1160133E+000  0.1596503E+01  0.7818608E-02  0.3357168E+00
         11   -1    0    0    0    0  0.00000000000E+00  0.00000000000E+00  0.39999999674E+01  0.40000000000E+01  0.51100000000E-03 0. -1.
    9000002   -1    0    0    0    0 -0.00000000000E+00 -0.00000000000E+00  0.00000000000E+00  0.93800000000E+00  0.93800000000E+00 0. -1.
         11    1    1    2    0    0  0.18499922445E-02 -0.50221695955E-01  0.95970757616E-01  0.10833415276E+00  0.51100000000E-03 0. -1.
    9000002    1    1    2    0    0  0.17460946686E+00  0.92650744711E+00  0.69925569157E+00  0.15025668164E+01  0.93800000000E+00 0. -1.
         22    1    1    2    0    0 -0.17645945911E+00 -0.87628575116E+00  0.32047735182E+01  0.33270990309E+01  0.00000000000E+00 0. -1.
</event>
<event>
 5    1  0.1168721E+000  0.1477785E+01  0.7818608E-02  0.3497722E+00
         11   -1    0    0    0    0  0.00000000000E+00  0.00000000000E+00  0.39999999674E+01  0.40000000000E+01  0.51100000000E-03 0.  1.
    9000002   -1    0    0    0    0 -0.00000000000E+00 -0.00000000000E+00  0.00000000000E+00  0.93800000000E+00  0.93800000000E+00 0.  1.
         11    1    1    2    0    0  0.22780432929E+00 -0.77583822835E-01  0.10651192701E+01  0.10919676655E+01  0.51100000000E-03 0.  1.
    9000002    1    1    2    0    0  0.52100772334E+00  0.11490260268E+00  0.31966571619E+00  0.11254696024E+01  0.93800000000E+00 0.  1.
         22    1    1    2    0    0 -0.74881205263E+00 -0.37318779841E-01  0.26152149811E+01  0.27205627320E+01  0.00000000000E+00 0.  1.
</event>
<event>
 5    1  0.1160133E+000  0.1249922E+01  0.7818608E-02  0.3882472E+00
         11   -1    0    0    0    0  0.00000000000E+00  0.00000000000E+00  0.39999999674E+01  0.40000000000E+01  0.51100000000E-03 0. -1.
    9000002   -1    0    0    0    0 -0.00000000000E+00 -0.00000000000E+00  0.00000000000E+00  0.93800000000E+00  0.93800000000E+00 0.  1.
         11    1    1    2    0    0 -0.51608782005E+00  0.18644843662E+00  0.12406234382E+01  0.13565605162E+01  0.51100000000E-03 0. -1.
    9000002    1    1    2    0    0 -0.42071975359E+00 -0.11561962061E+00  0.53038845751E+00  0.11625527616E+01  0.93800000000E+00 0.  1.
         22    1    1    2    0    0  0.93680757364E+00 -0.70828816013E-01  0.22289880716E+01  0.24188867222E+01  0.00000000000E+00 0. -1.
</event>
<event>
 5    1  0.1160133E+000  0.1500616E+01  0.7818608E-02  0.3468839E+00
         11   -1    0    0    0    0  0.00000000000E+00  0.00000000000E+00  0.39999999674E+01  0.40000000000E+01  0.51100000000E-03 0.  1.
    9000002   -1    0    0    0    0 -0.00000000000E+00 -0.00000000000E+00  0.00000000000E+00  0.93800000000E+00  0.93800000000E+00 0.  1.
         11    1    1    2    0    0 -0.87793983639E-01 -0.83091452798E-01  0.13064044476E+00  0.17798640403E+00  0.51100000000E-03 0.  1.
    9000002    1    1    2    0    0 -0.78341264694E+00 -0.33501448927E+00  0.70229523040E+00  0.14488038770E+01  0.93800000000E+00 0.  1.
         22    1    1    2    0    0  0.87120663058E+00  0.41810594207E+00  0.31670642922E+01  0.33112097190E+01  0.00000000000E+00 0.  1.
</event>
<event>
 5    1  0.1160133E+000  0.1596472E+01  0.7818608E-02  0.3357201E+00
         11   -1    0    0    0    0  0.00000000000E+00  0.00000000000E+00  0.39999999674E+01  0.40000000000E+01  0.51100000000E-03 0.  1.
    9000002   -1    0    0    0    0 -0.00000000000E+00 -0.00000000000E+00  0.00000000000E+00  0.93800000000E+00  0.93800000000E+00 0. -1.
         11    1    1    2    0    0 -0.58466212616E-01 -0.74741365319E-02  0.10192620578E+00  0.11774282687E+00  0.51100000000E-03 0.  1.
    9000002    1    1    2    0    0  0.10296814330E+01 -0.34029641684E-01  0.87624924064E+00  0.16459218091E+01  0.93800000000E+00 0. -1.
         22    1    1    2    0    0 -0.97121522038E+00  0.41503778216E-01  0.30218245209E+01  0.31743353640E+01  0.00000000000E+00 0.  1.
</event>
<event>
 5    1  0.1160133E+000  0.1599505E+01  0.7818608E-02  0.3353901E+00
         11   -1    0    0    0    0  0.00000000000E+00  0.00000000000E+00  0.39999999674E+01  0.40000000000E+01  0.51100000000E-03 0.  1.
    9000002   -1    0    0    0    0 -0.00000000000E+00 -0.00000000000E+00  0.00000000000E+00  0.93800000000E+00  0.93800000000E+00 0. -1.
         11    1    1    2    0    0 -0.39388141977E+00  0.17101256638E+00  0.11533691103E+01  0.12307105413E+01  0.51100000000E-03 0.  1.
    9000002    1    1    2    0    0  0.98808451975E+00 -0.46991601802E+00  0.10263376464E+01  0.17692781145E+01  0.93800000000E+00 0. -1.
         22    1    1    2    0    0 -0.59420309998E+00  0.29890345164E+00  0.18202932106E+01  0.19380113442E+01  0.00000000000E+00 0.  1.
</event>
<event>
 5    1  0.1160133E+000  0.1583479E+01  0.7818608E-02  0.3371492E+00
         11   -1    0    0    0    0  0.00000000000E+00  0.00000000000E+00  0.39999999674E+01  0.40000000000E+01  0.51100000000E-03 0.  1.
    9000002   -1    0    0    0    0 -0.00000000000E+00 -0.00000000000E+00  0.00000000000E+00  0.93800000000E+00  0.93800000000E+00 0. -1.
         11    1    1    2    0    0  0.20360989175E+00  0.12796796926E+00  0.14079229296E+01  0.14283137001E+01  0.51100000000E-03 0.  1.
    9000002    1    1    2    0    0 -0.43176219181E+00 -0.68687578955E+00  0.50844390979E+00  0.13403641856E+01  0.93800000000E+00 0. -1.
         22    1    1    2    0    0  0.22815230007E+00  0.55890782029E+00  0.20836331280E+01  0.21693221143E+01  0.00000000000E+00 0.  1.
</event>
<event>
 5    1  0.1160133E+000  0.1540437E+01  0.7818608E-02  0.3420662E+00
         11   -1    0    0    0    0  0.00000000000E+00  0.00000000000E+00  0.39999999674E+01  0.40000000000E+01  0.51100000000E-03 0.  1.
    9000002   -1    0    0    0    0 -0.00000000000E+00 -0.00000000000E+00  0.00000000000E+00  0.93800000000E+00  0.93800000000E+00 0. -1.
         11    1    1    2    0    0  0.19541294099E+00  0.11654814762E+00  0.40979819842E+00  0.46872647970E+00  0.51100000000E-03 0.  1.
    9000002    1    1    2    0    0 -0.89300994120E+00  0.53793963255E+00  0.10410534795E+01  0.17465629535E+01  0.93800000000E+00 0. -1.
         22    1    1    2    0    0  0.69759700021E+00 -0.65448778016E+00  0.25491482894E+01  0.27227105668E+01  0.00000000000E+00 0.  1.
</event>
<event>
 5    1  0.1160133E+000  0.1469410E+01  0.7818608E-02  0.3508561E+00
         11   -1    0    0    0    0  0.00000000000E+00  0.00000000000E+00  0.39999999674E+01  0.40000000000E+01  0.51100000000E-03 0. -1.
    9000002   -1    0    0    0    0 -0.00000000000E+00 -0.00000000000E+00  0.00000000000E+00  0.93800000000E+00  0.93800000000E+00 0.  1.
         11    1    1    2    0    0 -0.29412952260E-01  0.20500133336E+00  0.61143683463E+00  0.64555862034E+00  0.51100000000E-03 0. -1.
    9000002    1    1    2    0    0 -0.29022095344E+00  0.65822543032E+00  0.54139604543E+00  0.13001702184E+01  0.93800000000E+00 0.  1.
         22    1    1    2    0    0  0.31963390570E+00 -0.86322676367E+00  0.28471670873E+01  0.29922711612E+01  0.00000000000E+00 0. -1.
</event>
<event>
 5    1  0.1160133E+000  0.1595896E+01  0.7818608E-02  0.3357829E+00
         11   -1    0    0    0    0  0.00000000000E+00  0.00000000000E+00  0.39999999674E+01  0.40000000000E+01  0.51100000000E-03 0.  1.
    9000002   -1    0    0    0    0 -0.00000000000E+00 -0.00000000000E+00  0.00000000000E+00  0.93800000000E+00  0.93800000000E+00 0.  1.
         11    1    1    2    0    0  0.12626808106E+00 -0.11086772651E+00  0.62104725165E+00  0.64337798453E+00  0.51100000000E-03 0.  1.
    9000002    1    1    2    0    0 -0.43612745835E+00  0.78837036106E+00  0.62745443208E+00  0.14440491856E+01  0.93800000000E+00 0.  1.
         22    1    1    2    0    0  0.30985937729E+00 -0.67750263455E+00  0.27514982836E+01  0.28505728299E+01  0.00000000000E+00 0.  1.
</event>
<event>
 5    1  0.1160133E+000  0.1599676E+01  0.7818608E-02  0.3353715E+00
         11   -1    0    0    0    0  0.00000000000E+00  0.00000000000E+00  0.39999999674E+01  0.40000000000E+01  0.51100000000E-03 0.  1.
    9000002   -1    0    0    0    0 -0.00000000000E+00 -0.00000000000E+00  0.00000000000E+00  0.93800000000E+00  0.93800000000E+00 0.  1.
         11    1    1    2    0    0 -0.28728712714E+00 -0.30540511529E+00  0.10459586663E+01  0.11268699884E+01  0.51100000000E-03 0. -1.
    9000002    1    1    2    0    0  0.77913104288E+00  0.83189989600E+00  0.11585777037E+01  0.18764991113E+01  0.93800000000E+00 0.  1.
         22    1    1    2    0    0 -0.49184391574E+00 -0.52649478070E+00  0.17954635973E+01  0.19346309004E+01  0.00000000000E+00 0.  1.
</event>
<event>
 5    1  0.1160133E+000  0.1599639E+01  0.7818608E-02  0.3353756E+00
         11   -1    0    0    0    0  0.00000000000E+00  0.00000000000E+00  0.39999999674E+01  0.40000000000E+01  0.51100000000E-03 0. -1.
    9000002   -1    0    0    0    0 -0.00000000000E+00 -0.00000000000E+00  0.00000000000E+00  0.93800000000E+00  0.93800000000E+00 0. -1.
         11    1    1    2    0    0 -0.16982748777E+00 -0.29146369451E+00  0.81355247106E+00  0.88071581405E+00  0.51100000000E-03 0. -1.
    9000002    1    1    2    0    0  0.57219711902E+00  0.10132890352E+01  0.12378481970E+01  0.19406896637E+01  0.93800000000E+00 0. -1.
         22    1    1    2    0    0 -0.40236963125E+00 -0.72182534068E+00  0.19485992993E+01  0.21165945223E+01  0.00000000000E+00 0. -1.
</event>
<event>
 5    1  0.1160133E+000  0.1527139E+01  0.7818608E-02  0.3436451E+00
         11   -1    0    0    0    0  0.00000000000E+00  0.00000000000E+00  0.39999999674E+01  0.40000000000E+01  0.51100000000E-03 0. -1.
    9000002   -1    0    0    0    0 -0.00000000000E+00 -0.00000000000E+00  0.00000000000E+00  0.93800000000E+00  0.93800000000E+00 0. -1.
         11    1    1    2    0    0 -0.10061252470E+00  0.98964882789E-02  0.23659848927E+00  0.25729346445E+00  0.51100000000E-03 0. -1.
    9000002    1    1    2    0    0 -0.75893284692E+00  0.75003925070E+00  0.11543908607E+01  0.18305737360E+01  0.93800000000E+00 0. -1.
         22    1    1    2    0    0  0.85954537162E+00 -0.75993573898E+00  0.26090106174E+01  0.28501327995E+01  0.00000000000E+00 0. -1.
</event>
<event>
 5    1  0.1160133E+000  0.1599677E+01  0.7818608E-02  0.3353714E+00
         11   -1    0    0    0    0  0.00000000000E+00  0.00000000000E+00  0.39999999674E+01  0.40000000000E+01  0.51100000000E-03 0.  1.
    9000002   -1    0    0    0    0 -0.00000000000E+00 -0.00000000000E+00  0.00000000000E+00  0.93800000000E+00  0.93800000000E+00 0. -1.
         11    1    1    2    0    0 -0.36016728436E-01 -0.26657597679E+00  0.93252155754E+00  0.97054452372E+00  0.51100000000E-03 0.  1.
    9000002    1    1    2    0    0  0.12851747958E+00  0.94023208293E+00  0.70509290057E+00  0.15091564236E+01  0.93800000000E+00 0. -1.
         22    1    1    2    0    0 -0.92500751149E-01 -0.67365610614E+00  0.23623855093E+01  0.24582990527E+01  0.00000000000E+00 0.  1.
</event>
<event>
 5    1  0.1160133E+000  0.1599661E+01  0.7818608E-02  0.3353731E+00
         11   -1    0    0    0    0  0.00000000000E+00  0.00000000000E+00  0.39999999674E+01  0.40000000000E+01  0.51100000000E-03 0. -1.
    9000002   -1    0    0    0    0 -0.00000000000E+00 -0.00000000000E+00  0.00000000000E+00  0.93800000000E+00  0.93800000000E+00 0. -1.
         11    1    1    2    0    0  0.48440270238E+00  0.17377752956E+00  0.12921822083E+01  0.13908917027E+01  0.51100000000E-03 0. -1.
    9000002    1    1    2    0    0 -0.10637270598E+01 -0.38516869452E+00  0.11323473871E+01  0.18552425141E+01  0.93800000000E+00 0. -1.
         22    1    1    2    0    0  0.57932435742E+00  0.21139116497E+00  0.15754703719E+01  0.16918657833E+01  0.00000000000E+00 0. -1.
</event>
<event>
 5    1  0.1160133E+000  0.1596343E+01  0.7818608E-02  0.3357342E+00
         11   -1    0    0    0    0  0.00000000000E+00  0.00000000000E+00  0.39999999674E+01  0.40000000000E+01  0.51100000000E-03 0. -1.
    9000002   -1    0    0    0    0 -0.00000000000E+00 -0.00000000000E+00  0.00000000000E+00  0.93800000000E+00  0.93800000000E+00 0.  1.
         11    1    1    2    0    0 -0.16113963964E-01 -0.29666600886E+00  0.10987440195E+01  0.11382043148E+01  0.51100000000E-03 0. -1.
    9000002    1    1    2    0    0 -0.98513460338E-01  0.99355551395E+00  0.80766746699E+00  0.15902918595E+01  0.93800000000E+00 0.  1.
         22    1    1    2    0    0  0.11462742430E+00 -0.69688950509E+00  0.20935884809E+01  0.22095038257E+01  0.00000000000E+00 0. -1.
</event>
<event>
 5    1  0.1160133E+000  0.1512868E+01  0.7818608E-02  0.3453725E+00
         11   -1    0    0    0    0  0.00000000000E+00  0.00000000000E+00  0.39999999674E+01  0.40000000000E+01  0.51100000000E-03 0. -1.
    9000002   -1    0    0    0    0 -0.00000000000E+00 -0.00000000000E+00  0.00000000000E+00  0.93800000000E+00  0.93800000000E+00 0.  1.
         11    1    1    2    0    0  0.15155497388E+00  0.30211829473E+00  0.12906806504E+01  0.13342043234E+01  0.51100000000E-03 0. -1.
    9000002    1    1    2    0    0 -0.92390951570E+00 -0.79794113698E-01  0.82640635719E+00  0.15565241280E+01  0.93800000000E+00 0.  1.
         22    1    1    2    0    0  0.77235454182E+00 -0.22232418103E+00  0.18829129597E+01  0.20472715486E+01  0.00000000000E+00 0. -1.
</event>
<event>
 5    1  0.1160133E+000  0.1599677E+01  0.7818608E-02  0.3353714E+00
         11   -1    0    0    0    0  0.00000000000E+00  0.00000000000E+00  0.39999999674E+01  0.40000000000E+01  0.51100000000E-03 0.  1.
    9000002   -1    0    0    0    0 -0.00000000000E+00 -0.00000000000E+00  0.00000000000E+00  0.93800000000E+00  0.93800000000E+00 0.  1.
         11    1    1    2    0    0 -0.33418297364E-01  0.25929448925E+00  0.50012128995E+00  0.56433321764E+00  0.51100000000E-03 0.  1.
    9000002    1    1    2    0    0  0.15856221126E+00 -0.12378154392E+01  0.16147206188E+01  0.22459954838E+01  0.93800000000E+00 0.  1.
         22    1    1    2    0    0 -0.12514391389E+00  0.97852094999E+00  0.18851580586E+01  0.21276712986E+01  0.00000000000E+00 0.  1.
</event>
<event>
 5    1  0.1160133E+000  0.1599674E+01  0.7818608E-02  0.3353717E+00
         11   -1    0    0    0    0  0.00000000000E+00  0.00000000000E+00  0.39999999674E+01  0.40000000000E+01  0.51100000000E-03 0. -1.
    9000002   -1    0    0    0    0 -0.00000000000E+00 -0.00000000000E+00  0.00000000000E+00  0.93800000000E+00  0.93800000000E+00 0.  1.
         11    1    1    2    0    0  0.14043112968E-01  0.15189790580E+00  0.55072265632E+00  0.57145943698E+00  0.51100000000E-03 0. -1.
    9000002    1    1    2    0    0 -0.92798228338E-01 -0.91712501842E+00  0.65675846362E+00  0.14700018674E+01  0.93800000000E+00 0.  1.
         22    1    1    2    0    0  0.78755115370E-01  0.76522711262E+00  0.27925188474E+01  0.28965386956E+01  0.00000000000E+00 0. -1.
</event>
<event>
 5    1  0.1160133E+000  0.1594922E+01  0.7818608E-02  0.3358894E+00
         11   -1    0    0    0    0  0.00000000000E+00  0.00000000000E+00  0.39999999674E+01  0.40000000000E+01  0.51100000000E-03 0.  1.
    9000002   -1    0    0    0    0 -0.00000000000E+00 -0.00000000000E+00  0.00000000000E+00  0.93800000000E+00  0.93800000000E+00 0.  1.
         11    1    1    2    0    0  0.23037230597E-01  0.34322613570E-01  0.10192033565E+00  0.10998532509E+00  0.51100000000E-03 0.  1.
    9000002    1    1    2    0    0  0.19079066541E+00 -0.97414023998E+00  0.79846954419E+00  0.15820075531E+01  0.93800000000E+00 0.  1.
         22    1    1    2    0    0 -0.21382789600E+00  0.93981762641E+00  0.30996100875E+01  0.32460071218E+01  0.00000000000E+00 0.  1.
</event>
<event>
 5    1  0.1160133E+000  0.1599479E+01  0.7818608E-02  0.3353929E+00
         11   -1    0    0    0    0  0.00000000000E+00  0.00000000000E+00  0.39999999674E+01  0.40000000000E+01  0.51100000000E-03 0. -1.
    9000002   -1    0    0    0    0 -0.00000000000E+00 -0.00000000000E+00  0.00000000000E+00  0.93800000000E+00  0.93800000000E+00 0.  1.
         11    1    1    2    0    0  0.51796090430E-01  0.54036402743E-01  0.27566645135E+00  0.28564842259E+00  0.51100000000E-03 0. -1.
    9000002    1    1    2    0    0 -0.55371866491E+00 -0.73987740196E+00  0.66109930681E+00  0.14734039579E+01  0.93800000000E+00 0.  1.
         22    1    1    2    0    0  0.50192257448E+00  0.68584099922E+00  0.30632342092E+01  0.31789476195E+01  0.00000000000E+00 0. -1.
</event>
<event>
 5    1  0.1160133E+000  0.1599298E+01  0.7818608E-02  0.3354125E+00
         11   -1    0    0    0    0  0.00000000000E+00  0.00000000000E+00  0.39999999674E+01  0.40000000000E+01  0.51100000000E-03 0. -1.
    9000002   -1    0    0    0    0 -0.00000000000E+00 -0.00000000000E+00  0.00000000000E+00  0.93800000000E+00  0.93800000000E+00 0.  1.
         11    1    1    2    0    0  0.20693971280E+00 -0.26340648559E+00  0.11478433682E+01  0.11957222422E+01  0.51100000000E-03 0. -1.
    9000002    1    1    2    0    0 -0.60484695624E+00  0.79335115631E+00  0.80029471104E+00  0.15860521814E+01  0.93800000000E+00 0.  1.
         22    1    1    2    0    0  0.39790724345E+00 -0.52994467072E+00  0.20518618881E+01  0.21562255764E+01  0.00000000000E+00 0. -1.
</event>
<event>
 5    1  0.1160133E+000  0.1599611E+01  0.7818608E-02  0.3353786E+00
         11   -1    0    0    0    0  0.00000000000E+00  0.00000000000E+00  0.39999999674E+01  0.40000000000E+01  0.51100000000E-03 0.  1.
    9000002   -1    0    0    0    0 -0.00000000000E+00 -0.00000000000E+00  0.00000000000E+00  0.93800000000E+00  0.93800000000E+00 0.  1.
         11    1    1    2    0    0 -0.24220473342E+00  0.52974372081E+00  0.11672744764E+01  0.13045388101E+01  0.51100000000E-03 0.  1.
    9000002    1    1    2    0    0  0.49507188629E+00 -0.11308239881E+01  0.15382650676E+01  0.21840243778E+01  0.93800000000E+00 0.  1.
         22    1    1    2    0    0 -0.25286715287E+00  0.60108026726E+00  0.12944604234E+01  0.14494368122E+01  0.00000000000E+00 0. -1.
</event>
<event>
 5    1  0.1160133E+000  0.1599675E+01  0.7818608E-02  0.3353716E+00
         11   -1    0    0    0    0  0.00000000000E+00  0.00000000000E+00  0.39999999674E+01  0.40000000000E+01  0.51100000000E-03 0. -1.
    9000002   -1    0    0    0    0 -0.00000000000E+00 -0.00000000000E+00  0.00000000000E+00  0.93800000000E+00  0.93800000000E+00 0. -1.
         11    1    1    2    0    0 -0.16586708062E+00 -0.52067283770E-01  0.32336002670E+00  0.36713057413E+00  0.51100000000E-03 0.  1.
    9000002    1    1    2    0    0  0.12009511559E+01  0.36988990181E+00  0.16705500947E+01  0.22912188541E+01  0.93800000000E+00 0. -1.
         22    1    1    2    0    0 -0.10350840753E+01 -0.31782261804E+00  0.20060898460E+01  0.22796505718E+01  0.00000000000E+00 0. -1.
</event>
<event>
 5    1  0.1160133E+000  0.1599581E+01  0.7818608E-02  0.3353819E+00
         11   -1    0    0    0    0  0.00000000000E+00  0.00000000000E+00  0.39999999674E+01  0.40000000000E+01  0.51100000000E-03 0. -1.
    9000002   -1    0    0    0    0 -0.00000000000E+00 -0.00000000000E+00  0.00000000000E+00  0.93800000000E+00  0.93800000000E+00 0. -1.
         11    1    1    2    0    0  0.18889750831E+00  0.92587431692E-02  0.64185632720E+00  0.66913959594E+00  0.51100000000E-03 0. -1.
    9000002    1    1    2    0    0 -0.92953416216E+00 -0.42178083047E-01  0.67204453352E+00  0.14823294520E+01  0.93800000000E+00 0. -1.
         22    1    1    2    0    0  0.74063665384E+00  0.32919339877E-01  0.26860991066E+01  0.27865309520E+01  0.00000000000E+00 0. -1.
</event>
<event>
 5    1  0.1160133E+000  0.1599674E+01  0.7818608E-02  0.3353717E+00
         11   -1    0    0    0    0  0.00000000000E+00  0.00000000000E+00  0.39999999674E+01  0.40000000000E+01  0.51100000000E-03 0.  1.
    9000002   -1    0    0    0    0 -0.00000000000E+00 -0.00000000000E+00  0.00000000000E+00  0.93800000000E+00  0.93800000000E+00 0. -1.
         11    1    1    2    0    0  0.25125818601E+00 -0.27671904636E+00  0.62428011510E+00  0.72761942654E+00  0.51100000000E-03 0.  1.
    9000002    1    1    2    0    0 -0.86497515644E+00  0.94363743569E+00  0.18667669410E+01  0.24501625340E+01  0.93800000000E+00 0. -1.
         22    1    1    2    0    0  0.61371697043E+00 -0.66691838933E+00  0.15089529113E+01  0.17602180394E+01  0.00000000000E+00 0.  1.
</event>
<event>
 5    1  0.1160133E+000  0.1596848E+01  0.7818608E-02  0.3356791E+00
         11   -1    0    0    0    0  0.00000000000E+00  0.00000000000E+00  0.39999999674E+01  0.40000000000E+01  0.51100000000E-03 0.  1.
    9000002   -1    0    0    0    0 -0.00000000000E+00 -0.00000000000E+00  0.00000000000E+00  0.93800000000E+00  0.93800000000E+00 0.  1.
         11    1    1    2    0    0  0.32954597092E+00 -0.20500877628E+00  0.10686411151E+01  0.11369358994E+01  0.51100000000E-03 0.  1.
    9000002    1    1    2    0    0 -0.80221201348E+00  0.58532301939E+00  0.79560202235E+00  0.15808142616E+01  0.93800000000E+00 0.  1.
         22    1    1    2    0    0  0.47266604256E+00 -0.38031424311E+00  0.21357568299E+01  0.22202498391E+01  0.00000000000E+00 0.  1.
</event>
<event>
 5    1  0.1160133E+000  0.1568200E+01  0.7818608E-02  0.3388618E+00
         11   -1    0    0    0    0  0.00000000000E+00  0.00000000000E+00  0.39999999674E+01  0.40000000000E+01  0.51100000000E-03 0. -1.
    9000002   -1    0    0    0    0 -0.00000000000E+00 -0.00000000000E+00  0.00000000000E+00  0.93800000000E+00  0.93800000000E+00 0. -1.
         11    1    1    2    0    0  0.10158288490E+00 -0.27109292789E+00  0.66926715982E+00  0.72919767580E+00  0.51100000000E-03 0. -1.
    9000002    1    1    2    0    0  0.32317700563E+00  0.11405748196E+01  0.14549149115E+01  0.20980885815E+01  0.93800000000E+00 0. -1.
         22    1    1    2    0    0 -0.42475989053E+00 -0.86948189170E+00  0.18758178961E+01  0.21107137427E+01  0.00000000000E+00 0. -1.
</event>
<event>
 5    1  0.1160133E+000  0.1559931E+01  0.7818608E-02  0.3398036E+00
         11   -1    0    0    0    0  0.00000000000E+00  0.00000000000E+00  0.39999999674E+01  0.40000000000E+01  0.51100000000E-03 0.  1.
    9000002   -1    0    0    0    0 -0.00000000000E+00 -0.00000000000E+00  0.00000000000E+00  0.93800000000E+00  0.93800000000E+00 0.  1.
         11    1    1    2    0    0  0.32253290303E+00  0.20984688661E+00  0.82009074278E+00  0.90587652408E+00  0.51100000000E-03 0.  1.
    9000002    1    1    2    0    0  0.72971483020E+00 -0.12075787097E+00  0.82632775220E+00  0.14524901896E+01  0.93800000000E+00 0.  1.
         22    1    1    2    0    0 -0.10522477332E+01 -0.89089015633E-01  0.23535814724E+01  0.25796332863E+01  0.00000000000E+00 0.  1.
</event>
<event>
 5    1  0.1160133E+000  0.1579394E+01  0.7818608E-02  0.3376037E+00
         11   -1    0    0    0    0  0.00000000000E+00  0.00000000000E+00  0.39999999674E+01  0.40000000000E+01  0.51100000000E-03 0.  1.
    9000002   -1    0    0    0    0 -0.00000000000E+00 -0.00000000000E+00  0.00000000000E+00  0.93800000000E+00  0.93800000000E+00 0.  1.
         11    1    1    2    0    0 -0.36498662960E+00  0.47683539745E-01  0.10526436397E+01  0.11151447678E+01  0.51100000000E-03 0.  1.
    9000002    1    1    2    0    0  0.78311761364E+00 -0.50067509018E+00  0.70425808255E+00  0.14965868466E+01  0.93800000000E+00 0.  1.
         22    1    1    2    0    0 -0.41813098404E+00  0.45299155044E+00  0.22430982451E+01  0.23262683856E+01  0.00000000000E+00 0.  1.
</event>
<event>
 5    1  0.1160133E+000  0.1597372E+01  0.7818608E-02  0.3356220E+00
         11   -1    0    0    0    0  0.00000000000E+00  0.00000000000E+00  0.39999999674E+01  0.40000000000E+01  0.51100000000E-03 0. -1.
    9000002   -1    0    0    0    0 -0.00000000000E+00 -0.00000000000E+00  0.00000000000E+00  0.93800000000E+00  0.93800000000E+00 0. -1.
         11    1    1    2    0    0  0.74654004674E-01  0.56495322961E+00  0.10741823603E+01  0.12159824737E+01  0.51100000000E-03 0. -1.
    9000002    1    1    2    0    0 -0.13298308210E+00 -0.12044195031E+01  0.14374850893E+01  0.21010754916E+01  0.93800000000E+00 0. -1.
         22    1    1    2    0    0  0.58329077428E-01  0.63946627352E+00  0.14883325178E+01  0.16209420346E+01  0.00000000000E+00 0. -1.
</event>
<event>
 5    1  0.1160133E+000  0.1589309E+01  0.7818608E-02  0.3365050E+00
         11   -1    0    0    0    0  0.00000000000E+00  0.00000000000E+00  0.39999999674E+01  0.40000000000E+01  0.51100000000E-03 0. -1.
    9000002   -1    0    0    0    0 -0.00000000000E+00 -0.00000000000E+00  0.00000000000E+00  0.93800000000E+00  0.93800000000E+00 0. -1.
         11    1    1    2    0    0 -0.18511847120E+00 -0.21878358988E+00  0.90650155107E+00  0.95072626491E+00  0.51100000000E-03 0. -1.
    9000002    1    1    2    0    0  0.84854816843E+00  0.43684921005E+00  0.73329393772E+00  0.15259211073E+01  0.93800000000E+00 0. -1.
         22    1    1    2    0    0 -0.66342969724E+00 -0.21806562018E+00  0.23602044786E+01  0.24613526278E+01  0.00000000000E+00 0. -1.
</event>
<event>
 5    1  0.1160133E+000  0.1599677E+01  0.7818608E-02  0.3353714E+00
         11   -1    0    0    0    0  0.00000000000E+00  0.00000000000E+00  0.39999999674E+01  0.40000000000E+01  0.51100000000E-03 0. -1.
    9000002   -1    0    0    0    0 -0.00000000000E+00 -0.00000000000E+00  0.00000000000E+00  0.93800000000E+00  0.93800000000E+00 0.  1.
         11    1    1    2    0    0 -0.18408473454E+00  0.30061294465E+00  0.12900281376E+01  0.13373212736E+01  0.51100000000E-03 0.  1.
    9000002    1    1    2    0    0  0.47932157627E+00 -0.78133248380E+00  0.64788415911E+00  0.14628149259E+01  0.93800000000E+00 0.  1.
         22    1    1    2    0    0 -0.29523684173E+00  0.48071953915E+00  0.20620876707E+01  0.21378638005E+01  0.00000000000E+00 0. -1.
</event>
<event>
 5    1  0.1160133E+000  0.1556445E+01  0.7818608E-02  0.3402037E+00
         11   -1    0    0    0    0  0.00000000000E+00  0.00000000000E+00  0.39999999674E+01  0.40000000000E+01  0.51100000000E-03 0. -1.
    9000002   -1    0    0    0    0 -0.00000000000E+00 -0.00000000000E+00  0.00000000000E+00  0.93800000000E+00  0.93800000000E+00 0. -1.
         11    1    1    2    0    0  0.34176454079E+00  0.30661988803E+00  0.96185586994E+00  0.10658263145E+01  0.51100000000E-03 0. -1.
    9000002    1    1    2    0    0 -0.97136199245E+00 -0.24127655699E+00  0.89588395884E+00  0.16383560556E+01  0.93800000000E+00 0. -1.
         22    1    1    2    0    0  0.62959745166E+00 -0.65343331038E-01  0.21422601386E+01  0.22338176298E+01  0.00000000000E+00 0. -1.
</event>
<event>
 5    1  0.1160133E+000  0.1599668E+01  0.7818608E-02  0.3353724E+00
         11   -1    0    0    0    0  0.00000000000E+00  0.00000000000E+00  0.39999999674E+01  0.40000000000E+01  0.51100000000E-03 0. -1.
    9000002   -1    0    0    0    0 -0.00000000000E+00 -0.00000000000E+00  0.00000000000E+00  0.93800000000E+00  0.93800000000E+00 0. -1.
         11    1    1    2    0    0 -0.31391733720E+00  0.24870822121E+00  0.12898153353E+01  0.13505642281E+01  0.51100000000E-03 0. -1.
    9000002    1    1    2    0    0  0.78601289307E+00 -0.61156660549E+00  0.79606726754E+00  0.15828446151E+01  0.93800000000E+00 0. -1.
         22    1    1    2    0    0 -0.47209555587E+00  0.36285838428E+00  0.19141173646E+01  0.20045911569E+01  0.00000000000E+00 0. -1.
</event>
<event>
 5    1  0.1160133E+000  0.1599656E+01  0.7818608E-02  0.3353736E+00
         11   -1    0    0    0    0  0.00000000000E+00  0.00000000000E+00  0.39999999674E+01  0.40000000000E+01  0.51100000000E-03 0.  1.
    9000002   -1    0    0    0    0 -0.00000000000E+00 -0.00000000000E+00  0.00000000000E+00  0.93800000000E+00  0.93800000000E+00 0.  1.
         11    1    1    2    0    0  0.87963829962E-01  0.11408261598E+00  0.22667604633E+00  0.26857916850E+00  0.51100000000E-03 0.  1.
    9000002    1    1    2    0    0 -0.80809543654E+00 -0.10017089961E+01  0.19533820543E+01  0.25203143846E+01  0.93800000000E+00 0.  1.
         22    1    1    2    0    0  0.72013160658E+00  0.88762638015E+00  0.18199418668E+01  0.21491064469E+01  0.00000000000E+00 0.  1.
</event>
<event>
 5    1  0.1160133E+000  0.1102824E+01  0.7818608E-02  0.4246020E+00
         11   -1    0    0    0    0  0.00000000000E+00  0.00000000000E+00  0.39999999674E+01  0.40000000000E+01  0.51100000000E-03 0. -1.
    9000002   -1    0    0    0    0 -0.00000000000E+00 -0.00000000000E+00  0.00000000000E+00  0.93800000000E+00  0.93800000000E+00 0.  1.
         11    1    1    2    0    0 -0.71115325444E+00  0.12295629445E+00  0.64701019395E+00  0.96926758629E+00  0.51100000000E-03 0. -1.
    9000002    1    1    2    0    0 -0.16863302038E+00  0.21274557189E+00  0.85053692580E+00  0.12949729094E+01  0.93800000000E+00 0.  1.
         22    1    1    2    0    0  0.87978627481E+00 -0.33570186633E+00  0.25024528476E+01  0.26737595043E+01  0.00000000000E+00 0. -1.
</event>
<event>
 5    1  0.1160133E+000  0.1599393E+01  0.7818608E-02  0.3354022E+00
         11   -1    0    0    0    0  0.00000000000E+00  0.00000000000E+00  0.39999999674E+01  0.40000000000E+01  0.51100000000E-03 0. -1.
    9000002   -1    0    0    0    0 -0.00000000000E+00 -0.00000000000E+00  0.00000000000E+00  0.93800000000E+00  0.93800000000E+00 0. -1.
         11    1    1    2    0    0  0.78356860854E-01 -0.42289905273E+00  0.10834416954E+01  0.11656884553E+01  0.51100000000E-03 0. -1.
    9000002    1    1    2    0    0 -0.17208080361E+00  0.11003565045E+01  0.10810634749E+01  0.18135430728E+01  0.93800000000E+00 0. -1.
         22    1    1    2    0    0  0.93723942754E-01 -0.67745745181E+00  0.18354947971E+01  0.19587684719E+01  0.00000000000E+00 0. -1.
</event>
<event>
 5    1  0.1160133E+000  0.1599674E+01  0.7818608E-02  0.3353717E+00
         11   -1    0    0    0    0  0.00000000000E+00  0.00000000000E+00  0.39999999674E+01  0.40000000000E+01  0.51100000000E-03 0.  1.
    9000002   -1    0    0    0    0 -0.00000000000E+00 -0.00000000000E+00  0.00000000000E+00  0.93800000000E+00  0.93800000000E+00 0.  1.
         11    1    1    2    0    0 -0.57880704455E+00  0.35533544234E+00  0.11303301818E+01  0.13186839851E+01  0.51100000000E-03 0.  1.
    9000002    1    1    2    0    0  0.10920171425E+01 -0.66941411442E+00  0.18752716208E+01  0.24570519628E+01  0.93800000000E+00 0.  1.
         22    1    1    2    0    0 -0.51321009793E+00  0.31407867208E+00  0.99439816473E+00  0.11622640521E+01  0.00000000000E+00 0. -1.
</event>
<event>
 5    1  0.1160133E+000  0.1599511E+01  0.7818608E-02  0.3353894E+00
         11   -1    0    0    0    0  0.00000000000E+00  0.00000000000E+00  0.39999999674E+01  0.40000000000E+01  0.51100000000E-03 0. -1.
    9000002   -1    0    0    0    0 -0.00000000000E+00 -0.00000000000E+00  0.00000000000E+00  0.93800000000E+00  0.93800000000E+00 0.  1.
         11    1    1    2    0    0 -0.85454952946E-01 -0.24220275879E+00  0.69382745045E+00  0.73983884560E+00  0.51100000000E-03 0. -1.
    9000002    1    1    2    0    0  0.36837371095E+00  0.10020336574E+01  0.95781172129E+00  0.17137730115E+01  0.93800000000E+00 0.  1.
         22    1    1    2    0    0 -0.28291875800E+00 -0.75983089863E+00  0.23483607956E+01  0.24843881429E+01  0.00000000000E+00 0. -1.
</event>
<event>
 5    1  0.1160133E+000  0.1598750E+01  0.7818608E-02  0.3354721E+00
         11   -1    0    0    0    0  0.00000000000E+00  0.00000000000E+00  0.39999999674E+01  0.40000000000E+01  0.51100000000E-03 0. -1.
    9000002   -1    0    0    0    0 -0.00000000000E+00 -0.00000000000E+00  0.00000000000E+00  0.93800000000E+00  0.93800000000E+00 0. -1.
         11    1    1    2    0    0  0.25338758079E+00  0.48722795554E+00  0.12303331656E+01  0.13473367457E+01  0.51100000000E-03 0. -1.
    9000002    1    1    2    0    0 -0.60980330092E+00 -0.10094651070E+01  0.12977234296E+01  0.19886704020E+01  0.93800000000E+00 0. -1.
         22    1    1    2    0    0  0.35641572013E+00  0.52223715149E+00  0.14719433722E+01  0.16019928523E+01  0.00000000000E+00 0. -1.
</event>
<event>
 5    1  0.1160133E+000  0.1547987E+01  0.7818608E-02  0.3411827E+00
         11   -1    0    0    0    0  0.00000000000E+00  0.00000000000E+00  0.39999999674E+01  0.40000000000E+01  0.51100000000E-03 0. -1.
    9000002   -1    0    0    0    0 -0.00000000000E+00 -0.00000000000E+00  0.00000000000E+00  0.93800000000E+00  0.93800000000E+00 0.  1.
         11    1    1    2    0    0  0.41039302876E-01 -0.12491886413E-01 -0.11902066817E+00  0.12651660831E+00  0.51100000000E-03 0. -1.
    9000002    1    1    2    0    0  0.76675683771E+00  0.50292932520E+00  0.13357116302E+01  0.18721173877E+01  0.93800000000E+00 0.  1.
         22    1    1    2    0    0 -0.80779614059E+00 -0.49043743879E+00  0.27833090054E+01  0.29393660040E+01  0.00000000000E+00 0. -1.
</event>
<event>
 5    1  0.1225773E+000  0.1599414E+01  0.7818608E-02  0.3353999E+00
         11   -1    0    0    0    0  0.00000000000E+00  0.00000000000E+00  0.39999999674E+01  0.40000000000E+01  0.51100000000E-03 0.  1.
    9000002   -1    0    0    0    0 -0.00000000000E+00 -0.00000000000E+00  0.00000000000E+00  0.93800000000E+00  0.93800000000E+00 0.  1.
         11    1    1    2    0    0  0.91461297171E-01 -0.33611308293E+00  0.13950033850E+01  0.14378358316E+01  0.51100000000E-03 0.  1.
    9000002    1    1    2    0    0 -0.24950530345E+00  0.85691360288E+00  0.60813798205E+00  0.14304648281E+01  0.93800000000E+00 0.  1.
         22    1    1    2    0    0  0.15804400628E+00 -0.52080051995E+00  0.19968586003E+01  0.20696993403E+01  0.00000000000E+00 0.  1.
</event>
<event>
 5    1  0.1160133E+000  0.1140059E+01  0.7818608E-02  0.4142505E+00
         11   -1    0    0    0    0  0.00000000000E+00  0.00000000000E+00  0.39999999674E+01  0.40000000000E+01  0.51100000000E-03 0. -1.
    9000002   -1    0    0    0    0 -0.00000000000E+00 -0.00000000000E+00  0.00000000000E+00  0.93800000000E+00  0.93800000000E+00 0. -1.
         11    1    1    2    0    0  0.64105242476E+00  0.21957580140E+00  0.76344293755E+00  0.10207875018E+01  0.51100000000E-03 0. -1.
    9000002    1    1    2    0    0  0.23903644443E+00 -0.36060512853E+00  0.75224377534E+00  0.12778455220E+01  0.93800000000E+00 0. -1.
         22    1    1    2    0    0 -0.88008886919E+00  0.14102932713E+00  0.24843132545E+01  0.26393669762E+01  0.00000000000E+00 0.  1.
</event>
<event>
 5    1  0.1160133E+000  0.1599668E+01  0.7818608E-02  0.3353724E+00
         11   -1    0    0    0    0  0.00000000000E+00  0.00000000000E+00  0.39999999674E+01  0.40000000000E+01  0.51100000000E-03 0.  1.
    9000002   -1    0    0    0    0 -0.00000000000E+00 -0.00000000000E+00  0.00000000000E+00  0.93800000000E+00  0.93800000000E+00 0. -1.
         11    1    1    2    0    0 -0.13339440678E+00 -0.75730230717E-01  0.55635116410E+00  0.57711005408E+00  0.51100000000E-03 0.  1.
    9000002    1    1    2    0    0  0.81140868463E+00  0.44275238539E+00  0.66116009842E+00  0.14735638446E+01  0.93800000000E+00 0. -1.
         22    1    1    2    0    0 -0.67801427785E+00 -0.36702215468E+00  0.27824887048E+01  0.28873261014E+01  0.00000000000E+00 0.  1.
</event>
<event>
 5    1  0.1160133E+000  0.1599516E+01  0.7818608E-02  0.3353889E+00
         11   -1    0    0    0    0  0.00000000000E+00  0.00000000000E+00  0.39999999674E+01  0.40000000000E+01  0.51100000000E-03 0. -1.
    9000002   -1    0    0    0    0 -0.00000000000E+00 -0.00000000000E+00  0.00000000000E+00  0.93800000000E+00  0.93800000000E+00 0.  1.
         11    1    1    2    0    0 -0.10853991458E+00 -0.24696328921E+00  0.10584041654E+01  0.10922414650E+01  0.51100000000E-03 0. -1.
    9000002    1    1    2    0    0  0.33361328288E+00  0.83359700954E+00  0.61674851244E+00  0.14374993998E+01  0.93800000000E+00 0.  1.
         22    1    1    2    0    0 -0.22507336831E+00 -0.58663372033E+00  0.23248472895E+01  0.24082591352E+01  0.00000000000E+00 0. -1.
</event>
<event>
 5    1  0.1160133E+000  0.1593845E+01  0.7818608E-02  0.3360071E+00
         11   -1    0    0    0    0  0.00000000000E+00  0.00000000000E+00  0.39999999674E+01  0.40000000000E+01  0.51100000000E-03 0.  1.
    9000002   -1    0    0    0    0 -0.00000000000E+00 -0.00000000000E+00  0.00000000000E+00  0.93800000000E+00  0.93800000000E+00 0. -1.
         11    1    1    2    0    0 -0.40426620560E+00 -0.83104244126E-02  0.14316457256E+01  0.14876525041E+01  0.51100000000E-03 0.  1.
    9000002    1    1    2    0    0  0.91265409815E+00 -0.19027636081E+00  0.68473026695E+00  0.14892421344E+01  0.93800000000E+00 0. -1.
         22    1    1    2    0    0 -0.50838789256E+00  0.19858678522E+00  0.18836239748E+01  0.19611053615E+01  0.00000000000E+00 0. -1.
</event>
<event>
 5    1  0.1160133E+000  0.1592482E+01  0.7818608E-02  0.3361564E+00
         11   -1    0    0    0    0  0.00000000000E+00  0.00000000000E+00  0.39999999674E+01  0.40000000000E+01  0.51100000000E-03 0. -1.
    9000002   -1    0    0    0    0 -0.00000000000E+00 -0.00000000000E+00  0.00000000000E+00  0.93800000000E+00  0.93800000000E+00 0. -1.
         11    1    1    2    0    0  0.15372000956E+00  0.10527897371E+00  0.10891254033E+01  0.11049470163E+01  0.51100000000E-03 0. -1.
    9000002    1    1    2    0    0 -0.79041143045E+00 -0.27803434286E+00  0.53413591248E+00  0.13664547187E+01  0.93800000000E+00 0. -1.
         22    1    1    2    0    0  0.63669142089E+00  0.17275536915E+00  0.23767386516E+01  0.24665982650E+01  0.00000000000E+00 0. -1.
</event>
<event>
 5    1  0.1160133E+000  0.1599676E+01  0.7818608E-02  0.3353715E+00
         11   -1    0    0    0    0  0.00000000000E+00  0.00000000000E+00  0.39999999674E+01  0.40000000000E+01  0.51100000000E-03 0. -1.
    9000002   -1    0    0    0    0 -0.00000000000E+00 -0.00000000000E+00  0.00000000000E+00  0.93800000000E+00  0.93800000000E+00 0.  1.
         11    1    1    2    0    0  0.25582973588E+00 -0.13219511840E+00  0.71974721234E+00  0.77521655934E+00  0.51100000000E-03 0. -1.
    9000002    1    1    2    0    0 -0.10091227495E+01  0.52350365773E+00  0.11493268757E+01  0.18690053693E+01  0.93800000000E+00 0.  1.
         22    1    1    2    0    0  0.75329301367E+00 -0.39130853933E+00  0.21309258793E+01  0.22937780714E+01  0.00000000000E+00 0. -1.
</event>
<event>
 5    1  0.1160133E+000  0.1599587E+01  0.7818608E-02  0.3353811E+00
         11   -1    0    0    0    0  0.00000000000E+00  0.00000000000E+00  0.39999999674E+01  0.40000000000E+01  0.51100000000E-03 0. -1.
    9000002   -1    0    0    0    0 -0.00000000000E+00 -0.00000000000E+00  0.00000000000E+00  0.93800000000E+00  0.93800000000E+00 0. -1.
         11    1    1    2    0    0  0.52873445786E-01  0.31833255218E-01  0.18701228762E+00  0.19693352749E+00  0.51100000000E-03 0. -1.
    9000002    1    1    2    0    0 -0.94702405906E+00 -0.48716190065E+00  0.95115951812E+00  0.17084290195E+01  0.93800000000E+00 0.  1.
         22    1    1    2    0    0  0.89415061327E+00  0.45532864543E+00  0.28618281616E+01  0.30326374530E+01  0.00000000000E+00 0. -1.
</event>
<event>
 5    1  0.1160133E+000  0.1551763E+01  0.7818608E-02  0.3407442E+00
         11   -1    0    0    0    0  0.00000000000E+00  0.00000000000E+00  0.39999999674E+01  0.40000000000E+01  0.51100000000E-03 0.  1.
    9000002   -1    0    0    0    0 -0.00000000000E+00 -0.00000000000E+00  0.00000000000E+00  0.93800000000E+00  0.93800000000E+00 0.  1.
         11    1    1    2    0    0 -0.63059418386E+00  0.29704282912E+00  0.13042445779E+01  0.14788298236E+01  0.51100000000E-03 0.  1.
    9000002    1    1    2    0    0  0.10992233000E+01 -0.12024732543E+00  0.12012772963E+01  0.18829929435E+01  0.93800000000E+00 0.  1.
         22    1    1    2    0    0 -0.46862911617E+00 -0.17679550369E+00  0.14944780932E+01  0.15761772329E+01  0.00000000000E+00 0.  1.
</event>
<event>
 5    1  0.1160133E+000  0.1599172E+01  0.7818608E-02  0.3354263E+00
         11   -1    0    0    0    0  0.00000000000E+00  0.00000000000E+00  0.39999999674E+01  0.40000000000E+01  0.51100000000E-03 0.  1.
    9000002   -1    0    0    0    0 -0.00000000000E+00 -0.00000000000E+00  0.00000000000E+00  0.93800000000E+00  0.93800000000E+00 0. -1.
         11    1    1    2    0    0 -0.24273743236E+00 -0.19430001659E+00  0.10303783228E+01  0.10762684176E+01  0.51100000000E-03 0.  1.
    9000002    1    1    2    0    0  0.76463098296E+00  0.67248579892E+00  0.84421336182E+00  0.16215541589E+01  0.93800000000E+00 0. -1.
         22    1    1    2    0    0 -0.52189355060E+00 -0.47818578233E+00  0.21254082827E+01  0.22401774235E+01  0.00000000000E+00 0. -1.
</event>
<event>
 5    1  0.1160133E+000  0.1599674E+01  0.7818608E-02  0.3353717E+00
         11   -1    0    0    0    0  0.00000000000E+00  0.00000000000E+00  0.39999999674E+01  0.40000000000E+01  0.51100000000E-03 0.  1.
    9000002   -1    0    0    0    0 -0.00000000000E+00 -0.00000000000E+00  0.00000000000E+00  0.93800000000E+00  0.93800000000E+00 0.  1.
         11    1    1    2    0    0 -0.38116679297E-02 -0.30440914887E+00  0.10876913536E+01  0.11294920100E+01  0.51100000000E-03 0.  1.
    9000002    1    1    2    0    0  0.14764177528E-01  0.92747710226E+00  0.66681164443E+00  0.14781452991E+01  0.93800000000E+00 0.  1.
         22    1    1    2    0    0 -0.10952509598E-01 -0.62306795340E+00  0.22454969693E+01  0.23303626909E+01  0.00000000000E+00 0.  1.
</event>
<event>
 5    1  0.1160133E+000  0.1599659E+01  0.7818608E-02  0.3353733E+00
         11   -1    0    0    0    0  0.00000000000E+00  0.00000000000E+00  0.39999999674E+01  0.40000000000E+01  0.51100000000E-03 0. -1.
    9000002   -1    0    0    0    0 -0.00000000000E+00 -0.00000000000E+00  0.00000000000E+00  0.93800000000E+00  0.93800000000E+00 0. -1.
         11    1    1    2    0    0  0.32245762098E+00 -0.15009237641E+00  0.12352286805E+01  0.12854169725E+01  0.51100000000E-03 0. -1.
    9000002    1    1    2    0    0 -0.85610282291E+00  0.39094205251E+00  0.69088209812E+00  0.14976347369E+01  0.93800000000E+00 0. -1.
         22    1    1    2    0    0  0.53364520193E+00 -0.24084967610E+00  0.20738891887E+01  0.21549482906E+01  0.00000000000E+00 0. -1.
</event>
<event>
 5    1  0.1160133E+000  0.1599676E+01  0.7818608E-02  0.3353716E+00
         11   -1    0    0    0    0  0.00000000000E+00  0.00000000000E+00  0.39999999674E+01  0.40000000000E+01  0.51100000000E-03 0.  1.
    9000002   -1    0    0    0    0 -0.00000000000E+00 -0.00000000000E+00  0.00000000000E+00  0.93800000000E+00  0.93800000000E+00 0.  1.
         11    1    1    2    0    0 -0.22339667746E-01 -0.49706967377E+00  0.10627934350E+01  0.11735022232E+01  0.51100000000E-03 0.  1.
    9000002    1    1    2    0    0  0.57708577090E-01  0.12083179887E+01  0.14177331202E+01  0.20864260931E+01  0.93800000000E+00 0.  1.
         22    1    1    2    0    0 -0.35368909344E-01 -0.71124831497E+00  0.15194734122E+01  0.16780716837E+01  0.00000000000E+00 0.  1.
</event>
<event>
 5    1  0.1160133E+000  0.1599672E+01  0.7818608E-02  0.3353719E+00
         11   -1    0    0    0    0  0.00000000000E+00  0.00000000000E+00  0.39999999674E+01  0.40000000000E+01  0.51100000000E-03 0.  1.
    9000002   -1    0    0    0    0 -0.00000000000E+00 -0.00000000000E+00  0.00000000000E+00  0.93800000000E+00  0.93800000000E+00 0. -1.
         11    1    1    2    0    0 -0.14565332043E+00 -0.14169809957E+00  0.71683995961E+00  0.74508592122E+00  0.51100000000E-03 0.  1.
    9000002    1    1    2    0    0  0.66525332268E+00  0.66057390646E+00  0.68433741899E+00  0.14923409705E+01  0.93800000000E+00 0. -1.
         22    1    1    2    0    0 -0.51960000225E+00 -0.51887580689E+00  0.25988225888E+01  0.27005731083E+01  0.00000000000E+00 0.  1.
</event>
<event>
 5    1  0.1160133E+000  0.1599065E+01  0.7818608E-02  0.3354378E+00
         11   -1    0    0    0    0  0.00000000000E+00  0.00000000000E+00  0.39999999674E+01  0.40000000000E+01  0.51100000000E-03 0. -1.
    9000002   -1    0    0    0    0 -0.00000000000E+00 -0.00000000000E+00  0.00000000000E+00  0.93800000000E+00  0.93800000000E+00 0.  1.
         11    1    1    2    0    0  0.10943005394E+00  0.37998084384E-02  0.27841189615E+00  0.29917021959E+00  0.51100000000E-03 0. -1.
    9000002    1    1    2    0    0 -0.10299443475E+01 -0.81530229595E-01  0.87736606226E+00  0.16483469734E+01  0.93800000000E+00 0.  1.
         22    1    1    2    0    0  0.92051429360E+00  0.77730421157E-01  0.28442220089E+01  0.29904828071E+01  0.00000000000E+00 0. -1.
</event>
<event>
 5    1  0.1160133E+000  0.1599677E+01  0.7818608E-02  0.3353714E+00
         11   -1    0    0    0    0  0.00000000000E+00  0.00000000000E+00  0.39999999674E+01  0.40000000000E+01  0.51100000000E-03 0.  1.
    9000002   -1    0    0    0    0 -0.00000000000E+00 -0.00000000000E+00  0.00000000000E+00  0.93800000000E+00  0.93800000000E+00 0. -1.
         11    1    1    2    0    0 -0.48110554941E+00  0.15019804562E-02  0.12528081908E+01  0.13420109648E+01  0.51100000000E-03 0.  1.
    9000002    1    1    2    0    0  0.11170237625E+01 -0.27877066254E-02  0.10897929778E+01  0.18207807643E+01  0.93800000000E+00 0. -1.
         22    1    1    2    0    0 -0.63591821308E+00  0.12857261692E-02  0.16573987988E+01  0.17752082709E+01  0.00000000000E+00 0.  1.
</event>
<event>
 5    1  0.1160133E+000  0.1599662E+01  0.7818608E-02  0.3353730E+00
         11   -1    0    0    0    0  0.00000000000E+00  0.00000000000E+00  0.39999999674E+01  0.40000000000E+01  0.51100000000E-03 0. -1.
    9000002   -1    0    0    0    0 -0.00000000000E+00 -0.00000000000E+00  0.00000000000E+00  0.93800000000E+00  0.93800000000E+00 0. -1.
         11    1    1    2    0    0 -0.29747673510E-02  0.11856629996E-01  0.41919533887E-01  0.43668493882E-01  0.51100000000E-03 0.  1.
    9000002    1    1    2    0    0  0.16310925376E+00 -0.93717555038E+00  0.70932655706E+00  0.15125775370E+01  0.93800000000E+00 0. -1.
         22    1    1    2    0    0 -0.16013448641E+00  0.92531892038E+00  0.32487538764E+01  0.33817539691E+01  0.00000000000E+00 0. -1.
</event>
<event>
 5    1  0.1160133E+000  0.1593109E+01  0.7818608E-02  0.3360876E+00
         11   -1    0    0    0    0  0.00000000000E+00  0.00000000000E+00  0.39999999674E+01  0.40000000000E+01  0.51100000000E-03 0. -1.
    9000002   -1    0    0    0    0 -0.00000000000E+00 -0.00000000000E+00  0.00000000000E+00  0.93800000000E+00  0.93800000000E+00 0.  1.
         11    1    1    2    0    0 -0.31781281486E-01 -0.48308627675E-01  0.13190532503E+00  0.14402447449E+00  0.51100000000E-03 0. -1.
    9000002    1    1    2    0    0 -0.13690339231E+00  0.93506201118E+00  0.70912217531E+00  0.15085694426E+01  0.93800000000E+00 0.  1.
         22    1    1    2    0    0  0.16868467379E+00 -0.88675338351E+00  0.31589724670E+01  0.32854060829E+01  0.00000000000E+00 0. -1.
</event>
<event>
 5    1  0.1160133E+000  0.1599668E+01  0.7818608E-02  0.3353724E+00
         11   -1    0    0    0    0  0.00000000000E+00  0.00000000000E+00  0.39999999674E+01  0.40000000000E+01  0.51100000000E-03 0.  1.
    9000002   -1    0    0    0    0 -0.00000000000E+00 -0.00000000000E+00  0.00000000000E+00  0.93800000000E+00  0.93800000000E+00 0.  1.
         11    1    1    2    0    0 -0.19884095219E+00  0.22508368498E+00  0.96855879867E+00  0.10140546322E+01  0.51100000000E-03 0.  1.
    9000002    1    1    2    0    0  0.66566432820E+00 -0.74781759592E+00  0.80692029476E+00  0.15916357990E+01  0.93800000000E+00 0.  1.
         22    1    1    2    0    0 -0.46682337601E+00  0.52273391095E+00  0.22245208739E+01  0.23323095688E+01  0.00000000000E+00 0.  1.
</event>
<event>
 5    1  0.1160133E+000  0.1561501E+01  0.7818608E-02  0.3396239E+00
         11   -1    0    0    0    0  0.00000000000E+00  0.00000000000E+00  0.39999999674E+01  0.40000000000E+01  0.51100000000E-03 0.  1.
    9000002   -1    0    0    0    0 -0.00000000000E+00 -0.00000000000E+00  0.00000000000E+00  0.93800000000E+00  0.93800000000E+00 0.  1.
         11    1    1    2    0    0  0.79016130050E-01  0.56206745145E-01  0.46575767853E-01  0.10757467304E+00  0.51100000000E-03 0.  1.
    9000002    1    1    2    0    0 -0.10521106098E+01 -0.17861022638E+00  0.10524407775E+01  0.17681385518E+01  0.93800000000E+00 0.  1.
         22    1    1    2    0    0  0.97309447971E+00  0.12240348123E+00  0.29009834220E+01  0.30622867752E+01  0.00000000000E+00 0.  1.
</event>
<event>
 5    1  0.1160133E+000  0.1569452E+01  0.7818608E-02  0.3387201E+00
         11   -1    0    0    0    0  0.00000000000E+00  0.00000000000E+00  0.39999999674E+01  0.40000000000E+01  0.51100000000E-03 0.  1.
    9000002   -1    0    0    0    0 -0.00000000000E+00 -0.00000000000E+00  0.00000000000E+00  0.93800000000E+00  0.93800000000E+00 0. -1.
         11    1    1    2    0    0  0.66516950359E-01  0.95512807896E-01  0.13838001610E+01  0.13886865550E+01  0.51100000000E-03 0.  1.
    9000002    1    1    2    0    0 -0.71597415479E-01 -0.76433045868E+00  0.46783942241E+00  0.12992478459E+01  0.93800000000E+00 0. -1.
         22    1    1    2    0    0  0.50804651198E-02  0.66881765078E+00  0.21483603839E+01  0.22500655991E+01  0.00000000000E+00 0.  1.
</event>
<event>
 5    1  0.1160133E+000  0.1574694E+01  0.7818608E-02  0.3381296E+00
         11   -1    0    0    0    0  0.00000000000E+00  0.00000000000E+00  0.39999999674E+01  0.40000000000E+01  0.51100000000E-03 0.  1.
    9000002   -1    0    0    0    0 -0.00000000000E+00 -0.00000000000E+00  0.00000000000E+00  0.93800000000E+00  0.93800000000E+00 0. -1.
         11    1    1    2    0    0 -0.96730234954E-01  0.12515924204E-01  0.40341796300E-01  0.10555144889E+00  0.51100000000E-03 0.  1.
    9000002    1    1    2    0    0  0.92929184931E+00 -0.85052257486E+00  0.19820931485E+01  0.25289344082E+01  0.93800000000E+00 0. -1.
         22    1    1    2    0    0 -0.83256161436E+00  0.83800665066E+00  0.19775650225E+01  0.23035141429E+01  0.00000000000E+00 0.  1.
</event>
<event>
 5    1  0.1160133E+000  0.1599643E+01  0.7818608E-02  0.3353751E+00
         11   -1    0    0    0    0  0.00000000000E+00  0.00000000000E+00  0.39999999674E+01  0.40000000000E+01  0.51100000000E-03 0.  1.
    9000002   -1    0    0    0    0 -0.00000000000E+00 -0.00000000000E+00  0.00000000000E+00  0.93800000000E+00  0.93800000000E+00 0. -1.
         11    1    1    2    0    0 -0.11828862437E+00 -0.16749343633E+00  0.51467236447E+00  0.55401638400E+00  0.51100000000E-03 0.  1.
    9000002    1    1    2    0    0  0.67907130417E+00  0.92278175130E+00  0.11776108159E+01  0.18918972569E+01  0.93800000000E+00 0. -1.
         22    1    1    2    0    0 -0.56078267980E+00 -0.75528831496E+00  0.23077167869E+01  0.24920863591E+01  0.00000000000E+00 0.  1.
</event>
<event>
 5    1  0.1160133E+000  0.1599672E+01  0.7818608E-02  0.3353720E+00
         11   -1    0    0    0    0  0.00000000000E+00  0.00000000000E+00  0.39999999674E+01  0.40000000000E+01  0.51100000000E-03 0. -1.
    9000002   -1    0    0    0    0 -0.00000000000E+00 -0.00000000000E+00  0.00000000000E+00  0.93800000000E+00  0.93800000000E+00 0. -1.
         11    1    1    2    0    0 -0.39910681609E+00 -0.35759299237E-01  0.13269278043E+01  0.13861106150E+01  0.51100000000E-03 0. -1.
    9000002    1    1    2    0    0  0.97015576440E+00  0.89736113532E-01  0.75292638467E+00  0.15479008101E+01  0.93800000000E+00 0. -1.
         22    1    1    2    0    0 -0.57104894831E+00 -0.53976814295E-01  0.19201457784E+01  0.20039885749E+01  0.00000000000E+00 0.  1.
</event>
<event>
 5    1  0.1160133E+000  0.1599511E+01  0.7818608E-02  0.3353894E+00
         11   -1    0    0    0    0  0.00000000000E+00  0.00000000000E+00  0.39999999674E+01  0.40000000000E+01  0.51100000000E-03 0.  1.
    9000002   -1    0    0    0    0 -0.00000000000E+00 -0.00000000000E+00  0.00000000000E+00  0.93800000000E+00  0.93800000000E+00 0.  1.
         11    1    1    2    0    0 -0.18294089972E+00 -0.71494691934E-01  0.66359402749E+00  0.69205213547E+00  0.51100000000E-03 0.  1.
    9000002    1    1    2    0    0  0.89359700744E+00  0.40939089377E+00  0.77015251922E+00  0.15617603588E+01  0.93800000000E+00 0.  1.
         22    1    1    2    0    0 -0.71065610772E+00 -0.33789620184E+00  0.25662534207E+01  0.26841875057E+01  0.00000000000E+00 0.  1.
</event>
<event>
 5    1  0.1160133E+000  0.1598767E+01  0.7818608E-02  0.3354703E+00
         11   -1    0    0    0    0  0.00000000000E+00  0.00000000000E+00  0.39999999674E+01  0.40000000000E+01  0.51100000000E-03 0.  1.
    9000002   -1    0    0    0    0 -0.00000000000E+00 -0.00000000000E+00  0.00000000000E+00  0.93800000000E+00  0.93800000000E+00 0.  1.
         11    1    1    2    0    0 -0.11070385698E+00  0.20409432157E-01  0.31844063425E+00  0.33775225763E+00  0.51100000000E-03 0.  1.
    9000002    1    1    2    0    0  0.91767081650E+00 -0.26614143234E+00  0.71870321070E+00  0.15196477534E+01  0.93800000000E+00 0.  1.
         22    1    1    2    0    0 -0.80696695952E+00  0.24573200019E+00  0.29628561224E+01  0.30805999889E+01  0.00000000000E+00 0.  1.
</event>
<event>
 5    1  0.1160133E+000  0.1541344E+01  0.7818608E-02  0.3419595E+00
         11   -1    0    0    0    0  0.00000000000E+00  0.00000000000E+00  0.39999999674E+01  0.40000000000E+01  0.51100000000E-03 0. -1.
    9000002   -1    0    0    0    0 -0.00000000000E+00 -0.00000000000E+00  0.00000000000E+00  0.93800000000E+00  0.93800000000E+00 0. -1.
         11    1    1    2    0    0  0.10082950647E+00  0.52095293246E-01  0.79114152874E+00  0.79924069502E+00  0.51100000000E-03 0. -1.
    9000002    1    1    2    0    0 -0.45619003344E-01  0.77108606343E+00  0.51208978623E+00  0.13186109206E+01  0.93800000000E+00 0. -1.
         22    1    1    2    0    0 -0.55210503123E-01 -0.82318135667E+00  0.26967686524E+01  0.28201483844E+01  0.00000000000E+00 0. -1.
</event>
<event>
 5    1  0.1160133E+000  0.1596081E+01  0.7818608E-02  0.3357628E+00
         11   -1    0    0    0    0  0.00000000000E+00  0.00000000000E+00  0.39999999674E+01  0.40000000000E+01  0.51100000000E-03 0.  1.
    9000002   -1    0    0    0    0 -0.00000000000E+00 -0.00000000000E+00  0.00000000000E+00  0.93800000000E+00  0.93800000000E+00 0.  1.
         11    1    1    2    0    0 -0.16918439014E+00  0.17257935856E+00  0.95889718688E+00  0.98888374898E+00  0.51100000000E-03 0.  1.
    9000002    1    1    2    0    0  0.57184529057E+00 -0.80541054454E+00  0.78631239767E+00  0.15728395876E+01  0.93800000000E+00 0.  1.
         22    1    1    2    0    0 -0.40266090044E+00  0.63283118598E+00  0.22547903828E+01  0.23762766634E+01  0.00000000000E+00 0.  1.
</event>
<event>
 5    1  0.1160133E+000  0.1598249E+01  0.7818608E-02  0.3355267E+00
         11   -1    0    0    0    0  0.00000000000E+00  0.00000000000E+00  0.39999999674E+01  0.40000000000E+01  0.51100000000E-03 0.  1.
    9000002   -1    0    0    0    0 -0.00000000000E+00 -0.00000000000E+00  0.00000000000E+00  0.93800000000E+00  0.93800000000E+00 0.  1.
         11    1    1    2    0    0  0.20004814113E+00 -0.18461707206E+00  0.96145649220E+00  0.99925050392E+00  0.51100000000E-03 0.  1.
    9000002    1    1    2    0    0 -0.77039789167E+00  0.51949274007E+00  0.67193849677E+00  0.14814624403E+01  0.93800000000E+00 0.  1.
         22    1    1    2    0    0  0.57034975054E+00 -0.33487566801E+00  0.23666049784E+01  0.24572870558E+01  0.00000000000E+00 0.  1.
</event>
<event>
 5    1  0.1160133E+000  0.1599664E+01  0.7818608E-02  0.3353728E+00
         11   -1    0    0    0    0  0.00000000000E+00  0.00000000000E+00  0.39999999674E+01  0.40000000000E+01  0.51100000000E-03 0. -1.
    9000002   -1    0    0    0    0 -0.00000000000E+00 -0.00000000000E+00  0.00000000000E+00  0.93800000000E+00  0.93800000000E+00 0.  1.
         11    1    1    2    0    0 -0.48911318058E-01  0.28302261486E-01  0.19619841683E+00  0.20417496156E+00  0.51100000000E-03 0. -1.
    9000002    1    1    2    0    0  0.84145817297E+00 -0.44920931672E+00  0.71411693209E+00  0.15164589872E+01  0.93800000000E+00 0.  1.
         22    1    1    2    0    0 -0.79254685492E+00  0.42090705524E+00  0.30896846184E+01  0.32173660513E+01  0.00000000000E+00 0. -1.
</event>
<event>
 5    1  0.1160133E+000  0.1514446E+01  0.7818608E-02  0.3451798E+00
         11   -1    0    0    0    0  0.00000000000E+00  0.00000000000E+00  0.39999999674E+01  0.40000000000E+01  0.51100000000E-03 0.  1.
    9000002   -1    0    0    0    0 -0.00000000000E+00 -0.00000000000E+00  0.00000000000E+00  0.93800000000E+00  0.93800000000E+00 0. -1.
         11    1    1    2    0    0 -0.19440289897E+00 -0.36264815030E+00  0.11395315064E+01  0.12115438429E+01  0.51100000000E-03 0.  1.
    9000002    1    1    2    0    0 -0.33303245033E+00  0.70264494820E+00  0.55814552648E+00  0.13401458745E+01  0.93800000000E+00 0. -1.
         22    1    1    2    0    0  0.52743534931E+00 -0.33999679790E+00  0.23023229344E+01  0.23863102826E+01  0.00000000000E+00 0.  1.
</event>
<event>
 5    1  0.1160133E+000  0.1599131E+01  0.7818608E-02  0.3354307E+00
         11   -1    0    0    0    0  0.00000000000E+00  0.00000000000E+00  0.39999999674E+01  0.40000000000E+01  0.51100000000E-03 0.  1.
    9000002   -1    0    0    0    0 -0.00000000000E+00 -0.00000000000E+00  0.00000000000E+00  0.93800000000E+00  0.93800000000E+00 0.  1.
         11    1    1    2    0    0  0.25188646551E+00 -0.28121816758E+00  0.93891056672E+00  0.10119702381E+01  0.51100000000E-03 0.  1.
    9000002    1    1    2    0    0 -0.80956076858E+00  0.78879091558E+00  0.11308131641E+01  0.18536887977E+01  0.93800000000E+00 0.  1.
         22    1    1    2    0    0  0.55767430307E+00 -0.50757274800E+00  0.19302762366E+01  0.20723409643E+01  0.00000000000E+00 0.  1.
</event>
<event>
 5    1  0.1160133E+000  0.1599530E+01  0.7818608E-02  0.3353874E+00
         11   -1    0    0    0    0  0.00000000000E+00  0.00000000000E+00  0.39999999674E+01  0.40000000000E+01  0.51100000000E-03 0.  1.
    9000002   -1    0    0    0    0 -0.00000000000E+00 -0.00000000000E+00  0.00000000000E+00  0.93800000000E+00  0.93800000000E+00 0. -1.
         11    1    1    2    0    0 -0.17014459501E+00  0.30663699485E-01  0.36416943521E+00  0.40312415499E+00  0.51100000000E-03 0.  1.
    9000002    1    1    2    0    0  0.12210345600E+01 -0.17953440059E+00  0.15371972555E+01  0.21831118616E+01  0.93800000000E+00 0. -1.
         22    1    1    2    0    0 -0.10508899650E+01  0.14887070110E+00  0.20986332766E+01  0.23517639835E+01  0.00000000000E+00 0.  1.
</event>
<event>
 5    1  0.1160133E+000  0.1599667E+01  0.7818608E-02  0.3353725E+00
         11   -1    0    0    0    0  0.00000000000E+00  0.00000000000E+00  0.39999999674E+01  0.40000000000E+01  0.51100000000E-03 0. -1.
    9000002   -1    0    0    0    0 -0.00000000000E+00 -0.00000000000E+00  0.00000000000E+00  0.93800000000E+00  0.93800000000E+00 0.  1.
         11    1    1    2    0    0 -0.30066352289E+00 -0.12311833383E+00  0.76957939053E+00  0.83534985340E+00  0.51100000000E-03 0. -1.
    9000002    1    1    2    0    0  0.10777658415E+01  0.45118103548E+00  0.12543185988E+01  0.19540477689E+01  0.93800000000E+00 0.  1.
         22    1    1    2    0    0 -0.77710231864E+00 -0.32806270165E+00  0.19761019780E+01  0.21486023777E+01  0.00000000000E+00 0. -1.
</event>
<event>
 5    1  0.1160133E+000  0.1599676E+01  0.7818608E-02  0.3353715E+00
         11   -1    0    0    0    0  0.00000000000E+00  0.00000000000E+00  0.39999999674E+01  0.40000000000E+01  0.51100000000E-03 0. -1.
    9000002   -1    0    0    0    0 -0.00000000000E+00 -0.00000000000E+00  0.00000000000E+00  0.93800000000E+00  0.93800000000E+00 0.  1.
         11    1    1    2    0    0  0.14622368189E+00  0.61073167827E+00  0.13113104083E+01  0.14539290890E+01  0.51100000000E-03 0. -1.
    9000002    1    1    2    0    0 -0.28604241624E+00 -0.11839703262E+01  0.14558090207E+01  0.21172694448E+01  0.93800000000E+00 0.  1.
         22    1    1    2    0    0  0.13981873434E+00  0.57323864791E+00  0.12328805384E+01  0.13668014662E+01  0.00000000000E+00 0. -1.
</event>
<event>
 5    1  0.1160133E+000  0.1455981E+01  0.7818608E-02  0.3526223E+00
         11   -1    0    0    0    0  0.00000000000E+00  0.00000000000E+00  0.39999999674E+01  0.40000000000E+01  0.51100000000E-03 0.  1.
    9000002   -1    0    0    0    0 -0.00000000000E+00 -0.00000000000E+00  0.00000000000E+00  0.93800000000E+00  0.93800000000E+00 0. -1.
         11    1    1    2    0    0 -0.27735493497E+00 -0.11188961435E+00  0.12619523396E+01  0.12969074810E+01  0.51100000000E-03 0.  1.
    9000002    1    1    2    0    0 -0.51378660759E+00  0.16593850414E+00  0.36998636408E+00  0.11437858956E+01  0.93800000000E+00 0. -1.
         22    1    1    2    0    0  0.79114154256E+00 -0.54048889791E-01  0.23680612637E+01  0.24973066234E+01  0.00000000000E+00 0.  1.
</event>
<event>
 5    1  0.1160133E+000  0.1597728E+01  0.7818608E-02  0.3355833E+00
         11   -1    0    0    0    0  0.00000000000E+00  0.00000000000E+00  0.39999999674E+01  0.40000000000E+01  0.51100000000E-03 0. -1.
    9000002   -1    0    0    0    0 -0.00000000000E+00 -0.00000000000E+00  0.00000000000E+00  0.93800000000E+00  0.93800000000E+00 0.  1.
         11    1    1    2    0    0  0.18969237153E+00  0.15154857034E+00  0.58437856046E+00  0.63281018326E+00  0.51100000000E-03 0. -1.
    9000002    1    1    2    0    0 -0.10060011014E+01 -0.54423295055E+00  0.11773448598E+01  0.18905588167E+01  0.93800000000E+00 0. -1.
         22    1    1    2    0    0  0.81630872991E+00  0.39268438021E+00  0.22382765471E+01  0.24146310000E+01  0.00000000000E+00 0. -1.
</event>
<event>
 5    1  0.1160133E+000  0.1599676E+01  0.7818608E-02  0.3353715E+00
         11   -1    0    0    0    0  0.00000000000E+00  0.00000000000E+00  0.39999999674E+01  0.40000000000E+01  0.51100000000E-03 0. -1.
    9000002   -1    0    0    0    0 -0.00000000000E+00 -0.00000000000E+00  0.00000000000E+00  0.93800000000E+00  0.93800000000E+00 0.  1.
         11    1    1    2    0    0 -0.91722455819E-01  0.12671143561E+00  0.56288525807E+00  0.58421645962E+00  0.51100000000E-03 0. -1.
    9000002    1    1    2    0    0  0.54699719332E+00 -0.75019131949E+00  0.66827980854E+00  0.14793359483E+01  0.93800000000E+00 0.  1.
         22    1    1    2    0    0 -0.45527473750E+00  0.62347988387E+00  0.27688349008E+01  0.28744475921E+01  0.00000000000E+00 0. -1.
</event>
<event>
 5    1  0.1160133E+000  0.1599602E+01  0.7818608E-02  0.3353795E+00
         11   -1    0    0    0    0  0.00000000000E+00  0.00000000000E+00  0.39999999674E+01  0.40000000000E+01  0.51100000000E-03 0. -1.
    9000002   -1    0    0    0    0 -0.00000000000E+00 -0.00000000000E+00  0.00000000000E+00  0.93800000000E+00  0.93800000000E+00 0.  1.
         11    1    1    2    0    0  0.37258014157E+00 -0.21515413509E+00  0.11955847356E+01  0.12706417217E+01  0.51100000000E-03 0. -1.
    9000002    1    1    2    0    0 -0.92036553943E+00  0.54316877396E+00  0.96031368112E+00  0.17158529684E+01  0.93800000000E+00 0.  1.
         22    1    1    2    0    0  0.54778539786E+00 -0.32801463887E+00  0.18441015506E+01  0.19515053099E+01  0.00000000000E+00 0. -1.
</event>
<event>
 5    1  0.1160133E+000  0.1599677E+01  0.7818608E-02  0.3353714E+00
         11   -1    0    0    0    0  0.00000000000E+00  0.00000000000E+00  0.39999999674E+01  0.40000000000E+01  0.51100000000E-03 0.  1.
    9000002   -1    0    0    0    0 -0.00000000000E+00 -0.00000000000E+00  0.00000000000E+00  0.93800000000E+00  0.93800000000E+00 0. -1.
         11    1    1    2    0    0 -0.18337926336E+00  0.33985316573E+00  0.13492326154E+01  0.14034090780E+01  0.51100000000E-03 0.  1.
    9000002    1    1    2    0    0  0.45017678954E+00 -0.83226533651E+00  0.70004889030E+00  0.15050704904E+01  0.93800000000E+00 0. -1.
         22    1    1    2    0    0 -0.26679752618E+00  0.49241217079E+00  0.19507184616E+01  0.20295204316E+01  0.00000000000E+00 0.  1.
</event>
<event>
 5    1  0.1160133E+000  0.1599676E+01  0.7818608E-02  0.3353715E+00
         11   -1    0    0    0    0  0.00000000000E+00  0.00000000000E+00  0.39999999674E+01  0.40000000000E+01  0.51100000000E-03 0.  1.
    9000002   -1    0    0    0    0 -0.00000000000E+00 -0.00000000000E+00  0.00000000000E+00  0.93800000000E+00  0.93800000000E+00 0.  1.
         11    1    1    2    0    0 -0.12087590987E+00 -0.13139480250E+00  0.61517954931E+00  0.64056359460E+00  0.51100000000E-03 0. -1.
    9000002    1    1    2    0    0  0.64290849138E+00  0.70285532708E+00  0.71166340098E+00  0.15144787009E+01  0.93800000000E+00 0.  1.
         22    1    1    2    0    0 -0.52203258151E+00 -0.57146052458E+00  0.26731570171E+01  0.27829577045E+01  0.00000000000E+00 0.  1.
</event>
<event>
 5    1  0.1160133E+000  0.1545352E+01  0.7818608E-02  0.3414899E+00
         11   -1    0    0    0    0  0.00000000000E+00  0.00000000000E+00  0.39999999674E+01  0.40000000000E+01  0.51100000000E-03 0. -1.
    9000002   -1    0    0    0    0 -0.00000000000E+00 -0.00000000000E+00  0.00000000000E+00  0.93800000000E+00  0.93800000000E+00 0.  1.
         11    1    1    2    0    0  0.10303442536E+00  0.18665215915E+00  0.79877845599E+00  0.82674204211E+00  0.51100000000E-03 0. -1.
    9000002    1    1    2    0    0 -0.97181008833E+00  0.46369749062E-01  0.85668733518E+00  0.16001006817E+01  0.93800000000E+00 0.  1.
         22    1    1    2    0    0  0.86877566297E+00 -0.23302190821E+00  0.23445341762E+01  0.25111572762E+01  0.00000000000E+00 0. -1.
</event>
<event>
 5    1  0.1160133E+000  0.1595426E+01  0.7818608E-02  0.3358343E+00
         11   -1    0    0    0    0  0.00000000000E+00  0.00000000000E+00  0.39999999674E+01  0.40000000000E+01  0.51100000000E-03 0. -1.
    9000002   -1    0    0    0    0 -0.00000000000E+00 -0.00000000000E+00  0.00000000000E+00  0.93800000000E+00  0.93800000000E+00 0. -1.
         11    1    1    2    0    0  0.22597869603E+00 -0.30703400693E+00  0.68203082058E+00  0.78134662846E+00  0.51100000000E-03 0. -1.
    9000002    1    1    2    0    0 -0.84751726464E+00  0.97109020657E+00  0.20929828088E+01  0.26309167111E+01  0.93800000000E+00 0. -1.
         22    1    1    2    0    0  0.62153856862E+00 -0.66405619964E+00  0.12249863380E+01  0.15257366604E+01  0.00000000000E+00 0. -1.
</event>
<event>
 5    1  0.1160133E+000  0.1599677E+01  0.7818608E-02  0.3353714E+00
         11   -1    0    0    0    0  0.00000000000E+00  0.00000000000E+00  0.39999999674E+01  0.40000000000E+01  0.51100000000E-03 0. -1.
    9000002   -1    0    0    0    0 -0.00000000000E+00 -0.00000000000E+00  0.00000000000E+00  0.93800000000E+00  0.93800000000E+00 0.  1.
         11    1    1    2    0    0  0.27082226429E+00  0.18966706571E+00  0.10676523484E+01  0.11176762022E+01  0.51100000000E-03 0.  1.
    9000002    1    1    2    0    0 -0.81348004576E+00 -0.57054817114E+00  0.79137282824E+00  0.15790471664E+01  0.93800000000E+00 0.  1.
         22    1    1    2    0    0  0.54265778147E+00  0.38088110543E+00  0.21409747907E+01  0.22412766314E+01  0.00000000000E+00 0. -1.
</event>
<event>
 5    1  0.1160133E+000  0.1599605E+01  0.7818608E-02  0.3353792E+00
         11   -1    0    0    0    0  0.00000000000E+00  0.00000000000E+00  0.39999999674E+01  0.40000000000E+01  0.51100000000E-03 0. -1.
    9000002   -1    0    0    0    0 -0.00000000000E+00 -0.00000000000E+00  0.00000000000E+00  0.93800000000E+00  0.93800000000E+00 0. -1.
         11    1    1    2    0    0 -0.11692027235E+00 -0.31699267451E+00  0.12818754040E+01  0.13256543736E+01  0.51100000000E-03 0. -1.
    9000002    1    1    2    0    0  0.32889587289E+00  0.84724977006E+00  0.63480942330E+00  0.14521816939E+01  0.93800000000E+00 0. -1.
         22    1    1    2    0    0 -0.21197560054E+00 -0.53025709555E+00  0.20833151401E+01  0.21601639326E+01  0.00000000000E+00 0. -1.
</event>
<event>
 5    1  0.1160133E+000  0.1598256E+01  0.7818608E-02  0.3355258E+00
         11   -1    0    0    0    0  0.00000000000E+00  0.00000000000E+00  0.39999999674E+01  0.40000000000E+01  0.51100000000E-03 0. -1.
    9000002   -1    0    0    0    0 -0.00000000000E+00 -0.00000000000E+00  0.00000000000E+00  0.93800000000E+00  0.93800000000E+00 0. -1.
         11    1    1    2    0    0  0.25839351851E-01 -0.28147970344E+00  0.97011970495E+00  0.10104607853E+01  0.51100000000E-03 0. -1.
    9000002    1    1    2    0    0 -0.21401316338E+00  0.90039626390E+00  0.66543440844E+00  0.14761985023E+01  0.93800000000E+00 0. -1.
         22    1    1    2    0    0  0.18817381152E+00 -0.61891656046E+00  0.23644458540E+01  0.24513407125E+01  0.00000000000E+00 0. -1.
</event>
<event>
 5    1  0.1160133E+000  0.1599668E+01  0.7818608E-02  0.3353724E+00
         11   -1    0    0    0    0  0.00000000000E+00  0.00000000000E+00  0.39999999674E+01  0.40000000000E+01  0.51100000000E-03 0. -1.
    9000002   -1    0    0    0    0 -0.00000000000E+00 -0.00000000000E+00  0.00000000000E+00  0.93800000000E+00  0.93800000000E+00 0.  1.
         11    1    1    2    0    0  0.72163156660E-01  0.35469958310E-01  0.23047098208E+00  0.24409582918E+00  0.51100000000E-03 0. -1.
    9000002    1    1    2    0    0 -0.93931147444E+00 -0.48452125379E+00  0.93135583445E+00  0.16924345133E+01  0.93800000000E+00 0. -1.
         22    1    1    2    0    0  0.86714831778E+00  0.44905129548E+00  0.28381731508E+01  0.30014696575E+01  0.00000000000E+00 0. -1.
</event>
<event>
 5    1  0.1160133E+000  0.1599663E+01  0.7818608E-02  0.3353729E+00
         11   -1    0    0    0    0  0.00000000000E+00  0.00000000000E+00  0.39999999674E+01  0.40000000000E+01  0.51100000000E-03 0.  1.
    9000002   -1    0    0    0    0 -0.00000000000E+00 -0.00000000000E+00  0.00000000000E+00  0.93800000000E+00  0.93800000000E+00 0. -1.
         11    1    1    2    0    0 -0.15781344820E+00 -0.52583003570E+00  0.12023328082E+01  0.13217438305E+01  0.51100000000E-03 0.  1.
    9000002    1    1    2    0    0  0.33752208062E+00  0.11529489323E+01  0.13816191748E+01  0.20571650249E+01  0.93800000000E+00 0. -1.
         22    1    1    2    0    0 -0.17970863242E+00 -0.62711889659E+00  0.14160479844E+01  0.15590911446E+01  0.00000000000E+00 0.  1.
</event>
<event>
 5    1  0.1160133E+000  0.1599670E+01  0.7818608E-02  0.3353722E+00
         11   -1    0    0    0    0  0.00000000000E+00  0.00000000000E+00  0.39999999674E+01  0.40000000000E+01  0.51100000000E-03 0.  1.
    9000002   -1    0    0    0    0 -0.00000000000E+00 -0.00000000000E+00  0.00000000000E+00  0.93800000000E+00  0.93800000000E+00 0.  1.
         11    1    1    2    0    0 -0.65209458734E-01 -0.27932515299E+00  0.98435715380E+00  0.10252970701E+01  0.51100000000E-03 0.  1.
    9000002    1    1    2    0    0  0.22168321605E+00  0.92469736060E+00  0.70864112778E+00  0.15120267540E+01  0.93800000000E+00 0.  1.
         22    1    1    2    0    0 -0.15647375732E+00 -0.64537220761E+00  0.23070016858E+01  0.24006761758E+01  0.00000000000E+00 0.  1.
</event>
<event>
 5    1  0.1160133E+000  0.1599671E+01  0.7818608E-02  0.3353720E+00
         11   -1    0    0    0    0  0.00000000000E+00  0.00000000000E+00  0.39999999674E+01  0.40000000000E+01  0.51100000000E-03 0. -1.
    9000002   -1    0    0    0    0 -0.00000000000E+00 -0.00000000000E+00  0.00000000000E+00  0.93800000000E+00  0.93800000000E+00 0.  1.
         11    1    1    2    0    0 -0.25793527678E+00  0.22065977856E+00  0.10057456695E+01  0.10614829051E+01  0.51100000000E-03 0. -1.
    9000002    1    1    2    0    0  0.79622385803E+00 -0.68415746476E+00  0.91437419795E+00  0.16786804468E+01  0.93800000000E+00 0.  1.
         22    1    1    2    0    0 -0.53828858126E+00  0.46349768620E+00  0.20798800999E+01  0.21978366481E+01  0.00000000000E+00 0. -1.
</event>
<event>
 5    1  0.1160133E+000  0.1364168E+01  0.7818608E-02  0.3666088E+00
         11   -1    0    0    0    0  0.00000000000E+00  0.00000000000E+00  0.39999999674E+01  0.40000000000E+01  0.51100000000E-03 0. -1.
    9000002   -1    0    0    0    0 -0.00000000000E+00 -0.00000000000E+00  0.00000000000E+00  0.93800000000E+00  0.93800000000E+00 0. -1.
         11    1    1    2    0    0  0.20982530646E+00  0.50306759424E+00  0.13643159168E+01  0.14691704617E+01  0.51100000000E-03 0. -1.
    9000002    1    1    2    0    0 -0.46691848844E+00  0.16700762906E+00  0.42225249359E+00  0.11419481562E+01  0.93800000000E+00 0. -1.
         22    1    1    2    0    0  0.25709318198E+00 -0.67007522331E+00  0.22134315570E+01  0.23268813821E+01  0.00000000000E+00 0. -1.
</event>
<event>
 5    1  0.1160133E+000  0.1599555E+01  0.7818608E-02  0.3353847E+00
         11   -1    0    0    0    0  0.00000000000E+00  0.00000000000E+00  0.39999999674E+01  0.40000000000E+01  0.51100000000E-03 0.  1.
    9000002   -1    0    0    0    0 -0.00000000000E+00 -0.00000000000E+00  0.00000000000E+00  0.93800000000E+00  0.93800000000E+00 0. -1.
         11    1    1    2    0    0  0.52905885546E-01  0.63450726102E-01  0.21856593822E+00  0.23365863528E+00  0.51100000000E-03 0.  1.
    9000002    1    1    2    0    0 -0.75270192004E+00 -0.77876323446E+00  0.99695990400E+00  0.17455100704E+01  0.93800000000E+00 0. -1.
         22    1    1    2    0    0  0.69979603450E+00  0.71531250836E+00  0.27844741251E+01  0.29588312943E+01  0.00000000000E+00 0.  1.
</event>
<event>
 5    1  0.1160133E+000  0.1599506E+01  0.7818608E-02  0.3353900E+00
         11   -1    0    0    0    0  0.00000000000E+00  0.00000000000E+00  0.39999999674E+01  0.40000000000E+01  0.51100000000E-03 0. -1.
    9000002   -1    0    0    0    0 -0.00000000000E+00 -0.00000000000E+00  0.00000000000E+00  0.93800000000E+00  0.93800000000E+00 0. -1.
         11    1    1    2    0    0  0.31626156903E+00  0.35390560960E+00  0.12293883306E+01  0.13178264260E+01  0.51100000000E-03 0. -1.
    9000002    1    1    2    0    0 -0.75956668857E+00 -0.80705327767E+00  0.10652482454E+01  0.18007982596E+01  0.93800000000E+00 0. -1.
         22    1    1    2    0    0  0.44330511954E+00  0.45314766807E+00  0.17053633914E+01  0.18193753144E+01  0.00000000000E+00 0. -1.
</event>
<event>
 5    1  0.1160133E+000  0.1599602E+01  0.7818608E-02  0.3353795E+00
         11   -1    0    0    0    0  0.00000000000E+00  0.00000000000E+00  0.39999999674E+01  0.40000000000E+01  0.51100000000E-03 0.  1.
    9000002   -1    0    0    0    0 -0.00000000000E+00 -0.00000000000E+00  0.00000000000E+00  0.93800000000E+00  0.93800000000E+00 0.  1.
         11    1    1    2    0    0 -0.33619283814E-01  0.27913885342E-01  0.99162701852E-01  0.10836486423E+00  0.51100000000E-03 0.  1.
    9000002    1    1    2    0    0  0.96246921600E+00 -0.75102231770E+00  0.14693506691E+01  0.21281956917E+01  0.93800000000E+00 0.  1.
         22    1    1    2    0    0 -0.92884993218E+00  0.72310843235E+00  0.24314865964E+01  0.27014394441E+01  0.00000000000E+00 0.  1.
</event>
<event>
 5    1  0.1160133E+000  0.1598827E+01  0.7818608E-02  0.3354638E+00
         11   -1    0    0    0    0  0.00000000000E+00  0.00000000000E+00  0.39999999674E+01  0.40000000000E+01  0.51100000000E-03 0. -1.
    9000002   -1    0    0    0    0 -0.00000000000E+00 -0.00000000000E+00  0.00000000000E+00  0.93800000000E+00  0.93800000000E+00 0. -1.
         11    1    1    2    0    0 -0.24854858280E+00  0.23794514728E+00  0.13146584080E+01  0.13589412357E+01  0.51100000000E-03 0. -1.
    9000002    1    1    2    0    0  0.58528097669E+00 -0.68159433003E+00  0.61867260250E+00  0.14386536906E+01  0.93800000000E+00 0. -1.
         22    1    1    2    0    0 -0.33673239389E+00  0.44364918275E+00  0.20666689568E+01  0.21404050737E+01  0.00000000000E+00 0. -1.
</event>
<event>
 5    1  0.1160133E+000  0.1564033E+01  0.7818608E-02  0.3393351E+00
         11   -1    0    0    0    0  0.00000000000E+00  0.00000000000E+00  0.39999999674E+01  0.40000000000E+01  0.51100000000E-03 0.  1.
    9000002   -1    0    0    0    0 -0.00000000000E+00 -0.00000000000E+00  0.00000000000E+00  0.93800000000E+00  0.93800000000E+00 0. -1.
         11    1    1    2    0    0  0.22687716075E-01  0.58967413455E-01  0.78637966758E-01  0.10087655450E+00  0.51100000000E-03 0.  1.
    9000002    1    1    2    0    0  0.93707045070E+00 -0.11494642475E+00  0.75946738656E+00  0.15323016744E+01  0.93800000000E+00 0. -1.
         22    1    1    2    0    0 -0.95975816678E+00  0.55979011295E-01  0.31618946140E+01  0.33048217711E+01  0.00000000000E+00 0.  1.
</event>
<event>
 5    1  0.1160133E+000  0.1599673E+01  0.7818608E-02  0.3353718E+00
         11   -1    0    0    0    0  0.00000000000E+00  0.00000000000E+00  0.39999999674E+01  0.40000000000E+01  0.51100000000E-03 0. -1.
    9000002   -1    0    0    0    0 -0.00000000000E+00 -0.00000000000E+00  0.00000000000E+00  0.93800000000E+00  0.93800000000E+00 0.  1.
         11    1    1    2    0    0  0.10865475003E+00 -0.24135529906E+00  0.93515802622E+00  0.97189455715E+00  0.51100000000E-03 0. -1.
    9000002    1    1    2    0    0 -0.37973177204E+00  0.85993670314E+00  0.68888694057E+00  0.14960269279E+01  0.93800000000E+00 0. -1.
         22    1    1    2    0    0  0.27107702201E+00 -0.61858140408E+00  0.23759550006E+01  0.24700785150E+01  0.00000000000E+00 0. -1.
</event>
<event>
 5    1  0.1160133E+000  0.1599646E+01  0.7818608E-02  0.3353748E+00
         11   -1    0    0    0    0  0.00000000000E+00  0.00000000000E+00  0.39999999674E+01  0.40000000000E+01  0.51100000000E-03 0. -1.
    9000002   -1    0    0    0    0 -0.00000000000E+00 -0.00000000000E+00  0.00000000000E+00  0.93800000000E+00  0.93800000000E+00 0.  1.
         11    1    1    2    0    0  0.62884563413E-01 -0.28776383811E+00  0.97042132523E+00  0.10141401799E+01  0.51100000000E-03 0. -1.
    9000002    1    1    2    0    0 -0.20315529760E+00  0.97219795740E+00  0.79057643054E+00  0.15783839951E+01  0.93800000000E+00 0.  1.
         22    1    1    2    0    0  0.14027073418E+00 -0.68443411929E+00  0.22390022116E+01  0.23454758251E+01  0.00000000000E+00 0. -1.
</event>
<event>
 5    1  0.1160133E+000  0.1593647E+01  0.7818608E-02  0.3360287E+00
         11   -1    0    0    0    0  0.00000000000E+00  0.00000000000E+00  0.39999999674E+01  0.40000000000E+01  0.51100000000E-03 0.  1.
    9000002   -1    0    0    0    0 -0.00000000000E+00 -0.00000000000E+00  0.00000000000E+00  0.93800000000E+00  0.93800000000E+00 0.  1.
         11    1    1    2    0    0 -0.83490216691E-01 -0.19686637581E-01  0.53096519196E+00  0.53784986398E+00  0.51100000000E-03 0.  1.
    9000002    1    1    2    0    0  0.94967108289E+00  0.82994592398E-01  0.72354262210E+00  0.15205660768E+01  0.93800000000E+00 0.  1.
         22    1    1    2    0    0 -0.86618086619E+00 -0.63307954817E-01  0.27454921533E+01  0.28795840592E+01  0.00000000000E+00 0.  1.
</event>
<event>
 5    1  0.1160133E+000  0.1579156E+01  0.7818608E-02  0.3376302E+00
         11   -1    0    0    0    0  0.00000000000E+00  0.00000000000E+00  0.39999999674E+01  0.40000000000E+01  0.51100000000E-03 0. -1.
    9000002   -1    0    0    0    0 -0.00000000000E+00 -0.00000000000E+00  0.00000000000E+00  0.93800000000E+00  0.93800000000E+00 0. -1.
         11    1    1    2    0    0  0.85551963870E-01  0.79397331270E-01  0.13406404358E+01  0.13457117500E+01  0.51100000000E-03 0. -1.
    9000002    1    1    2    0    0 -0.60169963074E+00 -0.46139475734E+00  0.44322310114E+00  0.12849973872E+01  0.93800000000E+00 0. -1.
         22    1    1    2    0    0  0.51614766687E+00  0.38199742607E+00  0.22161364304E+01  0.23072908628E+01  0.00000000000E+00 0. -1.
</event>
<event>
 5    1  0.1160133E+000  0.1599664E+01  0.7818608E-02  0.3353728E+00
         11   -1    0    0    0    0  0.00000000000E+00  0.00000000000E+00  0.39999999674E+01  0.40000000000E+01  0.51100000000E-03 0.  1.
    9000002   -1    0    0    0    0 -0.00000000000E+00 -0.00000000000E+00  0.00000000000E+00  0.93800000000E+00  0.93800000000E+00 0.  1.
         11    1    1    2    0    0 -0.12629973882E-01 -0.83956641622E-02  0.44165222277E-01  0.46699372552E-01  0.51100000000E-03 0. -1.
    9000002    1    1    2    0    0  0.84387613792E+00  0.56802269237E+00  0.84096243299E+00  0.16192092295E+01  0.93800000000E+00 0.  1.
         22    1    1    2    0    0 -0.83124616403E+00 -0.55962702820E+00  0.31148723121E+01  0.32720913980E+01  0.00000000000E+00 0.  1.
</event>
<event>
 5    1  0.1160133E+000  0.1591281E+01  0.7818608E-02  0.3362881E+00
         11   -1    0    0    0    0  0.00000000000E+00  0.00000000000E+00  0.39999999674E+01  0.40000000000E+01  0.51100000000E-03 0.  1.
    9000002   -1    0    0    0    0 -0.00000000000E+00 -0.00000000000E+00  0.00000000000E+00  0.93800000000E+00  0.93800000000E+00 0.  1.
         11    1    1    2    0    0  0.22363924448E+00  0.19731647006E+00  0.49616091377E+00  0.57889914018E+00  0.51100000000E-03 0.  1.
    9000002    1    1    2    0    0 -0.10079875963E+01 -0.60781899591E+00  0.13173204126E+01  0.20001649921E+01  0.93800000000E+00 0.  1.
         22    1    1    2    0    0  0.78434835182E+00  0.41050252585E+00  0.21865186410E+01  0.23589358677E+01  0.00000000000E+00 0.  1.
</event>
<event>
 5    1  0.1160133E+000  0.1599398E+01  0.7818608E-02  0.3354017E+00
         11   -1    0    0    0    0  0.00000000000E+00  0.00000000000E+00  0.39999999674E+01  0.40000000000E+01  0.51100000000E-03 0. -1.
    9000002   -1    0    0    0    0 -0.00000000000E+00 -0.00000000000E+00  0.00000000000E+00  0.93800000000E+00  0.93800000000E+00 0. -1.
         11    1    1    2    0    0 -0.18772400019E-01 -0.31377513507E-02  0.54176234978E-01  0.57424507341E-01  0.51100000000E-03 0. -1.
    9000002    1    1    2    0    0  0.99305123204E+00 -0.99562907497E-01  0.80094677736E+00  0.15866389829E+01  0.93800000000E+00 0. -1.
         22    1    1    2    0    0 -0.97427883202E+00  0.10270065885E+00  0.31448769550E+01  0.32939365097E+01  0.00000000000E+00 0. -1.
</event>
<event>
 5    1  0.1160133E+000  0.1599674E+01  0.7818608E-02  0.3353717E+00
         11   -1    0    0    0    0  0.00000000000E+00  0.00000000000E+00  0.39999999674E+01  0.40000000000E+01  0.51100000000E-03 0. -1.
    9000002   -1    0    0    0    0 -0.00000000000E+00 -0.00000000000E+00  0.00000000000E+00  0.93800000000E+00  0.93800000000E+00 0.  1.
         11    1    1    2    0    0 -0.14423990233E+00 -0.42475093349E-01  0.46880448497E+00  0.49232833478E+00  0.51100000000E-03 0. -1.
    9000002    1    1    2    0    0  0.97397646235E+00  0.29476866604E+00  0.84172925643E+00  0.16198366760E+01  0.93800000000E+00 0.  1.
         22    1    1    2    0    0 -0.82973656002E+00 -0.25229357270E+00  0.26894662260E+01  0.28258349892E+01  0.00000000000E+00 0. -1.
</event>
<event>
 5    1  0.1160133E+000  0.1598173E+01  0.7818608E-02  0.3355348E+00
         11   -1    0    0    0    0  0.00000000000E+00  0.00000000000E+00  0.39999999674E+01  0.40000000000E+01  0.51100000000E-03 0. -1.
    9000002   -1    0    0    0    0 -0.00000000000E+00 -0.00000000000E+00  0.00000000000E+00  0.93800000000E+00  0.93800000000E+00 0. -1.
         11    1    1    2    0    0 -0.24710310445E+00  0.10480497715E+00  0.76693727529E+00  0.81254973559E+00  0.51100000000E-03 0. -1.
    9000002    1    1    2    0    0  0.87311562118E+00 -0.51330479828E+00  0.83445147837E+00  0.16130610570E+01  0.93800000000E+00 0. -1.
         22    1    1    2    0    0 -0.62601251673E+00  0.40849982113E+00  0.23986112137E+01  0.25123892074E+01  0.00000000000E+00 0. -1.
</event>
<event>
 5    1  0.1160133E+000  0.1599669E+01  0.7818608E-02  0.3353723E+00
         11   -1    0    0    0    0  0.00000000000E+00  0.00000000000E+00  0.39999999674E+01  0.40000000000E+01  0.51100000000E-03 0. -1.
    9000002   -1    0    0    0    0 -0.00000000000E+00 -0.00000000000E+00  0.00000000000E+00  0.93800000000E+00  0.93800000000E+00 0. -1.
         11    1    1    2    0    0 -0.17490765483E-01 -0.26817771848E-01  0.66492492853E-01  0.73801304127E-01  0.51100000000E-03 0.  1.
    9000002    1    1    2    0    0  0.64034225753E+00  0.10445553432E+01  0.14904403382E+01  0.21453182686E+01  0.93800000000E+00 0. -1.
         22    1    1    2    0    0 -0.62285149205E+00 -0.10177375714E+01  0.24430671363E+01  0.27188804273E+01  0.00000000000E+00 0. -1.
</event>
<event>
 5    1  0.1160133E+000  0.1599651E+01  0.7818608E-02  0.3353742E+00
         11   -1    0    0    0    0  0.00000000000E+00  0.00000000000E+00  0.39999999674E+01  0.40000000000E+01  0.51100000000E-03 0.  1.
    9000002   -1    0    0    0    0 -0.00000000000E+00 -0.00000000000E+00  0.00000000000E+00  0.93800000000E+00  0.93800000000E+00 0. -1.
         11    1    1    2    0    0  0.31569957206E+00  0.38916658328E-01  0.11473273430E+01  0.11906053163E+01  0.51100000000E-03 0.  1.
    9000002    1    1    2    0    0 -0.91504510547E+00 -0.12986784404E+00  0.66096225068E+00  0.14733934637E+01  0.93800000000E+00 0. -1.
         22    1    1    2    0    0  0.59934553341E+00  0.90951185717E-01  0.21917103737E+01  0.22740012201E+01  0.00000000000E+00 0.  1.
</event>
<event>
 5    1  0.1160133E+000  0.1453988E+01  0.7818608E-02  0.3528875E+00
         11   -1    0    0    0    0  0.00000000000E+00  0.00000000000E+00  0.39999999674E+01  0.40000000000E+01  0.51100000000E-03 0.  1.
    9000002   -1    0    0    0    0 -0.00000000000E+00 -0.00000000000E+00  0.00000000000E+00  0.93800000000E+00  0.93800000000E+00 0.  1.
         11    1    1    2    0    0  0.65157400236E-01 -0.36572183366E+00  0.66669026278E+00  0.76319991747E+00  0.51100000000E-03 0.  1.
    9000002    1    1    2    0    0 -0.92038941124E+00  0.42288249925E-01  0.94999005564E+00  0.16221066766E+01  0.93800000000E+00 0.  1.
         22    1    1    2    0    0  0.85523201100E+00  0.32343358374E+00  0.23833196489E+01  0.25526934059E+01  0.00000000000E+00 0.  1.
</event>
<event>
 5    1  0.1160133E+000  0.1599668E+01  0.7818608E-02  0.3353724E+00
         11   -1    0    0    0    0  0.00000000000E+00  0.00000000000E+00  0.39999999674E+01  0.40000000000E+01  0.51100000000E-03 0. -1.
    9000002   -1    0    0    0    0 -0.00000000000E+00 -0.00000000000E+00  0.00000000000E+00  0.93800000000E+00  0.93800000000E+00 0. -1.
         11    1    1    2    0    0 -0.14371714770E+00 -0.39965109700E+00  0.10885014611E+01  0.11684225733E+01  0.51100000000E-03 0. -1.
    9000002    1    1    2    0    0  0.38042574143E+00  0.10544860558E+01  0.11014525796E+01  0.18302203069E+01  0.93800000000E+00 0. -1.
         22    1    1    2    0    0 -0.23670859373E+00 -0.65483495879E+00  0.18100459266E+01  0.19393571198E+01  0.00000000000E+00 0. -1.
</event>
<event>
 5    1  0.1160133E+000  0.1599098E+01  0.7818608E-02  0.3354343E+00
         11   -1    0    0    0    0  0.00000000000E+00  0.00000000000E+00  0.39999999674E+01  0.40000000000E+01  0.51100000000E-03 0. -1.
    9000002   -1    0    0    0    0 -0.00000000000E+00 -0.00000000000E+00  0.00000000000E+00  0.93800000000E+00  0.93800000000E+00 0. -1.
         11    1    1    2    0    0 -0.14149860758E+00 -0.34885660533E-01  0.44653655617E+00  0.46971695985E+00  0.51100000000E-03 0. -1.
    9000002    1    1    2    0    0  0.89918960819E+00  0.25392375531E+00  0.67967586846E+00  0.14882279769E+01  0.93800000000E+00 0. -1.
         22    1    1    2    0    0 -0.75769100061E+00 -0.21903809478E+00  0.28737875427E+01  0.29800550633E+01  0.00000000000E+00 0. -1.
</event>
<event>
 5    1  0.1160133E+000  0.1599488E+01  0.7818608E-02  0.3353919E+00
         11   -1    0    0    0    0  0.00000000000E+00  0.00000000000E+00  0.39999999674E+01  0.40000000000E+01  0.51100000000E-03 0.  1.
    9000002   -1    0    0    0    0 -0.00000000000E+00 -0.00000000000E+00  0.00000000000E+00  0.93800000000E+00  0.93800000000E+00 0.  1.
         11    1    1    2    0    0 -0.61839361655E+00  0.20197208776E+00  0.10034008730E+01  0.11958331666E+01  0.51100000000E-03 0.  1.
    9000002    1    1    2    0    0  0.12170169192E+01 -0.43077443723E+00  0.20242120628E+01  0.25775909824E+01  0.93800000000E+00 0.  1.
         22    1    1    2    0    0 -0.59862330266E+00  0.22880234947E+00  0.97238703155E+00  0.11645758510E+01  0.00000000000E+00 0.  1.
</event>
<event>
 5    1  0.1160133E+000  0.1599670E+01  0.7818608E-02  0.3353721E+00
         11   -1    0    0    0    0  0.00000000000E+00  0.00000000000E+00  0.39999999674E+01  0.40000000000E+01  0.51100000000E-03 0. -1.
    9000002   -1    0    0    0    0 -0.00000000000E+00 -0.00000000000E+00  0.00000000000E+00  0.93800000000E+00  0.93800000000E+00 0.  1.
         11    1    1    2    0    0 -0.35587393564E+00  0.23886900740E-01  0.13384916752E+01  0.13851992882E+01  0.51100000000E-03 0. -1.
    9000002    1    1    2    0    0  0.90275438126E+00 -0.64870500503E-01  0.62841301990E+00  0.14470385545E+01  0.93800000000E+00 0.  1.
         22    1    1    2    0    0 -0.54688044562E+00  0.40983599763E-01  0.20330952722E+01  0.21057621573E+01  0.00000000000E+00 0. -1.
</event>
<event>
 5    1  0.1160133E+000  0.1599673E+01  0.7818608E-02  0.3353718E+00
         11   -1    0    0    0    0  0.00000000000E+00  0.00000000000E+00  0.39999999674E+01  0.40000000000E+01  0.51100000000E-03 0.  1.
    9000002   -1    0    0    0    0 -0.00000000000E+00 -0.00000000000E+00  0.00000000000E+00  0.93800000000E+00  0.93800000000E+00 0.  1.
         11    1    1    2    0    0 -0.34299048090E+00  0.22058812481E+00  0.14397194407E+01  0.14963602239E+01  0.51100000000E-03 0.  1.
    9000002    1    1    2    0    0  0.78687838378E+00 -0.50504140471E+00  0.67988529047E+00  0.14887351744E+01  0.93800000000E+00 0.  1.
         22    1    1    2    0    0 -0.44388790288E+00  0.28445327990E+00  0.18803952362E+01  0.19529046017E+01  0.00000000000E+00 0.  1.
</event>
<event>
 5    1  0.1160133E+000  0.1599651E+01  0.7818608E-02  0.3353742E+00
         11   -1    0    0    0    0  0.00000000000E+00  0.00000000000E+00  0.39999999674E+01  0.40000000000E+01  0.51100000000E-03 0. -1.
    9000002   -1    0    0    0    0 -0.00000000000E+00 -0.00000000000E+00  0.00000000000E+00  0.93800000000E+00  0.93800000000E+00 0. -1.
         11    1    1    2    0    0 -0.47149148773E+00 -0.24235734493E+00  0.13205055909E+01  0.14229464440E+01  0.51100000000E-03 0. -1.
    9000002    1    1    2    0    0  0.10168485480E+01  0.50948869453E+00  0.11510143928E+01  0.18703576749E+01  0.93800000000E+00 0. -1.
         22    1    1    2    0    0 -0.54535706031E+00 -0.26713134960E+00  0.15284799836E+01  0.16446958811E+01  0.00000000000E+00 0.  1.
</event>
<event>
 5    1  0.1160133E+000  0.1595677E+01  0.7818608E-02  0.3358068E+00
         11   -1    0    0    0    0  0.00000000000E+00  0.00000000000E+00  0.39999999674E+01  0.40000000000E+01  0.51100000000E-03 0. -1.
    9000002   -1    0    0    0    0 -0.00000000000E+00 -0.00000000000E+00  0.00000000000E+00  0.93800000000E+00  0.93800000000E+00 0.  1.
         11    1    1    2    0    0  0.92530543762E-01  0.84921203853E-01  0.52615712813E+00  0.54093908807E+00  0.51100000000E-03 0. -1.
    9000002    1    1    2    0    0 -0.36922187990E+00 -0.81999490784E+00  0.62501468656E+00  0.14419444524E+01  0.93800000000E+00 0.  1.
         22    1    1    2    0    0  0.27669133614E+00  0.73507370399E+00  0.28488281527E+01  0.29551164595E+01  0.00000000000E+00 0. -1.
</event>
<event>
 5    1  0.1160133E+000  0.1519647E+01  0.7818608E-02  0.3445477E+00
         11   -1    0    0    0    0  0.00000000000E+00  0.00000000000E+00  0.39999999674E+01  0.40000000000E+01  0.51100000000E-03 0. -1.
    9000002   -1    0    0    0    0 -0.00000000000E+00 -0.00000000000E+00  0.00000000000E+00  0.93800000000E+00  0.93800000000E+00 0. -1.
         11    1    1    2    0    0  0.12168515685E+00 -0.77803723784E-02  0.87999882035E+00  0.88840643656E+00  0.51100000000E-03 0. -1.
    9000002    1    1    2    0    0  0.14638651976E+00  0.96044649883E+00  0.91092028626E+00  0.16289586423E+01  0.93800000000E+00 0. -1.
         22    1    1    2    0    0 -0.26807167661E+00 -0.95266612645E+00  0.22090808607E+01  0.24206349212E+01  0.00000000000E+00 0. -1.
</event>
<event>
 5    1  0.1160133E+000  0.1459133E+01  0.7818608E-02  0.3522046E+00
         11   -1    0    0    0    0  0.00000000000E+00  0.00000000000E+00  0.39999999674E+01  0.40000000000E+01  0.51100000000E-03 0.  1.
    9000002   -1    0    0    0    0 -0.00000000000E+00 -0.00000000000E+00  0.00000000000E+00  0.93800000000E+00  0.93800000000E+00 0.  1.
         11    1    1    2    0    0 -0.11520454639E+00  0.40232726066E+00  0.14198955572E+01  0.14802847586E+01  0.51100000000E-03 0.  1.
    9000002    1    1    2    0    0 -0.57903929127E+00 -0.32156379636E+00  0.48035594185E+00  0.12446990025E+01  0.93800000000E+00 0.  1.
         22    1    1    2    0    0  0.69424383766E+00 -0.80763464300E-01  0.20997484683E+01  0.22130162389E+01  0.00000000000E+00 0.  1.
</event>
<event>
 5    1  0.1453199E+000  0.1538447E+01  0.7818608E-02  0.3423005E+00
         11   -1    0    0    0    0  0.00000000000E+00  0.00000000000E+00  0.39999999674E+01  0.40000000000E+01  0.51100000000E-03 0. -1.
    9000002   -1    0    0    0    0 -0.00000000000E+00 -0.00000000000E+00  0.00000000000E+00  0.93800000000E+00  0.93800000000E+00 0. -1.
         11    1    1    2    0    0  0.94609083176E-01  0.12686449329E+00  0.12679938294E+01  0.12778317929E+01  0.51100000000E-03 0. -1.
    9000002    1    1    2    0    0  0.54615158507E+00 -0.32581601354E+00  0.35090512560E+00  0.11863456645E+01  0.93800000000E+00 0. -1.
         22    1    1    2    0    0 -0.64076066825E+00  0.19895152026E+00  0.23811010123E+01  0.24738225426E+01  0.00000000000E+00 0. -1.
</event>
<event>
 5    1  0.1160133E+000  0.1599655E+01  0.7818608E-02  0.3353738E+00
         11   -1    0    0    0    0  0.00000000000E+00  0.00000000000E+00  0.39999999674E+01  0.40000000000E+01  0.51100000000E-03 0. -1.
    9000002   -1    0    0    0    0 -0.00000000000E+00 -0.00000000000E+00  0.00000000000E+00  0.93800000000E+00  0.93800000000E+00 0. -1.
         11    1    1    2    0    0  0.88925921468E-01 -0.10596684338E+00  0.38347125731E+00  0.40766071396E+00  0.51100000000E-03 0. -1.
    9000002    1    1    2    0    0 -0.70273884076E+00  0.80784043775E+00  0.96525489026E+00  0.17198863493E+01  0.93800000000E+00 0. -1.
         22    1    1    2    0    0  0.61381291929E+00 -0.70187359437E+00  0.26512738198E+01  0.28104529368E+01  0.00000000000E+00 0. -1.
</event>
<event>
 5    1  0.1160133E+000  0.1472466E+01  0.7818608E-02  0.3504591E+00
         11   -1    0    0    0    0  0.00000000000E+00  0.00000000000E+00  0.39999999674E+01  0.40000000000E+01  0.51100000000E-03 0. -1.
    9000002   -1    0    0    0    0 -0.00000000000E+00 -0.00000000000E+00  0.00000000000E+00  0.93800000000E+00  0.93800000000E+00 0. -1.
         11    1    1    2    0    0 -0.19876658102E+00  0.12355375082E+00  0.77831184856E+00  0.81273813606E+00  0.51100000000E-03 0. -1.
    9000002    1    1    2    0    0 -0.66416477297E+00 -0.16943625737E+00  0.49126074331E+00  0.12613503117E+01  0.93800000000E+00 0. -1.
         22    1    1    2    0    0  0.86293135399E+00  0.45882506554E-01  0.27304273755E+01  0.28639115522E+01  0.00000000000E+00 0. -1.
</event>
<event>
 5    1  0.1160133E+000  0.1599677E+01  0.7818608E-02  0.3353715E+00
         11   -1    0    0    0    0  0.00000000000E+00  0.00000000000E+00  0.39999999674E+01  0.40000000000E+01  0.51100000000E-03 0.  1.
    9000002   -1    0    0    0    0 -0.00000000000E+00 -0.00000000000E+00  0.00000000000E+00  0.93800000000E+00  0.93800000000E+00 0. -1.
         11    1    1    2    0    0  0.35895130505E-01 -0.74132683242E-01  0.24527374685E+00  0.25873458821E+00  0.51100000000E-03 0. -1.
    9000002    1    1    2    0    0 -0.45479331669E+00  0.93724889407E+00  0.89567171950E+00  0.16635336725E+01  0.93800000000E+00 0. -1.
         22    1    1    2    0    0  0.41889818618E+00 -0.86311621083E+00  0.28590545010E+01  0.30157317393E+01  0.00000000000E+00 0.  1.
</event>
<event>
 5    1  0.1160133E+000  0.1599677E+01  0.7818608E-02  0.3353714E+00
         11   -1    0    0    0    0  0.00000000000E+00  0.00000000000E+00  0.39999999674E+01  0.40000000000E+01  0.51100000000E-03 0.  1.
    9000002   -1    0    0    0    0 -0.00000000000E+00 -0.00000000000E+00  0.00000000000E+00  0.93800000000E+00  0.93800000000E+00 0. -1.
         11    1    1    2    0    0  0.74335463453E-02 -0.72734677422E+00  0.11627944251E+01  0.13715610536E+01  0.51100000000E-03 0.  1.
    9000002    1    1    2    0    0 -0.12734116816E-01  0.12863055132E+01  0.19436135714E+01  0.25124135301E+01  0.93800000000E+00 0. -1.
         22    1    1    2    0    0  0.53005704705E-02 -0.55895873899E+00  0.89359197078E+00  0.10540254163E+01  0.00000000000E+00 0.  1.
</event>
<event>
 5    1  0.1160133E+000  0.1575781E+01  0.7818608E-02  0.3380077E+00
         11   -1    0    0    0    0  0.00000000000E+00  0.00000000000E+00  0.39999999674E+01  0.40000000000E+01  0.51100000000E-03 0.  1.
    9000002   -1    0    0    0    0 -0.00000000000E+00 -0.00000000000E+00  0.00000000000E+00  0.93800000000E+00  0.93800000000E+00 0.  1.
         11    1    1    2    0    0 -0.39581173671E-01  0.60307750923E-01  0.92992999092E+00  0.93272383011E+00  0.51100000000E-03 0.  1.
    9000002    1    1    2    0    0  0.76806985989E+00 -0.11194710509E+00  0.47080304756E+00  0.13053593274E+01  0.93800000000E+00 0.  1.
         22    1    1    2    0    0 -0.72848868622E+00  0.51639354165E-01  0.25992669289E+01  0.26999168425E+01  0.00000000000E+00 0. -1.
</event>
<event>
 5    1  0.1160133E+000  0.1599103E+01  0.7818608E-02  0.3354338E+00
         11   -1    0    0    0    0  0.00000000000E+00  0.00000000000E+00  0.39999999674E+01  0.40000000000E+01  0.51100000000E-03 0.  1.
    9000002   -1    0    0    0    0 -0.00000000000E+00 -0.00000000000E+00  0.00000000000E+00  0.93800000000E+00  0.93800000000E+00 0. -1.
         11    1    1    2    0    0  0.33482151558E+00 -0.26485076440E+00  0.85913380396E+00  0.95935526732E+00  0.51100000000E-03 0.  1.
    9000002    1    1    2    0    0 -0.91101621217E+00  0.80994387846E+00  0.14631357858E+01  0.21228683315E+01  0.93800000000E+00 0. -1.
         22    1    1    2    0    0  0.57619469659E+00 -0.54509311407E+00  0.16777303776E+01  0.18557764012E+01  0.00000000000E+00 0. -1.
</event>
<event>
 5    1  0.1160133E+000  0.1599677E+01  0.7818608E-02  0.3353714E+00
         11   -1    0    0    0    0  0.00000000000E+00  0.00000000000E+00  0.39999999674E+01  0.40000000000E+01  0.51100000000E-03 0. -1.
    9000002   -1    0    0    0    0 -0.00000000000E+00 -0.00000000000E+00  0.00000000000E+00  0.93800000000E+00  0.93800000000E+00 0. -1.
         11    1    1    2    0    0 -0.24049770776E+00  0.39047414785E-01  0.75764953502E+00  0.79586237948E+00  0.51100000000E-03 0. -1.
    9000002    1    1    2    0    0  0.10040531582E+01 -0.16244936378E+00  0.84065543900E+00  0.16189682231E+01  0.93800000000E+00 0. -1.
         22    1    1    2    0    0 -0.76355545047E+00  0.12340194899E+00  0.24016949933E+01  0.25231693974E+01  0.00000000000E+00 0. -1.
</event>
<event>
 5    1  0.1160133E+000  0.1587779E+01  0.7818608E-02  0.3366736E+00
         11   -1    0    0    0    0  0.00000000000E+00  0.00000000000E+00  0.39999999674E+01  0.40000000000E+01  0.51100000000E-03 0.  1.
    9000002   -1    0    0    0    0 -0.00000000000E+00 -0.00000000000E+00  0.00000000000E+00  0.93800000000E+00  0.93800000000E+00 0.  1.
         11    1    1    2    0    0  0.15490873930E+00 -0.23119782232E+00  0.90039695610E+00  0.94242458066E+00  0.51100000000E-03 0.  1.
    9000002    1    1    2    0    0 -0.88946727853E+00  0.63068057481E+00  0.10465238878E+01  0.17787541356E+01  0.93800000000E+00 0.  1.
         22    1    1    2    0    0  0.73455853922E+00 -0.39948275248E+00  0.20530791235E+01  0.22168212838E+01  0.00000000000E+00 0.  1.
</event>
<event>
 5    1  0.1160133E+000  0.1599151E+01  0.7818608E-02  0.3354285E+00
         11   -1    0    0    0    0  0.00000000000E+00  0.00000000000E+00  0.39999999674E+01  0.40000000000E+01  0.51100000000E-03 0.  1.
    9000002   -1    0    0    0    0 -0.00000000000E+00 -0.00000000000E+00  0.00000000000E+00  0.93800000000E+00  0.93800000000E+00 0.  1.
         11    1    1    2    0    0  0.97531086277E-02 -0.77176084151E-01  0.29202588226E+00  0.30220960959E+00  0.51100000000E-03 0.  1.
    9000002    1    1    2    0    0 -0.28935476343E+00  0.86252440725E+00  0.63706788403E+00  0.14537448267E+01  0.93800000000E+00 0.  1.
         22    1    1    2    0    0  0.27960165481E+00 -0.78534832310E+00  0.30709062011E+01  0.31820455637E+01  0.00000000000E+00 0.  1.
</event>
<event>
 5    1  0.1160133E+000  0.1599677E+01  0.7818608E-02  0.3353714E+00
         11   -1    0    0    0    0  0.00000000000E+00  0.00000000000E+00  0.39999999674E+01  0.40000000000E+01  0.51100000000E-03 0.  1.
    9000002   -1    0    0    0    0 -0.00000000000E+00 -0.00000000000E+00  0.00000000000E+00  0.93800000000E+00  0.93800000000E+00 0.  1.
         11    1    1    2    0    0 -0.21379378882E+00  0.30920181347E+00  0.13801441388E+01  0.14304235913E+01  0.51100000000E-03 0. -1.
    9000002    1    1    2    0    0  0.51975060358E+00 -0.75232011514E+00  0.64406846900E+00  0.14597240966E+01  0.93800000000E+00 0.  1.
         22    1    1    2    0    0 -0.30595681475E+00  0.44311830167E+00  0.19757873596E+01  0.20478523121E+01  0.00000000000E+00 0.  1.
</event>
<event>
 5    1  0.1160133E+000  0.1599547E+01  0.7818608E-02  0.3353856E+00
         11   -1    0    0    0    0  0.00000000000E+00  0.00000000000E+00  0.39999999674E+01  0.40000000000E+01  0.51100000000E-03 0.  1.
    9000002   -1    0    0    0    0 -0.00000000000E+00 -0.00000000000E+00  0.00000000000E+00  0.93800000000E+00  0.93800000000E+00 0.  1.
         11    1    1    2    0    0  0.34280646430E+00  0.42456404237E-01  0.11826170341E+01  0.12320317076E+01  0.51100000000E-03 0.  1.
    9000002    1    1    2    0    0 -0.97474454007E+00 -0.11597114667E+00  0.76752235454E+00  0.15596508551E+01  0.93800000000E+00 0.  1.
         22    1    1    2    0    0  0.63193807577E+00  0.73514742434E-01  0.20498605788E+01  0.21463174372E+01  0.00000000000E+00 0.  1.
</event>
<event>
 5    1  0.1160133E+000  0.1599677E+01  0.7818608E-02  0.3353714E+00
         11   -1    0    0    0    0  0.00000000000E+00  0.00000000000E+00  0.39999999674E+01  0.40000000000E+01  0.51100000000E-03 0.  1.
    9000002   -1    0    0    0    0 -0.00000000000E+00 -0.00000000000E+00  0.00000000000E+00  0.93800000000E+00  0.93800000000E+00 0.  1.
         11    1    1    2    0    0 -0.45874851966E-01  0.22583547189E+00  0.74829974018E+00  0.78298079458E+00  0.51100000000E-03 0.  1.
    9000002    1    1    2    0    0  0.19874946388E+00 -0.96982848308E+00  0.78400458117E+00  0.15730784530E+01  0.93800000000E+00 0.  1.
         22    1    1    2    0    0 -0.15287461192E+00  0.74399301119E+00  0.24676956460E+01  0.25819407524E+01  0.00000000000E+00 0.  1.
</event>
<event>
 5    1  0.1160133E+000  0.1599677E+01  0.7818608E-02  0.3353714E+00
         11   -1    0    0    0    0  0.00000000000E+00  0.00000000000E+00  0.39999999674E+01  0.40000000000E+01  0.51100000000E-03 0.  1.
    9000002   -1    0    0    0    0 -0.00000000000E+00 -0.00000000000E+00  0.00000000000E+00  0.93800000000E+00  0.93800000000E+00 0. -1.
         11    1    1    2    0    0 -0.28712385422E-01 -0.39275856156E+00  0.11408506715E+01  0.12069068748E+01  0.51100000000E-03 0.  1.
    9000002    1    1    2    0    0  0.77148319925E-01  0.10541891951E+01  0.93156426808E+00  0.16926082559E+01  0.93800000000E+00 0. -1.
         22    1    1    2    0    0 -0.48435934503E-01 -0.66143063359E+00  0.19275850278E+01  0.20384848693E+01  0.00000000000E+00 0.  1.
</event>
<event>
 5    1  0.1160133E+000  0.1589591E+01  0.7818608E-02  0.3364739E+00
         11   -1    0    0    0    0  0.00000000000E+00  0.00000000000E+00  0.39999999674E+01  0.40000000000E+01  0.51100000000E-03 0.  1.
    9000002   -1    0    0    0    0 -0.00000000000E+00 -0.00000000000E+00  0.00000000000E+00  0.93800000000E+00  0.93800000000E+00 0.  1.
         11    1    1    2    0    0  0.41312281905E+00 -0.43328508159E+00  0.99274809635E+00  0.11592909339E+01  0.51100000000E-03 0.  1.
    9000002    1    1    2    0    0 -0.88687305727E+00  0.82120661096E+00  0.14603875731E+01  0.21150650064E+01  0.93800000000E+00 0.  1.
         22    1    1    2    0    0  0.47375023822E+00 -0.38792152937E+00  0.15468642979E+01  0.16636440597E+01  0.00000000000E+00 0.  1.
</event>
<event>
 5    1  0.1160133E+000  0.1538038E+01  0.7818608E-02  0.3423489E+00
         11   -1    0    0    0    0  0.00000000000E+00  0.00000000000E+00  0.39999999674E+01  0.40000000000E+01  0.51100000000E-03 0. -1.
    9000002   -1    0    0    0    0 -0.00000000000E+00 -0.00000000000E+00  0.00000000000E+00  0.93800000000E+00  0.93800000000E+00 0.  1.
         11    1    1    2    0    0  0.83760173791E+00 -0.75097248831E-01  0.63026915153E+00  0.10509308886E+01  0.51100000000E-03 0. -1.
    9000002    1    1    2    0    0 -0.12079582248E+01 -0.81804310358E-02  0.24022865472E+01  0.28478157678E+01  0.93800000000E+00 0.  1.
         22    1    1    2    0    0  0.37035648688E+00  0.83277679867E-01  0.96744426859E+00  0.10392533436E+01  0.00000000000E+00 0. -1.
</event>
<event>
 5    1  0.1160133E+000  0.1599040E+01  0.7818608E-02  0.3354406E+00
         11   -1    0    0    0    0  0.00000000000E+00  0.00000000000E+00  0.39999999674E+01  0.40000000000E+01  0.51100000000E-03 0. -1.
    9000002   -1    0    0    0    0 -0.00000000000E+00 -0.00000000000E+00  0.00000000000E+00  0.93800000000E+00  0.93800000000E+00 0.  1.
         11    1    1    2    0    0  0.13555830627E+00  0.75666674532E-01  0.47505094863E+00  0.49977511438E+00  0.51100000000E-03 0. -1.
    9000002    1    1    2    0    0 -0.78857503590E+00 -0.57441884904E+00  0.75662556613E+00  0.15505269584E+01  0.93800000000E+00 0.  1.
         22    1    1    2    0    0  0.65301672963E+00  0.49875217450E+00  0.27683234526E+01  0.28876979272E+01  0.00000000000E+00 0. -1.
</event>
<event>
 5    1  0.1160133E+000  0.1599486E+01  0.7818608E-02  0.3353921E+00
         11   -1    0    0    0    0  0.00000000000E+00  0.00000000000E+00  0.39999999674E+01  0.40000000000E+01  0.51100000000E-03 0.  1.
    9000002   -1    0    0    0    0 -0.00000000000E+00 -0.00000000000E+00  0.00000000000E+00  0.93800000000E+00  0.93800000000E+00 0.  1.
         11    1    1    2    0    0  0.94700160632E-01 -0.15325839290E+00  0.69296616591E+00  0.71600183214E+00  0.51100000000E-03 0.  1.
    9000002    1    1    2    0    0 -0.51625567330E+00  0.76708435262E+00  0.66194837719E+00  0.14740956476E+01  0.93800000000E+00 0.  1.
         22    1    1    2    0    0  0.42155551267E+00 -0.61382595972E+00  0.26450854243E+01  0.27479025202E+01  0.00000000000E+00 0.  1.
</event>
<event>
 5    1  0.1160133E+000  0.1595865E+01  0.7818608E-02  0.3357864E+00
         11   -1    0    0    0    0  0.00000000000E+00  0.00000000000E+00  0.39999999674E+01  0.40000000000E+01  0.51100000000E-03 0. -1.
    9000002   -1    0    0    0    0 -0.00000000000E+00 -0.00000000000E+00  0.00000000000E+00  0.93800000000E+00  0.93800000000E+00 0. -1.
         11    1    1    2    0    0  0.93716574761E-02 -0.50111171523E+00  0.13726060701E+01  0.14612489397E+01  0.51100000000E-03 0. -1.
    9000002    1    1    2    0    0  0.10991624443E+00  0.11299325747E+01  0.11559534060E+01  0.18721382110E+01  0.93800000000E+00 0. -1.
         22    1    1    2    0    0 -0.11928790190E+00 -0.62882085945E+00  0.14714404913E+01  0.16046128493E+01  0.00000000000E+00 0.  1.
</event>
<event>
 5    1  0.1160133E+000  0.1595807E+01  0.7818608E-02  0.3357926E+00
         11   -1    0    0    0    0  0.00000000000E+00  0.00000000000E+00  0.39999999674E+01  0.40000000000E+01  0.51100000000E-03 0.  1.
    9000002   -1    0    0    0    0 -0.00000000000E+00 -0.00000000000E+00  0.00000000000E+00  0.93800000000E+00  0.93800000000E+00 0.  1.
         11    1    1    2    0    0 -0.15654852367E+00 -0.27172350495E+00  0.97984702949E+00  0.10288058931E+01  0.51100000000E-03 0.  1.
    9000002    1    1    2    0    0  0.31439846241E+00  0.98746420992E+00  0.89145925939E+00  0.16578526986E+01  0.93800000000E+00 0.  1.
         22    1    1    2    0    0 -0.15784993874E+00 -0.71574070497E+00  0.21286936785E+01  0.22513414083E+01  0.00000000000E+00 0.  1.
</event>
<event>
 5    1  0.1160133E+000  0.1496394E+01  0.7818608E-02  0.3474108E+00
         11   -1    0    0    0    0  0.00000000000E+00  0.00000000000E+00  0.39999999674E+01  0.40000000000E+01  0.51100000000E-03 0.  1.
    9000002   -1    0    0    0    0 -0.00000000000E+00 -0.00000000000E+00  0.00000000000E+00  0.93800000000E+00  0.93800000000E+00 0.  1.
         11    1    1    2    0    0 -0.16768773801E+00  0.56789166338E+00  0.13067743970E+01  0.14346705910E+01  0.51100000000E-03 0.  1.
    9000002    1    1    2    0    0 -0.30399312863E+00 -0.11247592335E+01  0.19937403430E+01  0.24924565615E+01  0.93800000000E+00 0.  1.
         22    1    1    2    0    0  0.47168086663E+00  0.55686757012E+00  0.69948522738E+00  0.10108728476E+01  0.00000000000E+00 0.  1.
</event>
<event>
 5    1  0.1160133E+000  0.1598514E+01  0.7818608E-02  0.3354978E+00
         11   -1    0    0    0    0  0.00000000000E+00  0.00000000000E+00  0.39999999674E+01  0.40000000000E+01  0.51100000000E-03 0.  1.
    9000002   -1    0    0    0    0 -0.00000000000E+00 -0.00000000000E+00  0.00000000000E+00  0.93800000000E+00  0.93800000000E+00 0. -1.
         11    1    1    2    0    0 -0.29251427140E+00  0.27826929859E-02  0.75606194440E+00  0.81068012634E+00  0.51100000000E-03 0.  1.
    9000002    1    1    2    0    0  0.10604366798E+01 -0.10021956102E+00  0.95409945024E+00  0.17101811814E+01  0.93800000000E+00 0. -1.
         22    1    1    2    0    0 -0.76792240838E+00  0.97436868036E-01  0.22898385727E+01  0.24171386923E+01  0.00000000000E+00 0.  1.
</event>
<event>
 5    1  0.1160133E+000  0.1593755E+01  0.7818608E-02  0.3360169E+00
         11   -1    0    0    0    0  0.00000000000E+00  0.00000000000E+00  0.39999999674E+01  0.40000000000E+01  0.51100000000E-03 0.  1.
    9000002   -1    0    0    0    0 -0.00000000000E+00 -0.00000000000E+00  0.00000000000E+00  0.93800000000E+00  0.93800000000E+00 0.  1.
         11    1    1    2    0    0 -0.22309962691E-01 -0.12363047849E+00  0.23463983812E+00  0.26615473770E+00  0.51100000000E-03 0.  1.
    9000002    1    1    2    0    0  0.10750351559E+00  0.99496627975E+00  0.81759378981E+00  0.15968151142E+01  0.93800000000E+00 0.  1.
         22    1    1    2    0    0 -0.85193552901E-01 -0.87133580126E+00  0.29477663394E+01  0.30750301481E+01  0.00000000000E+00 0.  1.
</event>
<event>
 5    1  0.1160133E+000  0.1599674E+01  0.7818608E-02  0.3353717E+00
         11   -1    0    0    0    0  0.00000000000E+00  0.00000000000E+00  0.39999999674E+01  0.40000000000E+01  0.51100000000E-03 0. -1.
    9000002   -1    0    0    0    0 -0.00000000000E+00 -0.00000000000E+00  0.00000000000E+00  0.93800000000E+00  0.93800000000E+00 0.  1.
         11    1    1    2    0    0 -0.18309538050E+00  0.14872466542E+00  0.80849177129E+00  0.84220077763E+00  0.51100000000E-03 0.  1.
    9000002    1    1    2    0    0  0.74175651157E+00 -0.60973620250E+00  0.72594985654E+00  0.15260498528E+01  0.93800000000E+00 0.  1.
         22    1    1    2    0    0 -0.55866113107E+00  0.46101153708E+00  0.24655583395E+01  0.25697493696E+01  0.00000000000E+00 0. -1.
</event>
<event>
 5    1  0.1160133E+000  0.1599614E+01  0.7818608E-02  0.3353783E+00
         11   -1    0    0    0    0  0.00000000000E+00  0.00000000000E+00  0.39999999674E+01  0.40000000000E+01  0.51100000000E-03 0. -1.
    9000002   -1    0    0    0    0 -0.00000000000E+00 -0.00000000000E+00  0.00000000000E+00  0.93800000000E+00  0.93800000000E+00 0.  1.
         11    1    1    2    0    0  0.40588265375E-02 -0.49957916984E-03  0.10428202122E-01  0.11213035838E-01  0.51100000000E-03 0. -1.
    9000002    1    1    2    0    0 -0.11184801171E+01 -0.14662508889E+00  0.11225788597E+01  0.18473018122E+01  0.93800000000E+00 0.  1.
         22    1    1    2    0    0  0.11144212906E+01  0.14712466806E+00  0.28669929055E+01  0.30794851519E+01  0.00000000000E+00 0. -1.
</event>
<event>
 5    1  0.1160133E+000  0.1599677E+01  0.7818608E-02  0.3353714E+00
         11   -1    0    0    0    0  0.00000000000E+00  0.00000000000E+00  0.39999999674E+01  0.40000000000E+01  0.51100000000E-03 0. -1.
    9000002   -1    0    0    0    0 -0.00000000000E+00 -0.00000000000E+00  0.00000000000E+00  0.93800000000E+00  0.93800000000E+00 0.  1.
         11    1    1    2    0    0 -0.19058019012E+00 -0.44878285734E-01  0.69116261513E+00  0.71835986182E+00  0.51100000000E-03 0. -1.
    9000002    1    1    2    0    0  0.91265916465E+00  0.21501335651E+00  0.68457543851E+00  0.14925364402E+01  0.93800000000E+00 0.  1.
         22    1    1    2    0    0 -0.72207897454E+00 -0.17013507077E+00  0.26242619137E+01  0.27271036980E+01  0.00000000000E+00 0. -1.
</event>
<event>
 5    1  0.1160133E+000  0.1581555E+01  0.7818608E-02  0.3373629E+00
         11   -1    0    0    0    0  0.00000000000E+00  0.00000000000E+00  0.39999999674E+01  0.40000000000E+01  0.51100000000E-03 0.  1.
    9000002   -1    0    0    0    0 -0.00000000000E+00 -0.00000000000E+00  0.00000000000E+00  0.93800000000E+00  0.93800000000E+00 0. -1.
         11    1    1    2    0    0  0.16073492805E+00  0.67007299677E-01  0.12484797987E+01  0.12605664458E+01  0.51100000000E-03 0.  1.
    9000002    1    1    2    0    0 -0.58433165661E+00 -0.60012329559E+00  0.54918683198E+00  0.13722396406E+01  0.93800000000E+00 0. -1.
         22    1    1    2    0    0  0.42359672857E+00  0.53311599592E+00  0.22023333367E+01  0.23051939136E+01  0.00000000000E+00 0.  1.
</event>
<event>
 5    1  0.1160133E+000  0.1599193E+01  0.7818608E-02  0.3354240E+00
         11   -1    0    0    0    0  0.00000000000E+00  0.00000000000E+00  0.39999999674E+01  0.40000000000E+01  0.51100000000E-03 0. -1.
    9000002   -1    0    0    0    0 -0.00000000000E+00 -0.00000000000E+00  0.00000000000E+00  0.93800000000E+00  0.93800000000E+00 0. -1.
         11    1    1    2    0    0 -0.11676431167E+00 -0.12528437569E+00  0.33550803974E+00  0.37669083494E+00  0.51100000000E-03 0. -1.
    9000002    1    1    2    0    0  0.91849147644E+00  0.87221726403E+00  0.17478599937E+01  0.23535607291E+01  0.93800000000E+00 0. -1.
         22    1    1    2    0    0 -0.80172716476E+00 -0.74693288834E+00  0.19166319339E+01  0.22077484360E+01  0.00000000000E+00 0. -1.
</event>
<event>
 5    1  0.1160133E+000  0.1599676E+01  0.7818608E-02  0.3353715E+00
         11   -1    0    0    0    0  0.00000000000E+00  0.00000000000E+00  0.39999999674E+01  0.40000000000E+01  0.51100000000E-03 0. -1.
    9000002   -1    0    0    0    0 -0.00000000000E+00 -0.00000000000E+00  0.00000000000E+00  0.93800000000E+00  0.93800000000E+00 0.  1.
         11    1    1    2    0    0  0.28150966401E+00 -0.32224670864E+00  0.12711283336E+01  0.13412151706E+01  0.51100000000E-03 0. -1.
    9000002    1    1    2    0    0 -0.68774415377E+00  0.78382087680E+00  0.89799243068E+00  0.16654133401E+01  0.93800000000E+00 0.  1.
         22    1    1    2    0    0  0.40623448976E+00 -0.46157416816E+00  0.18308792031E+01  0.19313714893E+01  0.00000000000E+00 0. -1.
</event>
<event>
 5    1  0.1160133E+000  0.1592462E+01  0.7818608E-02  0.3361586E+00
         11   -1    0    0    0    0  0.00000000000E+00  0.00000000000E+00  0.39999999674E+01  0.40000000000E+01  0.51100000000E-03 0. -1.
    9000002   -1    0    0    0    0 -0.00000000000E+00 -0.00000000000E+00  0.00000000000E+00  0.93800000000E+00  0.93800000000E+00 0. -1.
         11    1    1    2    0    0 -0.21137776736E+00  0.42331014922E+00  0.13762584993E+01  0.14553211882E+01  0.51100000000E-03 0. -1.
    9000002    1    1    2    0    0  0.25416035976E+00 -0.96498328278E+00  0.81412301015E+00  0.15932452731E+01  0.93800000000E+00 0. -1.
         22    1    1    2    0    0 -0.42782592399E-01  0.54167313356E+00  0.18096184579E+01  0.18894335387E+01  0.00000000000E+00 0.  1.
</event>
<event>
 5    1  0.1160133E+000  0.1597504E+01  0.7818608E-02  0.3356077E+00
         11   -1    0    0    0    0  0.00000000000E+00  0.00000000000E+00  0.39999999674E+01  0.40000000000E+01  0.51100000000E-03 0.  1.
    9000002   -1    0    0    0    0 -0.00000000000E+00 -0.00000000000E+00  0.00000000000E+00  0.93800000000E+00  0.93800000000E+00 0.  1.
         11    1    1    2    0    0  0.26335818306E-01  0.63195561894E-01  0.39169259405E+00  0.39763124088E+00  0.51100000000E-03 0.  1.
    9000002    1    1    2    0    0 -0.43246361987E+00 -0.78710947811E+00  0.62020461405E+00  0.14391191321E+01  0.93800000000E+00 0.  1.
         22    1    1    2    0    0  0.40612780156E+00  0.72391391622E+00  0.29881027593E+01  0.31012496270E+01  0.00000000000E+00 0.  1.
</event>
<event>
 5    1  0.1160133E+000  0.1571045E+01  0.7818608E-02  0.3385402E+00
         11   -1    0    0    0    0  0.00000000000E+00  0.00000000000E+00  0.39999999674E+01  0.40000000000E+01  0.51100000000E-03 0.  1.
    9000002   -1    0    0    0    0 -0.00000000000E+00 -0.00000000000E+00  0.00000000000E+00  0.93800000000E+00  0.93800000000E+00 0.  1.
         11    1    1    2    0    0 -0.16879078398E+00 -0.36877088317E+00  0.11223148219E+01  0.11933453455E+01  0.51100000000E-03 0.  1.
    9000002    1    1    2    0    0 -0.60491902444E-01  0.94542433121E+00  0.75283928580E+00  0.15310445541E+01  0.93800000000E+00 0.  1.
         22    1    1    2    0    0  0.22928268643E+00 -0.57665344804E+00  0.21248458597E+01  0.22136101005E+01  0.00000000000E+00 0.  1.
</event>
<event>
 5    1  0.1160133E+000  0.1599309E+01  0.7818608E-02  0.3354113E+00
         11   -1    0    0    0    0  0.00000000000E+00  0.00000000000E+00  0.39999999674E+01  0.40000000000E+01  0.51100000000E-03 0.  1.
    9000002   -1    0    0    0    0 -0.00000000000E+00 -0.00000000000E+00  0.00000000000E+00  0.93800000000E+00  0.93800000000E+00 0. -1.
         11    1    1    2    0    0 -0.35801434245E+00 -0.16942041162E+00  0.13664093889E+01  0.14226568189E+01  0.51100000000E-03 0.  1.
    9000002    1    1    2    0    0  0.83323319528E+00  0.45442264304E+00  0.70593868085E+00  0.15096260853E+01  0.93800000000E+00 0. -1.
         22    1    1    2    0    0 -0.47521885282E+00 -0.28500223141E+00  0.19276518976E+01  0.20057170958E+01  0.00000000000E+00 0.  1.
</event>
<event>
 5    1  0.1160133E+000  0.1598309E+01  0.7818608E-02  0.3355201E+00
         11   -1    0    0    0    0  0.00000000000E+00  0.00000000000E+00  0.39999999674E+01  0.40000000000E+01  0.51100000000E-03 0.  1.
    9000002   -1    0    0    0    0 -0.00000000000E+00 -0.00000000000E+00  0.00000000000E+00  0.93800000000E+00  0.93800000000E+00 0. -1.
         11    1    1    2    0    0 -0.21846869296E-01  0.10433870522E-01  0.71638061561E-01  0.75620264066E-01  0.51100000000E-03 0.  1.
    9000002    1    1    2    0    0  0.95840120868E+00  0.11879135682E+00  0.73886563586E+00  0.15357117865E+01  0.93800000000E+00 0. -1.
         22    1    1    2    0    0 -0.93655433939E+00 -0.12922522734E+00  0.31894962699E+01  0.33266679495E+01  0.00000000000E+00 0.  1.
</event>
<event>
 5    1  0.1160133E+000  0.1599659E+01  0.7818608E-02  0.3353733E+00
         11   -1    0    0    0    0  0.00000000000E+00  0.00000000000E+00  0.39999999674E+01  0.40000000000E+01  0.51100000000E-03 0.  1.
    9000002   -1    0    0    0    0 -0.00000000000E+00 -0.00000000000E+00  0.00000000000E+00  0.93800000000E+00  0.93800000000E+00 0. -1.
         11    1    1    2    0    0 -0.40644188479E+00  0.42511323210E+00  0.13627857482E+01  0.14842848522E+01  0.51100000000E-03 0.  1.
    9000002    1    1    2    0    0  0.80925542765E+00 -0.85607563048E+00  0.12894065705E+01  0.19824664276E+01  0.93800000000E+00 0. -1.
         22    1    1    2    0    0 -0.40281354286E+00  0.43096239838E+00  0.13478076486E+01  0.14712487202E+01  0.00000000000E+00 0.  1.
</event>
<event>
 5    1  0.1160133E+000  0.1599667E+01  0.7818608E-02  0.3353725E+00
         11   -1    0    0    0    0  0.00000000000E+00  0.00000000000E+00  0.39999999674E+01  0.40000000000E+01  0.51100000000E-03 0. -1.
    9000002   -1    0    0    0    0 -0.00000000000E+00 -0.00000000000E+00  0.00000000000E+00  0.93800000000E+00  0.93800000000E+00 0.  1.
         11    1    1    2    0    0 -0.43239446484E-01 -0.88169552065E-02  0.13273760541E+00  0.13988181241E+00  0.51100000000E-03 0. -1.
    9000002    1    1    2    0    0  0.10050170222E+01  0.18045616955E+00  0.84931771478E+00  0.16259791587E+01  0.93800000000E+00 0.  1.
         22    1    1    2    0    0 -0.96177757570E+00 -0.17163921435E+00  0.30179446472E+01  0.31721390289E+01  0.00000000000E+00 0. -1.
</event>
<event>
 5    1  0.1160133E+000  0.1599676E+01  0.7818608E-02  0.3353716E+00
         11   -1    0    0    0    0  0.00000000000E+00  0.00000000000E+00  0.39999999674E+01  0.40000000000E+01  0.51100000000E-03 0.  1.
    9000002   -1    0    0    0    0 -0.00000000000E+00 -0.00000000000E+00  0.00000000000E+00  0.93800000000E+00  0.93800000000E+00 0.  1.
         11    1    1    2    0    0  0.21065829109E+00 -0.14740963600E+00  0.88064035652E+00  0.91740624319E+00  0.51100000000E-03 0.  1.
    9000002    1    1    2    0    0 -0.78549180820E+00  0.54462313451E+00  0.71776795308E+00  0.15194231056E+01  0.93800000000E+00 0.  1.
         22    1    1    2    0    0  0.57483351711E+00 -0.39721349851E+00  0.24015916578E+01  0.25011706512E+01  0.00000000000E+00 0.  1.
</event>
<event>
 5    1  0.1160133E+000  0.1599184E+01  0.7818608E-02  0.3354249E+00
         11   -1    0    0    0    0  0.00000000000E+00  0.00000000000E+00  0.39999999674E+01  0.40000000000E+01  0.51100000000E-03 0. -1.
    9000002   -1    0    0    0    0 -0.00000000000E+00 -0.00000000000E+00  0.00000000000E+00  0.93800000000E+00  0.93800000000E+00 0. -1.
         11    1    1    2    0    0 -0.16997526446E+00 -0.50371654840E-01  0.55973208638E+00  0.58713640986E+00  0.51100000000E-03 0. -1.
    9000002    1    1    2    0    0  0.91310844961E+00  0.21811416135E+00  0.68746405947E+00  0.14945874552E+01  0.93800000000E+00 0. -1.
         22    1    1    2    0    0 -0.74313318515E+00 -0.16774250651E+00  0.27528038215E+01  0.28562761350E+01  0.00000000000E+00 0. -1.
</event>
<event>
 5    1  0.1160133E+000  0.1488867E+01  0.7818608E-02  0.3483583E+00
         11   -1    0    0    0    0  0.00000000000E+00  0.00000000000E+00  0.39999999674E+01  0.40000000000E+01  0.51100000000E-03 0. -1.
    9000002   -1    0    0    0    0 -0.00000000000E+00 -0.00000000000E+00  0.00000000000E+00  0.93800000000E+00  0.93800000000E+00 0.  1.
         11    1    1    2    0    0 -0.34501047498E+00 -0.16149950122E+00  0.13131118375E+01  0.13672517236E+01  0.51100000000E-03 0. -1.
    9000002    1    1    2    0    0 -0.14852636297E-01  0.84781527060E+00  0.71627700886E+00  0.14532405469E+01  0.93800000000E+00 0.  1.
         22    1    1    2    0    0  0.35986311128E+00 -0.68631576938E+00  0.19706111210E+01  0.21175077295E+01  0.00000000000E+00 0. -1.
</event>
<event>
 5    1  0.1160133E+000  0.1599673E+01  0.7818608E-02  0.3353718E+00
         11   -1    0    0    0    0  0.00000000000E+00  0.00000000000E+00  0.39999999674E+01  0.40000000000E+01  0.51100000000E-03 0.  1.
    9000002   -1    0    0    0    0 -0.00000000000E+00 -0.00000000000E+00  0.00000000000E+00  0.93800000000E+00  0.93800000000E+00 0.  1.
         11    1    1    2    0    0 -0.11245479109E+00  0.22504283939E+00  0.92730791399E+00  0.96082807414E+00  0.51100000000E-03 0.  1.
    9000002    1    1    2    0    0  0.40887602847E+00 -0.80988913999E+00  0.63202258255E+00  0.14499643342E+01  0.93800000000E+00 0.  1.
         22    1    1    2    0    0 -0.29642123738E+00  0.58484630060E+00  0.24406694708E+01  0.25272075916E+01  0.00000000000E+00 0.  1.
</event>
<event>
 5    1  0.1160133E+000  0.1594849E+01  0.7818608E-02  0.3358973E+00
         11   -1    0    0    0    0  0.00000000000E+00  0.00000000000E+00  0.39999999674E+01  0.40000000000E+01  0.51100000000E-03 0. -1.
    9000002   -1    0    0    0    0 -0.00000000000E+00 -0.00000000000E+00  0.00000000000E+00  0.93800000000E+00  0.93800000000E+00 0.  1.
         11    1    1    2    0    0 -0.28977755665E-01 -0.20006453493E+00  0.52437645818E+00  0.56199329131E+00  0.51100000000E-03 0. -1.
    9000002    1    1    2    0    0 -0.19536391990E+00  0.11045797729E+01  0.11173191360E+01  0.18402471539E+01  0.93800000000E+00 0.  1.
         22    1    1    2    0    0  0.22434167556E+00 -0.90451523794E+00  0.23583043732E+01  0.25357595548E+01  0.00000000000E+00 0. -1.
</event>
<event>
 5    1  0.1160133E+000  0.1594948E+01  0.7818608E-02  0.3358865E+00
         11   -1    0    0    0    0  0.00000000000E+00  0.00000000000E+00  0.39999999674E+01  0.40000000000E+01  0.51100000000E-03 0. -1.
    9000002   -1    0    0    0    0 -0.00000000000E+00 -0.00000000000E+00  0.00000000000E+00  0.93800000000E+00  0.93800000000E+00 0. -1.
         11    1    1    2    0    0  0.75030000579E-01  0.31993172804E+00  0.66338353862E+00  0.74031330667E+00  0.51100000000E-03 0. -1.
    9000002    1    1    2    0    0 -0.36371493244E-01 -0.11760462739E+01  0.13015724197E+01  0.19895583650E+01  0.93800000000E+00 0. -1.
         22    1    1    2    0    0 -0.38658507335E-01  0.85611454587E+00  0.20350440090E+01  0.22081283283E+01  0.00000000000E+00 0.  1.
</event>
<event>
 5    1  0.1160133E+000  0.1510648E+01  0.7818608E-02  0.3456444E+00
         11   -1    0    0    0    0  0.00000000000E+00  0.00000000000E+00  0.39999999674E+01  0.40000000000E+01  0.51100000000E-03 0. -1.
    9000002   -1    0    0    0    0 -0.00000000000E+00 -0.00000000000E+00  0.00000000000E+00  0.93800000000E+00  0.93800000000E+00 0. -1.
         11    1    1    2    0    0  0.27084822619E+00  0.22403595109E+00  0.41205471926E+00  0.54160891960E+00  0.51100000000E-03 0. -1.
    9000002    1    1    2    0    0  0.63323041544E+00 -0.50438458377E+00  0.85829151965E+00  0.15072799674E+01  0.93800000000E+00 0. -1.
         22    1    1    2    0    0 -0.90407864162E+00  0.28034863268E+00  0.27296537285E+01  0.28891111130E+01  0.00000000000E+00 0. -1.
</event>
<event>
 5    1  0.1160133E+000  0.1599378E+01  0.7818608E-02  0.3354039E+00
         11   -1    0    0    0    0  0.00000000000E+00  0.00000000000E+00  0.39999999674E+01  0.40000000000E+01  0.51100000000E-03 0.  1.
    9000002   -1    0    0    0    0 -0.00000000000E+00 -0.00000000000E+00  0.00000000000E+00  0.93800000000E+00  0.93800000000E+00 0. -1.
         11    1    1    2    0    0  0.22737130997E+00 -0.12865376044E+00  0.10738229919E+01  0.11051450501E+01  0.51100000000E-03 0.  1.
    9000002    1    1    2    0    0 -0.78029371449E+00  0.42453464338E+00  0.60142768707E+00  0.14250077919E+01  0.93800000000E+00 0. -1.
         22    1    1    2    0    0  0.55292240452E+00 -0.29588088294E+00  0.23247492884E+01  0.24078471580E+01  0.00000000000E+00 0.  1.
</event>
<event>
 5    1  0.1160133E+000  0.1673912E+01  0.7818608E-02  0.3276854E+00
         11   -1    0    0    0    0  0.00000000000E+00  0.00000000000E+00  0.39999999674E+01  0.40000000000E+01  0.51100000000E-03 0. -1.
    9000002   -1    0    0    0    0 -0.00000000000E+00 -0.00000000000E+00  0.00000000000E+00  0.93800000000E+00  0.93800000000E+00 0. -1.
         11    1    1    2    0    0  0.44299308669E+00 -0.17275514302E+00  0.50810841322E+00  0.69588909677E+00  0.51100000000E-03 0. -1.
    9000002    1    1    2    0    0  0.34481994697E+00 -0.46715849369E+00  0.79280199439E+00  0.13584980149E+01  0.93800000000E+00 0. -1.
         22    1    1    2    0    0 -0.78781303366E+00  0.63991363671E+00  0.26990895598E+01  0.28836128884E+01  0.00000000000E+00 0. -1.
</event>
<event>
 5    1  0.1160133E+000  0.1599671E+01  0.7818608E-02  0.3353720E+00
         11   -1    0    0    0    0  0.00000000000E+00  0.00000000000E+00  0.39999999674E+01  0.40000000000E+01  0.51100000000E-03 0.  1.
    9000002   -1    0    0    0    0 -0.00000000000E+00 -0.00000000000E+00  0.00000000000E+00  0.93800000000E+00  0.93800000000E+00 0.  1.
         11    1    1    2    0    0  0.43185175694E-01 -0.90596891325E-02  0.15076290411E+00  0.15708835648E+00  0.51100000000E-03 0. -1.
    9000002    1    1    2    0    0 -0.92569088324E+00  0.21598163809E+00  0.70800314928E+00  0.15115105487E+01  0.93800000000E+00 0.  1.
         22    1    1    2    0    0  0.88250570754E+00 -0.20692194895E+00  0.31412339140E+01  0.32694010949E+01  0.00000000000E+00 0.  1.
</event>
<event>
 5    1  0.1160133E+000  0.1175013E+01  0.7818608E-02  0.4053037E+00
         11   -1    0    0    0    0  0.00000000000E+00  0.00000000000E+00  0.39999999674E+01  0.40000000000E+01  0.51100000000E-03 0. -1.
    9000002   -1    0    0    0    0 -0.00000000000E+00 -0.00000000000E+00  0.00000000000E+00  0.93800000000E+00  0.93800000000E+00 0. -1.
         11    1    1    2    0    0 -0.41869879515E+00 -0.81963184420E+00  0.10350273889E+01  0.13850584818E+01  0.51100000000E-03 0. -1.
    9000002    1    1    2    0    0  0.60976747810E+00  0.19922776545E+00  0.11135910530E+01  0.15910490606E+01  0.93800000000E+00 0. -1.
         22    1    1    2    0    0 -0.19106868295E+00  0.62040407875E+00  0.18513815254E+01  0.19618924576E+01  0.00000000000E+00 0. -1.
</event>
<event>
 5    1  0.1160133E+000  0.1587466E+01  0.7818608E-02  0.3367081E+00
         11   -1    0    0    0    0  0.00000000000E+00  0.00000000000E+00  0.39999999674E+01  0.40000000000E+01  0.51100000000E-03 0.  1.
    9000002   -1    0    0    0    0 -0.00000000000E+00 -0.00000000000E+00  0.00000000000E+00  0.93800000000E+00  0.93800000000E+00 0. -1.
         11    1    1    2    0    0 -0.13791299523E+00 -0.14071184530E+00  0.39886470950E+00  0.44487429153E+00  0.51100000000E-03 0.  1.
    9000002    1    1    2    0    0  0.85916193361E+00  0.44591831106E+00  0.76291121948E+00  0.15488317846E+01  0.93800000000E+00 0. -1.
         22    1    1    2    0    0 -0.72124893838E+00 -0.30520646576E+00  0.28382240384E+01  0.29442939238E+01  0.00000000000E+00 0.  1.
</event>
<event>
 5    1  0.1160133E+000  0.1599651E+01  0.7818608E-02  0.3353743E+00
         11   -1    0    0    0    0  0.00000000000E+00  0.00000000000E+00  0.39999999674E+01  0.40000000000E+01  0.51100000000E-03 0.  1.
    9000002   -1    0    0    0    0 -0.00000000000E+00 -0.00000000000E+00  0.00000000000E+00  0.93800000000E+00  0.93800000000E+00 0.  1.
         11    1    1    2    0    0 -0.33235611845E+00 -0.34831521698E+00  0.13715445640E+01  0.14535882608E+01  0.51100000000E-03 0.  1.
    9000002    1    1    2    0    0  0.73573914343E+00  0.78250589727E+00  0.97368186265E+00  0.17267101483E+01  0.93800000000E+00 0.  1.
         22    1    1    2    0    0 -0.40338302498E+00 -0.43419068029E+00  0.16547735407E+01  0.17577015909E+01  0.00000000000E+00 0.  1.
</event>
<event>
 5    1  0.1160133E+000  0.1599660E+01  0.7818608E-02  0.3353733E+00
         11   -1    0    0    0    0  0.00000000000E+00  0.00000000000E+00  0.39999999674E+01  0.40000000000E+01  0.51100000000E-03 0.  1.
    9000002   -1    0    0    0    0 -0.00000000000E+00 -0.00000000000E+00  0.00000000000E+00  0.93800000000E+00  0.93800000000E+00 0.  1.
         11    1    1    2    0    0  0.13762474065E+00  0.35953006009E+00  0.12918109458E+01  0.13479533427E+01  0.51100000000E-03 0.  1.
    9000002    1    1    2    0    0 -0.33614318076E+00 -0.90425184541E+00  0.73450836879E+00  0.15329742926E+01  0.93800000000E+00 0.  1.
         22    1    1    2    0    0  0.19851844011E+00  0.54472178532E+00  0.19736806528E+01  0.20570723647E+01  0.00000000000E+00 0.  1.
</event>
<event>
 5    1  0.1160133E+000  0.1558989E+01  0.7818608E-02  0.3399115E+00
         11   -1    0    0    0    0  0.00000000000E+00  0.00000000000E+00  0.39999999674E+01  0.40000000000E+01  0.51100000000E-03 0.  1.
    9000002   -1    0    0    0    0 -0.00000000000E+00 -0.00000000000E+00  0.00000000000E+00  0.93800000000E+00  0.93800000000E+00 0.  1.
         11    1    1    2    0    0 -0.37917766753E+00  0.19266610503E+00  0.10062470623E+01  0.10924419174E+01  0.51100000000E-03 0.  1.
    9000002    1    1    2    0    0  0.50988191464E+00 -0.80311767305E+00  0.78336884937E+00  0.15487053683E+01  0.93800000000E+00 0.  1.
         22    1    1    2    0    0 -0.13070424712E+00  0.61045156802E+00  0.22103840557E+01  0.22968527142E+01  0.00000000000E+00 0. -1.
</event>
<event>
 5    1  0.1160133E+000  0.1599651E+01  0.7818608E-02  0.3353742E+00
         11   -1    0    0    0    0  0.00000000000E+00  0.00000000000E+00  0.39999999674E+01  0.40000000000E+01  0.51100000000E-03 0.  1.
    9000002   -1    0    0    0    0 -0.00000000000E+00 -0.00000000000E+00  0.00000000000E+00  0.93800000000E+00  0.93800000000E+00 0. -1.
         11    1    1    2    0    0 -0.18109943233E+00  0.31596857522E+00  0.13213339802E+01  0.13706045722E+01  0.51100000000E-03 0.  1.
    9000002    1    1    2    0    0  0.46490362598E+00 -0.78779435108E+00  0.64469386899E+00  0.14602155682E+01  0.93800000000E+00 0. -1.
         22    1    1    2    0    0 -0.28380419364E+00  0.47182577586E+00  0.20339721181E+01  0.21071798595E+01  0.00000000000E+00 0.  1.
</event>
<event>
 5    1  0.1160133E+000  0.1599677E+01  0.7818608E-02  0.3353714E+00
         11   -1    0    0    0    0  0.00000000000E+00  0.00000000000E+00  0.39999999674E+01  0.40000000000E+01  0.51100000000E-03 0.  1.
    9000002   -1    0    0    0    0 -0.00000000000E+00 -0.00000000000E+00  0.00000000000E+00  0.93800000000E+00  0.93800000000E+00 0. -1.
         11    1    1    2    0    0  0.49021159986E-01  0.13312011482E+00  0.47947083052E+00  0.50001657726E+00  0.51100000000E-03 0. -1.
    9000002    1    1    2    0    0 -0.33235807128E+00 -0.90703335892E+00  0.73695194758E+00  0.15349637047E+01  0.93800000000E+00 0. -1.
         22    1    1    2    0    0  0.28333691129E+00  0.77391324410E+00  0.27835771893E+01  0.29030197180E+01  0.00000000000E+00 0.  1.
</event>
<event>
 5    1  0.1160133E+000  0.1599677E+01  0.7818608E-02  0.3353715E+00
         11   -1    0    0    0    0  0.00000000000E+00  0.00000000000E+00  0.39999999674E+01  0.40000000000E+01  0.51100000000E-03 0. -1.
    9000002   -1    0    0    0    0 -0.00000000000E+00 -0.00000000000E+00  0.00000000000E+00  0.93800000000E+00  0.93800000000E+00 0.  1.
         11    1    1    2    0    0  0.41473119864E+00  0.29265899491E-01  0.13955400105E+01  0.14561561187E+01  0.51100000000E-03 0. -1.
    9000002    1    1    2    0    0 -0.96793851539E+00 -0.70115715301E-01  0.74551710975E+00  0.15419017297E+01  0.93800000000E+00 0.  1.
         22    1    1    2    0    0  0.55320731675E+00  0.40849815811E-01  0.18589428471E+01  0.19399421516E+01  0.00000000000E+00 0. -1.
</event>
<event>
 5    1  0.1160133E+000  0.1557251E+01  0.7818608E-02  0.3401111E+00
         11   -1    0    0    0    0  0.00000000000E+00  0.00000000000E+00  0.39999999674E+01  0.40000000000E+01  0.51100000000E-03 0. -1.
    9000002   -1    0    0    0    0 -0.00000000000E+00 -0.00000000000E+00  0.00000000000E+00  0.93800000000E+00  0.93800000000E+00 0.  1.
         11    1    1    2    0    0 -0.41968173584E+00  0.17950348316E+00  0.93618219878E+00  0.10415333073E+01  0.51100000000E-03 0. -1.
    9000002    1    1    2    0    0  0.14262807321E+00  0.80038353295E+00  0.99588448464E+00  0.15914102155E+01  0.93800000000E+00 0.  1.
         22    1    1    2    0    0  0.27705366263E+00 -0.97988701611E+00  0.20679332839E+01  0.23050564772E+01  0.00000000000E+00 0.  1.
</event>
<event>
 5    1  0.8457157E+000  0.1259332E+01  0.7818608E-02  0.3862828E+00
         11   -1    0    0    0    0  0.00000000000E+00  0.00000000000E+00  0.39999999674E+01  0.40000000000E+01  0.51100000000E-03 0.  1.
    9000002   -1    0    0    0    0 -0.00000000000E+00 -0.00000000000E+00  0.00000000000E+00  0.93800000000E+00  0.93800000000E+00 0.  1.
         11    1    1    2    0    0  0.33658990290E+00 -0.52299238939E+00  0.12399244241E+01  0.13871649652E+01  0.51100000000E-03 0.  1.
    9000002    1    1    2    0    0  0.10520122758E-01 -0.14881107376E+00  0.32945595425E+00  0.10053062391E+01  0.93800000000E+00 0. -1.
         22    1    1    2    0    0 -0.34711002566E+00  0.67180346315E+00  0.24306195890E+01  0.25455287957E+01  0.00000000000E+00 0.  1.
</event>
<event>
 5    1  0.1160133E+000  0.1599652E+01  0.7818608E-02  0.3353741E+00
         11   -1    0    0    0    0  0.00000000000E+00  0.00000000000E+00  0.39999999674E+01  0.40000000000E+01  0.51100000000E-03 0. -1.
    9000002   -1    0    0    0    0 -0.00000000000E+00 -0.00000000000E+00  0.00000000000E+00  0.93800000000E+00  0.93800000000E+00 0. -1.
         11    1    1    2    0    0  0.48271186847E-02  0.24559579025E-01  0.70055640191E-01  0.74394407319E-01  0.51100000000E-03 0. -1.
    9000002    1    1    2    0    0 -0.28065032457E+00 -0.10404069950E+01  0.98263178013E+00  0.17339609382E+01  0.93800000000E+00 0. -1.
         22    1    1    2    0    0  0.27582320588E+00  0.10158474160E+01  0.29473125470E+01  0.31296446545E+01  0.00000000000E+00 0. -1.
</event>
<event>
 5    1  0.1160133E+000  0.1599660E+01  0.7818608E-02  0.3353733E+00
         11   -1    0    0    0    0  0.00000000000E+00  0.00000000000E+00  0.39999999674E+01  0.40000000000E+01  0.51100000000E-03 0.  1.
    9000002   -1    0    0    0    0 -0.00000000000E+00 -0.00000000000E+00  0.00000000000E+00  0.93800000000E+00  0.93800000000E+00 0.  1.
         11    1    1    2    0    0  0.20883419630E+00  0.31524063883E+00  0.11984053790E+01  0.12566479601E+01  0.51100000000E-03 0.  1.
    9000002    1    1    2    0    0 -0.54351724780E+00 -0.83994858530E+00  0.80546927175E+00  0.15904557122E+01  0.93800000000E+00 0.  1.
         22    1    1    2    0    0  0.33468305150E+00  0.52470794647E+00  0.19961253166E+01  0.20908963278E+01  0.00000000000E+00 0.  1.
</event>
<event>
 5    1  0.1160133E+000  0.1596125E+01  0.7818608E-02  0.3357580E+00
         11   -1    0    0    0    0  0.00000000000E+00  0.00000000000E+00  0.39999999674E+01  0.40000000000E+01  0.51100000000E-03 0.  1.
    9000002   -1    0    0    0    0 -0.00000000000E+00 -0.00000000000E+00  0.00000000000E+00  0.93800000000E+00  0.93800000000E+00 0.  1.
         11    1    1    2    0    0 -0.10297747779E+00  0.52535798665E+00  0.93427631669E+00  0.10767905424E+01  0.51100000000E-03 0.  1.
    9000002    1    1    2    0    0  0.39037323198E+00 -0.12188676614E+01  0.19108791113E+01  0.24838141263E+01  0.93800000000E+00 0.  1.
         22    1    1    2    0    0 -0.28739575418E+00  0.69350967477E+00  0.11548445394E+01  0.13773953313E+01  0.00000000000E+00 0.  1.
</event>
<event>
 5    1  0.1160133E+000  0.1589310E+01  0.7818608E-02  0.3365048E+00
         11   -1    0    0    0    0  0.00000000000E+00  0.00000000000E+00  0.39999999674E+01  0.40000000000E+01  0.51100000000E-03 0.  1.
    9000002   -1    0    0    0    0 -0.00000000000E+00 -0.00000000000E+00  0.00000000000E+00  0.93800000000E+00  0.93800000000E+00 0. -1.
         11    1    1    2    0    0  0.11830966427E-01 -0.14836498424E-01  0.27578301062E+00  0.27643556848E+00  0.51100000000E-03 0.  1.
    9000002    1    1    2    0    0  0.48728714306E+00  0.72432624041E+00  0.59214894545E+00  0.14115883380E+01  0.93800000000E+00 0. -1.
         22    1    1    2    0    0 -0.49911810949E+00 -0.70948974199E+00  0.31320680113E+01  0.32499760935E+01  0.00000000000E+00 0.  1.
</event>
<event>
 5    1  0.1160133E+000  0.1502838E+01  0.7818608E-02  0.3466078E+00
         11   -1    0    0    0    0  0.00000000000E+00  0.00000000000E+00  0.39999999674E+01  0.40000000000E+01  0.51100000000E-03 0.  1.
    9000002   -1    0    0    0    0 -0.00000000000E+00 -0.00000000000E+00  0.00000000000E+00  0.93800000000E+00  0.93800000000E+00 0.  1.
         11    1    1    2    0    0 -0.15220324655E+00 -0.25614438449E-01  0.52536077497E+00  0.54756381612E+00  0.51100000000E-03 0.  1.
    9000002    1    1    2    0    0 -0.74171622560E+00 -0.13258227815E+00  0.54033321191E+00  0.13189105351E+01  0.93800000000E+00 0.  1.
         22    1    1    2    0    0  0.89391947215E+00  0.15819671660E+00  0.29343059805E+01  0.30715256487E+01  0.00000000000E+00 0.  1.
</event>
<event>
 5    1  0.1160133E+000  0.1594996E+01  0.7818608E-02  0.3358813E+00
         11   -1    0    0    0    0  0.00000000000E+00  0.00000000000E+00  0.39999999674E+01  0.40000000000E+01  0.51100000000E-03 0. -1.
    9000002   -1    0    0    0    0 -0.00000000000E+00 -0.00000000000E+00  0.00000000000E+00  0.93800000000E+00  0.93800000000E+00 0. -1.
         11    1    1    2    0    0 -0.21605515597E+00 -0.41249086790E+00  0.11875844192E+01  0.12756118376E+01  0.51100000000E-03 0. -1.
    9000002    1    1    2    0    0  0.49175546544E+00  0.88797498297E+00  0.84567007653E+00  0.16202854337E+01  0.93800000000E+00 0. -1.
         22    1    1    2    0    0 -0.27570030947E+00 -0.47548411508E+00  0.19667454717E+01  0.20421027287E+01  0.00000000000E+00 0. -1.
</event>
<event>
 5    1  0.1160133E+000  0.1599569E+01  0.7818608E-02  0.3353831E+00
         11   -1    0    0    0    0  0.00000000000E+00  0.00000000000E+00  0.39999999674E+01  0.40000000000E+01  0.51100000000E-03 0.  1.
    9000002   -1    0    0    0    0 -0.00000000000E+00 -0.00000000000E+00  0.00000000000E+00  0.93800000000E+00  0.93800000000E+00 0.  1.
         11    1    1    2    0    0  0.11960710317E+00  0.15828239721E+00  0.41455382444E+00  0.45958058148E+00  0.51100000000E-03 0.  1.
    9000002    1    1    2    0    0 -0.75980931405E+00 -0.97347887581E+00  0.15409084224E+01  0.21861413682E+01  0.93800000000E+00 0.  1.
         22    1    1    2    0    0  0.64020221089E+00  0.81519647860E+00  0.20445377205E+01  0.22922780503E+01  0.00000000000E+00 0.  1.
</event>
<event>
 5    1  0.1160133E+000  0.1599536E+01  0.7818608E-02  0.3353868E+00
         11   -1    0    0    0    0  0.00000000000E+00  0.00000000000E+00  0.39999999674E+01  0.40000000000E+01  0.51100000000E-03 0. -1.
    9000002   -1    0    0    0    0 -0.00000000000E+00 -0.00000000000E+00  0.00000000000E+00  0.93800000000E+00  0.93800000000E+00 0. -1.
         11    1    1    2    0    0 -0.10510977821E+00  0.42471563046E-01  0.37911752112E+00  0.39570475747E+00  0.51100000000E-03 0. -1.
    9000002    1    1    2    0    0  0.94972849996E+00 -0.31113454705E+00  0.80349827876E+00  0.15887864595E+01  0.93800000000E+00 0. -1.
         22    1    1    2    0    0 -0.84461872175E+00  0.26866298401E+00  0.28173841675E+01  0.29535087830E+01  0.00000000000E+00 0. -1.
</event>
<event>
 5    1  0.1160133E+000  0.1551154E+01  0.7818608E-02  0.3408148E+00
         11   -1    0    0    0    0  0.00000000000E+00  0.00000000000E+00  0.39999999674E+01  0.40000000000E+01  0.51100000000E-03 0.  1.
    9000002   -1    0    0    0    0 -0.00000000000E+00 -0.00000000000E+00  0.00000000000E+00  0.93800000000E+00  0.93800000000E+00 0.  1.
         11    1    1    2    0    0  0.13325922597E+00  0.11322608200E-01  0.42638930435E+00  0.44687170726E+00  0.51100000000E-03 0.  1.
    9000002    1    1    2    0    0  0.73626199929E-02 -0.98435461613E+00  0.86980797612E+00  0.16141307673E+01  0.93800000000E+00 0.  1.
         22    1    1    2    0    0 -0.14062184596E+00  0.97303200793E+00  0.27038026869E+01  0.28769975255E+01  0.00000000000E+00 0.  1.
</event>
<event>
 5    1  0.1160133E+000  0.1599677E+01  0.7818608E-02  0.3353714E+00
         11   -1    0    0    0    0  0.00000000000E+00  0.00000000000E+00  0.39999999674E+01  0.40000000000E+01  0.51100000000E-03 0. -1.
    9000002   -1    0    0    0    0 -0.00000000000E+00 -0.00000000000E+00  0.00000000000E+00  0.93800000000E+00  0.93800000000E+00 0. -1.
         11    1    1    2    0    0 -0.79053032401E-01  0.20683771868E+00  0.78901543458E+00  0.81949792003E+00  0.51100000000E-03 0.  1.
    9000002    1    1    2    0    0  0.33514539381E+00 -0.87062054564E+00  0.67613776624E+00  0.14857014668E+01  0.93800000000E+00 0. -1.
         22    1    1    2    0    0 -0.25609236141E+00  0.66378282696E+00  0.25348467665E+01  0.26328006132E+01  0.00000000000E+00 0. -1.
</event>
<event>
 5    1  0.1160133E+000  0.1572525E+01  0.7818608E-02  0.3383735E+00
         11   -1    0    0    0    0  0.00000000000E+00  0.00000000000E+00  0.39999999674E+01  0.40000000000E+01  0.51100000000E-03 0. -1.
    9000002   -1    0    0    0    0 -0.00000000000E+00 -0.00000000000E+00  0.00000000000E+00  0.93800000000E+00  0.93800000000E+00 0.  1.
         11    1    1    2    0    0 -0.73737689192E-02 -0.10991703822E+00  0.51579039574E+00  0.52742404308E+00  0.51100000000E-03 0. -1.
    9000002    1    1    2    0    0 -0.77296130280E+00  0.26479354471E+00  0.53180778125E+00  0.13528667019E+01  0.93800000000E+00 0.  1.
         22    1    1    2    0    0  0.78033507172E+00 -0.15487650649E+00  0.29524017904E+01  0.30577092550E+01  0.00000000000E+00 0. -1.
</event>
<event>
 5    1  0.1160133E+000  0.1599676E+01  0.7818608E-02  0.3353715E+00
         11   -1    0    0    0    0  0.00000000000E+00  0.00000000000E+00  0.39999999674E+01  0.40000000000E+01  0.51100000000E-03 0.  1.
    9000002   -1    0    0    0    0 -0.00000000000E+00 -0.00000000000E+00  0.00000000000E+00  0.93800000000E+00  0.93800000000E+00 0. -1.
         11    1    1    2    0    0 -0.27681421695E+00  0.13579927128E+00  0.11165500893E+01  0.11583401555E+01  0.51100000000E-03 0.  1.
    9000002    1    1    2    0    0  0.83097610124E+00 -0.40655421708E+00  0.66245667347E+00  0.14746187495E+01  0.93800000000E+00 0. -1.
         22    1    1    2    0    0 -0.55416188429E+00  0.27075494580E+00  0.22209932046E+01  0.23050410949E+01  0.00000000000E+00 0.  1.
</event>
<event>
 5    1  0.1160133E+000  0.1599668E+01  0.7818608E-02  0.3353724E+00
         11   -1    0    0    0    0  0.00000000000E+00  0.00000000000E+00  0.39999999674E+01  0.40000000000E+01  0.51100000000E-03 0.  1.
    9000002   -1    0    0    0    0 -0.00000000000E+00 -0.00000000000E+00  0.00000000000E+00  0.93800000000E+00  0.93800000000E+00 0. -1.
         11    1    1    2    0    0 -0.19380666133E+00 -0.18858225949E+00  0.88773115307E+00  0.92800385335E+00  0.51100000000E-03 0.  1.
    9000002    1    1    2    0    0  0.71451855791E+00  0.68047898636E+00  0.77742704987E+00  0.15677452721E+01  0.93800000000E+00 0. -1.
         22    1    1    2    0    0 -0.52071189658E+00 -0.49189672687E+00  0.23348417644E+01  0.24422508745E+01  0.00000000000E+00 0.  1.
</event>
<event>
 5    1  0.1160133E+000  0.1598026E+01  0.7818608E-02  0.3355509E+00
         11   -1    0    0    0    0  0.00000000000E+00  0.00000000000E+00  0.39999999674E+01  0.40000000000E+01  0.51100000000E-03 0. -1.
    9000002   -1    0    0    0    0 -0.00000000000E+00 -0.00000000000E+00  0.00000000000E+00  0.93800000000E+00  0.93800000000E+00 0. -1.
         11    1    1    2    0    0 -0.78657200409E-01  0.30884992169E-03  0.17110916699E+00  0.18832328245E+00  0.51100000000E-03 0. -1.
    9000002    1    1    2    0    0  0.10154658970E+01 -0.40070944267E-01  0.84214377284E+00  0.16192056085E+01  0.93800000000E+00 0. -1.
         22    1    1    2    0    0 -0.93680869656E+00  0.39762094345E-01  0.29867470275E+01  0.31304711090E+01  0.00000000000E+00 0. -1.
</event>
<event>
 5    1  0.1160133E+000  0.1599676E+01  0.7818608E-02  0.3353715E+00
         11   -1    0    0    0    0  0.00000000000E+00  0.00000000000E+00  0.39999999674E+01  0.40000000000E+01  0.51100000000E-03 0. -1.
    9000002   -1    0    0    0    0 -0.00000000000E+00 -0.00000000000E+00  0.00000000000E+00  0.93800000000E+00  0.93800000000E+00 0.  1.
         11    1    1    2    0    0  0.48730260497E+00  0.10818936598E+00  0.13979415565E+01  0.14843886365E+01  0.51100000000E-03 0. -1.
    9000002    1    1    2    0    0 -0.10510698137E+01 -0.23550458837E+00  0.98138809339E+00  0.17329676149E+01  0.93800000000E+00 0.  1.
         22    1    1    2    0    0  0.56376720877E+00  0.12731522238E+00  0.16206703175E+01  0.17206437485E+01  0.00000000000E+00 0. -1.
</event>
<event>
 5    1  0.1160133E+000  0.1597244E+01  0.7818608E-02  0.3356360E+00
         11   -1    0    0    0    0  0.00000000000E+00  0.00000000000E+00  0.39999999674E+01  0.40000000000E+01  0.51100000000E-03 0. -1.
    9000002   -1    0    0    0    0 -0.00000000000E+00 -0.00000000000E+00  0.00000000000E+00  0.93800000000E+00  0.93800000000E+00 0. -1.
         11    1    1    2    0    0  0.20314404086E+00  0.47349820075E-01  0.87640268732E+00  0.90088369852E+00  0.51100000000E-03 0. -1.
    9000002    1    1    2    0    0 -0.92499365160E+00 -0.48136142147E-01  0.66842681038E+00  0.14780286684E+01  0.93800000000E+00 0. -1.
         22    1    1    2    0    0  0.72184961075E+00  0.78632207194E-03  0.24551704697E+01  0.25590876331E+01  0.00000000000E+00 0. -1.
</event>
<event>
 5    1  0.1160133E+000  0.1599675E+01  0.7818608E-02  0.3353716E+00
         11   -1    0    0    0    0  0.00000000000E+00  0.00000000000E+00  0.39999999674E+01  0.40000000000E+01  0.51100000000E-03 0.  1.
    9000002   -1    0    0    0    0 -0.00000000000E+00 -0.00000000000E+00  0.00000000000E+00  0.93800000000E+00  0.93800000000E+00 0.  1.
         11    1    1    2    0    0  0.16088236208E+00 -0.37448760398E+00  0.12039363646E+01  0.12710574853E+01  0.51100000000E-03 0.  1.
    9000002    1    1    2    0    0 -0.41168445955E+00  0.96444837898E+00  0.91167497259E+00  0.16764963542E+01  0.93800000000E+00 0.  1.
         22    1    1    2    0    0  0.25080209747E+00 -0.58996077500E+00  0.18843886302E+01  0.19904461605E+01  0.00000000000E+00 0.  1.
</event>
<event>
 5    1  0.1160133E+000  0.1599608E+01  0.7818608E-02  0.3353789E+00
         11   -1    0    0    0    0  0.00000000000E+00  0.00000000000E+00  0.39999999674E+01  0.40000000000E+01  0.51100000000E-03 0.  1.
    9000002   -1    0    0    0    0 -0.00000000000E+00 -0.00000000000E+00  0.00000000000E+00  0.93800000000E+00  0.93800000000E+00 0.  1.
         11    1    1    2    0    0 -0.37899511513E+00 -0.41613928273E+00  0.96964439303E+00  0.11211689034E+01  0.51100000000E-03 0.  1.
    9000002    1    1    2    0    0  0.84688973900E+00  0.95503743260E+00  0.18300433746E+01  0.24203763097E+01  0.93800000000E+00 0.  1.
         22    1    1    2    0    0 -0.46789462387E+00 -0.53889814986E+00  0.12003121997E+01  0.13964547869E+01  0.00000000000E+00 0. -1.
</event>
<event>
 5    1  0.1160133E+000  0.1583704E+01  0.7818608E-02  0.3371243E+00
         11   -1    0    0    0    0  0.00000000000E+00  0.00000000000E+00  0.39999999674E+01  0.40000000000E+01  0.51100000000E-03 0.  1.
    9000002   -1    0    0    0    0 -0.00000000000E+00 -0.00000000000E+00  0.00000000000E+00  0.93800000000E+00  0.93800000000E+00 0.  1.
         11    1    1    2    0    0  0.19316240878E-01 -0.10693741263E-01  0.18991212553E+00  0.19119191878E+00  0.51100000000E-03 0.  1.
    9000002    1    1    2    0    0  0.69945001780E+00 -0.50396078508E+00  0.58340612569E+00  0.14012185796E+01  0.93800000000E+00 0.  1.
         22    1    1    2    0    0 -0.71876625868E+00  0.51465452634E+00  0.32266817161E+01  0.33455895016E+01  0.00000000000E+00 0.  1.
</event>
<event>
 5    1  0.1160133E+000  0.1599677E+01  0.7818608E-02  0.3353714E+00
         11   -1    0    0    0    0  0.00000000000E+00  0.00000000000E+00  0.39999999674E+01  0.40000000000E+01  0.51100000000E-03 0.  1.
    9000002   -1    0    0    0    0 -0.00000000000E+00 -0.00000000000E+00  0.00000000000E+00  0.93800000000E+00  0.93800000000E+00 0. -1.
         11    1    1    2    0    0 -0.24231482764E+00 -0.14299385260E+00  0.73628286687E+00  0.78821091006E+00  0.51100000000E-03 0.  1.
    9000002    1    1    2    0    0  0.96062210668E+00  0.56695607842E+00  0.10852379519E+01  0.18170909276E+01  0.93800000000E+00 0. -1.
         22    1    1    2    0    0 -0.71830727905E+00 -0.42396222582E+00  0.21784791486E+01  0.23326981624E+01  0.00000000000E+00 0.  1.
</event>
<event>
 5    1  0.1160133E+000  0.1599671E+01  0.7818608E-02  0.3353721E+00
         11   -1    0    0    0    0  0.00000000000E+00  0.00000000000E+00  0.39999999674E+01  0.40000000000E+01  0.51100000000E-03 0.  1.
    9000002   -1    0    0    0    0 -0.00000000000E+00 -0.00000000000E+00  0.00000000000E+00  0.93800000000E+00  0.93800000000E+00 0. -1.
         11    1    1    2    0    0  0.17284161215E+00 -0.33931555846E-01  0.56165751236E+00  0.58862976112E+00  0.51100000000E-03 0.  1.
    9000002    1    1    2    0    0 -0.97586387261E+00  0.18654296736E+00  0.79121443947E+00  0.15789150914E+01  0.93800000000E+00 0. -1.
         22    1    1    2    0    0  0.80302226047E+00 -0.15261141151E+00  0.26471280155E+01  0.27704551475E+01  0.00000000000E+00 0.  1.
</event>
<event>
 5    1  0.1160133E+000  0.1599675E+01  0.7818608E-02  0.3353716E+00
         11   -1    0    0    0    0  0.00000000000E+00  0.00000000000E+00  0.39999999674E+01  0.40000000000E+01  0.51100000000E-03 0. -1.
    9000002   -1    0    0    0    0 -0.00000000000E+00 -0.00000000000E+00  0.00000000000E+00  0.93800000000E+00  0.93800000000E+00 0.  1.
         11    1    1    2    0    0 -0.79719955425E-01 -0.13562132525E+00  0.51931608013E+00  0.54262129276E+00  0.51100000000E-03 0. -1.
    9000002    1    1    2    0    0  0.49076341949E+00  0.84771215667E+00  0.76314627241E+00  0.15561815021E+01  0.93800000000E+00 0.  1.
         22    1    1    2    0    0 -0.41104346406E+00 -0.71209083142E+00  0.27175376148E+01  0.28391972051E+01  0.00000000000E+00 0. -1.
</event>
<event>
 5    1  0.1160133E+000  0.1599460E+01  0.7818608E-02  0.3353950E+00
         11   -1    0    0    0    0  0.00000000000E+00  0.00000000000E+00  0.39999999674E+01  0.40000000000E+01  0.51100000000E-03 0. -1.
    9000002   -1    0    0    0    0 -0.00000000000E+00 -0.00000000000E+00  0.00000000000E+00  0.93800000000E+00  0.93800000000E+00 0.  1.
         11    1    1    2    0    0 -0.90348732713E-01 -0.18603261696E+00  0.62220640604E+00  0.65567682658E+00  0.51100000000E-03 0. -1.
    9000002    1    1    2    0    0  0.42046749357E+00  0.97951676999E+00  0.95384404926E+00  0.17105287154E+01  0.93800000000E+00 0.  1.
         22    1    1    2    0    0 -0.33011876086E+00 -0.79348415303E+00  0.24239495121E+01  0.25717944580E+01  0.00000000000E+00 0. -1.
</event>
<event>
 5    1  0.1160133E+000  0.1598352E+01  0.7818608E-02  0.3355154E+00
         11   -1    0    0    0    0  0.00000000000E+00  0.00000000000E+00  0.39999999674E+01  0.40000000000E+01  0.51100000000E-03 0. -1.
    9000002   -1    0    0    0    0 -0.00000000000E+00 -0.00000000000E+00  0.00000000000E+00  0.93800000000E+00  0.93800000000E+00 0.  1.
         11    1    1    2    0    0  0.41144801082E+00 -0.19697637930E+00  0.12139235908E+01  0.12968037265E+01  0.51100000000E-03 0. -1.
    9000002    1    1    2    0    0 -0.96200091499E+00  0.42115445629E+00  0.91816652784E+00  0.16809790627E+01  0.93800000000E+00 0.  1.
         22    1    1    2    0    0  0.55055290417E+00 -0.22417807699E+00  0.18679098487E+01  0.19602172107E+01  0.00000000000E+00 0. -1.
</event>
<event>
 5    1  0.1160133E+000  0.1599676E+01  0.7818608E-02  0.3353715E+00
         11   -1    0    0    0    0  0.00000000000E+00  0.00000000000E+00  0.39999999674E+01  0.40000000000E+01  0.51100000000E-03 0.  1.
    9000002   -1    0    0    0    0 -0.00000000000E+00 -0.00000000000E+00  0.00000000000E+00  0.93800000000E+00  0.93800000000E+00 0.  1.
         11    1    1    2    0    0 -0.20161009806E+00  0.38466325571E+00  0.13972474695E+01  0.14631859773E+01  0.51100000000E-03 0.  1.
    9000002    1    1    2    0    0  0.46367327884E+00 -0.88355522190E+00  0.80000020068E+00  0.15860350125E+01  0.93800000000E+00 0.  1.
         22    1    1    2    0    0 -0.26206318077E+00  0.49889196619E+00  0.18027522972E+01  0.18887790103E+01  0.00000000000E+00 0.  1.
</event>
<event>
 5    1  0.1160133E+000  0.1599665E+01  0.7818608E-02  0.3353727E+00
         11   -1    0    0    0    0  0.00000000000E+00  0.00000000000E+00  0.39999999674E+01  0.40000000000E+01  0.51100000000E-03 0.  1.
    9000002   -1    0    0    0    0 -0.00000000000E+00 -0.00000000000E+00  0.00000000000E+00  0.93800000000E+00  0.93800000000E+00 0.  1.
         11    1    1    2    0    0  0.10798587110E-01  0.28649412384E+00  0.95401068905E+00  0.99615869641E+00  0.51100000000E-03 0.  1.
    9000002    1    1    2    0    0 -0.37553404386E-01 -0.96605417062E+00  0.73845377439E+00  0.15361734588E+01  0.93800000000E+00 0.  1.
         22    1    1    2    0    0  0.26754817276E-01  0.67956004678E+00  0.23075355039E+01  0.24056678447E+01  0.00000000000E+00 0.  1.
</event>
<event>
 5    1  0.1160133E+000  0.1599654E+01  0.7818608E-02  0.3353739E+00
         11   -1    0    0    0    0  0.00000000000E+00  0.00000000000E+00  0.39999999674E+01  0.40000000000E+01  0.51100000000E-03 0. -1.
    9000002   -1    0    0    0    0 -0.00000000000E+00 -0.00000000000E+00  0.00000000000E+00  0.93800000000E+00  0.93800000000E+00 0.  1.
         11    1    1    2    0    0 -0.20993628442E+00  0.83446942265E-01  0.70936574679E+00  0.74447072443E+00  0.51100000000E-03 0. -1.
    9000002    1    1    2    0    0  0.95369262773E+00 -0.36782996352E+00  0.85170217506E+00  0.16279032850E+01  0.93800000000E+00 0.  1.
         22    1    1    2    0    0 -0.74375634331E+00  0.28438302125E+00  0.24389320455E+01  0.25656259906E+01  0.00000000000E+00 0. -1.
</event>
<event>
 5    1  0.1160133E+000  0.1599620E+01  0.7818608E-02  0.3353776E+00
         11   -1    0    0    0    0  0.00000000000E+00  0.00000000000E+00  0.39999999674E+01  0.40000000000E+01  0.51100000000E-03 0. -1.
    9000002   -1    0    0    0    0 -0.00000000000E+00 -0.00000000000E+00  0.00000000000E+00  0.93800000000E+00  0.93800000000E+00 0.  1.
         11    1    1    2    0    0  0.56378313821E-01  0.78623175609E-02  0.20095237281E+00  0.20885987544E+00  0.51100000000E-03 0. -1.
    9000002    1    1    2    0    0 -0.96818260374E+00 -0.16519671531E+00  0.76848807948E+00  0.15604760291E+01  0.93800000000E+00 0.  1.
         22    1    1    2    0    0  0.91180428992E+00  0.15733439775E+00  0.30305595151E+01  0.31686640955E+01  0.00000000000E+00 0. -1.
</event>
<event>
 5    1  0.1160133E+000  0.1599676E+01  0.7818608E-02  0.3353715E+00
         11   -1    0    0    0    0  0.00000000000E+00  0.00000000000E+00  0.39999999674E+01  0.40000000000E+01  0.51100000000E-03 0.  1.
    9000002   -1    0    0    0    0 -0.00000000000E+00 -0.00000000000E+00  0.00000000000E+00  0.93800000000E+00  0.93800000000E+00 0.  1.
         11    1    1    2    0    0  0.27718325621E+00  0.25434259148E+00  0.85040011369E+00  0.92989317981E+00  0.51100000000E-03 0.  1.
    9000002    1    1    2    0    0 -0.87409835341E+00 -0.80335559622E+00  0.13242369982E+01  0.20106903722E+01  0.93800000000E+00 0.  1.
         22    1    1    2    0    0  0.59691509719E+00  0.54901300474E+00  0.18253628555E+01  0.19974164480E+01  0.00000000000E+00 0.  1.
</event>
<event>
 5    1  0.1160133E+000  0.1594421E+01  0.7818608E-02  0.3359441E+00
         11   -1    0    0    0    0  0.00000000000E+00  0.00000000000E+00  0.39999999674E+01  0.40000000000E+01  0.51100000000E-03 0.  1.
    9000002   -1    0    0    0    0 -0.00000000000E+00 -0.00000000000E+00  0.00000000000E+00  0.93800000000E+00  0.93800000000E+00 0.  1.
         11    1    1    2    0    0  0.31608838583E+00  0.70025187328E-01  0.12921561721E+01  0.13320973046E+01  0.51100000000E-03 0.  1.
    9000002    1    1    2    0    0 -0.98784437061E+00 -0.21759987966E+00  0.83920826482E+00  0.16147138198E+01  0.93800000000E+00 0.  1.
         22    1    1    2    0    0  0.67175598478E+00  0.14757469234E+00  0.18686355304E+01  0.19911888756E+01  0.00000000000E+00 0.  1.
</event>
<event>
 5    1  0.1160133E+000  0.1599674E+01  0.7818608E-02  0.3353718E+00
         11   -1    0    0    0    0  0.00000000000E+00  0.00000000000E+00  0.39999999674E+01  0.40000000000E+01  0.51100000000E-03 0. -1.
    9000002   -1    0    0    0    0 -0.00000000000E+00 -0.00000000000E+00  0.00000000000E+00  0.93800000000E+00  0.93800000000E+00 0. -1.
         11    1    1    2    0    0  0.39083811902E-02 -0.29411068094E+00  0.99243867093E+00  0.10351092429E+01  0.51100000000E-03 0. -1.
    9000002    1    1    2    0    0 -0.15878523218E-01  0.97052451714E+00  0.74586867327E+00  0.15421848280E+01  0.93800000000E+00 0. -1.
         22    1    1    2    0    0  0.11970142028E-01 -0.67641383620E+00  0.22616926232E+01  0.23607059291E+01  0.00000000000E+00 0. -1.
</event>
<event>
 5    1  0.1160133E+000  0.1597447E+01  0.7818608E-02  0.3356139E+00
         11   -1    0    0    0    0  0.00000000000E+00  0.00000000000E+00  0.39999999674E+01  0.40000000000E+01  0.51100000000E-03 0.  1.
    9000002   -1    0    0    0    0 -0.00000000000E+00 -0.00000000000E+00  0.00000000000E+00  0.93800000000E+00  0.93800000000E+00 0.  1.
         11    1    1    2    0    0 -0.31282413265E+00 -0.25123299305E+00  0.10202424395E+01  0.10962991614E+01  0.51100000000E-03 0.  1.
    9000002    1    1    2    0    0  0.78254354398E+00  0.70279712830E+00  0.92412262260E+00  0.16852729225E+01  0.93800000000E+00 0.  1.
         22    1    1    2    0    0 -0.46971941133E+00 -0.45156413525E+00  0.20556349053E+01  0.21564279161E+01  0.00000000000E+00 0.  1.
</event>
<event>
 5    1  0.1160133E+000  0.1501394E+01  0.7818608E-02  0.3467871E+00
         11   -1    0    0    0    0  0.00000000000E+00  0.00000000000E+00  0.39999999674E+01  0.40000000000E+01  0.51100000000E-03 0. -1.
    9000002   -1    0    0    0    0 -0.00000000000E+00 -0.00000000000E+00  0.00000000000E+00  0.93800000000E+00  0.93800000000E+00 0.  1.
         11    1    1    2    0    0  0.49616889583E-01 -0.69911427054E-01  0.95693197772E+00  0.96076454684E+00  0.51100000000E-03 0. -1.
    9000002    1    1    2    0    0  0.53498313390E-01 -0.91364746292E+00  0.82470364944E+00  0.15484165672E+01  0.93800000000E+00 0.  1.
         22    1    1    2    0    0 -0.10311520297E+00  0.98355888997E+00  0.22183643402E+01  0.24288188860E+01  0.00000000000E+00 0.  1.
</event>
<event>
 5    1  0.1160133E+000  0.1555474E+01  0.7818608E-02  0.3403156E+00
         11   -1    0    0    0    0  0.00000000000E+00  0.00000000000E+00  0.39999999674E+01  0.40000000000E+01  0.51100000000E-03 0.  1.
    9000002   -1    0    0    0    0 -0.00000000000E+00 -0.00000000000E+00  0.00000000000E+00  0.93800000000E+00  0.93800000000E+00 0. -1.
         11    1    1    2    0    0 -0.54801100252E-01  0.43485958314E+00  0.78015617577E+00  0.89484632052E+00  0.51100000000E-03 0.  1.
    9000002    1    1    2    0    0 -0.41916719909E+00  0.25091597088E+00  0.44782489631E+00  0.11484995006E+01  0.93800000000E+00 0. -1.
         22    1    1    2    0    0  0.47396829934E+00 -0.68577555401E+00  0.27720188953E+01  0.28946541788E+01  0.00000000000E+00 0.  1.
</event>
<event>
 5    1  0.1160133E+000  0.1599641E+01  0.7818608E-02  0.3353753E+00
         11   -1    0    0    0    0  0.00000000000E+00  0.00000000000E+00  0.39999999674E+01  0.40000000000E+01  0.51100000000E-03 0.  1.
    9000002   -1    0    0    0    0 -0.00000000000E+00 -0.00000000000E+00  0.00000000000E+00  0.93800000000E+00  0.93800000000E+00 0. -1.
         11    1    1    2    0    0 -0.41636174610E+00  0.71384459750E-01  0.12569136075E+01  0.13260033645E+01  0.51100000000E-03 0.  1.
    9000002    1    1    2    0    0  0.10168555176E+01 -0.17826358023E+00  0.87434451576E+00  0.16462367326E+01  0.93800000000E+00 0. -1.
         22    1    1    2    0    0 -0.60049377148E+00  0.10687912048E+00  0.18687418441E+01  0.19657599029E+01  0.00000000000E+00 0.  1.
</event>
<event>
 5    1  0.1160133E+000  0.1569466E+01  0.7818608E-02  0.3387186E+00
         11   -1    0    0    0    0  0.00000000000E+00  0.00000000000E+00  0.39999999674E+01  0.40000000000E+01  0.51100000000E-03 0. -1.
    9000002   -1    0    0    0    0 -0.00000000000E+00 -0.00000000000E+00  0.00000000000E+00  0.93800000000E+00  0.93800000000E+00 0.  1.
         11    1    1    2    0    0  0.97376972355E-01 -0.72560168932E-01  0.87105330546E+00  0.87947789906E+00  0.51100000000E-03 0. -1.
    9000002    1    1    2    0    0 -0.62435524405E+00  0.85900526172E+00  0.10169441853E+01  0.17440553278E+01  0.93800000000E+00 0.  1.
         22    1    1    2    0    0  0.52697827170E+00 -0.78644509279E+00  0.21120024766E+01  0.23144667731E+01  0.00000000000E+00 0. -1.
</event>
<event>
 5    1  0.1160133E+000  0.1458049E+01  0.7818608E-02  0.3523480E+00
         11   -1    0    0    0    0  0.00000000000E+00  0.00000000000E+00  0.39999999674E+01  0.40000000000E+01  0.51100000000E-03 0. -1.
    9000002   -1    0    0    0    0 -0.00000000000E+00 -0.00000000000E+00  0.00000000000E+00  0.93800000000E+00  0.93800000000E+00 0. -1.
         11    1    1    2    0    0  0.56119157201E-01  0.35874047638E+00  0.85365611375E+00  0.92767079876E+00  0.51100000000E-03 0. -1.
    9000002    1    1    2    0    0  0.63227438464E+00  0.44717725104E-02  0.47323166611E+00  0.12262067950E+01  0.93800000000E+00 0. -1.
         22    1    1    2    0    0 -0.68839354184E+00 -0.36321224889E+00  0.26731121875E+01  0.27841224063E+01  0.00000000000E+00 0. -1.
</event>
<event>
 5    1  0.1160133E+000  0.1599657E+01  0.7818608E-02  0.3353736E+00
         11   -1    0    0    0    0  0.00000000000E+00  0.00000000000E+00  0.39999999674E+01  0.40000000000E+01  0.51100000000E-03 0. -1.
    9000002   -1    0    0    0    0 -0.00000000000E+00 -0.00000000000E+00  0.00000000000E+00  0.93800000000E+00  0.93800000000E+00 0.  1.
         11    1    1    2    0    0  0.18191258509E+00 -0.25804879164E+00  0.97582244047E+00  0.10256271564E+01  0.51100000000E-03 0. -1.
    9000002    1    1    2    0    0 -0.59254828153E+00  0.82133218580E+00  0.83136798816E+00  0.16114331377E+01  0.93800000000E+00 0.  1.
         22    1    1    2    0    0  0.41063569644E+00 -0.56328339415E+00  0.21928095387E+01  0.23009397060E+01  0.00000000000E+00 0. -1.
</event>
<event>
 5    1  0.1160133E+000  0.1599677E+01  0.7818608E-02  0.3353714E+00
         11   -1    0    0    0    0  0.00000000000E+00  0.00000000000E+00  0.39999999674E+01  0.40000000000E+01  0.51100000000E-03 0. -1.
    9000002   -1    0    0    0    0 -0.00000000000E+00 -0.00000000000E+00  0.00000000000E+00  0.93800000000E+00  0.93800000000E+00 0.  1.
         11    1    1    2    0    0 -0.29163571269E+00  0.46388948472E+00  0.12973656957E+01  0.14083333599E+01  0.51100000000E-03 0. -1.
    9000002    1    1    2    0    0  0.61978858855E+00 -0.98672613937E+00  0.12431213389E+01  0.19449835557E+01  0.93800000000E+00 0.  1.
         22    1    1    2    0    0 -0.32815287586E+00  0.52283665465E+00  0.14595129327E+01  0.15846830844E+01  0.00000000000E+00 0. -1.
</event>
<event>
 5    1  0.1160133E+000  0.1599668E+01  0.7818608E-02  0.3353724E+00
         11   -1    0    0    0    0  0.00000000000E+00  0.00000000000E+00  0.39999999674E+01  0.40000000000E+01  0.51100000000E-03 0.  1.
    9000002   -1    0    0    0    0 -0.00000000000E+00 -0.00000000000E+00  0.00000000000E+00  0.93800000000E+00  0.93800000000E+00 0. -1.
         11    1    1    2    0    0 -0.35584052581E+00  0.17171122559E+00  0.13210003510E+01  0.13788217482E+01  0.51100000000E-03 0.  1.
    9000002    1    1    2    0    0  0.88101341255E+00 -0.42476376592E+00  0.76029216789E+00  0.15538652034E+01  0.93800000000E+00 0. -1.
         22    1    1    2    0    0 -0.52517288675E+00  0.25305254032E+00  0.19187074485E+01  0.20053130484E+01  0.00000000000E+00 0.  1.
</event>
<event>
 5    1  0.1160133E+000  0.1599550E+01  0.7818608E-02  0.3353852E+00
         11   -1    0    0    0    0  0.00000000000E+00  0.00000000000E+00  0.39999999674E+01  0.40000000000E+01  0.51100000000E-03 0.  1.
    9000002   -1    0    0    0    0 -0.00000000000E+00 -0.00000000000E+00  0.00000000000E+00  0.93800000000E+00  0.93800000000E+00 0. -1.
         11    1    1    2    0    0 -0.68806873520E-01  0.97591202655E-01  0.33227657312E+00  0.35308130911E+00  0.51100000000E-03 0.  1.
    9000002    1    1    2    0    0  0.61494691540E+00 -0.93298279361E+00  0.10912726343E+01  0.18219046529E+01  0.93800000000E+00 0. -1.
         22    1    1    2    0    0 -0.54614004188E+00  0.83539159095E+00  0.25764507600E+01  0.27630140380E+01  0.00000000000E+00 0.  1.
</event>
<event>
 5    1  0.1160133E+000  0.1599121E+01  0.7818608E-02  0.3354318E+00
         11   -1    0    0    0    0  0.00000000000E+00  0.00000000000E+00  0.39999999674E+01  0.40000000000E+01  0.51100000000E-03 0.  1.
    9000002   -1    0    0    0    0 -0.00000000000E+00 -0.00000000000E+00  0.00000000000E+00  0.93800000000E+00  0.93800000000E+00 0.  1.
         11    1    1    2    0    0  0.30927813057E+00 -0.98929287153E-01  0.13064089970E+01  0.13461592382E+01  0.51100000000E-03 0.  1.
    9000002    1    1    2    0    0 -0.86117257292E+00  0.29008559793E+00  0.63535261228E+00  0.14523377005E+01  0.93800000000E+00 0.  1.
         22    1    1    2    0    0  0.55189444235E+00 -0.19115631078E+00  0.20582383581E+01  0.21395030613E+01  0.00000000000E+00 0.  1.
</event>
<event>
 5    1  0.1160133E+000  0.1469201E+01  0.7818608E-02  0.3508832E+00
         11   -1    0    0    0    0  0.00000000000E+00  0.00000000000E+00  0.39999999674E+01  0.40000000000E+01  0.51100000000E-03 0.  1.
    9000002   -1    0    0    0    0 -0.00000000000E+00 -0.00000000000E+00  0.00000000000E+00  0.93800000000E+00  0.93800000000E+00 0.  1.
         11    1    1    2    0    0 -0.18700328084E+00  0.39621950088E-01  0.16519500845E+00  0.25264555787E+00  0.51100000000E-03 0.  1.
    9000002    1    1    2    0    0 -0.79923790864E+00  0.22774855268E+00  0.80892729141E+00  0.14915957900E+01  0.93800000000E+00 0.  1.
         22    1    1    2    0    0  0.98624118948E+00 -0.26737050276E+00  0.30258776675E+01  0.31937586522E+01  0.00000000000E+00 0.  1.
</event>
<event>
 5    1  0.1160133E+000  0.1599660E+01  0.7818608E-02  0.3353733E+00
         11   -1    0    0    0    0  0.00000000000E+00  0.00000000000E+00  0.39999999674E+01  0.40000000000E+01  0.51100000000E-03 0.  1.
    9000002   -1    0    0    0    0 -0.00000000000E+00 -0.00000000000E+00  0.00000000000E+00  0.93800000000E+00  0.93800000000E+00 0. -1.
         11    1    1    2    0    0  0.57551961493E-02 -0.16882170225E+00  0.56258288098E+00  0.58739564905E+00  0.51100000000E-03 0.  1.
    9000002    1    1    2    0    0 -0.55042011357E-01  0.97424864623E+00  0.75588134329E+00  0.15502872807E+01  0.93800000000E+00 0. -1.
         22    1    1    2    0    0  0.49286815208E-01 -0.80542694398E+00  0.26815357431E+01  0.28003170702E+01  0.00000000000E+00 0.  1.
</event>
<event>
 5    1  0.1160133E+000  0.1509224E+01  0.7818608E-02  0.3458193E+00
         11   -1    0    0    0    0  0.00000000000E+00  0.00000000000E+00  0.39999999674E+01  0.40000000000E+01  0.51100000000E-03 0. -1.
    9000002   -1    0    0    0    0 -0.00000000000E+00 -0.00000000000E+00  0.00000000000E+00  0.93800000000E+00  0.93800000000E+00 0.  1.
         11    1    1    2    0    0 -0.23442141522E+00 -0.33397983784E+00  0.76168287017E+00  0.86409315923E+00  0.51100000000E-03 0. -1.
    9000002    1    1    2    0    0 -0.50591513998E+00  0.13286543992E+00  0.42024799543E+00  0.11532804219E+01  0.93800000000E+00 0.  1.
         22    1    1    2    0    0  0.74033655520E+00  0.20111439792E+00  0.28180691018E+01  0.29206264188E+01  0.00000000000E+00 0. -1.
</event>
<event>
 5    1  0.1160133E+000  0.1599676E+01  0.7818608E-02  0.3353715E+00
         11   -1    0    0    0    0  0.00000000000E+00  0.00000000000E+00  0.39999999674E+01  0.40000000000E+01  0.51100000000E-03 0.  1.
    9000002   -1    0    0    0    0 -0.00000000000E+00 -0.00000000000E+00  0.00000000000E+00  0.93800000000E+00  0.93800000000E+00 0. -1.
         11    1    1    2    0    0  0.55402633144E-03 -0.56781271090E-01  0.19600272044E+00  0.20406309621E+00  0.51100000000E-03 0. -1.
    9000002    1    1    2    0    0 -0.16479403574E-01  0.95256074302E+00  0.71196218063E+00  0.15147203328E+01  0.93800000000E+00 0. -1.
         22    1    1    2    0    0  0.15925377242E-01 -0.89577947193E+00  0.30920350663E+01  0.32192165710E+01  0.00000000000E+00 0.  1.
</event>
<event>
 5    1  0.1160133E+000  0.1599660E+01  0.7818608E-02  0.3353732E+00
         11   -1    0    0    0    0  0.00000000000E+00  0.00000000000E+00  0.39999999674E+01  0.40000000000E+01  0.51100000000E-03 0. -1.
    9000002   -1    0    0    0    0 -0.00000000000E+00 -0.00000000000E+00  0.00000000000E+00  0.93800000000E+00  0.93800000000E+00 0. -1.
         11    1    1    2    0    0  0.47563966939E+00  0.17628042120E+00  0.13971999474E+01  0.14864305689E+01  0.51100000000E-03 0. -1.
    9000002    1    1    2    0    0 -0.10152475969E+01 -0.37242483801E+00  0.99238718427E+00  0.17418680393E+01  0.93800000000E+00 0. -1.
         22    1    1    2    0    0  0.53960792750E+00  0.19614441681E+00  0.16104128357E+01  0.17097013917E+01  0.00000000000E+00 0. -1.
</event>
<event>
 5    1  0.1160133E+000  0.1472143E+01  0.7818608E-02  0.3505010E+00
         11   -1    0    0    0    0  0.00000000000E+00  0.00000000000E+00  0.39999999674E+01  0.40000000000E+01  0.51100000000E-03 0.  1.
    9000002   -1    0    0    0    0 -0.00000000000E+00 -0.00000000000E+00  0.00000000000E+00  0.93800000000E+00  0.93800000000E+00 0.  1.
         11    1    1    2    0    0 -0.14237089932E+00  0.78900443434E-01  0.53689190882E-01  0.17139878437E+00  0.51100000000E-03 0.  1.
    9000002    1    1    2    0    0 -0.89890574290E+00 -0.68439065158E+00  0.22120636796E+01  0.26550879121E+01  0.93800000000E+00 0.  1.
         22    1    1    2    0    0  0.10412766422E+01  0.60549020814E+00  0.17342470969E+01  0.21115133035E+01  0.00000000000E+00 0.  1.
</event>
<event>
 5    1  0.1160133E+000  0.1598140E+01  0.7818608E-02  0.3355385E+00
         11   -1    0    0    0    0  0.00000000000E+00  0.00000000000E+00  0.39999999674E+01  0.40000000000E+01  0.51100000000E-03 0. -1.
    9000002   -1    0    0    0    0 -0.00000000000E+00 -0.00000000000E+00  0.00000000000E+00  0.93800000000E+00  0.93800000000E+00 0.  1.
         11    1    1    2    0    0  0.24626793164E-02 -0.44507493390E-02  0.74302365193E-02  0.90190628575E-02  0.51100000000E-03 0. -1.
    9000002    1    1    2    0    0  0.56481816591E+00  0.76189882140E+00  0.70671514668E+00  0.15095693668E+01  0.93800000000E+00 0.  1.
         22    1    1    2    0    0 -0.56728084523E+00 -0.75744807206E+00  0.32858545842E+01  0.34194115704E+01  0.00000000000E+00 0. -1.
</event>
<event>
 5    1  0.1160133E+000  0.1491187E+01  0.7818608E-02  0.3480651E+00
         11   -1    0    0    0    0  0.00000000000E+00  0.00000000000E+00  0.39999999674E+01  0.40000000000E+01  0.51100000000E-03 0. -1.
    9000002   -1    0    0    0    0 -0.00000000000E+00 -0.00000000000E+00  0.00000000000E+00  0.93800000000E+00  0.93800000000E+00 0. -1.
         11    1    1    2    0    0 -0.32866090114E+00  0.53719908817E+00  0.12681379248E+01  0.14159007400E+01  0.51100000000E-03 0. -1.
    9000002    1    1    2    0    0 -0.11525825036E+00 -0.99189320782E+00  0.10559081700E+01  0.17297175097E+01  0.93800000000E+00 0. -1.
         22    1    1    2    0    0  0.44391915150E+00  0.45469411965E+00  0.16759538726E+01  0.17923817502E+01  0.00000000000E+00 0. -1.
</event>
<event>
 5    1  0.1160133E+000  0.1599147E+01  0.7818608E-02  0.3354290E+00
         11   -1    0    0    0    0  0.00000000000E+00  0.00000000000E+00  0.39999999674E+01  0.40000000000E+01  0.51100000000E-03 0. -1.
    9000002   -1    0    0    0    0 -0.00000000000E+00 -0.00000000000E+00  0.00000000000E+00  0.93800000000E+00  0.93800000000E+00 0. -1.
         11    1    1    2    0    0  0.88380405489E-01  0.68215047946E-01  0.33812529034E+00  0.35608055539E+00  0.51100000000E-03 0. -1.
    9000002    1    1    2    0    0 -0.71951579167E+00 -0.58874079307E+00  0.67134415832E+00  0.14815079057E+01  0.93800000000E+00 0. -1.
         22    1    1    2    0    0  0.63113538618E+00  0.52052574512E+00  0.29905305187E+01  0.31004115389E+01  0.00000000000E+00 0. -1.
</event>
<event>
 5    1  0.1160133E+000  0.1599395E+01  0.7818608E-02  0.3354020E+00
         11   -1    0    0    0    0  0.00000000000E+00  0.00000000000E+00  0.39999999674E+01  0.40000000000E+01  0.51100000000E-03 0. -1.
    9000002   -1    0    0    0    0 -0.00000000000E+00 -0.00000000000E+00  0.00000000000E+00  0.93800000000E+00  0.93800000000E+00 0. -1.
         11    1    1    2    0    0  0.25005162702E+00  0.37635653274E-01  0.76393739339E+00  0.80470047888E+00  0.51100000000E-03 0. -1.
    9000002    1    1    2    0    0 -0.10203871654E+01 -0.22314208525E+00  0.90261710381E+00  0.16689949052E+01  0.93800000000E+00 0. -1.
         22    1    1    2    0    0  0.77033553833E+00  0.18550643198E+00  0.23334454702E+01  0.24643046159E+01  0.00000000000E+00 0. -1.
</event>
<event>
 5    1  0.1160133E+000  0.1599597E+01  0.7818608E-02  0.3353801E+00
         11   -1    0    0    0    0  0.00000000000E+00  0.00000000000E+00  0.39999999674E+01  0.40000000000E+01  0.51100000000E-03 0. -1.
    9000002   -1    0    0    0    0 -0.00000000000E+00 -0.00000000000E+00  0.00000000000E+00  0.93800000000E+00  0.93800000000E+00 0. -1.
         11    1    1    2    0    0  0.39583692192E+00  0.21327119060E+00  0.10768835659E+01  0.11669832669E+01  0.51100000000E-03 0. -1.
    9000002    1    1    2    0    0 -0.10045063285E+01 -0.55809377618E+00  0.11888578472E+01  0.19009809594E+01  0.93800000000E+00 0. -1.
         22    1    1    2    0    0  0.60866940662E+00  0.34482258558E+00  0.17342585543E+01  0.18700357738E+01  0.00000000000E+00 0. -1.
</event>
<event>
 5    1  0.1160133E+000  0.1599677E+01  0.7818608E-02  0.3353714E+00
         11   -1    0    0    0    0  0.00000000000E+00  0.00000000000E+00  0.39999999674E+01  0.40000000000E+01  0.51100000000E-03 0. -1.
    9000002   -1    0    0    0    0 -0.00000000000E+00 -0.00000000000E+00  0.00000000000E+00  0.93800000000E+00  0.93800000000E+00 0. -1.
         11    1    1    2    0    0 -0.21493713451E+00 -0.13064733291E-01  0.20272622371E+00  0.29574793651E+00  0.51100000000E-03 0. -1.
    9000002    1    1    2    0    0  0.12409530015E+01  0.75564483290E-01  0.28328838233E+01  0.32327618378E+01  0.93800000000E+00 0. -1.
         22    1    1    2    0    0 -0.10260158670E+01 -0.62499749998E-01  0.96438992030E+00  0.14094902257E+01  0.00000000000E+00 0. -1.
</event>
<event>
 5    1  0.1160133E+000  0.1599677E+01  0.7818608E-02  0.3353714E+00
         11   -1    0    0    0    0  0.00000000000E+00  0.00000000000E+00  0.39999999674E+01  0.40000000000E+01  0.51100000000E-03 0.  1.
    9000002   -1    0    0    0    0 -0.00000000000E+00 -0.00000000000E+00  0.00000000000E+00  0.93800000000E+00  0.93800000000E+00 0.  1.
         11    1    1    2    0    0 -0.20927097658E-01  0.23686273649E+00  0.77151323130E+00  0.80732572518E+00  0.51100000000E-03 0.  1.
    9000002    1    1    2    0    0  0.86586893667E-01 -0.98647832440E+00  0.78458389539E+00  0.15735477951E+01  0.93800000000E+00 0.  1.
         22    1    1    2    0    0 -0.65659796008E-01  0.74961558792E+00  0.24439028407E+01  0.25571264797E+01  0.00000000000E+00 0.  1.
</event>
<event>
 5    1  0.1160133E+000  0.1596065E+01  0.7818608E-02  0.3357646E+00
         11   -1    0    0    0    0  0.00000000000E+00  0.00000000000E+00  0.39999999674E+01  0.40000000000E+01  0.51100000000E-03 0. -1.
    9000002   -1    0    0    0    0 -0.00000000000E+00 -0.00000000000E+00  0.00000000000E+00  0.93800000000E+00  0.93800000000E+00 0. -1.
         11    1    1    2    0    0 -0.31328292897E+00 -0.18367403045E+00  0.79104334724E+00  0.87042069218E+00  0.51100000000E-03 0. -1.
    9000002    1    1    2    0    0  0.11492095232E+01  0.46407319960E+00  0.15863907232E+01  0.22209290825E+01  0.93800000000E+00 0. -1.
         22    1    1    2    0    0 -0.83592659419E+00 -0.28039916915E+00  0.16225658969E+01  0.18466502253E+01  0.00000000000E+00 0. -1.
</event>
<event>
 5    1  0.1160133E+000  0.1599677E+01  0.7818608E-02  0.3353714E+00
         11   -1    0    0    0    0  0.00000000000E+00  0.00000000000E+00  0.39999999674E+01  0.40000000000E+01  0.51100000000E-03 0.  1.
    9000002   -1    0    0    0    0 -0.00000000000E+00 -0.00000000000E+00  0.00000000000E+00  0.93800000000E+00  0.93800000000E+00 0. -1.
         11    1    1    2    0    0  0.14681942863E+00  0.74579085031E-01  0.50513200308E+00  0.53129707905E+00  0.51100000000E-03 0. -1.
    9000002    1    1    2    0    0 -0.91344185208E+00 -0.46434335243E+00  0.85719424186E+00  0.16323653802E+01  0.93800000000E+00 0. -1.
         22    1    1    2    0    0  0.76662242345E+00  0.38976426740E+00  0.26376737224E+01  0.27743375408E+01  0.00000000000E+00 0.  1.
</event>
<event>
 5    1  0.1160133E+000  0.1593331E+01  0.7818608E-02  0.3360634E+00
         11   -1    0    0    0    0  0.00000000000E+00  0.00000000000E+00  0.39999999674E+01  0.40000000000E+01  0.51100000000E-03 0.  1.
    9000002   -1    0    0    0    0 -0.00000000000E+00 -0.00000000000E+00  0.00000000000E+00  0.93800000000E+00  0.93800000000E+00 0. -1.
         11    1    1    2    0    0 -0.18737302728E-01  0.29407019009E+00  0.10857921394E+01  0.11250658623E+01  0.51100000000E-03 0.  1.
    9000002    1    1    2    0    0  0.20452433806E+00 -0.10436724787E+01  0.96217143385E+00  0.17136803424E+01  0.93800000000E+00 0. -1.
         22    1    1    2    0    0 -0.18578703534E+00  0.74960228864E+00  0.19520363941E+01  0.20992537954E+01  0.00000000000E+00 0.  1.
</event>
<event>
 5    1  0.1160133E+000  0.1599671E+01  0.7818608E-02  0.3353721E+00
         11   -1    0    0    0    0  0.00000000000E+00  0.00000000000E+00  0.39999999674E+01  0.40000000000E+01  0.51100000000E-03 0. -1.
    9000002   -1    0    0    0    0 -0.00000000000E+00 -0.00000000000E+00  0.00000000000E+00  0.93800000000E+00  0.93800000000E+00 0.  1.
         11    1    1    2    0    0  0.11965071444E+00 -0.32090072394E-01  0.40092923273E+00  0.41963147760E+00  0.51100000000E-03 0. -1.
    9000002    1    1    2    0    0 -0.96518755202E+00  0.26594057534E+00  0.80688413276E+00  0.15916084330E+01  0.93800000000E+00 0.  1.
         22    1    1    2    0    0  0.84553683759E+00 -0.23385050294E+00  0.27921866019E+01  0.29267600894E+01  0.00000000000E+00 0. -1.
</event>
<event>
 5    1  0.1160133E+000  0.1599666E+01  0.7818608E-02  0.3353726E+00
         11   -1    0    0    0    0  0.00000000000E+00  0.00000000000E+00  0.39999999674E+01  0.40000000000E+01  0.51100000000E-03 0. -1.
    9000002   -1    0    0    0    0 -0.00000000000E+00 -0.00000000000E+00  0.00000000000E+00  0.93800000000E+00  0.93800000000E+00 0. -1.
         11    1    1    2    0    0 -0.51251606512E+00  0.67411743416E-01  0.12346909172E+01  0.13385361341E+01  0.51100000000E-03 0. -1.
    9000002    1    1    2    0    0  0.11512299089E+01 -0.14257605334E+00  0.12251130964E+01  0.19303896842E+01  0.93800000000E+00 0.  1.
         22    1    1    2    0    0 -0.63871384380E+00  0.75164309919E-01  0.15401959538E+01  0.16690741817E+01  0.00000000000E+00 0. -1.
</event>
<event>
 5    1  0.1160133E+000  0.1599657E+01  0.7818608E-02  0.3353736E+00
         11   -1    0    0    0    0  0.00000000000E+00  0.00000000000E+00  0.39999999674E+01  0.40000000000E+01  0.51100000000E-03 0.  1.
    9000002   -1    0    0    0    0 -0.00000000000E+00 -0.00000000000E+00  0.00000000000E+00  0.93800000000E+00  0.93800000000E+00 0. -1.
         11    1    1    2    0    0  0.35968894381E+00 -0.21371982518E+00  0.97969273404E+00  0.10652935812E+01  0.51100000000E-03 0.  1.
    9000002    1    1    2    0    0 -0.10046574472E+01  0.60844104147E+00  0.12765151312E+01  0.19720223040E+01  0.93800000000E+00 0. -1.
         22    1    1    2    0    0  0.64496850335E+00 -0.39472121630E+00  0.17437921021E+01  0.19006841148E+01  0.00000000000E+00 0.  1.
</event>
<event>
 5    1  0.1491866E+000  0.1599672E+01  0.7818608E-02  0.3353720E+00
         11   -1    0    0    0    0  0.00000000000E+00  0.00000000000E+00  0.39999999674E+01  0.40000000000E+01  0.51100000000E-03 0. -1.
    9000002   -1    0    0    0    0 -0.00000000000E+00 -0.00000000000E+00  0.00000000000E+00  0.93800000000E+00  0.93800000000E+00 0. -1.
         11    1    1    2    0    0  0.39408899528E+00 -0.78540878037E-01  0.14259101137E+01  0.14814502081E+01  0.51100000000E-03 0. -1.
    9000002    1    1    2    0    0 -0.92189153460E+00  0.18278811286E+00  0.68851526668E+00  0.14957248304E+01  0.93800000000E+00 0. -1.
         22    1    1    2    0    0  0.52780253932E+00 -0.10424723483E+00  0.18855745870E+01  0.19608249615E+01  0.00000000000E+00 0. -1.
</event>
<event>
 5    1  0.1160133E+000  0.1599673E+01  0.7818608E-02  0.3353718E+00
         11   -1    0    0    0    0  0.00000000000E+00  0.00000000000E+00  0.39999999674E+01  0.40000000000E+01  0.51100000000E-03 0. -1.
    9000002   -1    0    0    0    0 -0.00000000000E+00 -0.00000000000E+00  0.00000000000E+00  0.93800000000E+00  0.93800000000E+00 0. -1.
         11    1    1    2    0    0 -0.15779627158E+00  0.13234634732E+00  0.44705116101E+00  0.49220952922E+00  0.51100000000E-03 0. -1.
    9000002    1    1    2    0    0  0.92596109957E+00 -0.76524379903E+00  0.13812075250E+01  0.20568374406E+01  0.93800000000E+00 0. -1.
         22    1    1    2    0    0 -0.76816482799E+00  0.63289745171E+00  0.21717412814E+01  0.23889530302E+01  0.00000000000E+00 0. -1.
</event>
<event>
 5    1  0.1160133E+000  0.1599565E+01  0.7818608E-02  0.3353836E+00
         11   -1    0    0    0    0  0.00000000000E+00  0.00000000000E+00  0.39999999674E+01  0.40000000000E+01  0.51100000000E-03 0.  1.
    9000002   -1    0    0    0    0 -0.00000000000E+00 -0.00000000000E+00  0.00000000000E+00  0.93800000000E+00  0.93800000000E+00 0.  1.
         11    1    1    2    0    0  0.36426296926E+00  0.34783408228E+00  0.12280133455E+01  0.13272878729E+01  0.51100000000E-03 0.  1.
    9000002    1    1    2    0    0 -0.85313785456E+00 -0.78550319249E+00  0.12242723439E+01  0.19296492522E+01  0.93800000000E+00 0.  1.
         22    1    1    2    0    0  0.48887488531E+00  0.43766911021E+00  0.15477142779E+01  0.16810628750E+01  0.00000000000E+00 0.  1.
</event>
<event>
 5    1  0.1160133E+000  0.1598503E+01  0.7818608E-02  0.3354990E+00
         11   -1    0    0    0    0  0.00000000000E+00  0.00000000000E+00  0.39999999674E+01  0.40000000000E+01  0.51100000000E-03 0. -1.
    9000002   -1    0    0    0    0 -0.00000000000E+00 -0.00000000000E+00  0.00000000000E+00  0.93800000000E+00  0.93800000000E+00 0. -1.
         11    1    1    2    0    0 -0.15035832025E-01 -0.20007816450E-01  0.42188687292E-01  0.49056451362E-01  0.51100000000E-03 0. -1.
    9000002    1    1    2    0    0  0.53807804417E+00  0.91660385022E+00  0.94848038206E+00  0.17056229463E+01  0.93800000000E+00 0. -1.
         22    1    1    2    0    0 -0.52304221214E+00 -0.89659603377E+00  0.30093308980E+01  0.31833206023E+01  0.00000000000E+00 0. -1.
</event>
<event>
 5    1  0.1160133E+000  0.1599151E+01  0.7818608E-02  0.3354286E+00
         11   -1    0    0    0    0  0.00000000000E+00  0.00000000000E+00  0.39999999674E+01  0.40000000000E+01  0.51100000000E-03 0. -1.
    9000002   -1    0    0    0    0 -0.00000000000E+00 -0.00000000000E+00  0.00000000000E+00  0.93800000000E+00  0.93800000000E+00 0.  1.
         11    1    1    2    0    0  0.16386545807E+00  0.31579785845E+00  0.11471593513E+01  0.12010641174E+01  0.51100000000E-03 0. -1.
    9000002    1    1    2    0    0 -0.42270160275E+00 -0.84640773703E+00  0.70071011859E+00  0.15052977687E+01  0.93800000000E+00 0.  1.
         22    1    1    2    0    0  0.25883614468E+00  0.53060987858E+00  0.21521304975E+01  0.22316381139E+01  0.00000000000E+00 0. -1.
</event>
<event>
 5    1  0.1160133E+000  0.1599677E+01  0.7818608E-02  0.3353714E+00
         11   -1    0    0    0    0  0.00000000000E+00  0.00000000000E+00  0.39999999674E+01  0.40000000000E+01  0.51100000000E-03 0.  1.
    9000002   -1    0    0    0    0 -0.00000000000E+00 -0.00000000000E+00  0.00000000000E+00  0.93800000000E+00  0.93800000000E+00 0. -1.
         11    1    1    2    0    0 -0.52118925755E+00 -0.16638163140E-01  0.75609297785E+00  0.91847260325E+00  0.51100000000E-03 0.  1.
    9000002    1    1    2    0    0  0.12941351204E+01  0.41984155134E-01  0.21233678578E+01  0.26580224677E+01  0.93800000000E+00 0. -1.
         22    1    1    2    0    0 -0.77294586284E+00 -0.25345991994E-01  0.11205391317E+01  0.13615049291E+01  0.00000000000E+00 0. -1.
</event>
<event>
 5    1  0.1160133E+000  0.1599551E+01  0.7818608E-02  0.3353851E+00
         11   -1    0    0    0    0  0.00000000000E+00  0.00000000000E+00  0.39999999674E+01  0.40000000000E+01  0.51100000000E-03 0.  1.
    9000002   -1    0    0    0    0 -0.00000000000E+00 -0.00000000000E+00  0.00000000000E+00  0.93800000000E+00  0.93800000000E+00 0.  1.
         11    1    1    2    0    0  0.40750079976E+00  0.90457414777E-01  0.13828269841E+01  0.14444549750E+01  0.51100000000E-03 0.  1.
    9000002    1    1    2    0    0 -0.96014368901E+00 -0.23955685422E+00  0.78342033383E+00  0.15725313381E+01  0.93800000000E+00 0.  1.
         22    1    1    2    0    0  0.55264288925E+00  0.14909943945E+00  0.18337526494E+01  0.19210136869E+01  0.00000000000E+00 0.  1.
</event>
<event>
 5    1  0.1160133E+000  0.1510661E+01  0.7818608E-02  0.3456428E+00
         11   -1    0    0    0    0  0.00000000000E+00  0.00000000000E+00  0.39999999674E+01  0.40000000000E+01  0.51100000000E-03 0.  1.
    9000002   -1    0    0    0    0 -0.00000000000E+00 -0.00000000000E+00  0.00000000000E+00  0.93800000000E+00  0.93800000000E+00 0. -1.
         11    1    1    2    0    0 -0.63355016661E-01  0.18869753331E+00  0.17925103581E+00  0.26786528736E+00  0.51100000000E-03 0.  1.
    9000002    1    1    2    0    0  0.94856208549E+00 -0.90590685985E-01  0.88793157928E+00  0.16050679711E+01  0.93800000000E+00 0. -1.
         22    1    1    2    0    0 -0.88520706883E+00 -0.98106847326E-01  0.29328173523E+01  0.30650667415E+01  0.00000000000E+00 0.  1.
</event>
<event>
 5    1  0.1160133E+000  0.1579551E+01  0.7818608E-02  0.3375862E+00
         11   -1    0    0    0    0  0.00000000000E+00  0.00000000000E+00  0.39999999674E+01  0.40000000000E+01  0.51100000000E-03 0.  1.
    9000002   -1    0    0    0    0 -0.00000000000E+00 -0.00000000000E+00  0.00000000000E+00  0.93800000000E+00  0.93800000000E+00 0. -1.
         11    1    1    2    0    0  0.20724638095E+00  0.24837583970E+00  0.77027145694E+00  0.83544000303E+00  0.51100000000E-03 0.  1.
    9000002    1    1    2    0    0 -0.88984232475E+00 -0.41588428232E+00  0.80676104586E+00  0.15797108863E+01  0.93800000000E+00 0. -1.
         22    1    1    2    0    0  0.68259594380E+00  0.16750844262E+00  0.24229674646E+01  0.25228491107E+01  0.00000000000E+00 0.  1.
</event>
<event>
 5    1  0.1160133E+000  0.1588593E+01  0.7818608E-02  0.3365838E+00
         11   -1    0    0    0    0  0.00000000000E+00  0.00000000000E+00  0.39999999674E+01  0.40000000000E+01  0.51100000000E-03 0.  1.
    9000002   -1    0    0    0    0 -0.00000000000E+00 -0.00000000000E+00  0.00000000000E+00  0.93800000000E+00  0.93800000000E+00 0.  1.
         11    1    1    2    0    0  0.20407795223E+00  0.62603481659E-01  0.44696893184E+00  0.49532665349E+00  0.51100000000E-03 0.  1.
    9000002    1    1    2    0    0 -0.81249475158E+00 -0.65158605553E+00  0.91942201849E+00  0.16762735329E+01  0.93800000000E+00 0.  1.
         22    1    1    2    0    0  0.60841679934E+00  0.58898257387E+00  0.26336090170E+01  0.27663998136E+01  0.00000000000E+00 0.  1.
</event>
<event>
 5    1  0.1160133E+000  0.1580202E+01  0.7818608E-02  0.3375136E+00
         11   -1    0    0    0    0  0.00000000000E+00  0.00000000000E+00  0.39999999674E+01  0.40000000000E+01  0.51100000000E-03 0. -1.
    9000002   -1    0    0    0    0 -0.00000000000E+00 -0.00000000000E+00  0.00000000000E+00  0.93800000000E+00  0.93800000000E+00 0. -1.
         11    1    1    2    0    0  0.32273823405E-01  0.92105955244E-02  0.70150902445E-01  0.77767891716E-01  0.51100000000E-03 0. -1.
    9000002    1    1    2    0    0  0.31213727314E+00  0.95736524754E+00  0.85844334406E+00  0.16219577274E+01  0.93800000000E+00 0. -1.
         22    1    1    2    0    0 -0.34441109655E+00 -0.96657584307E+00  0.30714057209E+01  0.32382743809E+01  0.00000000000E+00 0. -1.
</event>
<event>
 5    1  0.1160133E+000  0.1490695E+01  0.7818608E-02  0.3481272E+00
         11   -1    0    0    0    0  0.00000000000E+00  0.00000000000E+00  0.39999999674E+01  0.40000000000E+01  0.51100000000E-03 0. -1.
    9000002   -1    0    0    0    0 -0.00000000000E+00 -0.00000000000E+00  0.00000000000E+00  0.93800000000E+00  0.93800000000E+00 0. -1.
         11    1    1    2    0    0  0.59142958424E-01 -0.10232238840E+00  0.11402884648E+01  0.11463968793E+01  0.51100000000E-03 0. -1.
    9000002    1    1    2    0    0  0.52561892624E+00 -0.57968738637E+00  0.60221612590E+00  0.13619181267E+01  0.93800000000E+00 0. -1.
         22    1    1    2    0    0 -0.58476188466E+00  0.68200977477E+00  0.22574953767E+01  0.24296849940E+01  0.00000000000E+00 0. -1.
</event>
<event>
 5    1  0.1160133E+000  0.1593745E+01  0.7818608E-02  0.3360181E+00
         11   -1    0    0    0    0  0.00000000000E+00  0.00000000000E+00  0.39999999674E+01  0.40000000000E+01  0.51100000000E-03 0. -1.
    9000002   -1    0    0    0    0 -0.00000000000E+00 -0.00000000000E+00  0.00000000000E+00  0.93800000000E+00  0.93800000000E+00 0.  1.
         11    1    1    2    0    0 -0.73332438525E-01 -0.31334716965E-01  0.16869761898E+00  0.18659758518E+00  0.51100000000E-03 0. -1.
    9000002    1    1    2    0    0  0.12458944070E+01 -0.18479679067E+00  0.17384759120E+01  0.23427644405E+01  0.93800000000E+00 0.  1.
         22    1    1    2    0    0 -0.11725619684E+01  0.21613150763E+00  0.20928264364E+01  0.24086379743E+01  0.00000000000E+00 0. -1.
</event>
<event>
 5    1  0.1160133E+000  0.1577478E+01  0.7818608E-02  0.3378176E+00
         11   -1    0    0    0    0  0.00000000000E+00  0.00000000000E+00  0.39999999674E+01  0.40000000000E+01  0.51100000000E-03 0.  1.
    9000002   -1    0    0    0    0 -0.00000000000E+00 -0.00000000000E+00  0.00000000000E+00  0.93800000000E+00  0.93800000000E+00 0.  1.
         11    1    1    2    0    0  0.49009979131E-01  0.38603944805E-01  0.78638318336E+00  0.78885424180E+00  0.51100000000E-03 0.  1.
    9000002    1    1    2    0    0 -0.44759239781E+00 -0.77882574314E+00  0.65225010697E+00  0.14533350250E+01  0.93800000000E+00 0.  1.
         22    1    1    2    0    0  0.39858241868E+00  0.74022179834E+00  0.25613666770E+01  0.26958107332E+01  0.00000000000E+00 0.  1.
</event>
<event>
 5    1  0.1160133E+000  0.1574780E+01  0.7818608E-02  0.3381200E+00
         11   -1    0    0    0    0  0.00000000000E+00  0.00000000000E+00  0.39999999674E+01  0.40000000000E+01  0.51100000000E-03 0.  1.
    9000002   -1    0    0    0    0 -0.00000000000E+00 -0.00000000000E+00  0.00000000000E+00  0.93800000000E+00  0.93800000000E+00 0. -1.
         11    1    1    2    0    0  0.59062725478E+00  0.78475630297E-01  0.68937763027E+00  0.91117548084E+00  0.51100000000E-03 0.  1.
    9000002    1    1    2    0    0 -0.12418667622E+01 -0.93660172456E-01  0.17976685834E+01  0.23795927421E+01  0.93800000000E+00 0. -1.
         22    1    1    2    0    0  0.65123950738E+00  0.15184542159E-01  0.15129537537E+01  0.16472317770E+01  0.00000000000E+00 0.  1.
</event>
<event>
 5    1  0.1160133E+000  0.1599659E+01  0.7818608E-02  0.3353734E+00
         11   -1    0    0    0    0  0.00000000000E+00  0.00000000000E+00  0.39999999674E+01  0.40000000000E+01  0.51100000000E-03 0.  1.
    9000002   -1    0    0    0    0 -0.00000000000E+00 -0.00000000000E+00  0.00000000000E+00  0.93800000000E+00  0.93800000000E+00 0.  1.
         11    1    1    2    0    0 -0.28953466858E+00 -0.27165308549E+00  0.14279237975E+01  0.14820905356E+01  0.51100000000E-03 0.  1.
    9000002    1    1    2    0    0  0.68577377722E+00  0.62830840701E+00  0.67120161270E+00  0.14816925230E+01  0.93800000000E+00 0.  1.
         22    1    1    2    0    0 -0.39623910864E+00 -0.35665532152E+00  0.19008745571E+01  0.19742169414E+01  0.00000000000E+00 0.  1.
</event>
<event>
 5    1  0.1160133E+000  0.1599637E+01  0.7818608E-02  0.3353757E+00
         11   -1    0    0    0    0  0.00000000000E+00  0.00000000000E+00  0.39999999674E+01  0.40000000000E+01  0.51100000000E-03 0.  1.
    9000002   -1    0    0    0    0 -0.00000000000E+00 -0.00000000000E+00  0.00000000000E+00  0.93800000000E+00  0.93800000000E+00 0. -1.
         11    1    1    2    0    0 -0.36355749180E+00 -0.26384854331E-01  0.13636253093E+01  0.14115043237E+01  0.51100000000E-03 0.  1.
    9000002    1    1    2    0    0  0.90294040591E+00  0.83002981211E-01  0.63124147546E+00  0.14493104125E+01  0.93800000000E+00 0. -1.
         22    1    1    2    0    0 -0.53938291411E+00 -0.56618126880E-01  0.20051331826E+01  0.20771852638E+01  0.00000000000E+00 0.  1.
</event>
<event>
 5    1  0.1160133E+000  0.1493157E+01  0.7818608E-02  0.3478170E+00
         11   -1    0    0    0    0  0.00000000000E+00  0.00000000000E+00  0.39999999674E+01  0.40000000000E+01  0.51100000000E-03 0. -1.
    9000002   -1    0    0    0    0 -0.00000000000E+00 -0.00000000000E+00  0.00000000000E+00  0.93800000000E+00  0.93800000000E+00 0.  1.
         11    1    1    2    0    0  0.17266532640E+00  0.32324448451E+00  0.10313465725E+01  0.10945210484E+01  0.51100000000E-03 0. -1.
    9000002    1    1    2    0    0  0.56662355062E+00  0.88785370660E-01  0.45273043929E+00  0.11890138522E+01  0.93800000000E+00 0.  1.
         22    1    1    2    0    0 -0.73928887702E+00 -0.41202985517E+00  0.25159229556E+01  0.26544650994E+01  0.00000000000E+00 0. -1.
</event>
<event>
 5    1  0.1174086E+000  0.1527785E+01  0.7818608E-02  0.3435676E+00
         11   -1    0    0    0    0  0.00000000000E+00  0.00000000000E+00  0.39999999674E+01  0.40000000000E+01  0.51100000000E-03 0.  1.
    9000002   -1    0    0    0    0 -0.00000000000E+00 -0.00000000000E+00  0.00000000000E+00  0.93800000000E+00  0.93800000000E+00 0. -1.
         11    1    1    2    0    0 -0.40565496073E+00 -0.39155578933E-01  0.11534035525E+01  0.12232861982E+01  0.51100000000E-03 0.  1.
    9000002    1    1    2    0    0 -0.42166438652E+00  0.14065531102E+00  0.37057477643E+00  0.11021589887E+01  0.93800000000E+00 0. -1.
         22    1    1    2    0    0  0.82731934725E+00 -0.10149973209E+00  0.24760216384E+01  0.26125548132E+01  0.00000000000E+00 0. -1.
</event>
<event>
 5    1  0.1160133E+000  0.1599596E+01  0.7818608E-02  0.3353802E+00
         11   -1    0    0    0    0  0.00000000000E+00  0.00000000000E+00  0.39999999674E+01  0.40000000000E+01  0.51100000000E-03 0.  1.
    9000002   -1    0    0    0    0 -0.00000000000E+00 -0.00000000000E+00  0.00000000000E+00  0.93800000000E+00  0.93800000000E+00 0. -1.
         11    1    1    2    0    0 -0.11284327593E+00  0.69731402238E-01  0.40112746417E+00  0.42249210290E+00  0.51100000000E-03 0.  1.
    9000002    1    1    2    0    0  0.84082400447E+00 -0.54176877176E+00  0.80515019774E+00  0.15901601333E+01  0.93800000000E+00 0. -1.
         22    1    1    2    0    0 -0.72798072853E+00  0.47203736952E+00  0.27937223054E+01  0.29253477638E+01  0.00000000000E+00 0.  1.
</event>
<event>
 5    1  0.1160133E+000  0.1579942E+01  0.7818608E-02  0.3375425E+00
         11   -1    0    0    0    0  0.00000000000E+00  0.00000000000E+00  0.39999999674E+01  0.40000000000E+01  0.51100000000E-03 0. -1.
    9000002   -1    0    0    0    0 -0.00000000000E+00 -0.00000000000E+00  0.00000000000E+00  0.93800000000E+00  0.93800000000E+00 0. -1.
         11    1    1    2    0    0 -0.26132718472E-02 -0.20519319626E-01  0.10946819162E-01  0.23408665883E-01  0.51100000000E-03 0. -1.
    9000002    1    1    2    0    0  0.59640207766E+00 -0.67123555927E+00  0.64764132643E+00  0.14510464851E+01  0.93800000000E+00 0. -1.
         22    1    1    2    0    0 -0.59378880582E+00  0.69175487890E+00  0.33414118218E+01  0.34635448490E+01  0.00000000000E+00 0. -1.
</event>
<event>
 5    1  0.1160133E+000  0.1599674E+01  0.7818608E-02  0.3353717E+00
         11   -1    0    0    0    0  0.00000000000E+00  0.00000000000E+00  0.39999999674E+01  0.40000000000E+01  0.51100000000E-03 0.  1.
    9000002   -1    0    0    0    0 -0.00000000000E+00 -0.00000000000E+00  0.00000000000E+00  0.93800000000E+00  0.93800000000E+00 0.  1.
         11    1    1    2    0    0 -0.11199523359E+00  0.48518573683E-01  0.26162503065E+00  0.28869517163E+00  0.51100000000E-03 0.  1.
    9000002    1    1    2    0    0  0.11105939399E+01 -0.47027658714E+00  0.14017752784E+01  0.20734987096E+01  0.93800000000E+00 0.  1.
         22    1    1    2    0    0 -0.99859870629E+00  0.42175801346E+00  0.23365996583E+01  0.25758061187E+01  0.00000000000E+00 0.  1.
</event>
<event>
 5    1  0.1160133E+000  0.1599547E+01  0.7818608E-02  0.3353855E+00
         11   -1    0    0    0    0  0.00000000000E+00  0.00000000000E+00  0.39999999674E+01  0.40000000000E+01  0.51100000000E-03 0. -1.
    9000002   -1    0    0    0    0 -0.00000000000E+00 -0.00000000000E+00  0.00000000000E+00  0.93800000000E+00  0.93800000000E+00 0. -1.
         11    1    1    2    0    0  0.10015150372E+00 -0.13269147309E+00  0.46168338972E+00  0.49070272487E+00  0.51100000000E-03 0. -1.
    9000002    1    1    2    0    0 -0.70035774130E+00  0.82152935820E+00  0.98787413449E+00  0.17381457815E+01  0.93800000000E+00 0. -1.
         22    1    1    2    0    0  0.60020623758E+00 -0.68883788510E+00  0.25504424431E+01  0.27091514936E+01  0.00000000000E+00 0. -1.
</event>
<event>
 5    1  0.1160133E+000  0.1517051E+01  0.7818608E-02  0.3448625E+00
         11   -1    0    0    0    0  0.00000000000E+00  0.00000000000E+00  0.39999999674E+01  0.40000000000E+01  0.51100000000E-03 0.  1.
    9000002   -1    0    0    0    0 -0.00000000000E+00 -0.00000000000E+00  0.00000000000E+00  0.93800000000E+00  0.93800000000E+00 0. -1.
         11    1    1    2    0    0  0.80990650028E-01  0.63862984218E-01  0.14248204027E+01  0.14285487067E+01  0.51100000000E-03 0.  1.
    9000002    1    1    2    0    0 -0.78298228498E+00  0.39883903654E+00  0.72136219659E+00  0.14738864455E+01  0.93800000000E+00 0. -1.
         22    1    1    2    0    0  0.70199163495E+00 -0.46270202076E+00  0.18538173680E+01  0.20355648478E+01  0.00000000000E+00 0.  1.
</event>
<event>
 5    1  0.1160133E+000  0.1604422E+01  0.7818608E-02  0.3348578E+00
         11   -1    0    0    0    0  0.00000000000E+00  0.00000000000E+00  0.39999999674E+01  0.40000000000E+01  0.51100000000E-03 0. -1.
    9000002   -1    0    0    0    0 -0.00000000000E+00 -0.00000000000E+00  0.00000000000E+00  0.93800000000E+00  0.93800000000E+00 0. -1.
         11    1    1    2    0    0  0.44064075425E+00  0.27829856707E-01  0.85658149557E+00  0.96367572082E+00  0.51100000000E-03 0. -1.
    9000002    1    1    2    0    0  0.54387068788E+00  0.15354369000E+00  0.61732912160E+00  0.12571039075E+01  0.93800000000E+00 0. -1.
         22    1    1    2    0    0 -0.98451144213E+00 -0.18137354671E+00  0.25260893502E+01  0.27172203717E+01  0.00000000000E+00 0. -1.
</event>
<event>
 5    1  0.1160133E+000  0.1592638E+01  0.7818608E-02  0.3361393E+00
         11   -1    0    0    0    0  0.00000000000E+00  0.00000000000E+00  0.39999999674E+01  0.40000000000E+01  0.51100000000E-03 0.  1.
    9000002   -1    0    0    0    0 -0.00000000000E+00 -0.00000000000E+00  0.00000000000E+00  0.93800000000E+00  0.93800000000E+00 0.  1.
         11    1    1    2    0    0 -0.13503254654E+00 -0.14693638171E+00  0.10379649344E+01  0.10569747183E+01  0.51100000000E-03 0.  1.
    9000002    1    1    2    0    0  0.35249803519E+00  0.78233481146E+00  0.56408126897E+00  0.13908034728E+01  0.93800000000E+00 0.  1.
         22    1    1    2    0    0 -0.21746548865E+00 -0.63539842975E+00  0.23979537640E+01  0.24902218089E+01  0.00000000000E+00 0.  1.
</event>
<event>
 5    1  0.1160133E+000  0.1592854E+01  0.7818608E-02  0.3361156E+00
         11   -1    0    0    0    0  0.00000000000E+00  0.00000000000E+00  0.39999999674E+01  0.40000000000E+01  0.51100000000E-03 0. -1.
    9000002   -1    0    0    0    0 -0.00000000000E+00 -0.00000000000E+00  0.00000000000E+00  0.93800000000E+00  0.93800000000E+00 0.  1.
         11    1    1    2    0    0 -0.23125945703E+00 -0.24980283691E+00  0.11914106648E+01  0.12390891926E+01  0.51100000000E-03 0. -1.
    9000002    1    1    2    0    0  0.84366064752E+00  0.54204293665E+00  0.82365059761E+00  0.16011927243E+01  0.93800000000E+00 0.  1.
         22    1    1    2    0    0 -0.61240119049E+00 -0.29224009974E+00  0.19849387049E+01  0.20977180831E+01  0.00000000000E+00 0. -1.
</event>
<event>
 5    1  0.1160133E+000  0.1578841E+01  0.7818608E-02  0.3376653E+00
         11   -1    0    0    0    0  0.00000000000E+00  0.00000000000E+00  0.39999999674E+01  0.40000000000E+01  0.51100000000E-03 0.  1.
    9000002   -1    0    0    0    0 -0.00000000000E+00 -0.00000000000E+00  0.00000000000E+00  0.93800000000E+00  0.93800000000E+00 0. -1.
         11    1    1    2    0    0 -0.19564779957E-01  0.75869002319E-01  0.16113622841E+00  0.17917597873E+00  0.51100000000E-03 0.  1.
    9000002    1    1    2    0    0  0.10858044660E+01 -0.13260894390E+00  0.10806999618E+01  0.18011976232E+01  0.93800000000E+00 0. -1.
         22    1    1    2    0    0 -0.10662396860E+01  0.56739941578E-01  0.27581637771E+01  0.29576263981E+01  0.00000000000E+00 0.  1.
</event>
<event>
 5    1  0.1160133E+000  0.1599675E+01  0.7818608E-02  0.3353716E+00
         11   -1    0    0    0    0  0.00000000000E+00  0.00000000000E+00  0.39999999674E+01  0.40000000000E+01  0.51100000000E-03 0.  1.
    9000002   -1    0    0    0    0 -0.00000000000E+00 -0.00000000000E+00  0.00000000000E+00  0.93800000000E+00  0.93800000000E+00 0. -1.
         11    1    1    2    0    0  0.18106021444E+00  0.29572669586E+00  0.12292991736E+01  0.12772681000E+01  0.51100000000E-03 0.  1.
    9000002    1    1    2    0    0 -0.49217408954E+00 -0.79895693836E+00  0.68590404612E+00  0.14936116913E+01  0.93800000000E+00 0. -1.
         22    1    1    2    0    0  0.31111387510E+00  0.50323024250E+00  0.20847967477E+01  0.21671202088E+01  0.00000000000E+00 0.  1.
</event>
<event>
 5    1  0.1160133E+000  0.1597756E+01  0.7818608E-02  0.3355803E+00
         11   -1    0    0    0    0  0.00000000000E+00  0.00000000000E+00  0.39999999674E+01  0.40000000000E+01  0.51100000000E-03 0. -1.
    9000002   -1    0    0    0    0 -0.00000000000E+00 -0.00000000000E+00  0.00000000000E+00  0.93800000000E+00  0.93800000000E+00 0. -1.
         11    1    1    2    0    0 -0.29446119420E-01  0.37665715619E-01  0.99802666801E-01  0.11066441842E+00  0.51100000000E-03 0. -1.
    9000002    1    1    2    0    0  0.30042819016E+00 -0.10526684664E+01  0.10323426823E+01  0.17731168634E+01  0.93800000000E+00 0. -1.
         22    1    1    2    0    0 -0.27098207074E+00  0.10150027508E+01  0.28678546182E+01  0.30542187181E+01  0.00000000000E+00 0. -1.
</event>
<event>
 5    1  0.1160133E+000  0.1586104E+01  0.7818608E-02  0.3368585E+00
         11   -1    0    0    0    0  0.00000000000E+00  0.00000000000E+00  0.39999999674E+01  0.40000000000E+01  0.51100000000E-03 0. -1.
    9000002   -1    0    0    0    0 -0.00000000000E+00 -0.00000000000E+00  0.00000000000E+00  0.93800000000E+00  0.93800000000E+00 0. -1.
         11    1    1    2    0    0 -0.22890137843E+00 -0.56237109182E-01  0.86714996558E+00  0.89861436524E+00  0.51100000000E-03 0. -1.
    9000002    1    1    2    0    0  0.73182233285E+00  0.65582898982E+00  0.79498336472E+00  0.15740133865E+01  0.93800000000E+00 0. -1.
         22    1    1    2    0    0 -0.50292095442E+00 -0.59959188064E+00  0.23378666371E+01  0.24653722482E+01  0.00000000000E+00 0. -1.
</event>
<event>
 5    1  0.1160133E+000  0.1510773E+01  0.7818608E-02  0.3456291E+00
         11   -1    0    0    0    0  0.00000000000E+00  0.00000000000E+00  0.39999999674E+01  0.40000000000E+01  0.51100000000E-03 0.  1.
    9000002   -1    0    0    0    0 -0.00000000000E+00 -0.00000000000E+00  0.00000000000E+00  0.93800000000E+00  0.93800000000E+00 0.  1.
         11    1    1    2    0    0 -0.26671553353E+00 -0.12579928650E+00  0.44748552448E+00  0.53591621738E+00  0.51100000000E-03 0.  1.
    9000002    1    1    2    0    0  0.53937740850E-01  0.97309626249E+00  0.93953718186E+00  0.16469364687E+01  0.93800000000E+00 0.  1.
         22    1    1    2    0    0  0.21277779268E+00 -0.84729697599E+00  0.26129772610E+01  0.27551473139E+01  0.00000000000E+00 0.  1.
</event>
<event>
 5    1  0.1160133E+000  0.1599132E+01  0.7818608E-02  0.3354306E+00
         11   -1    0    0    0    0  0.00000000000E+00  0.00000000000E+00  0.39999999674E+01  0.40000000000E+01  0.51100000000E-03 0.  1.
    9000002   -1    0    0    0    0 -0.00000000000E+00 -0.00000000000E+00  0.00000000000E+00  0.93800000000E+00  0.93800000000E+00 0. -1.
         11    1    1    2    0    0  0.37101232774E-01  0.12979932435E+00  0.43298413877E+00  0.45354149934E+00  0.51100000000E-03 0.  1.
    9000002    1    1    2    0    0 -0.33611392014E+00 -0.86048601631E+00  0.66108571247E+00  0.14731894212E+01  0.93800000000E+00 0. -1.
         22    1    1    2    0    0  0.29901268737E+00  0.73068669196E+00  0.29059301161E+01  0.30112690794E+01  0.00000000000E+00 0.  1.
</event>
<event>
 5    1  0.1160133E+000  0.1599459E+01  0.7818608E-02  0.3353951E+00
         11   -1    0    0    0    0  0.00000000000E+00  0.00000000000E+00  0.39999999674E+01  0.40000000000E+01  0.51100000000E-03 0.  1.
    9000002   -1    0    0    0    0 -0.00000000000E+00 -0.00000000000E+00  0.00000000000E+00  0.93800000000E+00  0.93800000000E+00 0.  1.
         11    1    1    2    0    0  0.10884001064E+00  0.81588145946E-01  0.45683403788E+00  0.47665540253E+00  0.51100000000E-03 0.  1.
    9000002    1    1    2    0    0 -0.72003094293E+00 -0.64953868355E+00  0.74444213568E+00  0.15409033563E+01  0.93800000000E+00 0.  1.
         22    1    1    2    0    0  0.61119093229E+00  0.56795053761E+00  0.27987237938E+01  0.29204412411E+01  0.00000000000E+00 0.  1.
</event>
<event>
 5    1  0.1160133E+000  0.1598435E+01  0.7818608E-02  0.3355064E+00
         11   -1    0    0    0    0  0.00000000000E+00  0.00000000000E+00  0.39999999674E+01  0.40000000000E+01  0.51100000000E-03 0.  1.
    9000002   -1    0    0    0    0 -0.00000000000E+00 -0.00000000000E+00  0.00000000000E+00  0.93800000000E+00  0.93800000000E+00 0.  1.
         11    1    1    2    0    0 -0.45003107592E+00  0.73504398414E-01  0.11686127469E+01  0.12544269126E+01  0.51100000000E-03 0.  1.
    9000002    1    1    2    0    0  0.11577575443E+01 -0.17823992133E+00  0.12694573481E+01  0.19655884512E+01  0.93800000000E+00 0.  1.
         22    1    1    2    0    0 -0.70772646837E+00  0.10473552291E+00  0.15619298723E+01  0.17179846361E+01  0.00000000000E+00 0.  1.
</event>
<event>
 5    1  0.1160133E+000  0.1599655E+01  0.7818608E-02  0.3353738E+00
         11   -1    0    0    0    0  0.00000000000E+00  0.00000000000E+00  0.39999999674E+01  0.40000000000E+01  0.51100000000E-03 0.  1.
    9000002   -1    0    0    0    0 -0.00000000000E+00 -0.00000000000E+00  0.00000000000E+00  0.93800000000E+00  0.93800000000E+00 0.  1.
         11    1    1    2    0    0  0.28382124300E+00 -0.34130093690E+00  0.12053758720E+01  0.12845123905E+01  0.51100000000E-03 0.  1.
    9000002    1    1    2    0    0 -0.69221869416E+00  0.85190456660E+00  0.10355447375E+01  0.17768244186E+01  0.93800000000E+00 0.  1.
         22    1    1    2    0    0  0.40839745115E+00 -0.51060362971E+00  0.17590793578E+01  0.18766631908E+01  0.00000000000E+00 0.  1.
</event>
<event>
 5    1  0.1346186E+000  0.1552459E+01  0.7818608E-02  0.3406637E+00
         11   -1    0    0    0    0  0.00000000000E+00  0.00000000000E+00  0.39999999674E+01  0.40000000000E+01  0.51100000000E-03 0.  1.
    9000002   -1    0    0    0    0 -0.00000000000E+00 -0.00000000000E+00  0.00000000000E+00  0.93800000000E+00  0.93800000000E+00 0. -1.
         11    1    1    2    0    0 -0.21779155018E-01 -0.10618165576E-01  0.13458540841E+01  0.13460722692E+01  0.51100000000E-03 0.  1.
    9000002    1    1    2    0    0 -0.27910496556E+00  0.62567620682E+00  0.38807352487E+00  0.12246694894E+01  0.93800000000E+00 0. -1.
         22    1    1    2    0    0  0.30088412058E+00 -0.61505804124E+00  0.22660723584E+01  0.23672582414E+01  0.00000000000E+00 0.  1.
</event>
<event>
 5    1  0.1160133E+000  0.1580811E+01  0.7818608E-02  0.3374457E+00
         11   -1    0    0    0    0  0.00000000000E+00  0.00000000000E+00  0.39999999674E+01  0.40000000000E+01  0.51100000000E-03 0. -1.
    9000002   -1    0    0    0    0 -0.00000000000E+00 -0.00000000000E+00  0.00000000000E+00  0.93800000000E+00  0.93800000000E+00 0. -1.
         11    1    1    2    0    0  0.34753461796E-02 -0.37255141595E-01  0.24833890854E+00  0.25114238635E+00  0.51100000000E-03 0. -1.
    9000002    1    1    2    0    0 -0.91104442642E+00 -0.27788483999E+00  0.74490217758E+00  0.15303415257E+01  0.93800000000E+00 0. -1.
         22    1    1    2    0    0  0.90756908024E+00  0.31513998159E+00  0.30067588812E+01  0.31565160879E+01  0.00000000000E+00 0. -1.
</event>
<event>
 5    1  0.1160133E+000  0.1599603E+01  0.7818608E-02  0.3353794E+00
         11   -1    0    0    0    0  0.00000000000E+00  0.00000000000E+00  0.39999999674E+01  0.40000000000E+01  0.51100000000E-03 0.  1.
    9000002   -1    0    0    0    0 -0.00000000000E+00 -0.00000000000E+00  0.00000000000E+00  0.93800000000E+00  0.93800000000E+00 0. -1.
         11    1    1    2    0    0 -0.26347426165E+00 -0.58072174533E-01  0.93288529971E+00  0.97111601137E+00  0.51100000000E-03 0.  1.
    9000002    1    1    2    0    0  0.90714676937E+00  0.21982211888E+00  0.67714540378E+00  0.14864746627E+01  0.93800000000E+00 0. -1.
         22    1    1    2    0    0 -0.64367250772E+00 -0.16174994435E+00  0.23899692639E+01  0.24804093259E+01  0.00000000000E+00 0.  1.
</event>
<event>
 5    1  0.1160133E+000  0.1541206E+01  0.7818608E-02  0.3419758E+00
         11   -1    0    0    0    0  0.00000000000E+00  0.00000000000E+00  0.39999999674E+01  0.40000000000E+01  0.51100000000E-03 0. -1.
    9000002   -1    0    0    0    0 -0.00000000000E+00 -0.00000000000E+00  0.00000000000E+00  0.93800000000E+00  0.93800000000E+00 0. -1.
         11    1    1    2    0    0 -0.64768432247E-01  0.77439275249E-03  0.41369721838E+00  0.41873762563E+00  0.51100000000E-03 0. -1.
    9000002    1    1    2    0    0 -0.95591791469E+00 -0.35938239074E+00  0.98186974139E+00  0.16990723797E+01  0.93800000000E+00 0. -1.
         22    1    1    2    0    0  0.10206863469E+01  0.35860799799E+00  0.26044330076E+01  0.28201899947E+01  0.00000000000E+00 0. -1.
</event>
<event>
 5    1  0.1160133E+000  0.1599676E+01  0.7818608E-02  0.3353715E+00
         11   -1    0    0    0    0  0.00000000000E+00  0.00000000000E+00  0.39999999674E+01  0.40000000000E+01  0.51100000000E-03 0.  1.
    9000002   -1    0    0    0    0 -0.00000000000E+00 -0.00000000000E+00  0.00000000000E+00  0.93800000000E+00  0.93800000000E+00 0.  1.
         11    1    1    2    0    0 -0.37563874907E+00 -0.49457930710E-01  0.11575172336E+01  0.12179478494E+01  0.51100000000E-03 0.  1.
    9000002    1    1    2    0    0  0.10196654913E+01  0.13466112976E+00  0.86567227751E+00  0.16392326943E+01  0.93800000000E+00 0.  1.
         22    1    1    2    0    0 -0.64402674219E+00 -0.85203199054E-01  0.19768104563E+01  0.20808194563E+01  0.00000000000E+00 0.  1.
</event>
<event>
 5    1  0.1160133E+000  0.1598709E+01  0.7818608E-02  0.3354766E+00
         11   -1    0    0    0    0  0.00000000000E+00  0.00000000000E+00  0.39999999674E+01  0.40000000000E+01  0.51100000000E-03 0.  1.
    9000002   -1    0    0    0    0 -0.00000000000E+00 -0.00000000000E+00  0.00000000000E+00  0.93800000000E+00  0.93800000000E+00 0.  1.
         11    1    1    2    0    0 -0.19136497291E-01  0.31879441625E-01  0.80645513112E-01  0.88805766890E-01  0.51100000000E-03 0.  1.
    9000002    1    1    2    0    0  0.64342676662E+00 -0.77637834586E+00  0.82384021967E+00  0.16047797505E+01  0.93800000000E+00 0.  1.
         22    1    1    2    0    0 -0.62429026933E+00  0.74449890423E+00  0.30955142346E+01  0.32444144827E+01  0.00000000000E+00 0.  1.
</event>
<event>
 5    1  0.1160133E+000  0.1599677E+01  0.7818608E-02  0.3353715E+00
         11   -1    0    0    0    0  0.00000000000E+00  0.00000000000E+00  0.39999999674E+01  0.40000000000E+01  0.51100000000E-03 0. -1.
    9000002   -1    0    0    0    0 -0.00000000000E+00 -0.00000000000E+00  0.00000000000E+00  0.93800000000E+00  0.93800000000E+00 0. -1.
         11    1    1    2    0    0  0.28229679414E+00 -0.19234316143E+00  0.12614984926E+01  0.13069300210E+01  0.51100000000E-03 0. -1.
    9000002    1    1    2    0    0 -0.75347864138E+00  0.51086657272E+00  0.63720095990E+00  0.14541608513E+01  0.93800000000E+00 0. -1.
         22    1    1    2    0    0  0.47118184724E+00 -0.31852341129E+00  0.21013005148E+01  0.21769091277E+01  0.00000000000E+00 0. -1.
</event>
<event>
 5    1  0.1160133E+000  0.1599676E+01  0.7818608E-02  0.3353715E+00
         11   -1    0    0    0    0  0.00000000000E+00  0.00000000000E+00  0.39999999674E+01  0.40000000000E+01  0.51100000000E-03 0. -1.
    9000002   -1    0    0    0    0 -0.00000000000E+00 -0.00000000000E+00  0.00000000000E+00  0.93800000000E+00  0.93800000000E+00 0. -1.
         11    1    1    2    0    0 -0.16923372783E-01 -0.22566110668E+00  0.76609602814E+00  0.79881957980E+00  0.51100000000E-03 0. -1.
    9000002    1    1    2    0    0  0.70759587308E-01  0.96376665599E+00  0.73762561947E+00  0.15355092448E+01  0.93800000000E+00 0. -1.
         22    1    1    2    0    0 -0.53836214526E-01 -0.73810554931E+00  0.24962783197E+01  0.26036711754E+01  0.00000000000E+00 0. -1.
</event>
<event>
 5    1  0.1160133E+000  0.1573698E+01  0.7818608E-02  0.3382415E+00
         11   -1    0    0    0    0  0.00000000000E+00  0.00000000000E+00  0.39999999674E+01  0.40000000000E+01  0.51100000000E-03 0. -1.
    9000002   -1    0    0    0    0 -0.00000000000E+00 -0.00000000000E+00  0.00000000000E+00  0.93800000000E+00  0.93800000000E+00 0.  1.
         11    1    1    2    0    0 -0.63559237347E-01 -0.49892763083E-01  0.64694653860E+00  0.65197327353E+00  0.51100000000E-03 0. -1.
    9000002    1    1    2    0    0  0.98586735453E+00 -0.14206403091E+00  0.84797813979E+00  0.16096669081E+01  0.93800000000E+00 0.  1.
         22    1    1    2    0    0 -0.92230811719E+00  0.19195679399E+00  0.25050752890E+01  0.26763598183E+01  0.00000000000E+00 0. -1.
</event>
<event>
 5    1  0.1160133E+000  0.1599578E+01  0.7818608E-02  0.3353822E+00
         11   -1    0    0    0    0  0.00000000000E+00  0.00000000000E+00  0.39999999674E+01  0.40000000000E+01  0.51100000000E-03 0. -1.
    9000002   -1    0    0    0    0 -0.00000000000E+00 -0.00000000000E+00  0.00000000000E+00  0.93800000000E+00  0.93800000000E+00 0.  1.
         11    1    1    2    0    0  0.33685609590E-02 -0.14047880270E+00  0.49550864556E+00  0.51504826974E+00  0.51100000000E-03 0. -1.
    9000002    1    1    2    0    0 -0.70641550698E-01  0.91638323587E+00  0.65225582442E+00  0.14662981021E+01  0.93800000000E+00 0.  1.
         22    1    1    2    0    0  0.67272989739E-01 -0.77590443317E+00  0.28522354974E+01  0.29566536282E+01  0.00000000000E+00 0. -1.
</event>
<event>
 5    1  0.1160133E+000  0.1599673E+01  0.7818608E-02  0.3353719E+00
         11   -1    0    0    0    0  0.00000000000E+00  0.00000000000E+00  0.39999999674E+01  0.40000000000E+01  0.51100000000E-03 0. -1.
    9000002   -1    0    0    0    0 -0.00000000000E+00 -0.00000000000E+00  0.00000000000E+00  0.93800000000E+00  0.93800000000E+00 0. -1.
         11    1    1    2    0    0 -0.55145139221E+00  0.67868635901E-02  0.12965889345E+01  0.14090024222E+01  0.51100000000E-03 0. -1.
    9000002    1    1    2    0    0  0.11686248072E+01 -0.91916924486E-02  0.12552486810E+01  0.19548047673E+01  0.93800000000E+00 0. -1.
         22    1    1    2    0    0 -0.61717341496E+00  0.24048288585E-02  0.14481623519E+01  0.15741928106E+01  0.00000000000E+00 0.  1.
</event>
<event>
 5    1  0.1160133E+000  0.1599674E+01  0.7818608E-02  0.3353718E+00
         11   -1    0    0    0    0  0.00000000000E+00  0.00000000000E+00  0.39999999674E+01  0.40000000000E+01  0.51100000000E-03 0. -1.
    9000002   -1    0    0    0    0 -0.00000000000E+00 -0.00000000000E+00  0.00000000000E+00  0.93800000000E+00  0.93800000000E+00 0.  1.
         11    1    1    2    0    0 -0.25479735018E+00 -0.36936195123E+00  0.13143830049E+01  0.13888674830E+01  0.51100000000E-03 0. -1.
    9000002    1    1    2    0    0  0.59944376803E+00  0.86779001811E+00  0.92603749744E+00  0.16881296731E+01  0.93800000000E+00 0.  1.
         22    1    1    2    0    0 -0.34464641785E+00 -0.49842806688E+00  0.17595794650E+01  0.18610028439E+01  0.00000000000E+00 0. -1.
</event>
<event>
 5    1  0.1160133E+000  0.1186660E+01  0.7818608E-02  0.4024723E+00
         11   -1    0    0    0    0  0.00000000000E+00  0.00000000000E+00  0.39999999674E+01  0.40000000000E+01  0.51100000000E-03 0. -1.
    9000002   -1    0    0    0    0 -0.00000000000E+00 -0.00000000000E+00  0.00000000000E+00  0.93800000000E+00  0.93800000000E+00 0.  1.
         11    1    1    2    0    0 -0.41559709957E-01  0.66096157847E+00  0.12551100729E+01  0.14191190837E+01  0.51100000000E-03 0. -1.
    9000002    1    1    2    0    0  0.39135188239E+00  0.21572214128E+00  0.66168037378E+00  0.12318105598E+01  0.93800000000E+00 0.  1.
         22    1    1    2    0    0 -0.34979217243E+00 -0.87668371976E+00  0.20832095207E+01  0.22870703565E+01  0.00000000000E+00 0. -1.
</event>
<event>
 5    1  0.1160133E+000  0.1598804E+01  0.7818608E-02  0.3354663E+00
         11   -1    0    0    0    0  0.00000000000E+00  0.00000000000E+00  0.39999999674E+01  0.40000000000E+01  0.51100000000E-03 0. -1.
    9000002   -1    0    0    0    0 -0.00000000000E+00 -0.00000000000E+00  0.00000000000E+00  0.93800000000E+00  0.93800000000E+00 0. -1.
         11    1    1    2    0    0  0.45616006084E+00 -0.21184782329E+00  0.11610225455E+01  0.12652806462E+01  0.51100000000E-03 0. -1.
    9000002    1    1    2    0    0 -0.10728898160E+01  0.42591973569E+00  0.12086814772E+01  0.19165737899E+01  0.93800000000E+00 0. -1.
         22    1    1    2    0    0  0.61672975520E+00 -0.21407191240E+00  0.16302959447E+01  0.17561455640E+01  0.00000000000E+00 0. -1.
</event>
<event>
 5    1  0.1160133E+000  0.1448367E+01  0.7818608E-02  0.3536396E+00
         11   -1    0    0    0    0  0.00000000000E+00  0.00000000000E+00  0.39999999674E+01  0.40000000000E+01  0.51100000000E-03 0.  1.
    9000002   -1    0    0    0    0 -0.00000000000E+00 -0.00000000000E+00  0.00000000000E+00  0.93800000000E+00  0.93800000000E+00 0.  1.
         11    1    1    2    0    0  0.24248783196E+00 -0.30586364685E+00  0.80376266033E+00  0.89352537422E+00  0.51100000000E-03 0.  1.
    9000002    1    1    2    0    0  0.55474714060E+00  0.63859795539E+00  0.79472657157E+00  0.14923089701E+01  0.93800000000E+00 0.  1.
         22    1    1    2    0    0 -0.79723497257E+00 -0.33273430855E+00  0.24015107355E+01  0.25521656557E+01  0.00000000000E+00 0.  1.
</event>
<event>
 5    1  0.1160133E+000  0.1598516E+01  0.7818608E-02  0.3354976E+00
         11   -1    0    0    0    0  0.00000000000E+00  0.00000000000E+00  0.39999999674E+01  0.40000000000E+01  0.51100000000E-03 0. -1.
    9000002   -1    0    0    0    0 -0.00000000000E+00 -0.00000000000E+00  0.00000000000E+00  0.93800000000E+00  0.93800000000E+00 0. -1.
         11    1    1    2    0    0 -0.22455517961E+00 -0.69181869395E-01  0.76256567903E+00  0.79794601052E+00  0.51100000000E-03 0. -1.
    9000002    1    1    2    0    0  0.85078872907E+00  0.38506681184E+00  0.67978447765E+00  0.14879747468E+01  0.93800000000E+00 0. -1.
         22    1    1    2    0    0 -0.62623354946E+00 -0.31588494245E+00  0.25576498107E+01  0.26520792427E+01  0.00000000000E+00 0.  1.
</event>
<event>
 5    1  0.1160133E+000  0.1509377E+01  0.7818608E-02  0.3458005E+00
         11   -1    0    0    0    0  0.00000000000E+00  0.00000000000E+00  0.39999999674E+01  0.40000000000E+01  0.51100000000E-03 0. -1.
    9000002   -1    0    0    0    0 -0.00000000000E+00 -0.00000000000E+00  0.00000000000E+00  0.93800000000E+00  0.93800000000E+00 0.  1.
         11    1    1    2    0    0  0.14086346952E-01  0.17556248763E-01 -0.38140213246E-01  0.44289773408E-01  0.51100000000E-03 0. -1.
    9000002    1    1    2    0    0 -0.90537781204E+00  0.17753232794E+00  0.82366009847E+00  0.15522521277E+01  0.93800000000E+00 0.  1.
         22    1    1    2    0    0  0.89129146509E+00 -0.19508857671E+00  0.32144800821E+01  0.33414580989E+01  0.00000000000E+00 0. -1.
</event>
<event>
 5    1  0.1160133E+000  0.1598714E+01  0.7818608E-02  0.3354761E+00
         11   -1    0    0    0    0  0.00000000000E+00  0.00000000000E+00  0.39999999674E+01  0.40000000000E+01  0.51100000000E-03 0.  1.
    9000002   -1    0    0    0    0 -0.00000000000E+00 -0.00000000000E+00  0.00000000000E+00  0.93800000000E+00  0.93800000000E+00 0.  1.
         11    1    1    2    0    0 -0.30593380173E+00  0.30371682148E+00  0.13690398246E+01  0.14353082251E+01  0.51100000000E-03 0.  1.
    9000002    1    1    2    0    0  0.68812549541E+00 -0.65244585857E+00  0.70543457763E+00  0.15088685294E+01  0.93800000000E+00 0.  1.
         22    1    1    2    0    0 -0.38219169368E+00  0.34872903709E+00  0.19255255651E+01  0.19938232454E+01  0.00000000000E+00 0.  1.
</event>
<event>
 5    1  0.1544242E+000  0.1509364E+01  0.7818608E-02  0.3458021E+00
         11   -1    0    0    0    0  0.00000000000E+00  0.00000000000E+00  0.39999999674E+01  0.40000000000E+01  0.51100000000E-03 0.  1.
    9000002   -1    0    0    0    0 -0.00000000000E+00 -0.00000000000E+00  0.00000000000E+00  0.93800000000E+00  0.93800000000E+00 0. -1.
         11    1    1    2    0    0  0.31799798128E+00  0.48199012672E-01  0.14245243145E+01  0.14603820201E+01  0.51100000000E-03 0.  1.
    9000002    1    1    2    0    0 -0.69693084062E-01 -0.63392303932E+00  0.38687427069E+00  0.11984286575E+01  0.93800000000E+00 0. -1.
         22    1    1    2    0    0 -0.24830489722E+00  0.58572402665E+00  0.21886013822E+01  0.22791893224E+01  0.00000000000E+00 0.  1.
</event>
<event>
 5    1  0.1160133E+000  0.1599677E+01  0.7818608E-02  0.3353714E+00
         11   -1    0    0    0    0  0.00000000000E+00  0.00000000000E+00  0.39999999674E+01  0.40000000000E+01  0.51100000000E-03 0. -1.
    9000002   -1    0    0    0    0 -0.00000000000E+00 -0.00000000000E+00  0.00000000000E+00  0.93800000000E+00  0.93800000000E+00 0.  1.
         11    1    1    2    0    0 -0.83293064950E-01  0.35146592720E+00  0.87191981220E+00  0.94377457726E+00  0.51100000000E-03 0. -1.
    9000002    1    1    2    0    0  0.26630404697E+00 -0.11253734701E+01  0.12129329676E+01  0.19205295303E+01  0.93800000000E+00 0.  1.
         22    1    1    2    0    0 -0.18301098202E+00  0.77390754292E+00  0.19151471875E+01  0.20736958925E+01  0.00000000000E+00 0. -1.
</event>
<event>
 5    1  0.1160133E+000  0.1597045E+01  0.7818608E-02  0.3356577E+00
         11   -1    0    0    0    0  0.00000000000E+00  0.00000000000E+00  0.39999999674E+01  0.40000000000E+01  0.51100000000E-03 0.  1.
    9000002   -1    0    0    0    0 -0.00000000000E+00 -0.00000000000E+00  0.00000000000E+00  0.93800000000E+00  0.93800000000E+00 0. -1.
         11    1    1    2    0    0  0.46176830199E+00 -0.13704883648E+00  0.12751737132E+01  0.13631143050E+01  0.51100000000E-03 0.  1.
    9000002    1    1    2    0    0 -0.97776455930E+00  0.40052096797E+00  0.93658930903E+00  0.16951354262E+01  0.93800000000E+00 0. -1.
         22    1    1    2    0    0  0.51599625732E+00 -0.26347213149E+00  0.17882369451E+01  0.18797502689E+01  0.00000000000E+00 0.  1.
</event>
<event>
 5    1  0.1160133E+000  0.1599670E+01  0.7818608E-02  0.3353722E+00
         11   -1    0    0    0    0  0.00000000000E+00  0.00000000000E+00  0.39999999674E+01  0.40000000000E+01  0.51100000000E-03 0. -1.
    9000002   -1    0    0    0    0 -0.00000000000E+00 -0.00000000000E+00  0.00000000000E+00  0.93800000000E+00  0.93800000000E+00 0.  1.
         11    1    1    2    0    0  0.63572368821E-01 -0.20696068968E+00  0.63048939549E+00  0.66662681622E+00  0.51100000000E-03 0. -1.
    9000002    1    1    2    0    0 -0.32108512001E+00  0.10096570162E+01  0.93755084836E+00  0.16974535451E+01  0.93800000000E+00 0.  1.
         22    1    1    2    0    0  0.25751275119E+00 -0.80269632648E+00  0.24319597235E+01  0.25739196387E+01  0.00000000000E+00 0. -1.
</event>
<event>
 5    1  0.1160133E+000  0.1626959E+01  0.7818608E-02  0.3324613E+00
         11   -1    0    0    0    0  0.00000000000E+00  0.00000000000E+00  0.39999999674E+01  0.40000000000E+01  0.51100000000E-03 0.  1.
    9000002   -1    0    0    0    0 -0.00000000000E+00 -0.00000000000E+00  0.00000000000E+00  0.93800000000E+00  0.93800000000E+00 0.  1.
         11    1    1    2    0    0  0.50324411225E+00 -0.15815786833E-01  0.93374390053E+00  0.10608405670E+01  0.51100000000E-03 0.  1.
    9000002    1    1    2    0    0  0.41520744888E+00  0.12605718481E-01  0.47990150273E+00  0.11325659284E+01  0.93800000000E+00 0.  1.
         22    1    1    2    0    0 -0.91845156113E+00  0.32100683515E-02  0.25863545641E+01  0.27445935047E+01  0.00000000000E+00 0.  1.
</event>
<event>
 5    1  0.1160133E+000  0.1599675E+01  0.7818608E-02  0.3353717E+00
         11   -1    0    0    0    0  0.00000000000E+00  0.00000000000E+00  0.39999999674E+01  0.40000000000E+01  0.51100000000E-03 0. -1.
    9000002   -1    0    0    0    0 -0.00000000000E+00 -0.00000000000E+00  0.00000000000E+00  0.93800000000E+00  0.93800000000E+00 0. -1.
         11    1    1    2    0    0 -0.12644024426E+00 -0.18628784761E-01  0.41009206832E+00  0.42954619380E+00  0.51100000000E-03 0.  1.
    9000002    1    1    2    0    0  0.99166035727E+00  0.14959237458E+00  0.81046425281E+00  0.15945107236E+01  0.93800000000E+00 0. -1.
         22    1    1    2    0    0 -0.86522011301E+00 -0.13096358982E+00  0.27794436462E+01  0.29139430826E+01  0.00000000000E+00 0. -1.
</event>
<event>
 5    1  0.1160133E+000  0.1599508E+01  0.7818608E-02  0.3353898E+00
         11   -1    0    0    0    0  0.00000000000E+00  0.00000000000E+00  0.39999999674E+01  0.40000000000E+01  0.51100000000E-03 0.  1.
    9000002   -1    0    0    0    0 -0.00000000000E+00 -0.00000000000E+00  0.00000000000E+00  0.93800000000E+00  0.93800000000E+00 0. -1.
         11    1    1    2    0    0 -0.28965316309E+00  0.22845509721E+00  0.11692973909E+01  0.12261106540E+01  0.51100000000E-03 0.  1.
    9000002    1    1    2    0    0  0.79781304234E+00 -0.64895681548E+00  0.86580603729E+00  0.16392421094E+01  0.93800000000E+00 0. -1.
         22    1    1    2    0    0 -0.50815987925E+00  0.42050171827E+00  0.19648965391E+01  0.20726472366E+01  0.00000000000E+00 0.  1.
</event>
<event>
 5    1  0.1160133E+000  0.1599673E+01  0.7818608E-02  0.3353718E+00
         11   -1    0    0    0    0  0.00000000000E+00  0.00000000000E+00  0.39999999674E+01  0.40000000000E+01  0.51100000000E-03 0. -1.
    9000002   -1    0    0    0    0 -0.00000000000E+00 -0.00000000000E+00  0.00000000000E+00  0.93800000000E+00  0.93800000000E+00 0.  1.
         11    1    1    2    0    0  0.21243607186E+00  0.13740789134E+00  0.87030538493E+00  0.90633423050E+00  0.51100000000E-03 0. -1.
    9000002    1    1    2    0    0 -0.80519831544E+00 -0.51146723961E+00  0.71420108581E+00  0.15165323127E+01  0.93800000000E+00 0.  1.
         22    1    1    2    0    0  0.59276224358E+00  0.37405934826E+00  0.24154934966E+01  0.25151334568E+01  0.00000000000E+00 0. -1.
</event>
<event>
 5    1  0.1160133E+000  0.1599676E+01  0.7818608E-02  0.3353715E+00
         11   -1    0    0    0    0  0.00000000000E+00  0.00000000000E+00  0.39999999674E+01  0.40000000000E+01  0.51100000000E-03 0.  1.
    9000002   -1    0    0    0    0 -0.00000000000E+00 -0.00000000000E+00  0.00000000000E+00  0.93800000000E+00  0.93800000000E+00 0. -1.
         11    1    1    2    0    0  0.27086920755E+00  0.37769787645E+00  0.10930102395E+01  0.11877278553E+01  0.51100000000E-03 0.  1.
    9000002    1    1    2    0    0 -0.68022169912E+00 -0.95079095258E+00  0.12566641133E+01  0.19559533965E+01  0.93800000000E+00 0. -1.
         22    1    1    2    0    0  0.40935249157E+00  0.57309307613E+00  0.16503256146E+01  0.17943187483E+01  0.00000000000E+00 0.  1.
</event>
<event>
 5    1  0.1160133E+000  0.1599676E+01  0.7818608E-02  0.3353716E+00
         11   -1    0    0    0    0  0.00000000000E+00  0.00000000000E+00  0.39999999674E+01  0.40000000000E+01  0.51100000000E-03 0. -1.
    9000002   -1    0    0    0    0 -0.00000000000E+00 -0.00000000000E+00  0.00000000000E+00  0.93800000000E+00  0.93800000000E+00 0. -1.
         11    1    1    2    0    0 -0.41653702230E-01 -0.29045091251E+00  0.98521037199E+00  0.10279768975E+01  0.51100000000E-03 0. -1.
    9000002    1    1    2    0    0  0.13997739223E+00  0.95726672808E+00  0.73970309048E+00  0.15371915694E+01  0.93800000000E+00 0. -1.
         22    1    1    2    0    0 -0.98323690005E-01 -0.66681581557E+00  0.22750865049E+01  0.23728315331E+01  0.00000000000E+00 0. -1.
</event>
<event>
 5    1  0.1160133E+000  0.1599677E+01  0.7818608E-02  0.3353714E+00
         11   -1    0    0    0    0  0.00000000000E+00  0.00000000000E+00  0.39999999674E+01  0.40000000000E+01  0.51100000000E-03 0. -1.
    9000002   -1    0    0    0    0 -0.00000000000E+00 -0.00000000000E+00  0.00000000000E+00  0.93800000000E+00  0.93800000000E+00 0. -1.
         11    1    1    2    0    0  0.16611753459E+00  0.40151982670E+00  0.93957241081E+00  0.10351858687E+01  0.51100000000E-03 0. -1.
    9000002    1    1    2    0    0 -0.46054395898E+00 -0.11135297537E+01  0.13972240202E+01  0.20698135696E+01  0.93800000000E+00 0. -1.
         22    1    1    2    0    0  0.29442642440E+00  0.71200992701E+00  0.16632035364E+01  0.18330005616E+01  0.00000000000E+00 0. -1.
</event>
<event>
 5    1  0.1160133E+000  0.1599667E+01  0.7818608E-02  0.3353725E+00
         11   -1    0    0    0    0  0.00000000000E+00  0.00000000000E+00  0.39999999674E+01  0.40000000000E+01  0.51100000000E-03 0.  1.
    9000002   -1    0    0    0    0 -0.00000000000E+00 -0.00000000000E+00  0.00000000000E+00  0.93800000000E+00  0.93800000000E+00 0.  1.
         11    1    1    2    0    0  0.77568843790E-01 -0.35538344461E-01  0.30086366737E+00  0.31272848754E+00  0.51100000000E-03 0.  1.
    9000002    1    1    2    0    0 -0.87174639733E+00  0.38422321782E+00  0.71190552127E+00  0.15146691829E+01  0.93800000000E+00 0.  1.
         22    1    1    2    0    0  0.79417755354E+00 -0.34868487336E+00  0.29872307787E+01  0.31106023296E+01  0.00000000000E+00 0.  1.
</event>
<event>
 5    1  0.1160133E+000  0.1591590E+01  0.7818608E-02  0.3362542E+00
         11   -1    0    0    0    0  0.00000000000E+00  0.00000000000E+00  0.39999999674E+01  0.40000000000E+01  0.51100000000E-03 0. -1.
    9000002   -1    0    0    0    0 -0.00000000000E+00 -0.00000000000E+00  0.00000000000E+00  0.93800000000E+00  0.93800000000E+00 0.  1.
         11    1    1    2    0    0 -0.12957477967E+00 -0.30464418628E+00  0.10432477843E+01  0.10945153742E+01  0.51100000000E-03 0. -1.
    9000002    1    1    2    0    0  0.89841605484E-01  0.94779561722E+00  0.72481595170E+00  0.15203914660E+01  0.93800000000E+00 0.  1.
         22    1    1    2    0    0  0.39733174190E-01 -0.64315143094E+00  0.22319362313E+01  0.23230931598E+01  0.00000000000E+00 0.  1.
</event>
<event>
 5    1  0.1160133E+000  0.1467119E+01  0.7818608E-02  0.3511549E+00
         11   -1    0    0    0    0  0.00000000000E+00  0.00000000000E+00  0.39999999674E+01  0.40000000000E+01  0.51100000000E-03 0. -1.
    9000002   -1    0    0    0    0 -0.00000000000E+00 -0.00000000000E+00  0.00000000000E+00  0.93800000000E+00  0.93800000000E+00 0. -1.
         11    1    1    2    0    0  0.18896417421E+00 -0.51066634441E+00  0.42822501280E+00  0.69272252537E+00  0.51100000000E-03 0. -1.
    9000002    1    1    2    0    0  0.31220974215E+00  0.98033386652E+00  0.14289415274E+01  0.19950557139E+01  0.93800000000E+00 0. -1.
         22    1    1    2    0    0 -0.50117391635E+00 -0.46966752211E+00  0.21428334272E+01  0.22502217607E+01  0.00000000000E+00 0. -1.
</event>
<event>
 5    1  0.1160133E+000  0.1599642E+01  0.7818608E-02  0.3353752E+00
         11   -1    0    0    0    0  0.00000000000E+00  0.00000000000E+00  0.39999999674E+01  0.40000000000E+01  0.51100000000E-03 0.  1.
    9000002   -1    0    0    0    0 -0.00000000000E+00 -0.00000000000E+00  0.00000000000E+00  0.93800000000E+00  0.93800000000E+00 0.  1.
         11    1    1    2    0    0  0.11703268979E+00  0.17867634041E+00  0.74309033232E+00  0.77317875566E+00  0.51100000000E-03 0.  1.
    9000002    1    1    2    0    0 -0.50307496842E+00 -0.81193595350E+00  0.71657191429E+00  0.15184346297E+01  0.93800000000E+00 0.  1.
         22    1    1    2    0    0  0.38604227863E+00  0.63325961309E+00  0.25403377208E+01  0.26463866146E+01  0.00000000000E+00 0.  1.
</event>
<event>
 5    1  0.1160133E+000  0.1599676E+01  0.7818608E-02  0.3353715E+00
         11   -1    0    0    0    0  0.00000000000E+00  0.00000000000E+00  0.39999999674E+01  0.40000000000E+01  0.51100000000E-03 0.  1.
    9000002   -1    0    0    0    0 -0.00000000000E+00 -0.00000000000E+00  0.00000000000E+00  0.93800000000E+00  0.93800000000E+00 0. -1.
         11    1    1    2    0    0 -0.76957509335E-01  0.16733078629E+00  0.41142752960E+00  0.45077147593E+00  0.51100000000E-03 0.  1.
    9000002    1    1    2    0    0  0.50241954707E+00 -0.10790508494E+01  0.13363869072E+01  0.20205321335E+01  0.93800000000E+00 0.  1.
         22    1    1    2    0    0 -0.42546203773E+00  0.91172006310E+00  0.22521855306E+01  0.24666963906E+01  0.00000000000E+00 0.  1.
</event>
<event>
 5    1  0.1160133E+000  0.1599666E+01  0.7818608E-02  0.3353726E+00
         11   -1    0    0    0    0  0.00000000000E+00  0.00000000000E+00  0.39999999674E+01  0.40000000000E+01  0.51100000000E-03 0.  1.
    9000002   -1    0    0    0    0 -0.00000000000E+00 -0.00000000000E+00  0.00000000000E+00  0.93800000000E+00  0.93800000000E+00 0. -1.
         11    1    1    2    0    0  0.18096201954E+00 -0.36803701917E-01  0.56398233677E+00  0.59344595567E+00  0.51100000000E-03 0.  1.
    9000002    1    1    2    0    0 -0.10027165470E+01  0.22103000562E+00  0.86185114471E+00  0.16361314533E+01  0.93800000000E+00 0. -1.
         22    1    1    2    0    0  0.82175452744E+00 -0.18422630370E+00  0.25741664859E+01  0.27084225910E+01  0.00000000000E+00 0.  1.
</event>
<event>
 5    1  0.1160133E+000  0.1598621E+01  0.7818608E-02  0.3354861E+00
         11   -1    0    0    0    0  0.00000000000E+00  0.00000000000E+00  0.39999999674E+01  0.40000000000E+01  0.51100000000E-03 0.  1.
    9000002   -1    0    0    0    0 -0.00000000000E+00 -0.00000000000E+00  0.00000000000E+00  0.93800000000E+00  0.93800000000E+00 0.  1.
         11    1    1    2    0    0  0.23817973130E+00  0.25361918033E+00  0.13566840128E+01  0.14005870357E+01  0.51100000000E-03 0.  1.
    9000002    1    1    2    0    0 -0.67679609052E+00 -0.64367539372E+00  0.67985044389E+00  0.14880899122E+01  0.93800000000E+00 0.  1.
         22    1    1    2    0    0  0.43861635922E+00  0.39005621339E+00  0.19634655107E+01  0.20493230521E+01  0.00000000000E+00 0.  1.
</event>
<event>
 5    1  0.1160133E+000  0.1599677E+01  0.7818608E-02  0.3353714E+00
         11   -1    0    0    0    0  0.00000000000E+00  0.00000000000E+00  0.39999999674E+01  0.40000000000E+01  0.51100000000E-03 0. -1.
    9000002   -1    0    0    0    0 -0.00000000000E+00 -0.00000000000E+00  0.00000000000E+00  0.93800000000E+00  0.93800000000E+00 0.  1.
         11    1    1    2    0    0  0.96325984467E-01  0.23319640793E-02  0.29504210484E+00  0.31037757343E+00  0.51100000000E-03 0. -1.
    9000002    1    1    2    0    0 -0.10253432119E+01 -0.25866684473E-01  0.85935405925E+00  0.16341148022E+01  0.93800000000E+00 0. -1.
         22    1    1    2    0    0  0.92901722746E+00  0.23534720394E-01  0.28456038033E+01  0.29935076244E+01  0.00000000000E+00 0. -1.
</event>
<event>
 5    1  0.1160133E+000  0.1557604E+01  0.7818608E-02  0.3400704E+00
         11   -1    0    0    0    0  0.00000000000E+00  0.00000000000E+00  0.39999999674E+01  0.40000000000E+01  0.51100000000E-03 0. -1.
    9000002   -1    0    0    0    0 -0.00000000000E+00 -0.00000000000E+00  0.00000000000E+00  0.93800000000E+00  0.93800000000E+00 0.  1.
         11    1    1    2    0    0  0.12281972332E+00 -0.41935989208E+00  0.11265073456E+01  0.12082907201E+01  0.51100000000E-03 0. -1.
    9000002    1    1    2    0    0 -0.13797658269E+00 -0.46726000614E+00  0.44946416284E+00  0.11485780271E+01  0.93800000000E+00 0.  1.
         22    1    1    2    0    0  0.15156859368E-01  0.88661989822E+00  0.24240284589E+01  0.25811312528E+01  0.00000000000E+00 0. -1.
</event>
<event>
 5    1  0.1160133E+000  0.1599647E+01  0.7818608E-02  0.3353746E+00
         11   -1    0    0    0    0  0.00000000000E+00  0.00000000000E+00  0.39999999674E+01  0.40000000000E+01  0.51100000000E-03 0. -1.
    9000002   -1    0    0    0    0 -0.00000000000E+00 -0.00000000000E+00  0.00000000000E+00  0.93800000000E+00  0.93800000000E+00 0.  1.
         11    1    1    2    0    0 -0.12086969389E+00 -0.39854362145E-01  0.16186072114E+00  0.20590533566E+00  0.51100000000E-03 0. -1.
    9000002    1    1    2    0    0  0.12391164500E+01  0.36761723378E+00  0.23668533783E+01  0.28552392057E+01  0.93800000000E+00 0.  1.
         22    1    1    2    0    0 -0.11182467561E+01 -0.32776287164E+00  0.14712858679E+01  0.18768554586E+01  0.00000000000E+00 0. -1.
</event>
<event>
 5    1  0.1160133E+000  0.1599677E+01  0.7818608E-02  0.3353714E+00
         11   -1    0    0    0    0  0.00000000000E+00  0.00000000000E+00  0.39999999674E+01  0.40000000000E+01  0.51100000000E-03 0.  1.
    9000002   -1    0    0    0    0 -0.00000000000E+00 -0.00000000000E+00  0.00000000000E+00  0.93800000000E+00  0.93800000000E+00 0. -1.
         11    1    1    2    0    0 -0.96455077429E-01 -0.28807838873E+00  0.10954181747E+01  0.11367646980E+01  0.51100000000E-03 0.  1.
    9000002    1    1    2    0    0  0.29208404935E+00  0.87790735418E+00  0.66266857325E+00  0.14747908504E+01  0.93800000000E+00 0. -1.
         22    1    1    2    0    0 -0.19562897192E+00 -0.58982896545E+00  0.22419132194E+01  0.23264444516E+01  0.00000000000E+00 0. -1.
</event>
<event>
 5    1  0.1160133E+000  0.1599677E+01  0.7818608E-02  0.3353714E+00
         11   -1    0    0    0    0  0.00000000000E+00  0.00000000000E+00  0.39999999674E+01  0.40000000000E+01  0.51100000000E-03 0. -1.
    9000002   -1    0    0    0    0 -0.00000000000E+00 -0.00000000000E+00  0.00000000000E+00  0.93800000000E+00  0.93800000000E+00 0. -1.
         11    1    1    2    0    0  0.10847041025E-01  0.28150095810E+00  0.71008694597E+00  0.76392681565E+00  0.51100000000E-03 0.  1.
    9000002    1    1    2    0    0 -0.45543790621E-01 -0.11333469695E+01  0.11413537053E+01  0.18625471459E+01  0.93800000000E+00 0. -1.
         22    1    1    2    0    0  0.34696749596E-01  0.85184601143E+00  0.21485593161E+01  0.23115260384E+01  0.00000000000E+00 0. -1.
</event>
<event>
 5    1  0.1160133E+000  0.1595600E+01  0.7818608E-02  0.3358153E+00
         11   -1    0    0    0    0  0.00000000000E+00  0.00000000000E+00  0.39999999674E+01  0.40000000000E+01  0.51100000000E-03 0.  1.
    9000002   -1    0    0    0    0 -0.00000000000E+00 -0.00000000000E+00  0.00000000000E+00  0.93800000000E+00  0.93800000000E+00 0.  1.
         11    1    1    2    0    0 -0.81305280805E-01 -0.28715795648E+00  0.12224228694E+01  0.12583275303E+01  0.51100000000E-03 0.  1.
    9000002    1    1    2    0    0  0.43000597108E+00  0.76884125958E+00  0.59530926456E+00  0.14178360759E+01  0.93800000000E+00 0.  1.
         22    1    1    2    0    0 -0.34870069028E+00 -0.48168330310E+00  0.21822678334E+01  0.22618363938E+01  0.00000000000E+00 0.  1.
</event>
<event>
 5    1  0.1160133E+000  0.1599653E+01  0.7818608E-02  0.3353740E+00
         11   -1    0    0    0    0  0.00000000000E+00  0.00000000000E+00  0.39999999674E+01  0.40000000000E+01  0.51100000000E-03 0.  1.
    9000002   -1    0    0    0    0 -0.00000000000E+00 -0.00000000000E+00  0.00000000000E+00  0.93800000000E+00  0.93800000000E+00 0.  1.
         11    1    1    2    0    0 -0.11999131272E-01 -0.43130025328E-01  0.16963566773E+00  0.17544429065E+00  0.51100000000E-03 0.  1.
    9000002    1    1    2    0    0  0.20676228715E+00  0.89330278130E+00  0.64839831883E+00  0.14632173052E+01  0.93800000000E+00 0.  1.
         22    1    1    2    0    0 -0.19476315588E+00 -0.85017275598E+00  0.31819659808E+01  0.32993384041E+01  0.00000000000E+00 0.  1.
</event>
<event>
 5    1  0.1160133E+000  0.1599671E+01  0.7818608E-02  0.3353721E+00
         11   -1    0    0    0    0  0.00000000000E+00  0.00000000000E+00  0.39999999674E+01  0.40000000000E+01  0.51100000000E-03 0. -1.
    9000002   -1    0    0    0    0 -0.00000000000E+00 -0.00000000000E+00  0.00000000000E+00  0.93800000000E+00  0.93800000000E+00 0. -1.
         11    1    1    2    0    0 -0.35785989207E+00 -0.54848990037E+00  0.79967942692E+00  0.10336306498E+01  0.51100000000E-03 0. -1.
    9000002    1    1    2    0    0  0.70961989485E+00  0.10770329343E+01  0.24224885261E+01  0.29003198092E+01  0.93800000000E+00 0. -1.
         22    1    1    2    0    0 -0.35176000278E+00 -0.52854303393E+00  0.77783201433E+00  0.10040495410E+01  0.00000000000E+00 0. -1.
</event>
<event>
 5    1  0.1160133E+000  0.1594451E+01  0.7818608E-02  0.3359408E+00
         11   -1    0    0    0    0  0.00000000000E+00  0.00000000000E+00  0.39999999674E+01  0.40000000000E+01  0.51100000000E-03 0. -1.
    9000002   -1    0    0    0    0 -0.00000000000E+00 -0.00000000000E+00  0.00000000000E+00  0.93800000000E+00  0.93800000000E+00 0. -1.
         11    1    1    2    0    0  0.78005385254E-02 -0.27629710943E-02  0.57257841706E-01  0.57855025437E-01  0.51100000000E-03 0. -1.
    9000002    1    1    2    0    0  0.82560504882E+00  0.46743895383E+00  0.71367100767E+00  0.15130410369E+01  0.93800000000E+00 0. -1.
         22    1    1    2    0    0 -0.83340558734E+00 -0.46467598274E+00  0.32290711180E+01  0.33671039377E+01  0.00000000000E+00 0. -1.
</event>
<event>
 5    1  0.1160133E+000  0.1593174E+01  0.7818608E-02  0.3360805E+00
         11   -1    0    0    0    0  0.00000000000E+00  0.00000000000E+00  0.39999999674E+01  0.40000000000E+01  0.51100000000E-03 0. -1.
    9000002   -1    0    0    0    0 -0.00000000000E+00 -0.00000000000E+00  0.00000000000E+00  0.93800000000E+00  0.93800000000E+00 0. -1.
         11    1    1    2    0    0  0.31317340522E+00 -0.30565189193E+00  0.10375956113E+01  0.11261019379E+01  0.51100000000E-03 0. -1.
    9000002    1    1    2    0    0 -0.90835035834E+00  0.60426046626E+00  0.10340644522E+01  0.17718251539E+01  0.93800000000E+00 0. -1.
         22    1    1    2    0    0  0.59517695313E+00 -0.29860857433E+00  0.19283399038E+01  0.20400729082E+01  0.00000000000E+00 0.  1.
</event>
<event>
 5    1  0.1160133E+000  0.1582684E+01  0.7818608E-02  0.3372375E+00
         11   -1    0    0    0    0  0.00000000000E+00  0.00000000000E+00  0.39999999674E+01  0.40000000000E+01  0.51100000000E-03 0. -1.
    9000002   -1    0    0    0    0 -0.00000000000E+00 -0.00000000000E+00  0.00000000000E+00  0.93800000000E+00  0.93800000000E+00 0. -1.
         11    1    1    2    0    0  0.40555416690E-01  0.10640706676E+00  0.74611668390E+00  0.75475663150E+00  0.51100000000E-03 0. -1.
    9000002    1    1    2    0    0  0.17257218544E+00 -0.93599856744E+00  0.74015888056E+00  0.15275973442E+01  0.93800000000E+00 0. -1.
         22    1    1    2    0    0 -0.21312760213E+00  0.82959150069E+00  0.25137244029E+01  0.26556460243E+01  0.00000000000E+00 0. -1.
</event>
<event>
 5    1  0.1160133E+000  0.1599677E+01  0.7818608E-02  0.3353714E+00
         11   -1    0    0    0    0  0.00000000000E+00  0.00000000000E+00  0.39999999674E+01  0.40000000000E+01  0.51100000000E-03 0.  1.
    9000002   -1    0    0    0    0 -0.00000000000E+00 -0.00000000000E+00  0.00000000000E+00  0.93800000000E+00  0.93800000000E+00 0. -1.
         11    1    1    2    0    0  0.27232051280E+00 -0.23755570063E+00  0.71413399933E+00  0.80036166994E+00  0.51100000000E-03 0. -1.
    9000002    1    1    2    0    0 -0.93188689103E+00  0.81392567044E+00  0.15532862235E+01  0.21962309230E+01  0.93800000000E+00 0. -1.
         22    1    1    2    0    0  0.65956637823E+00 -0.57636996981E+00  0.17325797445E+01  0.19414074071E+01  0.00000000000E+00 0.  1.
</event>
<event>
 5    1  0.1160133E+000  0.1599617E+01  0.7818608E-02  0.3353779E+00
         11   -1    0    0    0    0  0.00000000000E+00  0.00000000000E+00  0.39999999674E+01  0.40000000000E+01  0.51100000000E-03 0. -1.
    9000002   -1    0    0    0    0 -0.00000000000E+00 -0.00000000000E+00  0.00000000000E+00  0.93800000000E+00  0.93800000000E+00 0. -1.
         11    1    1    2    0    0 -0.21764350287E+00  0.43970203132E+00  0.12752081469E+01  0.13663318227E+01  0.51100000000E-03 0. -1.
    9000002    1    1    2    0    0  0.48125520380E+00 -0.10146400637E+01  0.11074322012E+01  0.18350343621E+01  0.93800000000E+00 0. -1.
         22    1    1    2    0    0 -0.26361170093E+00  0.57493803235E+00  0.16173596193E+01  0.17366338152E+01  0.00000000000E+00 0.  1.
</event>
<event>
 5    1  0.1160133E+000  0.1599673E+01  0.7818608E-02  0.3353719E+00
         11   -1    0    0    0    0  0.00000000000E+00  0.00000000000E+00  0.39999999674E+01  0.40000000000E+01  0.51100000000E-03 0. -1.
    9000002   -1    0    0    0    0 -0.00000000000E+00 -0.00000000000E+00  0.00000000000E+00  0.93800000000E+00  0.93800000000E+00 0. -1.
         11    1    1    2    0    0  0.43858251372E-04 -0.27974303201E+00  0.85758398775E+00  0.90205694002E+00  0.51100000000E-03 0. -1.
    9000002    1    1    2    0    0 -0.78012757215E-02  0.10269147511E+01  0.86218341754E+00  0.16364042934E+01  0.93800000000E+00 0. -1.
         22    1    1    2    0    0  0.77574174701E-02 -0.74717171907E+00  0.22802325621E+01  0.23995387666E+01  0.00000000000E+00 0.  1.
</event>
<event>
 5    1  0.1160133E+000  0.1599612E+01  0.7818608E-02  0.3353784E+00
         11   -1    0    0    0    0  0.00000000000E+00  0.00000000000E+00  0.39999999674E+01  0.40000000000E+01  0.51100000000E-03 0. -1.
    9000002   -1    0    0    0    0 -0.00000000000E+00 -0.00000000000E+00  0.00000000000E+00  0.93800000000E+00  0.93800000000E+00 0.  1.
         11    1    1    2    0    0  0.12339900341E+00  0.26542373861E+00  0.10613948821E+01  0.11010160907E+01  0.51100000000E-03 0. -1.
    9000002    1    1    2    0    0 -0.41309932077E+00 -0.83928254873E+00  0.68074879149E+00  0.14893989266E+01  0.93800000000E+00 0.  1.
         22    1    1    2    0    0  0.28970031735E+00  0.57385881012E+00  0.22578562938E+01  0.23475849827E+01  0.00000000000E+00 0. -1.
</event>
<event>
 5    1  0.1160133E+000  0.1527041E+01  0.7818608E-02  0.3436567E+00
         11   -1    0    0    0    0  0.00000000000E+00  0.00000000000E+00  0.39999999674E+01  0.40000000000E+01  0.51100000000E-03 0. -1.
    9000002   -1    0    0    0    0 -0.00000000000E+00 -0.00000000000E+00  0.00000000000E+00  0.93800000000E+00  0.93800000000E+00 0.  1.
         11    1    1    2    0    0 -0.36921063478E+00  0.33391207355E-01  0.10211369732E+01  0.10863482152E+01  0.51100000000E-03 0. -1.
    9000002    1    1    2    0    0 -0.50558519250E+00  0.22326588769E+00  0.47656915482E+00  0.11884553853E+01  0.93800000000E+00 0.  1.
         22    1    1    2    0    0  0.87479582728E+00 -0.25665709505E+00  0.25022938394E+01  0.26631963995E+01  0.00000000000E+00 0. -1.
</event>
<event>
 5    1  0.1160133E+000  0.1599642E+01  0.7818608E-02  0.3353752E+00
         11   -1    0    0    0    0  0.00000000000E+00  0.00000000000E+00  0.39999999674E+01  0.40000000000E+01  0.51100000000E-03 0. -1.
    9000002   -1    0    0    0    0 -0.00000000000E+00 -0.00000000000E+00  0.00000000000E+00  0.93800000000E+00  0.93800000000E+00 0. -1.
         11    1    1    2    0    0 -0.37247866448E-01  0.16420993988E+00  0.41263267693E+00  0.44566612514E+00  0.51100000000E-03 0. -1.
    9000002    1    1    2    0    0  0.22108965662E+00 -0.11221904932E+01  0.11713321860E+01  0.18868108621E+01  0.93800000000E+00 0. -1.
         22    1    1    2    0    0 -0.18384179017E+00  0.95798055330E+00  0.24160351044E+01  0.26055230128E+01  0.00000000000E+00 0. -1.
</event>
<event>
 5    1  0.1160133E+000  0.1592148E+01  0.7818608E-02  0.3361930E+00
         11   -1    0    0    0    0  0.00000000000E+00  0.00000000000E+00  0.39999999674E+01  0.40000000000E+01  0.51100000000E-03 0.  1.
    9000002   -1    0    0    0    0 -0.00000000000E+00 -0.00000000000E+00  0.00000000000E+00  0.93800000000E+00  0.93800000000E+00 0.  1.
         11    1    1    2    0    0  0.30943182086E+00  0.40453327680E+00  0.92931907692E+00  0.10597308298E+01  0.51100000000E-03 0.  1.
    9000002    1    1    2    0    0 -0.59583339542E+00 -0.10318970499E+01  0.13722995512E+01  0.20452087950E+01  0.93800000000E+00 0.  1.
         22    1    1    2    0    0  0.28640157455E+00  0.62736377314E+00  0.16983813392E+01  0.18330603752E+01  0.00000000000E+00 0. -1.
</event>
<event>
 5    1  0.1160133E+000  0.1451951E+01  0.7818608E-02  0.3531593E+00
         11   -1    0    0    0    0  0.00000000000E+00  0.00000000000E+00  0.39999999674E+01  0.40000000000E+01  0.51100000000E-03 0.  1.
    9000002   -1    0    0    0    0 -0.00000000000E+00 -0.00000000000E+00  0.00000000000E+00  0.93800000000E+00  0.93800000000E+00 0.  1.
         11    1    1    2    0    0 -0.16422568094E+00  0.15569831055E+00  0.34802548291E+00  0.41513134797E+00  0.51100000000E-03 0.  1.
    9000002    1    1    2    0    0 -0.33574471767E+00  0.54563347044E+00  0.47501851949E+00  0.12312298702E+01  0.93800000000E+00 0.  1.
         22    1    1    2    0    0  0.49997039861E+00 -0.70133178099E+00  0.31769559650E+01  0.32916387818E+01  0.00000000000E+00 0.  1.
</event>
<event>
 5    1  0.1160133E+000  0.1596814E+01  0.7818608E-02  0.3356829E+00
         11   -1    0    0    0    0  0.00000000000E+00  0.00000000000E+00  0.39999999674E+01  0.40000000000E+01  0.51100000000E-03 0.  1.
    9000002   -1    0    0    0    0 -0.00000000000E+00 -0.00000000000E+00  0.00000000000E+00  0.93800000000E+00  0.93800000000E+00 0. -1.
         11    1    1    2    0    0  0.28529766317E+00  0.78428591692E-02  0.68732998617E+00  0.74423050062E+00  0.51100000000E-03 0.  1.
    9000002    1    1    2    0    0 -0.11731887060E+01  0.18040031885E+00  0.13345797532E+01  0.20173901786E+01  0.93800000000E+00 0. -1.
         22    1    1    2    0    0  0.88789104283E+00 -0.18824317802E+00  0.19780902280E+01  0.21763793208E+01  0.00000000000E+00 0.  1.
</event>
<event>
 5    1  0.1160133E+000  0.1599657E+01  0.7818608E-02  0.3353736E+00
         11   -1    0    0    0    0  0.00000000000E+00  0.00000000000E+00  0.39999999674E+01  0.40000000000E+01  0.51100000000E-03 0. -1.
    9000002   -1    0    0    0    0 -0.00000000000E+00 -0.00000000000E+00  0.00000000000E+00  0.93800000000E+00  0.93800000000E+00 0. -1.
         11    1    1    2    0    0 -0.29795963296E+00 -0.19829335921E+00  0.78002421168E+00  0.85821805569E+00  0.51100000000E-03 0. -1.
    9000002    1    1    2    0    0  0.98972468526E+00  0.67763007199E+00  0.13738263579E+01  0.20508486850E+01  0.93800000000E+00 0. -1.
         22    1    1    2    0    0 -0.69176505230E+00 -0.47933671279E+00  0.18461493978E+01  0.20289332593E+01  0.00000000000E+00 0. -1.
</event>
<event>
 5    1  0.1160133E+000  0.1599564E+01  0.7818608E-02  0.3353837E+00
         11   -1    0    0    0    0  0.00000000000E+00  0.00000000000E+00  0.39999999674E+01  0.40000000000E+01  0.51100000000E-03 0.  1.
    9000002   -1    0    0    0    0 -0.00000000000E+00 -0.00000000000E+00  0.00000000000E+00  0.93800000000E+00  0.93800000000E+00 0.  1.
         11    1    1    2    0    0 -0.61227660267E-01  0.11552294429E+00  0.44492646245E+00  0.46373936123E+00  0.51100000000E-03 0.  1.
    9000002    1    1    2    0    0  0.38923264831E+00 -0.86219441576E+00  0.69981349665E+00  0.15048136746E+01  0.93800000000E+00 0.  1.
         22    1    1    2    0    0 -0.32800498804E+00  0.74667147146E+00  0.28552600083E+01  0.29694469642E+01  0.00000000000E+00 0.  1.
</event>
<event>
 5    1  0.1160133E+000  0.1538170E+01  0.7818608E-02  0.3423333E+00
         11   -1    0    0    0    0  0.00000000000E+00  0.00000000000E+00  0.39999999674E+01  0.40000000000E+01  0.51100000000E-03 0.  1.
    9000002   -1    0    0    0    0 -0.00000000000E+00 -0.00000000000E+00  0.00000000000E+00  0.93800000000E+00  0.93800000000E+00 0.  1.
         11    1    1    2    0    0  0.83769634737E-02 -0.41494637564E+00  0.24494477579E+00  0.48192206058E+00  0.51100000000E-03 0.  1.
    9000002    1    1    2    0    0 -0.60154029179E+00  0.10493711570E+01  0.23840791496E+01  0.28331445320E+01  0.93800000000E+00 0.  1.
         22    1    1    2    0    0  0.59316332832E+00 -0.63442478132E+00  0.13709760419E+01  0.16229334074E+01  0.00000000000E+00 0.  1.
</event>
<event>
 5    1  0.1160133E+000  0.1541134E+01  0.7818608E-02  0.3419842E+00
         11   -1    0    0    0    0  0.00000000000E+00  0.00000000000E+00  0.39999999674E+01  0.40000000000E+01  0.51100000000E-03 0. -1.
    9000002   -1    0    0    0    0 -0.00000000000E+00 -0.00000000000E+00  0.00000000000E+00  0.93800000000E+00  0.93800000000E+00 0. -1.
         11    1    1    2    0    0 -0.18898856086E+00  0.25216209878E+00  0.33616098201E+00  0.46076769325E+00  0.51100000000E-03 0. -1.
    9000002    1    1    2    0    0  0.91448463913E+00 -0.52411243462E+00  0.10718323068E+01  0.17719041998E+01  0.93800000000E+00 0. -1.
         22    1    1    2    0    0 -0.72549607827E+00  0.27195033584E+00  0.25920066785E+01  0.27053281069E+01  0.00000000000E+00 0.  1.
</event>
<event>
 5    1  0.1160133E+000  0.1599676E+01  0.7818608E-02  0.3353715E+00
         11   -1    0    0    0    0  0.00000000000E+00  0.00000000000E+00  0.39999999674E+01  0.40000000000E+01  0.51100000000E-03 0.  1.
    9000002   -1    0    0    0    0 -0.00000000000E+00 -0.00000000000E+00  0.00000000000E+00  0.93800000000E+00  0.93800000000E+00 0.  1.
         11    1    1    2    0    0 -0.46979204236E-01 -0.52901843885E-02  0.15629676742E+00  0.16329106622E+00  0.51100000000E-03 0. -1.
    9000002    1    1    2    0    0  0.97564128431E+00  0.11170301350E+00  0.76806766820E+00  0.15601683953E+01  0.93800000000E+00 0.  1.
         22    1    1    2    0    0 -0.92866208007E+00 -0.10641282911E+00  0.30756355317E+01  0.32145405384E+01  0.00000000000E+00 0.  1.
</event>
<event>
 5    1  0.1160133E+000  0.1595679E+01  0.7818608E-02  0.3358067E+00
         11   -1    0    0    0    0  0.00000000000E+00  0.00000000000E+00  0.39999999674E+01  0.40000000000E+01  0.51100000000E-03 0. -1.
    9000002   -1    0    0    0    0 -0.00000000000E+00 -0.00000000000E+00  0.00000000000E+00  0.93800000000E+00  0.93800000000E+00 0.  1.
         11    1    1    2    0    0  0.58129371624E+00 -0.27628167695E+00  0.96275538590E+00  0.11580725987E+01  0.51100000000E-03 0. -1.
    9000002    1    1    2    0    0 -0.11512638366E+01  0.53447235321E+00  0.18034051293E+01  0.23964939345E+01  0.93800000000E+00 0.  1.
         22    1    1    2    0    0  0.56997012036E+00 -0.25819067625E+00  0.12338394522E+01  0.13834334669E+01  0.00000000000E+00 0. -1.
</event>
<event>
 5    1  0.1160133E+000  0.1582665E+01  0.7818608E-02  0.3372396E+00
         11   -1    0    0    0    0  0.00000000000E+00  0.00000000000E+00  0.39999999674E+01  0.40000000000E+01  0.51100000000E-03 0. -1.
    9000002   -1    0    0    0    0 -0.00000000000E+00 -0.00000000000E+00  0.00000000000E+00  0.93800000000E+00  0.93800000000E+00 0.  1.
         11    1    1    2    0    0  0.25770301915E-01  0.28070435996E-01  0.24872472390E+00  0.25162731815E+00  0.51100000000E-03 0. -1.
    9000002    1    1    2    0    0  0.76972865139E+00 -0.36154993010E+00  0.56688952571E+00  0.13872304362E+01  0.93800000000E+00 0.  1.
         22    1    1    2    0    0 -0.79549895331E+00  0.33347949411E+00  0.31843857177E+01  0.32991422457E+01  0.00000000000E+00 0. -1.
</event>
<event>
 5    1  0.1160133E+000  0.1576554E+01  0.7818608E-02  0.3379210E+00
         11   -1    0    0    0    0  0.00000000000E+00  0.00000000000E+00  0.39999999674E+01  0.40000000000E+01  0.51100000000E-03 0.  1.
    9000002   -1    0    0    0    0 -0.00000000000E+00 -0.00000000000E+00  0.00000000000E+00  0.93800000000E+00  0.93800000000E+00 0.  1.
         11    1    1    2    0    0 -0.26010977908E-01  0.49089518404E-01  0.52622231000E+00  0.52914698568E+00  0.51100000000E-03 0.  1.
    9000002    1    1    2    0    0 -0.37029989480E+00 -0.93569672307E+00  0.86463611047E+00  0.16248353680E+01  0.93800000000E+00 0.  1.
         22    1    1    2    0    0  0.39631087271E+00  0.88660720466E+00  0.26091415469E+01  0.27840176463E+01  0.00000000000E+00 0.  1.
</event>
<event>
 5    1  0.1160133E+000  0.1585289E+01  0.7818608E-02  0.3369487E+00
         11   -1    0    0    0    0  0.00000000000E+00  0.00000000000E+00  0.39999999674E+01  0.40000000000E+01  0.51100000000E-03 0. -1.
    9000002   -1    0    0    0    0 -0.00000000000E+00 -0.00000000000E+00  0.00000000000E+00  0.93800000000E+00  0.93800000000E+00 0.  1.
         11    1    1    2    0    0  0.95196007440E-01 -0.11438222370E+00  0.91687606072E+00  0.92887434284E+00  0.51100000000E-03 0. -1.
    9000002    1    1    2    0    0 -0.79810266527E+00  0.52162193255E+00  0.73866854880E+00  0.15279177104E+01  0.93800000000E+00 0.  1.
         22    1    1    2    0    0  0.70290665783E+00 -0.40723970886E+00  0.23444553578E+01  0.24812079467E+01  0.00000000000E+00 0. -1.
</event>
<event>
 5    1  0.1160133E+000  0.1599617E+01  0.7818608E-02  0.3353779E+00
         11   -1    0    0    0    0  0.00000000000E+00  0.00000000000E+00  0.39999999674E+01  0.40000000000E+01  0.51100000000E-03 0.  1.
    9000002   -1    0    0    0    0 -0.00000000000E+00 -0.00000000000E+00  0.00000000000E+00  0.93800000000E+00  0.93800000000E+00 0.  1.
         11    1    1    2    0    0 -0.79481742708E-01 -0.43555055053E+00  0.12944850045E+01  0.13681057406E+01  0.51100000000E-03 0.  1.
    9000002    1    1    2    0    0  0.20643757713E+00  0.10410854895E+01  0.94221960549E+00  0.17012046481E+01  0.93800000000E+00 0.  1.
         22    1    1    2    0    0 -0.12695583442E+00 -0.60553493893E+00  0.17632953574E+01  0.18686896113E+01  0.00000000000E+00 0. -1.
</event>
<event>
 5    1  0.1160133E+000  0.1599666E+01  0.7818608E-02  0.3353725E+00
         11   -1    0    0    0    0  0.00000000000E+00  0.00000000000E+00  0.39999999674E+01  0.40000000000E+01  0.51100000000E-03 0.  1.
    9000002   -1    0    0    0    0 -0.00000000000E+00 -0.00000000000E+00  0.00000000000E+00  0.93800000000E+00  0.93800000000E+00 0.  1.
         11    1    1    2    0    0 -0.36684319517E+00 -0.11447689763E+00  0.11386748472E+01  0.12017735056E+01  0.51100000000E-03 0.  1.
    9000002    1    1    2    0    0  0.10039934967E+01  0.31039645667E+00  0.91697499194E+00  0.16807843519E+01  0.93800000000E+00 0.  1.
         22    1    1    2    0    0 -0.63715030149E+00 -0.19591955904E+00  0.19443501282E+01  0.20554421425E+01  0.00000000000E+00 0.  1.
</event>
<event>
 5    1  0.1160133E+000  0.1599662E+01  0.7818608E-02  0.3353730E+00
         11   -1    0    0    0    0  0.00000000000E+00  0.00000000000E+00  0.39999999674E+01  0.40000000000E+01  0.51100000000E-03 0.  1.
    9000002   -1    0    0    0    0 -0.00000000000E+00 -0.00000000000E+00  0.00000000000E+00  0.93800000000E+00  0.93800000000E+00 0. -1.
         11    1    1    2    0    0 -0.16357852801E+00  0.36754239014E+00  0.13629158996E+01  0.14210507921E+01  0.51100000000E-03 0.  1.
    9000002    1    1    2    0    0  0.38966847728E+00 -0.87386561718E+00  0.71961590072E+00  0.15209121223E+01  0.93800000000E+00 0. -1.
         22    1    1    2    0    0 -0.22608994927E+00  0.50632322704E+00  0.19174681671E+01  0.19960370856E+01  0.00000000000E+00 0. -1.
</event>
<event>
 5    1  0.1160133E+000  0.1597996E+01  0.7818608E-02  0.3355541E+00
         11   -1    0    0    0    0  0.00000000000E+00  0.00000000000E+00  0.39999999674E+01  0.40000000000E+01  0.51100000000E-03 0.  1.
    9000002   -1    0    0    0    0 -0.00000000000E+00 -0.00000000000E+00  0.00000000000E+00  0.93800000000E+00  0.93800000000E+00 0. -1.
         11    1    1    2    0    0  0.27420834187E+00  0.46413350571E-01  0.48169332930E+00  0.55621321314E+00  0.51100000000E-03 0.  1.
    9000002    1    1    2    0    0 -0.12625123507E+01 -0.29894153359E-01  0.17284792210E+01  0.23371597107E+01  0.93800000000E+00 0. -1.
         22    1    1    2    0    0  0.98830400879E+00 -0.16519197212E-01  0.17898274170E+01  0.20446270761E+01  0.00000000000E+00 0. -1.
</event>
<event>
 5    1  0.1160133E+000  0.1599624E+01  0.7818608E-02  0.3353772E+00
         11   -1    0    0    0    0  0.00000000000E+00  0.00000000000E+00  0.39999999674E+01  0.40000000000E+01  0.51100000000E-03 0.  1.
    9000002   -1    0    0    0    0 -0.00000000000E+00 -0.00000000000E+00  0.00000000000E+00  0.93800000000E+00  0.93800000000E+00 0.  1.
         11    1    1    2    0    0  0.21208223935E+00  0.18032266090E-01  0.81115751110E+00  0.83861839224E+00  0.51100000000E-03 0.  1.
    9000002    1    1    2    0    0 -0.89745758569E+00 -0.10268083834E+00  0.62554554859E+00  0.14446884460E+01  0.93800000000E+00 0.  1.
         22    1    1    2    0    0  0.68537534634E+00  0.84648572247E-01  0.25632969077E+01  0.26546931617E+01  0.00000000000E+00 0.  1.
</event>
<event>
 5    1  0.1160133E+000  0.1599676E+01  0.7818608E-02  0.3353715E+00
         11   -1    0    0    0    0  0.00000000000E+00  0.00000000000E+00  0.39999999674E+01  0.40000000000E+01  0.51100000000E-03 0.  1.
    9000002   -1    0    0    0    0 -0.00000000000E+00 -0.00000000000E+00  0.00000000000E+00  0.93800000000E+00  0.93800000000E+00 0. -1.
         11    1    1    2    0    0  0.28950453012E+00 -0.21470363395E+00  0.11915148613E+01  0.12448367159E+01  0.51100000000E-03 0.  1.
    9000002    1    1    2    0    0 -0.78533474539E+00  0.58124439811E+00  0.75825988164E+00  0.15522234893E+01  0.93800000000E+00 0. -1.
         22    1    1    2    0    0  0.49583021527E+00 -0.36654076416E+00  0.20502252244E+01  0.21409397948E+01  0.00000000000E+00 0.  1.
</event>
<event>
 5    1  0.1160133E+000  0.1599676E+01  0.7818608E-02  0.3353715E+00
         11   -1    0    0    0    0  0.00000000000E+00  0.00000000000E+00  0.39999999674E+01  0.40000000000E+01  0.51100000000E-03 0.  1.
    9000002   -1    0    0    0    0 -0.00000000000E+00 -0.00000000000E+00  0.00000000000E+00  0.93800000000E+00  0.93800000000E+00 0. -1.
         11    1    1    2    0    0 -0.13628996646E+00 -0.32342542409E-01  0.45615366863E+00  0.47717651402E+00  0.51100000000E-03 0.  1.
    9000002    1    1    2    0    0  0.95980179104E+00  0.22412412305E+00  0.77524438283E+00  0.15659817859E+01  0.93800000000E+00 0. -1.
         22    1    1    2    0    0 -0.82351182457E+00 -0.19178158064E+00  0.27686019159E+01  0.28948417001E+01  0.00000000000E+00 0.  1.
</event>
<event>
 5    1  0.1160133E+000  0.1599670E+01  0.7818608E-02  0.3353722E+00
         11   -1    0    0    0    0  0.00000000000E+00  0.00000000000E+00  0.39999999674E+01  0.40000000000E+01  0.51100000000E-03 0. -1.
    9000002   -1    0    0    0    0 -0.00000000000E+00 -0.00000000000E+00  0.00000000000E+00  0.93800000000E+00  0.93800000000E+00 0. -1.
         11    1    1    2    0    0 -0.81955619036E-01  0.44823279613E-01  0.33028898437E+00  0.34324470018E+00  0.51100000000E-03 0. -1.
    9000002    1    1    2    0    0  0.81326883971E+00 -0.46589745363E+00  0.68390903391E+00  0.14919926976E+01  0.93800000000E+00 0. -1.
         22    1    1    2    0    0 -0.73131322068E+00  0.42107417402E+00  0.29858019491E+01  0.31027626022E+01  0.00000000000E+00 0. -1.
</event>
<event>
 5    1  0.1160133E+000  0.1597384E+01  0.7818608E-02  0.3356208E+00
         11   -1    0    0    0    0  0.00000000000E+00  0.00000000000E+00  0.39999999674E+01  0.40000000000E+01  0.51100000000E-03 0. -1.
    9000002   -1    0    0    0    0 -0.00000000000E+00 -0.00000000000E+00  0.00000000000E+00  0.93800000000E+00  0.93800000000E+00 0. -1.
         11    1    1    2    0    0 -0.12193599357E+00  0.32250747011E+00  0.10852444564E+01  0.11386989269E+01  0.51100000000E-03 0. -1.
    9000002    1    1    2    0    0  0.20066857242E+00 -0.95870043045E+00  0.76727285295E+00  0.15581803561E+01  0.93800000000E+00 0. -1.
         22    1    1    2    0    0 -0.78732578850E-01  0.63619296034E+00  0.21474826580E+01  0.22411207170E+01  0.00000000000E+00 0.  1.
</event>
<event>
 5    1  0.1160133E+000  0.1599184E+01  0.7818608E-02  0.3354250E+00
         11   -1    0    0    0    0  0.00000000000E+00  0.00000000000E+00  0.39999999674E+01  0.40000000000E+01  0.51100000000E-03 0. -1.
    9000002   -1    0    0    0    0 -0.00000000000E+00 -0.00000000000E+00  0.00000000000E+00  0.93800000000E+00  0.93800000000E+00 0.  1.
         11    1    1    2    0    0  0.44003045392E-01 -0.16947862622E-01  0.12460931846E+00  0.13323378483E+00  0.51100000000E-03 0. -1.
    9000002    1    1    2    0    0 -0.89814086666E+00  0.33257840630E+00  0.72219092343E+00  0.15227176832E+01  0.93800000000E+00 0.  1.
         22    1    1    2    0    0  0.85413782127E+00 -0.31563054368E+00  0.31531997255E+01  0.32820485320E+01  0.00000000000E+00 0. -1.
</event>
<event>
 5    1  0.1160133E+000  0.1599562E+01  0.7818608E-02  0.3353839E+00
         11   -1    0    0    0    0  0.00000000000E+00  0.00000000000E+00  0.39999999674E+01  0.40000000000E+01  0.51100000000E-03 0.  1.
    9000002   -1    0    0    0    0 -0.00000000000E+00 -0.00000000000E+00  0.00000000000E+00  0.93800000000E+00  0.93800000000E+00 0. -1.
         11    1    1    2    0    0 -0.87905110417E-02 -0.26752969337E-01  0.80188727333E-01  0.84991102858E-01  0.51100000000E-03 0.  1.
    9000002    1    1    2    0    0  0.22812294118E+00  0.10960349767E+01  0.10973875881E+01  0.18268651469E+01  0.93800000000E+00 0. -1.
         22    1    1    2    0    0 -0.21933243014E+00 -0.10692820074E+01  0.28224236519E+01  0.30261437502E+01  0.00000000000E+00 0.  1.
</event>
<event>
 5    1  0.1160133E+000  0.1533540E+01  0.7818608E-02  0.3428814E+00
         11   -1    0    0    0    0  0.00000000000E+00  0.00000000000E+00  0.39999999674E+01  0.40000000000E+01  0.51100000000E-03 0. -1.
    9000002   -1    0    0    0    0 -0.00000000000E+00 -0.00000000000E+00  0.00000000000E+00  0.93800000000E+00  0.93800000000E+00 0. -1.
         11    1    1    2    0    0 -0.20203203577E+00 -0.60547658449E-01  0.10756986169E+01  0.10961800664E+01  0.51100000000E-03 0. -1.
    9000002    1    1    2    0    0  0.10896913080E+01 -0.34142362545E+00  0.14197122915E+01  0.20492496747E+01  0.93800000000E+00 0. -1.
         22    1    1    2    0    0 -0.88765927223E+00  0.40197128390E+00  0.15045890589E+01  0.17925702589E+01  0.00000000000E+00 0.  1.
</event>
<event>
 5    1  0.1160133E+000  0.1599677E+01  0.7818608E-02  0.3353715E+00
         11   -1    0    0    0    0  0.00000000000E+00  0.00000000000E+00  0.39999999674E+01  0.40000000000E+01  0.51100000000E-03 0. -1.
    9000002   -1    0    0    0    0 -0.00000000000E+00 -0.00000000000E+00  0.00000000000E+00  0.93800000000E+00  0.93800000000E+00 0.  1.
         11    1    1    2    0    0  0.53781506991E+00 -0.13749774699E+00  0.13752727628E+01  0.14830799416E+01  0.51100000000E-03 0. -1.
    9000002    1    1    2    0    0 -0.11080075751E+01  0.28365086716E+00  0.11711513106E+01  0.18866843915E+01  0.93800000000E+00 0.  1.
         22    1    1    2    0    0  0.57019250519E+00 -0.14615312018E+00  0.14535758939E+01  0.15682356669E+01  0.00000000000E+00 0. -1.
</event>
<event>
 5    1  0.1160133E+000  0.1599677E+01  0.7818608E-02  0.3353714E+00
         11   -1    0    0    0    0  0.00000000000E+00  0.00000000000E+00  0.39999999674E+01  0.40000000000E+01  0.51100000000E-03 0. -1.
    9000002   -1    0    0    0    0 -0.00000000000E+00 -0.00000000000E+00  0.00000000000E+00  0.93800000000E+00  0.93800000000E+00 0. -1.
         11    1    1    2    0    0  0.15216574107E+00  0.11334919240E+00  0.58057064722E+00  0.61079046301E+00  0.51100000000E-03 0. -1.
    9000002    1    1    2    0    0 -0.82285384372E+00 -0.61136131140E+00  0.85811972690E+00  0.16331149889E+01  0.93800000000E+00 0. -1.
         22    1    1    2    0    0  0.67068810265E+00  0.49801211900E+00  0.25613095932E+01  0.26940945481E+01  0.00000000000E+00 0. -1.
</event>
<event>
 5    1  0.1160133E+000  0.1599674E+01  0.7818608E-02  0.3353717E+00
         11   -1    0    0    0    0  0.00000000000E+00  0.00000000000E+00  0.39999999674E+01  0.40000000000E+01  0.51100000000E-03 0.  1.
    9000002   -1    0    0    0    0 -0.00000000000E+00 -0.00000000000E+00  0.00000000000E+00  0.93800000000E+00  0.93800000000E+00 0.  1.
         11    1    1    2    0    0  0.41873437793E+00 -0.31364256190E+00  0.11930447580E+01  0.13027149310E+01  0.51100000000E-03 0.  1.
    9000002    1    1    2    0    0 -0.94790044014E+00  0.70488651866E+00  0.13014704889E+01  0.19922473948E+01  0.93800000000E+00 0.  1.
         22    1    1    2    0    0  0.52916606221E+00 -0.39124395675E+00  0.15054847205E+01  0.16430376742E+01  0.00000000000E+00 0. -1.
</event>
<event>
 5    1  0.1160133E+000  0.1596360E+01  0.7818608E-02  0.3357323E+00
         11   -1    0    0    0    0  0.00000000000E+00  0.00000000000E+00  0.39999999674E+01  0.40000000000E+01  0.51100000000E-03 0. -1.
    9000002   -1    0    0    0    0 -0.00000000000E+00 -0.00000000000E+00  0.00000000000E+00  0.93800000000E+00  0.93800000000E+00 0.  1.
         11    1    1    2    0    0  0.20890286683E+00 -0.85800346231E-01  0.53740268150E+00  0.58292710556E+00  0.51100000000E-03 0. -1.
    9000002    1    1    2    0    0 -0.89084919459E+00  0.55031251802E+00  0.91541863788E+00  0.16775850016E+01  0.93800000000E+00 0.  1.
         22    1    1    2    0    0  0.68194632776E+00 -0.46451217179E+00  0.25471786480E+01  0.26774878929E+01  0.00000000000E+00 0. -1.
</event>
<event>
 5    1  0.1160133E+000  0.1598992E+01  0.7818608E-02  0.3354458E+00
         11   -1    0    0    0    0  0.00000000000E+00  0.00000000000E+00  0.39999999674E+01  0.40000000000E+01  0.51100000000E-03 0.  1.
    9000002   -1    0    0    0    0 -0.00000000000E+00 -0.00000000000E+00  0.00000000000E+00  0.93800000000E+00  0.93800000000E+00 0.  1.
         11    1    1    2    0    0  0.24769527932E+00 -0.14044330108E+00  0.81450566213E+00  0.86284239984E+00  0.51100000000E-03 0.  1.
    9000002    1    1    2    0    0 -0.98278170031E+00  0.43931007938E+00  0.98142760825E+00  0.17325984435E+01  0.93800000000E+00 0.  1.
         22    1    1    2    0    0  0.73508642100E+00 -0.29886677830E+00  0.22040666970E+01  0.23425591566E+01  0.00000000000E+00 0.  1.
</event>
<event>
 5    1  0.1160133E+000  0.1599676E+01  0.7818608E-02  0.3353715E+00
         11   -1    0    0    0    0  0.00000000000E+00  0.00000000000E+00  0.39999999674E+01  0.40000000000E+01  0.51100000000E-03 0. -1.
    9000002   -1    0    0    0    0 -0.00000000000E+00 -0.00000000000E+00  0.00000000000E+00  0.93800000000E+00  0.93800000000E+00 0. -1.
         11    1    1    2    0    0  0.28568547122E+00  0.10234862998E+00  0.69451012304E+00  0.75791556432E+00  0.51100000000E-03 0. -1.
    9000002    1    1    2    0    0 -0.11122983974E+01 -0.39435239054E+00  0.12972176293E+01  0.19888034369E+01  0.93800000000E+00 0. -1.
         22    1    1    2    0    0  0.82661292622E+00  0.29200376055E+00  0.20082722150E+01  0.21912809988E+01  0.00000000000E+00 0.  1.
</event>
<event>
 5    1  0.1160133E+000  0.1599650E+01  0.7818608E-02  0.3353743E+00
         11   -1    0    0    0    0  0.00000000000E+00  0.00000000000E+00  0.39999999674E+01  0.40000000000E+01  0.51100000000E-03 0. -1.
    9000002   -1    0    0    0    0 -0.00000000000E+00 -0.00000000000E+00  0.00000000000E+00  0.93800000000E+00  0.93800000000E+00 0. -1.
         11    1    1    2    0    0  0.37955123251E-01 -0.32707412675E+00  0.11529940981E+01  0.11990887069E+01  0.51100000000E-03 0. -1.
    9000002    1    1    2    0    0 -0.11309845566E+00  0.92578951101E+00  0.67577800487E+00  0.14853946921E+01  0.93800000000E+00 0. -1.
         22    1    1    2    0    0  0.75143332406E-01 -0.59871538426E+00  0.21712278644E+01  0.22535166010E+01  0.00000000000E+00 0. -1.
</event>
<event>
 5    1  0.1160133E+000  0.1571935E+01  0.7818608E-02  0.3384399E+00
         11   -1    0    0    0    0  0.00000000000E+00  0.00000000000E+00  0.39999999674E+01  0.40000000000E+01  0.51100000000E-03 0.  1.
    9000002   -1    0    0    0    0 -0.00000000000E+00 -0.00000000000E+00  0.00000000000E+00  0.93800000000E+00  0.93800000000E+00 0.  1.
         11    1    1    2    0    0 -0.15450789758E-01 -0.47005295468E-01  0.10996186368E+00  0.12058232578E+00  0.51100000000E-03 0.  1.
    9000002    1    1    2    0    0 -0.82747771840E+00 -0.32304696145E+00  0.64423891707E+00  0.14435949903E+01  0.93800000000E+00 0.  1.
         22    1    1    2    0    0  0.84292850816E+00  0.37005225692E+00  0.32457991866E+01  0.33738226839E+01  0.00000000000E+00 0.  1.
</event>
<event>
 5    1  0.1160133E+000  0.1599675E+01  0.7818608E-02  0.3353716E+00
         11   -1    0    0    0    0  0.00000000000E+00  0.00000000000E+00  0.39999999674E+01  0.40000000000E+01  0.51100000000E-03 0.  1.
    9000002   -1    0    0    0    0 -0.00000000000E+00 -0.00000000000E+00  0.00000000000E+00  0.93800000000E+00  0.93800000000E+00 0.  1.
         11    1    1    2    0    0  0.90739391614E-01  0.35549050422E+00  0.12819730215E+01  0.13334399967E+01  0.51100000000E-03 0.  1.
    9000002    1    1    2    0    0 -0.23042331240E+00 -0.91720987676E+00  0.69913034988E+00  0.15043257982E+01  0.93800000000E+00 0.  1.
         22    1    1    2    0    0  0.13968392079E+00  0.56171937253E+00  0.20188965960E+01  0.21002342052E+01  0.00000000000E+00 0. -1.
</event>
<event>
 5    1  0.1160133E+000  0.1593806E+01  0.7818608E-02  0.3360114E+00
         11   -1    0    0    0    0  0.00000000000E+00  0.00000000000E+00  0.39999999674E+01  0.40000000000E+01  0.51100000000E-03 0.  1.
    9000002   -1    0    0    0    0 -0.00000000000E+00 -0.00000000000E+00  0.00000000000E+00  0.93800000000E+00  0.93800000000E+00 0.  1.
         11    1    1    2    0    0  0.11984958942E+00  0.66038319099E-01  0.35778727308E+00  0.38306262878E+00  0.51100000000E-03 0.  1.
    9000002    1    1    2    0    0 -0.65754830929E+00 -0.91266741346E+00  0.11298875460E+01  0.18498165999E+01  0.93800000000E+00 0.  1.
         22    1    1    2    0    0  0.53769871988E+00  0.84662909436E+00  0.25123251483E+01  0.27051207713E+01  0.00000000000E+00 0.  1.
</event>
<event>
 5    1  0.1160133E+000  0.1553539E+01  0.7818608E-02  0.3405388E+00
         11   -1    0    0    0    0  0.00000000000E+00  0.00000000000E+00  0.39999999674E+01  0.40000000000E+01  0.51100000000E-03 0.  1.
    9000002   -1    0    0    0    0 -0.00000000000E+00 -0.00000000000E+00  0.00000000000E+00  0.93800000000E+00  0.93800000000E+00 0.  1.
         11    1    1    2    0    0  0.26358328984E-01 -0.18196820705E+00  0.12245974821E+01  0.12383240465E+01  0.51100000000E-03 0.  1.
    9000002    1    1    2    0    0  0.63089594886E+00  0.45911511121E+00  0.50609622705E+00  0.13209064216E+01  0.93800000000E+00 0.  1.
         22    1    1    2    0    0 -0.65725427784E+00 -0.27714690416E+00  0.22693062582E+01  0.23787695319E+01  0.00000000000E+00 0.  1.
</event>
<event>
 5    1  0.1160133E+000  0.1599660E+01  0.7818608E-02  0.3353732E+00
         11   -1    0    0    0    0  0.00000000000E+00  0.00000000000E+00  0.39999999674E+01  0.40000000000E+01  0.51100000000E-03 0. -1.
    9000002   -1    0    0    0    0 -0.00000000000E+00 -0.00000000000E+00  0.00000000000E+00  0.93800000000E+00  0.93800000000E+00 0. -1.
         11    1    1    2    0    0  0.21249646261E+00  0.10045968922E+00  0.50668077598E+00  0.55854504353E+00  0.51100000000E-03 0. -1.
    9000002    1    1    2    0    0 -0.10807736160E+01 -0.51865413266E+00  0.13709239687E+01  0.20484995109E+01  0.93800000000E+00 0. -1.
         22    1    1    2    0    0  0.86827715342E+00  0.41819444344E+00  0.21223952227E+01  0.23309554455E+01  0.00000000000E+00 0. -1.
</event>
<event>
 5    1  0.1160133E+000  0.1556257E+01  0.7818608E-02  0.3402253E+00
         11   -1    0    0    0    0  0.00000000000E+00  0.00000000000E+00  0.39999999674E+01  0.40000000000E+01  0.51100000000E-03 0.  1.
    9000002   -1    0    0    0    0 -0.00000000000E+00 -0.00000000000E+00  0.00000000000E+00  0.93800000000E+00  0.93800000000E+00 0.  1.
         11    1    1    2    0    0 -0.64210686287E+00 -0.38057517667E+00  0.12388734911E+01  0.14463562758E+01  0.51100000000E-03 0.  1.
    9000002    1    1    2    0    0  0.11357314548E+01  0.28659689654E+00  0.14466064038E+01  0.20843554894E+01  0.93800000000E+00 0.  1.
         22    1    1    2    0    0 -0.49362459198E+00  0.93978280132E-01  0.13145200725E+01  0.14072882349E+01  0.00000000000E+00 0.  1.
</event>
<event>
 5    1  0.1160133E+000  0.1599341E+01  0.7818608E-02  0.3354079E+00
         11   -1    0    0    0    0  0.00000000000E+00  0.00000000000E+00  0.39999999674E+01  0.40000000000E+01  0.51100000000E-03 0.  1.
    9000002   -1    0    0    0    0 -0.00000000000E+00 -0.00000000000E+00  0.00000000000E+00  0.93800000000E+00  0.93800000000E+00 0. -1.
         11    1    1    2    0    0 -0.22323242551E+00  0.97106511040E-01  0.57920770470E+00  0.62828673119E+00  0.51100000000E-03 0.  1.
    9000002    1    1    2    0    0  0.10206354986E+01 -0.53338398422E+00  0.11978247807E+01  0.19080942065E+01  0.93800000000E+00 0. -1.
         22    1    1    2    0    0 -0.79740307311E+00  0.43627747318E+00  0.22229674819E+01  0.24016190623E+01  0.00000000000E+00 0.  1.
</event>
<event>
 5    1  0.1160133E+000  0.1599628E+01  0.7818608E-02  0.3353767E+00
         11   -1    0    0    0    0  0.00000000000E+00  0.00000000000E+00  0.39999999674E+01  0.40000000000E+01  0.51100000000E-03 0.  1.
    9000002   -1    0    0    0    0 -0.00000000000E+00 -0.00000000000E+00  0.00000000000E+00  0.93800000000E+00  0.93800000000E+00 0.  1.
         11    1    1    2    0    0 -0.10624850529E+00  0.40253541975E+00  0.14121367388E+01  0.14722275433E+01  0.51100000000E-03 0.  1.
    9000002    1    1    2    0    0  0.22698593103E+00 -0.93499400424E+00  0.72971494895E+00  0.15290730223E+01  0.93800000000E+00 0.  1.
         22    1    1    2    0    0 -0.12073742575E+00  0.53245858448E+00  0.18581482796E+01  0.19366994344E+01  0.00000000000E+00 0. -1.
</event>
<event>
 5    1  0.1160133E+000  0.1599289E+01  0.7818608E-02  0.3354136E+00
         11   -1    0    0    0    0  0.00000000000E+00  0.00000000000E+00  0.39999999674E+01  0.40000000000E+01  0.51100000000E-03 0. -1.
    9000002   -1    0    0    0    0 -0.00000000000E+00 -0.00000000000E+00  0.00000000000E+00  0.93800000000E+00  0.93800000000E+00 0.  1.
         11    1    1    2    0    0  0.91395962886E-01  0.22711412649E+00  0.88424288711E+00  0.91750738036E+00  0.51100000000E-03 0. -1.
    9000002    1    1    2    0    0 -0.28214204737E+00 -0.90050442319E+00  0.69607674189E+00  0.15016255131E+01  0.93800000000E+00 0.  1.
         22    1    1    2    0    0  0.19074608448E+00  0.67339029671E+00  0.24196803384E+01  0.25188671065E+01  0.00000000000E+00 0. -1.
</event>
<event>
 5    1  0.1160133E+000  0.1599675E+01  0.7818608E-02  0.3353716E+00
         11   -1    0    0    0    0  0.00000000000E+00  0.00000000000E+00  0.39999999674E+01  0.40000000000E+01  0.51100000000E-03 0.  1.
    9000002   -1    0    0    0    0 -0.00000000000E+00 -0.00000000000E+00  0.00000000000E+00  0.93800000000E+00  0.93800000000E+00 0. -1.
         11    1    1    2    0    0  0.19582495846E+00 -0.35748620089E+00  0.11535533011E+01  0.12234497447E+01  0.51100000000E-03 0. -1.
    9000002    1    1    2    0    0 -0.51437596905E+00  0.94240921551E+00  0.97255329342E+00  0.17258104402E+01  0.93800000000E+00 0. -1.
         22    1    1    2    0    0  0.31855101059E+00 -0.58492301461E+00  0.18738933728E+01  0.19887398151E+01  0.00000000000E+00 0.  1.
</event>
<event>
 5    1  0.1160133E+000  0.1599677E+01  0.7818608E-02  0.3353714E+00
         11   -1    0    0    0    0  0.00000000000E+00  0.00000000000E+00  0.39999999674E+01  0.40000000000E+01  0.51100000000E-03 0. -1.
    9000002   -1    0    0    0    0 -0.00000000000E+00 -0.00000000000E+00  0.00000000000E+00  0.93800000000E+00  0.93800000000E+00 0. -1.
         11    1    1    2    0    0  0.42881865878E+00  0.66339812645E-01  0.12255648856E+01  0.13001138268E+01  0.51100000000E-03 0. -1.
    9000002    1    1    2    0    0 -0.10595608647E+01 -0.16502155671E+00  0.96924398893E+00  0.17231306539E+01  0.93800000000E+00 0. -1.
         22    1    1    2    0    0  0.63074220593E+00  0.98681744069E-01  0.18051910929E+01  0.19147555193E+01  0.00000000000E+00 0.  1.
</event>
<event>
 5    1  0.1160133E+000  0.1599630E+01  0.7818608E-02  0.3353766E+00
         11   -1    0    0    0    0  0.00000000000E+00  0.00000000000E+00  0.39999999674E+01  0.40000000000E+01  0.51100000000E-03 0. -1.
    9000002   -1    0    0    0    0 -0.00000000000E+00 -0.00000000000E+00  0.00000000000E+00  0.93800000000E+00  0.93800000000E+00 0. -1.
         11    1    1    2    0    0 -0.32432153096E+00 -0.11636207695E+00  0.12258969192E+01  0.12734002144E+01  0.51100000000E-03 0. -1.
    9000002    1    1    2    0    0  0.87213190768E+00  0.29872081809E+00  0.65694132157E+00  0.14701238354E+01  0.93800000000E+00 0. -1.
         22    1    1    2    0    0 -0.54781037672E+00 -0.18235874114E+00  0.21171617266E+01  0.21944759502E+01  0.00000000000E+00 0. -1.
</event>
<event>
 5    1  0.1160133E+000  0.1599191E+01  0.7818608E-02  0.3354242E+00
         11   -1    0    0    0    0  0.00000000000E+00  0.00000000000E+00  0.39999999674E+01  0.40000000000E+01  0.51100000000E-03 0.  1.
    9000002   -1    0    0    0    0 -0.00000000000E+00 -0.00000000000E+00  0.00000000000E+00  0.93800000000E+00  0.93800000000E+00 0.  1.
         11    1    1    2    0    0 -0.36934031827E-01 -0.20556004700E+00  0.67592939256E+00  0.70746014763E+00  0.51100000000E-03 0.  1.
    9000002    1    1    2    0    0  0.22980259630E+00  0.91134579522E+00  0.68938355338E+00  0.14961464084E+01  0.93800000000E+00 0.  1.
         22    1    1    2    0    0 -0.19286856448E+00 -0.70578574822E+00  0.26346870214E+01  0.27343934440E+01  0.00000000000E+00 0.  1.
</event>
<event>
 5    1  0.1160133E+000  0.1599674E+01  0.7818608E-02  0.3353717E+00
         11   -1    0    0    0    0  0.00000000000E+00  0.00000000000E+00  0.39999999674E+01  0.40000000000E+01  0.51100000000E-03 0. -1.
    9000002   -1    0    0    0    0 -0.00000000000E+00 -0.00000000000E+00  0.00000000000E+00  0.93800000000E+00  0.93800000000E+00 0. -1.
         11    1    1    2    0    0 -0.37129366237E+00  0.42628533364E+00  0.12963141057E+01  0.14142166351E+01  0.51100000000E-03 0. -1.
    9000002    1    1    2    0    0  0.77521292683E+00 -0.88702792913E+00  0.12893740930E+01  0.19824487839E+01  0.93800000000E+00 0. -1.
         22    1    1    2    0    0 -0.40391926447E+00  0.46074259550E+00  0.14143117687E+01  0.15413345810E+01  0.00000000000E+00 0. -1.
</event>
<event>
 5    1  0.1160133E+000  0.1492305E+01  0.7818608E-02  0.3479242E+00
         11   -1    0    0    0    0  0.00000000000E+00  0.00000000000E+00  0.39999999674E+01  0.40000000000E+01  0.51100000000E-03 0.  1.
    9000002   -1    0    0    0    0 -0.00000000000E+00 -0.00000000000E+00  0.00000000000E+00  0.93800000000E+00  0.93800000000E+00 0.  1.
         11    1    1    2    0    0 -0.19643172896E+00 -0.14967964150E-01  0.31584853860E+00  0.37224994903E+00  0.51100000000E-03 0.  1.
    9000002    1    1    2    0    0 -0.31918849063E+00  0.85147771602E+00  0.83149182360E+00  0.15485858859E+01  0.93800000000E+00 0.  1.
         22    1    1    2    0    0  0.51562021959E+00 -0.83650975187E+00  0.28526596052E+01  0.30171641650E+01  0.00000000000E+00 0.  1.
</event>
<event>
 5    1  0.1160133E+000  0.1598157E+01  0.7818608E-02  0.3355366E+00
         11   -1    0    0    0    0  0.00000000000E+00  0.00000000000E+00  0.39999999674E+01  0.40000000000E+01  0.51100000000E-03 0.  1.
    9000002   -1    0    0    0    0 -0.00000000000E+00 -0.00000000000E+00  0.00000000000E+00  0.93800000000E+00  0.93800000000E+00 0.  1.
         11    1    1    2    0    0 -0.16633390826E-02  0.11532234394E-02  0.14516583860E-01  0.14665911127E-01  0.51100000000E-03 0.  1.
    9000002    1    1    2    0    0 -0.10139526226E+01 -0.12716641702E+00  0.85417161472E+00  0.16290255879E+01  0.93800000000E+00 0.  1.
         22    1    1    2    0    0  0.10156159617E+01  0.12601319358E+00  0.31313117688E+01  0.32943085010E+01  0.00000000000E+00 0.  1.
</event>
<event>
 5    1  0.1160133E+000  0.1598699E+01  0.7818608E-02  0.3354777E+00
         11   -1    0    0    0    0  0.00000000000E+00  0.00000000000E+00  0.39999999674E+01  0.40000000000E+01  0.51100000000E-03 0. -1.
    9000002   -1    0    0    0    0 -0.00000000000E+00 -0.00000000000E+00  0.00000000000E+00  0.93800000000E+00  0.93800000000E+00 0. -1.
         11    1    1    2    0    0  0.38120476253E+00 -0.15238380153E+00  0.66806084696E+00  0.78411953827E+00  0.51100000000E-03 0. -1.
    9000002    1    1    2    0    0 -0.11581818619E+01  0.50913953956E+00  0.17402907055E+01  0.23471395433E+01  0.93800000000E+00 0. -1.
         22    1    1    2    0    0  0.77697709941E+00 -0.35675573803E+00  0.15916484150E+01  0.18067409185E+01  0.00000000000E+00 0. -1.
</event>
<event>
 5    1  0.1160133E+000  0.1599677E+01  0.7818608E-02  0.3353714E+00
         11   -1    0    0    0    0  0.00000000000E+00  0.00000000000E+00  0.39999999674E+01  0.40000000000E+01  0.51100000000E-03 0.  1.
    9000002   -1    0    0    0    0 -0.00000000000E+00 -0.00000000000E+00  0.00000000000E+00  0.93800000000E+00  0.93800000000E+00 0. -1.
         11    1    1    2    0    0  0.27078523978E+00  0.50813381532E-01  0.96579094941E+00  0.10043202004E+01  0.51100000000E-03 0.  1.
    9000002    1    1    2    0    0 -0.92630080477E+00 -0.17286135664E+00  0.69292777363E+00  0.14993022140E+01  0.93800000000E+00 0.  1.
         22    1    1    2    0    0  0.65551556499E+00  0.12204797510E+00  0.23412812443E+01  0.24343775856E+01  0.00000000000E+00 0.  1.
</event>
<event>
 5    1  0.1160133E+000  0.1599648E+01  0.7818608E-02  0.3353746E+00
         11   -1    0    0    0    0  0.00000000000E+00  0.00000000000E+00  0.39999999674E+01  0.40000000000E+01  0.51100000000E-03 0. -1.
    9000002   -1    0    0    0    0 -0.00000000000E+00 -0.00000000000E+00  0.00000000000E+00  0.93800000000E+00  0.93800000000E+00 0. -1.
         11    1    1    2    0    0  0.18615579969E+00  0.38283957040E+00  0.11510124598E+01  0.12272123134E+01  0.51100000000E-03 0. -1.
    9000002    1    1    2    0    0 -0.47972540918E+00 -0.99581624970E+00  0.10566542442E+01  0.17939199155E+01  0.93800000000E+00 0. -1.
         22    1    1    2    0    0  0.29356960948E+00  0.61297667930E+00  0.17923332634E+01  0.19168677712E+01  0.00000000000E+00 0. -1.
</event>
<event>
 5    1  0.1160133E+000  0.1599639E+01  0.7818608E-02  0.3353755E+00
         11   -1    0    0    0    0  0.00000000000E+00  0.00000000000E+00  0.39999999674E+01  0.40000000000E+01  0.51100000000E-03 0. -1.
    9000002   -1    0    0    0    0 -0.00000000000E+00 -0.00000000000E+00  0.00000000000E+00  0.93800000000E+00  0.93800000000E+00 0. -1.
         11    1    1    2    0    0  0.15948996011E+00 -0.30727590471E+00  0.80086878399E+00  0.87249446949E+00  0.51100000000E-03 0. -1.
    9000002    1    1    2    0    0 -0.55791427425E+00  0.10431115659E+01  0.13079813668E+01  0.19975007715E+01  0.93800000000E+00 0. -1.
         22    1    1    2    0    0  0.39842431414E+00 -0.73583566124E+00  0.18911498166E+01  0.20680047590E+01  0.00000000000E+00 0. -1.
</event>
<event>
 5    1  0.1160133E+000  0.1599675E+01  0.7818608E-02  0.3353716E+00
         11   -1    0    0    0    0  0.00000000000E+00  0.00000000000E+00  0.39999999674E+01  0.40000000000E+01  0.51100000000E-03 0. -1.
    9000002   -1    0    0    0    0 -0.00000000000E+00 -0.00000000000E+00  0.00000000000E+00  0.93800000000E+00  0.93800000000E+00 0. -1.
         11    1    1    2    0    0  0.40771532077E+00  0.28052834256E-01  0.12328120571E+01  0.12987858074E+01  0.51100000000E-03 0. -1.
    9000002    1    1    2    0    0 -0.10318813577E+01 -0.67296515189E-01  0.87812614243E+00  0.16493203083E+01  0.93800000000E+00 0.  1.
         22    1    1    2    0    0  0.62416603691E+00  0.39243680933E-01  0.18890617678E+01  0.19898938843E+01  0.00000000000E+00 0. -1.
</event>
<event>
 5    1  0.1160133E+000  0.1575971E+01  0.7818608E-02  0.3379864E+00
         11   -1    0    0    0    0  0.00000000000E+00  0.00000000000E+00  0.39999999674E+01  0.40000000000E+01  0.51100000000E-03 0.  1.
    9000002   -1    0    0    0    0 -0.00000000000E+00 -0.00000000000E+00  0.00000000000E+00  0.93800000000E+00  0.93800000000E+00 0.  1.
         11    1    1    2    0    0  0.14993106208E+00  0.15380024566E+00  0.53219300306E+00  0.57390198865E+00  0.51100000000E-03 0.  1.
    9000002    1    1    2    0    0 -0.93730197452E+00 -0.97979348504E-01  0.73437326224E+00  0.15189743357E+01  0.93800000000E+00 0.  1.
         22    1    1    2    0    0  0.78737091244E+00 -0.55820897158E-01  0.27334337021E+01  0.28451236757E+01  0.00000000000E+00 0.  1.
</event>
<event>
 5    1  0.1160133E+000  0.1576665E+01  0.7818608E-02  0.3379086E+00
         11   -1    0    0    0    0  0.00000000000E+00  0.00000000000E+00  0.39999999674E+01  0.40000000000E+01  0.51100000000E-03 0.  1.
    9000002   -1    0    0    0    0 -0.00000000000E+00 -0.00000000000E+00  0.00000000000E+00  0.93800000000E+00  0.93800000000E+00 0.  1.
         11    1    1    2    0    0  0.37215126448E-01  0.30654320979E-01  0.48187662158E+00  0.48428296747E+00  0.51100000000E-03 0.  1.
    9000002    1    1    2    0    0 -0.10743585103E+01 -0.10914369635E+00  0.10470233699E+01  0.17726422347E+01  0.93800000000E+00 0.  1.
         22    1    1    2    0    0  0.10371433839E+01  0.78489375374E-01  0.24710999758E+01  0.26810747978E+01  0.00000000000E+00 0.  1.
</event>
<event>
 5    1  0.1160133E+000  0.1598172E+01  0.7818608E-02  0.3355349E+00
         11   -1    0    0    0    0  0.00000000000E+00  0.00000000000E+00  0.39999999674E+01  0.40000000000E+01  0.51100000000E-03 0. -1.
    9000002   -1    0    0    0    0 -0.00000000000E+00 -0.00000000000E+00  0.00000000000E+00  0.93800000000E+00  0.93800000000E+00 0.  1.
         11    1    1    2    0    0 -0.18895612085E+00 -0.32467499914E+00  0.12733818934E+01  0.13276369904E+01  0.51100000000E-03 0. -1.
    9000002    1    1    2    0    0  0.57699946549E+00  0.76158581444E+00  0.71972819055E+00  0.15201296011E+01  0.93800000000E+00 0.  1.
         22    1    1    2    0    0 -0.38804334464E+00 -0.43691081530E+00  0.20068898834E+01  0.20902334085E+01  0.00000000000E+00 0.  1.
</event>
<event>
 5    1  0.1160133E+000  0.1573274E+01  0.7818608E-02  0.3382891E+00
         11   -1    0    0    0    0  0.00000000000E+00  0.00000000000E+00  0.39999999674E+01  0.40000000000E+01  0.51100000000E-03 0.  1.
    9000002   -1    0    0    0    0 -0.00000000000E+00 -0.00000000000E+00  0.00000000000E+00  0.93800000000E+00  0.93800000000E+00 0.  1.
         11    1    1    2    0    0 -0.11749961462E+00 -0.11399440010E+00  0.12256397548E+01  0.12365249501E+01  0.51100000000E-03 0.  1.
    9000002    1    1    2    0    0  0.84291534031E+00  0.33287525646E+00  0.67300565136E+00  0.14676828043E+01  0.93800000000E+00 0.  1.
         22    1    1    2    0    0 -0.72541572569E+00 -0.21888085636E+00  0.21013545613E+01  0.22337922456E+01  0.00000000000E+00 0.  1.
</event>
<event>
 5    1  0.1160133E+000  0.1597383E+01  0.7818608E-02  0.3356209E+00
         11   -1    0    0    0    0  0.00000000000E+00  0.00000000000E+00  0.39999999674E+01  0.40000000000E+01  0.51100000000E-03 0. -1.
    9000002   -1    0    0    0    0 -0.00000000000E+00 -0.00000000000E+00  0.00000000000E+00  0.93800000000E+00  0.93800000000E+00 0. -1.
         11    1    1    2    0    0  0.38808637940E-01 -0.40813970245E+00  0.10264577004E+01  0.11053052967E+01  0.51100000000E-03 0. -1.
    9000002    1    1    2    0    0 -0.15964935140E+00  0.10492137675E+01  0.94719529154E+00  0.17039249883E+01  0.93800000000E+00 0. -1.
         22    1    1    2    0    0  0.12084071346E+00 -0.64107406503E+00  0.20263469754E+01  0.21287697151E+01  0.00000000000E+00 0. -1.
</event>
<event>
 5    1  0.1160133E+000  0.1213762E+01  0.7818608E-02  0.3961498E+00
         11   -1    0    0    0    0  0.00000000000E+00  0.00000000000E+00  0.39999999674E+01  0.40000000000E+01  0.51100000000E-03 0. -1.
    9000002   -1    0    0    0    0 -0.00000000000E+00 -0.00000000000E+00  0.00000000000E+00  0.93800000000E+00  0.93800000000E+00 0. -1.
         11    1    1    2    0    0  0.49948491853E+00  0.39503645220E+00  0.11870766667E+01  0.13471043969E+01  0.51100000000E-03 0. -1.
    9000002    1    1    2    0    0  0.30756431895E+00 -0.68287914513E-01  0.47797244398E+00  0.10988906710E+01  0.93800000000E+00 0. -1.
         22    1    1    2    0    0 -0.80704923748E+00 -0.32674853769E+00  0.23349508567E+01  0.24920049321E+01  0.00000000000E+00 0. -1.
</event>
<event>
 5    1  0.1160133E+000  0.1599674E+01  0.7818608E-02  0.3353717E+00
         11   -1    0    0    0    0  0.00000000000E+00  0.00000000000E+00  0.39999999674E+01  0.40000000000E+01  0.51100000000E-03 0.  1.
    9000002   -1    0    0    0    0 -0.00000000000E+00 -0.00000000000E+00  0.00000000000E+00  0.93800000000E+00  0.93800000000E+00 0.  1.
         11    1    1    2    0    0  0.29801333538E-01 -0.38608360582E+00  0.14310482295E+01  0.14825140695E+01  0.51100000000E-03 0.  1.
    9000002    1    1    2    0    0 -0.73805712455E-01  0.90924256693E+00  0.64040234736E+00  0.14567527227E+01  0.93800000000E+00 0.  1.
         22    1    1    2    0    0  0.44004378916E-01 -0.52315896111E+00  0.19285493905E+01  0.19987332077E+01  0.00000000000E+00 0.  1.
</event>
<event>
 5    1  0.1160133E+000  0.1599525E+01  0.7818608E-02  0.3353879E+00
         11   -1    0    0    0    0  0.00000000000E+00  0.00000000000E+00  0.39999999674E+01  0.40000000000E+01  0.51100000000E-03 0. -1.
    9000002   -1    0    0    0    0 -0.00000000000E+00 -0.00000000000E+00  0.00000000000E+00  0.93800000000E+00  0.93800000000E+00 0.  1.
         11    1    1    2    0    0  0.53809956010E+00  0.45633436039E+00  0.11134149532E+01  0.13181370582E+01  0.51100000000E-03 0. -1.
    9000002    1    1    2    0    0 -0.98927825265E+00 -0.82023564920E+00  0.19285306955E+01  0.25001065227E+01  0.93800000000E+00 0.  1.
         22    1    1    2    0    0  0.45117869256E+00  0.36390128881E+00  0.95805431873E+00  0.11197564192E+01  0.00000000000E+00 0. -1.
</event>
<event>
 5    1  0.1160133E+000  0.1599673E+01  0.7818608E-02  0.3353719E+00
         11   -1    0    0    0    0  0.00000000000E+00  0.00000000000E+00  0.39999999674E+01  0.40000000000E+01  0.51100000000E-03 0.  1.
    9000002   -1    0    0    0    0 -0.00000000000E+00 -0.00000000000E+00  0.00000000000E+00  0.93800000000E+00  0.93800000000E+00 0. -1.
         11    1    1    2    0    0  0.55183110040E-01  0.34079835687E+00  0.12501715062E+01  0.12969648228E+01  0.51100000000E-03 0.  1.
    9000002    1    1    2    0    0 -0.15100627469E+00 -0.91437314174E+00  0.66535288472E+00  0.14769629645E+01  0.93800000000E+00 0. -1.
         22    1    1    2    0    0  0.95823164650E-01  0.57357478487E+00  0.20844755765E+01  0.21640722126E+01  0.00000000000E+00 0.  1.
</event>
<event>
 5    1  0.1160133E+000  0.1549735E+01  0.7818608E-02  0.3409794E+00
         11   -1    0    0    0    0  0.00000000000E+00  0.00000000000E+00  0.39999999674E+01  0.40000000000E+01  0.51100000000E-03 0.  1.
    9000002   -1    0    0    0    0 -0.00000000000E+00 -0.00000000000E+00  0.00000000000E+00  0.93800000000E+00  0.93800000000E+00 0. -1.
         11    1    1    2    0    0 -0.11293125922E+00 -0.87996506912E-01  0.12279350926E+01  0.12362530919E+01  0.51100000000E-03 0.  1.
    9000002    1    1    2    0    0  0.83183259034E+00 -0.25267035730E+00  0.64825086153E+00  0.14338273771E+01  0.93800000000E+00 0. -1.
         22    1    1    2    0    0 -0.71890133112E+00  0.34066686421E+00  0.21238140132E+01  0.22679195310E+01  0.00000000000E+00 0.  1.
</event>
<event>
 5    1  0.1160133E+000  0.1596501E+01  0.7818608E-02  0.3357170E+00
         11   -1    0    0    0    0  0.00000000000E+00  0.00000000000E+00  0.39999999674E+01  0.40000000000E+01  0.51100000000E-03 0. -1.
    9000002   -1    0    0    0    0 -0.00000000000E+00 -0.00000000000E+00  0.00000000000E+00  0.93800000000E+00  0.93800000000E+00 0. -1.
         11    1    1    2    0    0  0.14819869024E+00 -0.33801550454E+00  0.13068732860E+01  0.13579894624E+01  0.51100000000E-03 0. -1.
    9000002    1    1    2    0    0 -0.27758461902E+00  0.96575854773E+00  0.82082810441E+00  0.16010451493E+01  0.93800000000E+00 0. -1.
         22    1    1    2    0    0  0.12938592878E+00 -0.62774304319E+00  0.18722985770E+01  0.19789653883E+01  0.00000000000E+00 0. -1.
</event>
<event>
 5    1  0.1160133E+000  0.1517121E+01  0.7818608E-02  0.3448541E+00
         11   -1    0    0    0    0  0.00000000000E+00  0.00000000000E+00  0.39999999674E+01  0.40000000000E+01  0.51100000000E-03 0.  1.
    9000002   -1    0    0    0    0 -0.00000000000E+00 -0.00000000000E+00  0.00000000000E+00  0.93800000000E+00  0.93800000000E+00 0.  1.
         11    1    1    2    0    0  0.17531678827E-01  0.95865461144E-01  0.84219418872E+00  0.84781416539E+00  0.51100000000E-03 0.  1.
    9000002    1    1    2    0    0  0.28021948076E+00  0.77197238019E+00  0.62152596423E+00  0.13930552169E+01  0.93800000000E+00 0.  1.
         22    1    1    2    0    0 -0.29775115959E+00 -0.86783784134E+00  0.25362798144E+01  0.26971306177E+01  0.00000000000E+00 0.  1.
</event>
<event>
 5    1  0.1160133E+000  0.1599677E+01  0.7818608E-02  0.3353714E+00
         11   -1    0    0    0    0  0.00000000000E+00  0.00000000000E+00  0.39999999674E+01  0.40000000000E+01  0.51100000000E-03 0. -1.
    9000002   -1    0    0    0    0 -0.00000000000E+00 -0.00000000000E+00  0.00000000000E+00  0.93800000000E+00  0.93800000000E+00 0. -1.
         11    1    1    2    0    0  0.39776675424E+00  0.54172115723E+00  0.13391065770E+01  0.14982946602E+01  0.51100000000E-03 0. -1.
    9000002    1    1    2    0    0 -0.73123039022E+00 -0.99528396211E+00  0.15409983415E+01  0.21862771868E+01  0.93800000000E+00 0. -1.
         22    1    1    2    0    0  0.33346363599E+00  0.45356280488E+00  0.11198950488E+01  0.12534281530E+01  0.00000000000E+00 0.  1.
</event>
<event>
 5    1  0.1160133E+000  0.1475932E+01  0.7818608E-02  0.3500108E+00
         11   -1    0    0    0    0  0.00000000000E+00  0.00000000000E+00  0.39999999674E+01  0.40000000000E+01  0.51100000000E-03 0.  1.
    9000002   -1    0    0    0    0 -0.00000000000E+00 -0.00000000000E+00  0.00000000000E+00  0.93800000000E+00  0.93800000000E+00 0. -1.
         11    1    1    2    0    0  0.47401660536E-01 -0.33631774326E+00  0.12373230016E+01  0.12830919738E+01  0.51100000000E-03 0.  1.
    9000002    1    1    2    0    0  0.56324422819E+00 -0.24401012433E+00  0.47577570088E+00  0.12177813921E+01  0.93800000000E+00 0. -1.
         22    1    1    2    0    0 -0.61064588873E+00  0.58032786759E+00  0.22869012649E+01  0.24371266341E+01  0.00000000000E+00 0.  1.
</event>
<event>
 5    1  0.6288473E+000  0.1157843E+01  0.7818608E-02  0.4096113E+00
         11   -1    0    0    0    0  0.00000000000E+00  0.00000000000E+00  0.39999999674E+01  0.40000000000E+01  0.51100000000E-03 0. -1.
    9000002   -1    0    0    0    0 -0.00000000000E+00 -0.00000000000E+00  0.00000000000E+00  0.93800000000E+00  0.93800000000E+00 0. -1.
         11    1    1    2    0    0  0.38816584026E+00  0.52179460550E+00  0.74302570548E+00  0.98743596755E+00  0.51100000000E-03 0. -1.
    9000002    1    1    2    0    0  0.57226667075E-01  0.95155397348E-01  0.45748918330E+00  0.10495093110E+01  0.93800000000E+00 0. -1.
         22    1    1    2    0    0 -0.44539250734E+00 -0.61695000285E+00  0.27994850786E+01  0.29010547214E+01  0.00000000000E+00 0. -1.
</event>
<event>
 5    1  0.1160133E+000  0.1599675E+01  0.7818608E-02  0.3353716E+00
         11   -1    0    0    0    0  0.00000000000E+00  0.00000000000E+00  0.39999999674E+01  0.40000000000E+01  0.51100000000E-03 0.  1.
    9000002   -1    0    0    0    0 -0.00000000000E+00 -0.00000000000E+00  0.00000000000E+00  0.93800000000E+00  0.93800000000E+00 0.  1.
         11    1    1    2    0    0  0.78960359321E-01  0.78069872334E-01  0.38203083014E+00  0.39784099790E+00  0.51100000000E-03 0.  1.
    9000002    1    1    2    0    0 -0.67271822472E+00 -0.66873477511E+00  0.70432606659E+00  0.15085341287E+01  0.93800000000E+00 0.  1.
         22    1    1    2    0    0  0.59375786540E+00  0.59066490278E+00  0.29136430706E+01  0.30316248734E+01  0.00000000000E+00 0.  1.
</event>
<event>
 5    1  0.1160133E+000  0.1558728E+01  0.7818608E-02  0.3399414E+00
         11   -1    0    0    0    0  0.00000000000E+00  0.00000000000E+00  0.39999999674E+01  0.40000000000E+01  0.51100000000E-03 0.  1.
    9000002   -1    0    0    0    0 -0.00000000000E+00 -0.00000000000E+00  0.00000000000E+00  0.93800000000E+00  0.93800000000E+00 0. -1.
         11    1    1    2    0    0  0.32761766251E-01 -0.79451417784E-01  0.44954091289E-01  0.96989651821E-01  0.51100000000E-03 0.  1.
    9000002    1    1    2    0    0  0.23604172326E+00  0.92203891190E+00  0.78482124817E+00  0.15497289575E+01  0.93800000000E+00 0. -1.
         22    1    1    2    0    0 -0.26880348951E+00 -0.84258749411E+00  0.31702246279E+01  0.32912813907E+01  0.00000000000E+00 0.  1.
</event>
<event>
 5    1  0.1160133E+000  0.1551982E+01  0.7818608E-02  0.3407188E+00
         11   -1    0    0    0    0  0.00000000000E+00  0.00000000000E+00  0.39999999674E+01  0.40000000000E+01  0.51100000000E-03 0. -1.
    9000002   -1    0    0    0    0 -0.00000000000E+00 -0.00000000000E+00  0.00000000000E+00  0.93800000000E+00  0.93800000000E+00 0.  1.
         11    1    1    2    0    0 -0.38977669377E+00  0.26913515859E-01  0.10248248442E+01  0.10967754696E+01  0.51100000000E-03 0. -1.
    9000002    1    1    2    0    0 -0.56120535605E+00 -0.51539038655E-01  0.52670265523E+00  0.12144411930E+01  0.93800000000E+00 0.  1.
         22    1    1    2    0    0  0.95098204983E+00  0.24625522797E-01  0.24484724680E+01  0.26267833375E+01  0.00000000000E+00 0. -1.
</event>
<event>
 5    1  0.1160133E+000  0.1599497E+01  0.7818608E-02  0.3353910E+00
         11   -1    0    0    0    0  0.00000000000E+00  0.00000000000E+00  0.39999999674E+01  0.40000000000E+01  0.51100000000E-03 0.  1.
    9000002   -1    0    0    0    0 -0.00000000000E+00 -0.00000000000E+00  0.00000000000E+00  0.93800000000E+00  0.93800000000E+00 0.  1.
         11    1    1    2    0    0  0.41033878678E+00  0.20274792987E+00  0.13527670611E+01  0.14280979048E+01  0.51100000000E-03 0.  1.
    9000002    1    1    2    0    0 -0.91248603629E+00 -0.47768379586E+00  0.86925432752E+00  0.16420291292E+01  0.93800000000E+00 0.  1.
         22    1    1    2    0    0  0.50214724950E+00  0.27493586599E+00  0.17779785787E+01  0.18678729660E+01  0.00000000000E+00 0.  1.
</event>
<event>
 5    1  0.1160133E+000  0.1385477E+01  0.7818608E-02  0.3630438E+00
         11   -1    0    0    0    0  0.00000000000E+00  0.00000000000E+00  0.39999999674E+01  0.40000000000E+01  0.51100000000E-03 0.  1.
    9000002   -1    0    0    0    0 -0.00000000000E+00 -0.00000000000E+00  0.00000000000E+00  0.93800000000E+00  0.93800000000E+00 0. -1.
         11    1    1    2    0    0 -0.20552556934E+00  0.63784198985E+00  0.23935353692E+00  0.71159928361E+00  0.51100000000E-03 0.  1.
    9000002    1    1    2    0    0 -0.23868560538E+00 -0.95496230246E+00  0.23676944909E+01  0.27303378948E+01  0.93800000000E+00 0. -1.
         22    1    1    2    0    0  0.44421117472E+00  0.31712031260E+00  0.13929519395E+01  0.14960628216E+01  0.00000000000E+00 0.  1.
</event>
<event>
 5    1  0.1160133E+000  0.1480682E+01  0.7818608E-02  0.3494004E+00
         11   -1    0    0    0    0  0.00000000000E+00  0.00000000000E+00  0.39999999674E+01  0.40000000000E+01  0.51100000000E-03 0. -1.
    9000002   -1    0    0    0    0 -0.00000000000E+00 -0.00000000000E+00  0.00000000000E+00  0.93800000000E+00  0.93800000000E+00 0. -1.
         11    1    1    2    0    0 -0.16095916444E+00  0.18245194519E+00  0.72889336417E+00  0.76842850180E+00  0.51100000000E-03 0. -1.
    9000002    1    1    2    0    0 -0.71005016139E+00 -0.22608358312E+00  0.56141230258E+00  0.13229938744E+01  0.93800000000E+00 0. -1.
         22    1    1    2    0    0  0.87100932583E+00  0.43631637933E-01  0.27096943006E+01  0.28465776238E+01  0.00000000000E+00 0. -1.
</event>
<event>
 5    1  0.1160133E+000  0.1599635E+01  0.7818608E-02  0.3353760E+00
         11   -1    0    0    0    0  0.00000000000E+00  0.00000000000E+00  0.39999999674E+01  0.40000000000E+01  0.51100000000E-03 0.  1.
    9000002   -1    0    0    0    0 -0.00000000000E+00 -0.00000000000E+00  0.00000000000E+00  0.93800000000E+00  0.93800000000E+00 0.  1.
         11    1    1    2    0    0  0.13334900917E+00  0.30669104021E+00  0.11122541586E+01  0.11614434669E+01  0.51100000000E-03 0.  1.
    9000002    1    1    2    0    0 -0.38774399571E+00 -0.90967868607E+00  0.78183332267E+00  0.15712950272E+01  0.93800000000E+00 0. -1.
         22    1    1    2    0    0  0.25439498654E+00  0.60298764586E+00  0.21059124861E+01  0.22052615059E+01  0.00000000000E+00 0.  1.
</event>
<event>
 5    1  0.1160133E+000  0.1598485E+01  0.7818608E-02  0.3355009E+00
         11   -1    0    0    0    0  0.00000000000E+00  0.00000000000E+00  0.39999999674E+01  0.40000000000E+01  0.51100000000E-03 0. -1.
    9000002   -1    0    0    0    0 -0.00000000000E+00 -0.00000000000E+00  0.00000000000E+00  0.93800000000E+00  0.93800000000E+00 0.  1.
         11    1    1    2    0    0 -0.15049493761E+00  0.10010261367E+00  0.65719982547E+00  0.68160188617E+00  0.51100000000E-03 0. -1.
    9000002    1    1    2    0    0  0.65548339061E+00 -0.63597976409E+00  0.64410821472E+00  0.14590572737E+01  0.93800000000E+00 0.  1.
         22    1    1    2    0    0 -0.50498845300E+00  0.53587715042E+00  0.26986919272E+01  0.27973408401E+01  0.00000000000E+00 0. -1.
</event>
<event>
 5    1  0.1160133E+000  0.1595658E+01  0.7818608E-02  0.3358089E+00
         11   -1    0    0    0    0  0.00000000000E+00  0.00000000000E+00  0.39999999674E+01  0.40000000000E+01  0.51100000000E-03 0.  1.
    9000002   -1    0    0    0    0 -0.00000000000E+00 -0.00000000000E+00  0.00000000000E+00  0.93800000000E+00  0.93800000000E+00 0. -1.
         11    1    1    2    0    0 -0.94500858160E-01 -0.80288221693E-01  0.35731395411E+00  0.37821968968E+00  0.51100000000E-03 0.  1.
    9000002    1    1    2    0    0  0.45351208781E+00  0.90139751816E+00  0.83141180312E+00  0.16091240741E+01  0.93800000000E+00 0. -1.
         22    1    1    2    0    0 -0.35901122965E+00 -0.82110929646E+00  0.28112742101E+01  0.29506562362E+01  0.00000000000E+00 0.  1.
</event>
<event>
 5    1  0.1160133E+000  0.1585229E+01  0.7818608E-02  0.3369553E+00
         11   -1    0    0    0    0  0.00000000000E+00  0.00000000000E+00  0.39999999674E+01  0.40000000000E+01  0.51100000000E-03 0. -1.
    9000002   -1    0    0    0    0 -0.00000000000E+00 -0.00000000000E+00  0.00000000000E+00  0.93800000000E+00  0.93800000000E+00 0. -1.
         11    1    1    2    0    0 -0.72214939599E-01  0.54306466426E-01  0.67154508776E+00  0.67759667636E+00  0.51100000000E-03 0. -1.
    9000002    1    1    2    0    0  0.53193187345E+00 -0.80962725876E+00  0.76853437806E+00  0.15520750325E+01  0.93800000000E+00 0. -1.
         22    1    1    2    0    0 -0.45971693385E+00  0.75532079234E+00  0.25599205015E+01  0.27083282912E+01  0.00000000000E+00 0. -1.
</event>
<event>
 5    1  0.1160133E+000  0.1593883E+01  0.7818608E-02  0.3360029E+00
         11   -1    0    0    0    0  0.00000000000E+00  0.00000000000E+00  0.39999999674E+01  0.40000000000E+01  0.51100000000E-03 0. -1.
    9000002   -1    0    0    0    0 -0.00000000000E+00 -0.00000000000E+00  0.00000000000E+00  0.93800000000E+00  0.93800000000E+00 0. -1.
         11    1    1    2    0    0 -0.17417243873E+00  0.28238389241E+00  0.80223077051E+00  0.86813084923E+00  0.51100000000E-03 0. -1.
    9000002    1    1    2    0    0  0.69099598702E+00 -0.77235987273E+00  0.89570841321E+00  0.16601664942E+01  0.93800000000E+00 0. -1.
         22    1    1    2    0    0 -0.51682354829E+00  0.48997598032E+00  0.23020607836E+01  0.24097026565E+01  0.00000000000E+00 0. -1.
</event>
<event>
 5    1  0.1160133E+000  0.1531246E+01  0.7818608E-02  0.3431543E+00
         11   -1    0    0    0    0  0.00000000000E+00  0.00000000000E+00  0.39999999674E+01  0.40000000000E+01  0.51100000000E-03 0. -1.
    9000002   -1    0    0    0    0 -0.00000000000E+00 -0.00000000000E+00  0.00000000000E+00  0.93800000000E+00  0.93800000000E+00 0. -1.
         11    1    1    2    0    0 -0.24160763120E+00 -0.22804088602E+00  0.24648264731E+00  0.41367964622E+00  0.51100000000E-03 0. -1.
    9000002    1    1    2    0    0  0.10737690334E+01  0.42052942646E+00  0.14886398715E+01  0.21037389578E+01  0.93800000000E+00 0. -1.
         22    1    1    2    0    0 -0.83216140221E+00 -0.19248854044E+00  0.22648774486E+01  0.24205813960E+01  0.00000000000E+00 0. -1.
</event>
<event>
 5    1  0.1160133E+000  0.1599674E+01  0.7818608E-02  0.3353717E+00
         11   -1    0    0    0    0  0.00000000000E+00  0.00000000000E+00  0.39999999674E+01  0.40000000000E+01  0.51100000000E-03 0. -1.
    9000002   -1    0    0    0    0 -0.00000000000E+00 -0.00000000000E+00  0.00000000000E+00  0.93800000000E+00  0.93800000000E+00 0.  1.
         11    1    1    2    0    0 -0.74353089216E-01  0.14299477343E+00  0.45486101325E+00  0.48257091666E+00  0.51100000000E-03 0. -1.
    9000002    1    1    2    0    0  0.48670551612E+00 -0.95633670379E+00  0.97108118571E+00  0.17246172966E+01  0.93800000000E+00 0.  1.
         22    1    1    2    0    0 -0.41235242690E+00  0.81334193036E+00  0.25740577684E+01  0.27308117868E+01  0.00000000000E+00 0. -1.
</event>
<event>
 5    1  0.1160133E+000  0.1599425E+01  0.7818608E-02  0.3353988E+00
         11   -1    0    0    0    0  0.00000000000E+00  0.00000000000E+00  0.39999999674E+01  0.40000000000E+01  0.51100000000E-03 0.  1.
    9000002   -1    0    0    0    0 -0.00000000000E+00 -0.00000000000E+00  0.00000000000E+00  0.93800000000E+00  0.93800000000E+00 0. -1.
         11    1    1    2    0    0 -0.53655419815E-01  0.17767349033E+00  0.56122601837E+00  0.59111900499E+00  0.51100000000E-03 0.  1.
    9000002    1    1    2    0    0  0.21873795461E+00 -0.99854135926E+00  0.85228133017E+00  0.16282378833E+01  0.93800000000E+00 0. -1.
         22    1    1    2    0    0 -0.16508253480E+00  0.82086786892E+00  0.25864926188E+01  0.27186431117E+01  0.00000000000E+00 0.  1.
</event>
<event>
 5    1  0.1160133E+000  0.1599672E+01  0.7818608E-02  0.3353719E+00
         11   -1    0    0    0    0  0.00000000000E+00  0.00000000000E+00  0.39999999674E+01  0.40000000000E+01  0.51100000000E-03 0. -1.
    9000002   -1    0    0    0    0 -0.00000000000E+00 -0.00000000000E+00  0.00000000000E+00  0.93800000000E+00  0.93800000000E+00 0.  1.
         11    1    1    2    0    0  0.30218797958E+00  0.64898896962E-02  0.11370837321E+01  0.11765710215E+01  0.51100000000E-03 0. -1.
    9000002    1    1    2    0    0 -0.90356399831E+00 -0.22492961238E-01  0.62635198320E+00  0.14453700700E+01  0.93800000000E+00 0.  1.
         22    1    1    2    0    0  0.60137601873E+00  0.16003071542E-01  0.22365642521E+01  0.23160589085E+01  0.00000000000E+00 0. -1.
</event>
<event>
 5    1  0.1160133E+000  0.1592890E+01  0.7818608E-02  0.3361117E+00
         11   -1    0    0    0    0  0.00000000000E+00  0.00000000000E+00  0.39999999674E+01  0.40000000000E+01  0.51100000000E-03 0. -1.
    9000002   -1    0    0    0    0 -0.00000000000E+00 -0.00000000000E+00  0.00000000000E+00  0.93800000000E+00  0.93800000000E+00 0. -1.
         11    1    1    2    0    0 -0.31785396883E-02  0.40724937967E-01  0.19272348947E+00  0.19700565525E+00  0.51100000000E-03 0. -1.
    9000002    1    1    2    0    0 -0.72032776763E+00 -0.74767531639E+00  0.90219882753E+00  0.16648414927E+01  0.93800000000E+00 0. -1.
         22    1    1    2    0    0  0.72350630732E+00  0.70695037842E+00  0.29050776504E+01  0.30761528520E+01  0.00000000000E+00 0. -1.
</event>
<event>
 5    1  0.1160133E+000  0.1599675E+01  0.7818608E-02  0.3353717E+00
         11   -1    0    0    0    0  0.00000000000E+00  0.00000000000E+00  0.39999999674E+01  0.40000000000E+01  0.51100000000E-03 0.  1.
    9000002   -1    0    0    0    0 -0.00000000000E+00 -0.00000000000E+00  0.00000000000E+00  0.93800000000E+00  0.93800000000E+00 0. -1.
         11    1    1    2    0    0  0.70256448535E-03  0.57529187396E-01  0.18456922017E+00  0.19332914719E+00  0.51100000000E-03 0.  1.
    9000002    1    1    2    0    0 -0.23394754388E-01 -0.99365851825E+00  0.79202276041E+00  0.15795722897E+01  0.93800000000E+00 0. -1.
         22    1    1    2    0    0  0.22692189902E-01  0.93612933086E+00  0.30234079868E+01  0.31650985631E+01  0.00000000000E+00 0.  1.
</event>
<event>
 5    1  0.1160133E+000  0.1599646E+01  0.7818608E-02  0.3353748E+00
         11   -1    0    0    0    0  0.00000000000E+00  0.00000000000E+00  0.39999999674E+01  0.40000000000E+01  0.51100000000E-03 0. -1.
    9000002   -1    0    0    0    0 -0.00000000000E+00 -0.00000000000E+00  0.00000000000E+00  0.93800000000E+00  0.93800000000E+00 0.  1.
         11    1    1    2    0    0 -0.80889923502E-01 -0.37986485832E+00  0.14333690427E+01  0.14850547344E+01  0.51100000000E-03 0. -1.
    9000002    1    1    2    0    0  0.17431516235E+00  0.89142211379E+00  0.63383591681E+00  0.14514169388E+01  0.93800000000E+00 0.  1.
         22    1    1    2    0    0 -0.93425238847E-01 -0.51155725547E+00  0.19327950078E+01  0.20015283268E+01  0.00000000000E+00 0. -1.
</event>
<event>
 5    1  0.1160133E+000  0.1484083E+01  0.7818608E-02  0.3489658E+00
         11   -1    0    0    0    0  0.00000000000E+00  0.00000000000E+00  0.39999999674E+01  0.40000000000E+01  0.51100000000E-03 0. -1.
    9000002   -1    0    0    0    0 -0.00000000000E+00 -0.00000000000E+00  0.00000000000E+00  0.93800000000E+00  0.93800000000E+00 0. -1.
         11    1    1    2    0    0  0.28611698171E+00  0.38522052942E+00  0.33896247916E+00  0.58749775056E+00  0.51100000000E-03 0. -1.
    9000002    1    1    2    0    0 -0.88876163823E+00 -0.63955405628E+00  0.14503140827E+01  0.20450382830E+01  0.93800000000E+00 0. -1.
         22    1    1    2    0    0  0.60264465652E+00  0.25433352686E+00  0.22107234055E+01  0.23054639664E+01  0.00000000000E+00 0. -1.
</event>
<event>
 5    1  0.1160133E+000  0.1586590E+01  0.7818608E-02  0.3368048E+00
         11   -1    0    0    0    0  0.00000000000E+00  0.00000000000E+00  0.39999999674E+01  0.40000000000E+01  0.51100000000E-03 0.  1.
    9000002   -1    0    0    0    0 -0.00000000000E+00 -0.00000000000E+00  0.00000000000E+00  0.93800000000E+00  0.93800000000E+00 0.  1.
         11    1    1    2    0    0 -0.10018308826E+00 -0.61811481673E-01  0.19279616475E+00  0.22589363139E+00  0.51100000000E-03 0.  1.
    9000002    1    1    2    0    0  0.95971379279E+00  0.12256686469E+00  0.76358381661E+00  0.15488632752E+01  0.93800000000E+00 0.  1.
         22    1    1    2    0    0 -0.85953070452E+00 -0.60755383022E-01  0.30436199860E+01  0.31632430934E+01  0.00000000000E+00 0.  1.
</event>
<event>
 5    1  0.1160133E+000  0.1596630E+01  0.7818608E-02  0.3357029E+00
         11   -1    0    0    0    0  0.00000000000E+00  0.00000000000E+00  0.39999999674E+01  0.40000000000E+01  0.51100000000E-03 0. -1.
    9000002   -1    0    0    0    0 -0.00000000000E+00 -0.00000000000E+00  0.00000000000E+00  0.93800000000E+00  0.93800000000E+00 0. -1.
         11    1    1    2    0    0 -0.11961949989E+00  0.47645473439E+00  0.81307563465E+00  0.94995272906E+00  0.51100000000E-03 0. -1.
    9000002    1    1    2    0    0  0.46773142392E+00 -0.11949350854E+01  0.19485016445E+01  0.25145864873E+01  0.93800000000E+00 0. -1.
         22    1    1    2    0    0 -0.34811192403E+00  0.71848035099E+00  0.12384226882E+01  0.14734607837E+01  0.00000000000E+00 0. -1.
</event>
<event>
 5    1  0.1160133E+000  0.1562662E+01  0.7818608E-02  0.3394914E+00
         11   -1    0    0    0    0  0.00000000000E+00  0.00000000000E+00  0.39999999674E+01  0.40000000000E+01  0.51100000000E-03 0. -1.
    9000002   -1    0    0    0    0 -0.00000000000E+00 -0.00000000000E+00  0.00000000000E+00  0.93800000000E+00  0.93800000000E+00 0. -1.
         11    1    1    2    0    0 -0.39759543571E+00  0.10184844176E+00  0.65263249136E+00  0.77096346573E+00  0.51100000000E-03 0. -1.
    9000002    1    1    2    0    0 -0.32742948714E+00  0.35214451074E+00  0.45014319182E+00  0.11461626057E+01  0.93800000000E+00 0. -1.
         22    1    1    2    0    0  0.72502492285E+00 -0.45399295249E+00  0.28972242842E+01  0.30208739286E+01  0.00000000000E+00 0. -1.
</event>
<event>
 5    1  0.1160133E+000  0.1591608E+01  0.7818608E-02  0.3362522E+00
         11   -1    0    0    0    0  0.00000000000E+00  0.00000000000E+00  0.39999999674E+01  0.40000000000E+01  0.51100000000E-03 0. -1.
    9000002   -1    0    0    0    0 -0.00000000000E+00 -0.00000000000E+00  0.00000000000E+00  0.93800000000E+00  0.93800000000E+00 0. -1.
         11    1    1    2    0    0  0.30155904044E+00  0.84921660739E-01  0.10907583691E+01  0.11348584160E+01  0.51100000000E-03 0. -1.
    9000002    1    1    2    0    0 -0.93699392082E+00  0.49758320556E-01  0.69939634620E+00  0.14998109038E+01  0.93800000000E+00 0. -1.
         22    1    1    2    0    0  0.63543488037E+00 -0.13467998130E+00  0.22098452520E+01  0.23033306802E+01  0.00000000000E+00 0. -1.
</event>
<event>
 5    1  0.1160133E+000  0.1599677E+01  0.7818608E-02  0.3353715E+00
         11   -1    0    0    0    0  0.00000000000E+00  0.00000000000E+00  0.39999999674E+01  0.40000000000E+01  0.51100000000E-03 0.  1.
    9000002   -1    0    0    0    0 -0.00000000000E+00 -0.00000000000E+00  0.00000000000E+00  0.93800000000E+00  0.93800000000E+00 0. -1.
         11    1    1    2    0    0 -0.25913448136E+00 -0.44169214845E-01  0.42668324463E+00  0.50115910781E+00  0.51100000000E-03 0.  1.
    9000002    1    1    2    0    0  0.12654106429E+01  0.21746709352E+00  0.19117345800E+01  0.24865898609E+01  0.93800000000E+00 0. -1.
         22    1    1    2    0    0 -0.10062761615E+01 -0.17329787867E+00  0.16615821428E+01  0.19502510313E+01  0.00000000000E+00 0.  1.
</event>
<event>
 5    1  0.1160133E+000  0.1596946E+01  0.7818608E-02  0.3356685E+00
         11   -1    0    0    0    0  0.00000000000E+00  0.00000000000E+00  0.39999999674E+01  0.40000000000E+01  0.51100000000E-03 0. -1.
    9000002   -1    0    0    0    0 -0.00000000000E+00 -0.00000000000E+00  0.00000000000E+00  0.93800000000E+00  0.93800000000E+00 0.  1.
         11    1    1    2    0    0 -0.13914089192E+00  0.71589084917E-01  0.78603368352E+00  0.80145767052E+00  0.51100000000E-03 0. -1.
    9000002    1    1    2    0    0  0.69473966946E+00 -0.52824020644E+00  0.58042797428E+00  0.14065708505E+01  0.93800000000E+00 0.  1.
         22    1    1    2    0    0 -0.55559877754E+00  0.45665112152E+00  0.26335383096E+01  0.27299714790E+01  0.00000000000E+00 0. -1.
</event>
<event>
 5    1  0.1160133E+000  0.1545162E+01  0.7818608E-02  0.3415121E+00
         11   -1    0    0    0    0  0.00000000000E+00  0.00000000000E+00  0.39999999674E+01  0.40000000000E+01  0.51100000000E-03 0. -1.
    9000002   -1    0    0    0    0 -0.00000000000E+00 -0.00000000000E+00  0.00000000000E+00  0.93800000000E+00  0.93800000000E+00 0. -1.
         11    1    1    2    0    0 -0.21638342094E-01  0.20999365103E-01  0.12227900262E+01  0.12231618455E+01  0.51100000000E-03 0. -1.
    9000002    1    1    2    0    0 -0.45113533759E+00 -0.63977724267E+00  0.52132455665E+00  0.13283302701E+01  0.93800000000E+00 0. -1.
         22    1    1    2    0    0  0.47277367968E+00  0.61877787756E+00  0.22558853846E+01  0.23865078844E+01  0.00000000000E+00 0. -1.
</event>
<event>
 5    1  0.1160133E+000  0.1598287E+01  0.7818608E-02  0.3355225E+00
         11   -1    0    0    0    0  0.00000000000E+00  0.00000000000E+00  0.39999999674E+01  0.40000000000E+01  0.51100000000E-03 0.  1.
    9000002   -1    0    0    0    0 -0.00000000000E+00 -0.00000000000E+00  0.00000000000E+00  0.93800000000E+00  0.93800000000E+00 0.  1.
         11    1    1    2    0    0 -0.17831777540E+00  0.40187795674E+00  0.51718646345E+00  0.67881162353E+00  0.51100000000E-03 0.  1.
    9000002    1    1    2    0    0  0.41096466966E+00 -0.12204308126E+01  0.24259304358E+01  0.29022966435E+01  0.93800000000E+00 0.  1.
         22    1    1    2    0    0 -0.23264689426E+00  0.81855285582E+00  0.10568830682E+01  0.13568917329E+01  0.00000000000E+00 0.  1.
</event>
<event>
 5    1  0.1160133E+000  0.1566079E+01  0.7818608E-02  0.3391024E+00
         11   -1    0    0    0    0  0.00000000000E+00  0.00000000000E+00  0.39999999674E+01  0.40000000000E+01  0.51100000000E-03 0.  1.
    9000002   -1    0    0    0    0 -0.00000000000E+00 -0.00000000000E+00  0.00000000000E+00  0.93800000000E+00  0.93800000000E+00 0.  1.
         11    1    1    2    0    0  0.47014439177E+00  0.34806763344E+00  0.57455191604E+00  0.81993718778E+00  0.51100000000E-03 0.  1.
    9000002    1    1    2    0    0 -0.80141050665E+00 -0.96388132643E+00  0.20989400908E+01  0.26185338486E+01  0.93800000000E+00 0.  1.
         22    1    1    2    0    0  0.33126611488E+00  0.61581369299E+00  0.13265079605E+01  0.14995289636E+01  0.00000000000E+00 0.  1.
</event>
<event>
 5    1  0.1160133E+000  0.1598809E+01  0.7818608E-02  0.3354658E+00
         11   -1    0    0    0    0  0.00000000000E+00  0.00000000000E+00  0.39999999674E+01  0.40000000000E+01  0.51100000000E-03 0. -1.
    9000002   -1    0    0    0    0 -0.00000000000E+00 -0.00000000000E+00  0.00000000000E+00  0.93800000000E+00  0.93800000000E+00 0.  1.
         11    1    1    2    0    0 -0.12470821706E+00  0.35335707274E+00  0.76549181974E+00  0.85228595405E+00  0.51100000000E-03 0. -1.
    9000002    1    1    2    0    0  0.33998683190E+00 -0.11445788565E+01  0.13548032578E+01  0.20349416876E+01  0.93800000000E+00 0.  1.
         22    1    1    2    0    0 -0.21527861484E+00  0.79122178371E+00  0.18797048899E+01  0.20507723584E+01  0.00000000000E+00 0. -1.
</event>
<event>
 5    1  0.1160133E+000  0.1599677E+01  0.7818608E-02  0.3353714E+00
         11   -1    0    0    0    0  0.00000000000E+00  0.00000000000E+00  0.39999999674E+01  0.40000000000E+01  0.51100000000E-03 0. -1.
    9000002   -1    0    0    0    0 -0.00000000000E+00 -0.00000000000E+00  0.00000000000E+00  0.93800000000E+00  0.93800000000E+00 0.  1.
         11    1    1    2    0    0  0.31564136249E+00 -0.40395040009E+00  0.13385475525E+01  0.14333580177E+01  0.51100000000E-03 0.  1.
    9000002    1    1    2    0    0 -0.68708003282E+00  0.87913050414E+00  0.10861627837E+01  0.18178402041E+01  0.93800000000E+00 0.  1.
         22    1    1    2    0    0  0.37143867033E+00 -0.47518010405E+00  0.15752896311E+01  0.16868017782E+01  0.00000000000E+00 0. -1.
</event>
<event>
 5    1  0.1160133E+000  0.1584056E+01  0.7818608E-02  0.3370853E+00
         11   -1    0    0    0    0  0.00000000000E+00  0.00000000000E+00  0.39999999674E+01  0.40000000000E+01  0.51100000000E-03 0.  1.
    9000002   -1    0    0    0    0 -0.00000000000E+00 -0.00000000000E+00  0.00000000000E+00  0.93800000000E+00  0.93800000000E+00 0. -1.
         11    1    1    2    0    0 -0.10203823203E+00 -0.60817307282E-01  0.70585613414E+00  0.71578187242E+00  0.51100000000E-03 0.  1.
    9000002    1    1    2    0    0  0.85966379667E+00 -0.17042999672E+00  0.60556167528E+00  0.14193721040E+01  0.93800000000E+00 0. -1.
         22    1    1    2    0    0 -0.75762556465E+00  0.23124730400E+00  0.26885821579E+01  0.28028460236E+01  0.00000000000E+00 0.  1.
</event>
<event>
 5    1  0.1185076E+000  0.1530995E+01  0.7818608E-02  0.3431842E+00
         11   -1    0    0    0    0  0.00000000000E+00  0.00000000000E+00  0.39999999674E+01  0.40000000000E+01  0.51100000000E-03 0.  1.
    9000002   -1    0    0    0    0 -0.00000000000E+00 -0.00000000000E+00  0.00000000000E+00  0.93800000000E+00  0.93800000000E+00 0. -1.
         11    1    1    2    0    0  0.11191875530E+00 -0.71537783192E-01  0.12618977094E+01  0.12688693993E+01  0.51100000000E-03 0.  1.
    9000002    1    1    2    0    0  0.52032527773E+00  0.41130496923E+00  0.38909068354E+00  0.12129079653E+01  0.93800000000E+00 0. -1.
         22    1    1    2    0    0 -0.63224403303E+00 -0.33976718604E+00  0.23490115744E+01  0.24562226354E+01  0.00000000000E+00 0.  1.
</event>
<event>
 5    1  0.1248643E+000  0.1539165E+01  0.7818608E-02  0.3422159E+00
         11   -1    0    0    0    0  0.00000000000E+00  0.00000000000E+00  0.39999999674E+01  0.40000000000E+01  0.51100000000E-03 0. -1.
    9000002   -1    0    0    0    0 -0.00000000000E+00 -0.00000000000E+00  0.00000000000E+00  0.93800000000E+00  0.93800000000E+00 0. -1.
         11    1    1    2    0    0  0.30828022955E+00  0.79955377545E-01  0.35208452085E+00  0.47475607766E+00  0.51100000000E-03 0. -1.
    9000002    1    1    2    0    0  0.54757537118E+00 -0.81490606375E-01  0.49528625500E+00  0.11965082450E+01  0.93800000000E+00 0. -1.
         22    1    1    2    0    0 -0.85585560073E+00  0.15352288300E-02  0.31526291915E+01  0.32667356773E+01  0.00000000000E+00 0. -1.
</event>
<event>
 5    1  0.1160133E+000  0.1547318E+01  0.7818608E-02  0.3412605E+00
         11   -1    0    0    0    0  0.00000000000E+00  0.00000000000E+00  0.39999999674E+01  0.40000000000E+01  0.51100000000E-03 0. -1.
    9000002   -1    0    0    0    0 -0.00000000000E+00 -0.00000000000E+00  0.00000000000E+00  0.93800000000E+00  0.93800000000E+00 0. -1.
         11    1    1    2    0    0  0.77483502421E-02 -0.73771301333E-01  0.31409815355E+00  0.32273852112E+00  0.51100000000E-03 0. -1.
    9000002    1    1    2    0    0  0.31822250662E+00 -0.87391147297E+00  0.76328464539E+00  0.15255930900E+01  0.93800000000E+00 0. -1.
         22    1    1    2    0    0 -0.32597085686E+00  0.94768277430E+00  0.29226171684E+01  0.30896683889E+01  0.00000000000E+00 0. -1.
</event>
<event>
 5    1  0.1160133E+000  0.1573098E+01  0.7818608E-02  0.3383089E+00
         11   -1    0    0    0    0  0.00000000000E+00  0.00000000000E+00  0.39999999674E+01  0.40000000000E+01  0.51100000000E-03 0. -1.
    9000002   -1    0    0    0    0 -0.00000000000E+00 -0.00000000000E+00  0.00000000000E+00  0.93800000000E+00  0.93800000000E+00 0. -1.
         11    1    1    2    0    0  0.57720429585E+00 -0.17583262707E+00  0.13110917213E+01  0.14432753288E+01  0.51100000000E-03 0. -1.
    9000002    1    1    2    0    0 -0.89372083581E+00  0.53659881553E+00  0.95751285329E+00  0.16980430164E+01  0.93800000000E+00 0. -1.
         22    1    1    2    0    0  0.31651653996E+00 -0.36076618845E+00  0.17313953928E+01  0.17966816549E+01  0.00000000000E+00 0. -1.
</event>
<event>
 5    1  0.1160133E+000  0.1153709E+01  0.7818608E-02  0.4106733E+00
         11   -1    0    0    0    0  0.00000000000E+00  0.00000000000E+00  0.39999999674E+01  0.40000000000E+01  0.51100000000E-03 0.  1.
    9000002   -1    0    0    0    0 -0.00000000000E+00 -0.00000000000E+00  0.00000000000E+00  0.93800000000E+00  0.93800000000E+00 0.  1.
         11    1    1    2    0    0 -0.55999437553E+00  0.53644072797E+00  0.10978242268E+01  0.13440910123E+01  0.51100000000E-03 0.  1.
    9000002    1    1    2    0    0 -0.15683983740E+00 -0.25770850803E+00  0.57028796711E+00  0.11384571907E+01  0.93800000000E+00 0.  1.
         22    1    1    2    0    0  0.71683421293E+00 -0.27873221994E+00  0.23318877735E+01  0.24554517970E+01  0.00000000000E+00 0.  1.
</event>
<event>
 5    1  0.1160133E+000  0.1599676E+01  0.7818608E-02  0.3353715E+00
         11   -1    0    0    0    0  0.00000000000E+00  0.00000000000E+00  0.39999999674E+01  0.40000000000E+01  0.51100000000E-03 0. -1.
    9000002   -1    0    0    0    0 -0.00000000000E+00 -0.00000000000E+00  0.00000000000E+00  0.93800000000E+00  0.93800000000E+00 0. -1.
         11    1    1    2    0    0  0.32720974021E+00 -0.17523646813E+00  0.92214241223E+00  0.99404271709E+00  0.51100000000E-03 0. -1.
    9000002    1    1    2    0    0 -0.10040014146E+01  0.54173510053E+00  0.11618949853E+01  0.18791859186E+01  0.93800000000E+00 0. -1.
         22    1    1    2    0    0  0.67679167438E+00 -0.36649863240E+00  0.19159625698E+01  0.20647713643E+01  0.00000000000E+00 0. -1.
</event>
<event>
 5    1  0.1160133E+000  0.1599643E+01  0.7818608E-02  0.3353751E+00
         11   -1    0    0    0    0  0.00000000000E+00  0.00000000000E+00  0.39999999674E+01  0.40000000000E+01  0.51100000000E-03 0. -1.
    9000002   -1    0    0    0    0 -0.00000000000E+00 -0.00000000000E+00  0.00000000000E+00  0.93800000000E+00  0.93800000000E+00 0. -1.
         11    1    1    2    0    0 -0.43151335108E+00 -0.17809885236E+00  0.13779845972E+01  0.14549105761E+01  0.51100000000E-03 0. -1.
    9000002    1    1    2    0    0  0.95776235304E+00  0.40199990029E+00  0.88872547839E+00  0.16578870953E+01  0.93800000000E+00 0. -1.
         22    1    1    2    0    0 -0.52624900195E+00 -0.22390104793E+00  0.17332898918E+01  0.18252023286E+01  0.00000000000E+00 0. -1.
</event>
<event>
 5    1  0.1160133E+000  0.1582941E+01  0.7818608E-02  0.3372090E+00
         11   -1    0    0    0    0  0.00000000000E+00  0.00000000000E+00  0.39999999674E+01  0.40000000000E+01  0.51100000000E-03 0.  1.
    9000002   -1    0    0    0    0 -0.00000000000E+00 -0.00000000000E+00  0.00000000000E+00  0.93800000000E+00  0.93800000000E+00 0.  1.
         11    1    1    2    0    0  0.11642201506E+00  0.22867462542E+00  0.13248799444E+01  0.13495011293E+01  0.51100000000E-03 0.  1.
    9000002    1    1    2    0    0 -0.16922596179E+00 -0.93275261373E+00  0.73246941334E+00  0.15215190784E+01  0.93800000000E+00 0.  1.
         22    1    1    2    0    0  0.52803946725E-01  0.70407798831E+00  0.19426506096E+01  0.20669797922E+01  0.00000000000E+00 0.  1.
</event>
<event>
 5    1  0.1360244E+000  0.1593664E+01  0.7818608E-02  0.3360269E+00
         11   -1    0    0    0    0  0.00000000000E+00  0.00000000000E+00  0.39999999674E+01  0.40000000000E+01  0.51100000000E-03 0.  1.
    9000002   -1    0    0    0    0 -0.00000000000E+00 -0.00000000000E+00  0.00000000000E+00  0.93800000000E+00  0.93800000000E+00 0.  1.
         11    1    1    2    0    0 -0.15154494566E+00 -0.17130355882E+00  0.13425478068E+01  0.13618904708E+01  0.51100000000E-03 0.  1.
    9000002    1    1    2    0    0  0.44355739741E+00  0.68318697272E+00  0.49921498495E+00  0.13388604131E+01  0.93800000000E+00 0.  1.
         22    1    1    2    0    0 -0.29201245175E+00 -0.51188341390E+00  0.21582371756E+01  0.22372491161E+01  0.00000000000E+00 0. -1.
</event>
<event>
 5    1  0.1160133E+000  0.1590156E+01  0.7818608E-02  0.3364118E+00
         11   -1    0    0    0    0  0.00000000000E+00  0.00000000000E+00  0.39999999674E+01  0.40000000000E+01  0.51100000000E-03 0. -1.
    9000002   -1    0    0    0    0 -0.00000000000E+00 -0.00000000000E+00  0.00000000000E+00  0.93800000000E+00  0.93800000000E+00 0.  1.
         11    1    1    2    0    0 -0.18015780833E-01  0.76566773066E-02  0.19963272685E-01  0.27964020521E-01  0.51100000000E-03 0. -1.
    9000002    1    1    2    0    0 -0.27810063824E+00 -0.96297136499E+00  0.82804667678E+00  0.16031715796E+01  0.93800000000E+00 0.  1.
         22    1    1    2    0    0  0.29611641907E+00  0.95531468768E+00  0.31519900179E+01  0.33068643999E+01  0.00000000000E+00 0. -1.
</event>
<event>
 5    1  0.1160133E+000  0.1102253E+01  0.7818608E-02  0.4247681E+00
         11   -1    0    0    0    0  0.00000000000E+00  0.00000000000E+00  0.39999999674E+01  0.40000000000E+01  0.51100000000E-03 0. -1.
    9000002   -1    0    0    0    0 -0.00000000000E+00 -0.00000000000E+00  0.00000000000E+00  0.93800000000E+00  0.93800000000E+00 0.  1.
         11    1    1    2    0    0  0.62209327150E+00  0.81239144133E-01  0.40337858739E+00  0.74586485564E+00  0.51100000000E-03 0. -1.
    9000002    1    1    2    0    0  0.75540028505E-01 -0.39237741354E+00  0.80837394380E+00  0.13011451739E+01  0.93800000000E+00 0.  1.
         22    1    1    2    0    0 -0.69763330001E+00  0.31113826941E+00  0.27882474362E+01  0.28909899705E+01  0.00000000000E+00 0. -1.
</event>
<event>
 5    1  0.1160133E+000  0.1599674E+01  0.7818608E-02  0.3353717E+00
         11   -1    0    0    0    0  0.00000000000E+00  0.00000000000E+00  0.39999999674E+01  0.40000000000E+01  0.51100000000E-03 0. -1.
    9000002   -1    0    0    0    0 -0.00000000000E+00 -0.00000000000E+00  0.00000000000E+00  0.93800000000E+00  0.93800000000E+00 0. -1.
         11    1    1    2    0    0  0.11596173633E+00 -0.41608830821E+00  0.13262264298E+01  0.13947951136E+01  0.51100000000E-03 0. -1.
    9000002    1    1    2    0    0 -0.27131045366E+00  0.98915741992E+00  0.85940705539E+00  0.16341561279E+01  0.93800000000E+00 0. -1.
         22    1    1    2    0    0  0.15534871733E+00 -0.57306911171E+00  0.18143664821E+01  0.19090487585E+01  0.00000000000E+00 0.  1.
</event>
<event>
 5    1  0.1160133E+000  0.1599380E+01  0.7818608E-02  0.3354036E+00
         11   -1    0    0    0    0  0.00000000000E+00  0.00000000000E+00  0.39999999674E+01  0.40000000000E+01  0.51100000000E-03 0. -1.
    9000002   -1    0    0    0    0 -0.00000000000E+00 -0.00000000000E+00  0.00000000000E+00  0.93800000000E+00  0.93800000000E+00 0. -1.
         11    1    1    2    0    0  0.14341555102E+00  0.11546534341E+00  0.66448520921E+00  0.68952238556E+00  0.51100000000E-03 0. -1.
    9000002    1    1    2    0    0 -0.69218550980E+00 -0.65284241242E+00  0.71022044781E+00  0.15131361736E+01  0.93800000000E+00 0. -1.
         22    1    1    2    0    0  0.54876995879E+00  0.53737706901E+00  0.26252943103E+01  0.27353414408E+01  0.00000000000E+00 0. -1.
</event>
<event>
 5    1  0.1160133E+000  0.1599175E+01  0.7818608E-02  0.3354259E+00
         11   -1    0    0    0    0  0.00000000000E+00  0.00000000000E+00  0.39999999674E+01  0.40000000000E+01  0.51100000000E-03 0.  1.
    9000002   -1    0    0    0    0 -0.00000000000E+00 -0.00000000000E+00  0.00000000000E+00  0.93800000000E+00  0.93800000000E+00 0.  1.
         11    1    1    2    0    0 -0.81146566938E-02 -0.33394433741E-01  0.13024987630E+00  0.13470830433E+00  0.51100000000E-03 0.  1.
    9000002    1    1    2    0    0  0.47075777577E+00  0.81588987587E+00  0.69317448213E+00  0.14992078027E+01  0.93800000000E+00 0.  1.
         22    1    1    2    0    0 -0.46264311907E+00 -0.78249544213E+00  0.31765756089E+01  0.33040838930E+01  0.00000000000E+00 0.  1.
</event>
<event>
 5    1  0.1160133E+000  0.1599107E+01  0.7818608E-02  0.3354333E+00
         11   -1    0    0    0    0  0.00000000000E+00  0.00000000000E+00  0.39999999674E+01  0.40000000000E+01  0.51100000000E-03 0. -1.
    9000002   -1    0    0    0    0 -0.00000000000E+00 -0.00000000000E+00  0.00000000000E+00  0.93800000000E+00  0.93800000000E+00 0. -1.
         11    1    1    2    0    0  0.18490630054E-01 -0.25396954147E+00  0.99548035115E+00  0.10275328812E+01  0.51100000000E-03 0. -1.
    9000002    1    1    2    0    0  0.13908156520E-01  0.90599533139E+00  0.63099438542E+00  0.14487991206E+01  0.93800000000E+00 0. -1.
         22    1    1    2    0    0 -0.32398786574E-01 -0.65202578992E+00  0.23735252308E+01  0.24616679982E+01  0.00000000000E+00 0. -1.
</event>
<event>
 5    1  0.1160133E+000  0.1599676E+01  0.7818608E-02  0.3353716E+00
         11   -1    0    0    0    0  0.00000000000E+00  0.00000000000E+00  0.39999999674E+01  0.40000000000E+01  0.51100000000E-03 0. -1.
    9000002   -1    0    0    0    0 -0.00000000000E+00 -0.00000000000E+00  0.00000000000E+00  0.93800000000E+00  0.93800000000E+00 0. -1.
         11    1    1    2    0    0  0.20452374115E+00  0.92758066855E-01  0.58520891977E+00  0.62682035748E+00  0.51100000000E-03 0. -1.
    9000002    1    1    2    0    0 -0.10192192211E+01 -0.45618665685E+00  0.10887121813E+01  0.18199044756E+01  0.93800000000E+00 0. -1.
         22    1    1    2    0    0  0.81469547998E+00  0.36342858999E+00  0.23260788662E+01  0.24912751669E+01  0.00000000000E+00 0. -1.
</event>
<event>
 5    1  0.1160133E+000  0.1599614E+01  0.7818608E-02  0.3353783E+00
         11   -1    0    0    0    0  0.00000000000E+00  0.00000000000E+00  0.39999999674E+01  0.40000000000E+01  0.51100000000E-03 0. -1.
    9000002   -1    0    0    0    0 -0.00000000000E+00 -0.00000000000E+00  0.00000000000E+00  0.93800000000E+00  0.93800000000E+00 0. -1.
         11    1    1    2    0    0 -0.71251899663E-01  0.25485075547E+00  0.87549650875E+00  0.91461474880E+00  0.51100000000E-03 0. -1.
    9000002    1    1    2    0    0  0.24637188837E+00 -0.96243115216E+00  0.79118292564E+00  0.15788563113E+01  0.93800000000E+00 0. -1.
         22    1    1    2    0    0 -0.17511998871E+00  0.70758039669E+00  0.23333205330E+01  0.24445289399E+01  0.00000000000E+00 0. -1.
</event>
<event>
 5    1  0.1160133E+000  0.1462342E+01  0.7818608E-02  0.3517813E+00
         11   -1    0    0    0    0  0.00000000000E+00  0.00000000000E+00  0.39999999674E+01  0.40000000000E+01  0.51100000000E-03 0. -1.
    9000002   -1    0    0    0    0 -0.00000000000E+00 -0.00000000000E+00  0.00000000000E+00  0.93800000000E+00  0.93800000000E+00 0.  1.
         11    1    1    2    0    0 -0.55805581446E-01 -0.32362905845E+00  0.12519233599E+01  0.12942806460E+01  0.51100000000E-03 0. -1.
    9000002    1    1    2    0    0  0.63414530566E+00 -0.19284484488E+00  0.47653732815E+00  0.12434875263E+01  0.93800000000E+00 0.  1.
         22    1    1    2    0    0 -0.57833972421E+00  0.51647390334E+00  0.22715392793E+01  0.24002318277E+01  0.00000000000E+00 0. -1.
</event>
<event>
 5    1  0.1160133E+000  0.1586810E+01  0.7818608E-02  0.3367805E+00
         11   -1    0    0    0    0  0.00000000000E+00  0.00000000000E+00  0.39999999674E+01  0.40000000000E+01  0.51100000000E-03 0. -1.
    9000002   -1    0    0    0    0 -0.00000000000E+00 -0.00000000000E+00  0.00000000000E+00  0.93800000000E+00  0.93800000000E+00 0. -1.
         11    1    1    2    0    0  0.19025367019E+00 -0.10730169864E+00  0.76194977231E+00  0.79263978590E+00  0.51100000000E-03 0. -1.
    9000002    1    1    2    0    0 -0.46907836575E+00  0.81421607091E+00  0.71013305072E+00  0.15056942827E+01  0.93800000000E+00 0. -1.
         22    1    1    2    0    0  0.27882469556E+00 -0.70691437227E+00  0.25279171443E+01  0.26396659314E+01  0.00000000000E+00 0. -1.
</event>
<event>
 5    1  0.1160133E+000  0.1550173E+01  0.7818608E-02  0.3409285E+00
         11   -1    0    0    0    0  0.00000000000E+00  0.00000000000E+00  0.39999999674E+01  0.40000000000E+01  0.51100000000E-03 0. -1.
    9000002   -1    0    0    0    0 -0.00000000000E+00 -0.00000000000E+00  0.00000000000E+00  0.93800000000E+00  0.93800000000E+00 0. -1.
         11    1    1    2    0    0  0.30291642184E+00  0.13673434473E+00  0.12155116020E+01  0.12601283091E+01  0.51100000000E-03 0. -1.
    9000002    1    1    2    0    0 -0.87052007267E+00  0.32598172181E+00  0.75693919042E+00  0.15221268731E+01  0.93800000000E+00 0. -1.
         22    1    1    2    0    0  0.56760365083E+00 -0.46271606654E+00  0.20275491749E+01  0.21557448178E+01  0.00000000000E+00 0.  1.
</event>
<event>
 5    1  0.1160133E+000  0.1270319E+01  0.7818608E-02  0.3840346E+00
         11   -1    0    0    0    0  0.00000000000E+00  0.00000000000E+00  0.39999999674E+01  0.40000000000E+01  0.51100000000E-03 0.  1.
    9000002   -1    0    0    0    0 -0.00000000000E+00 -0.00000000000E+00  0.00000000000E+00  0.93800000000E+00  0.93800000000E+00 0.  1.
         11    1    1    2    0    0 -0.13624450538E-01  0.55854033422E+00  0.11463725103E+01  0.12752737448E+01  0.51100000000E-03 0.  1.
    9000002    1    1    2    0    0  0.33256351517E+00  0.25400685477E+00  0.48010786340E+00  0.11337837247E+01  0.93800000000E+00 0.  1.
         22    1    1    2    0    0 -0.31893906463E+00 -0.81254718898E+00  0.23735195936E+01  0.25289425305E+01  0.00000000000E+00 0.  1.
</event>
<event>
 5    1  0.1160133E+000  0.1599629E+01  0.7818608E-02  0.3353766E+00
         11   -1    0    0    0    0  0.00000000000E+00  0.00000000000E+00  0.39999999674E+01  0.40000000000E+01  0.51100000000E-03 0.  1.
    9000002   -1    0    0    0    0 -0.00000000000E+00 -0.00000000000E+00  0.00000000000E+00  0.93800000000E+00  0.93800000000E+00 0.  1.
         11    1    1    2    0    0 -0.12230098962E+00 -0.25168471247E-01  0.48415119882E+00  0.49999362841E+00  0.51100000000E-03 0.  1.
    9000002    1    1    2    0    0  0.87844435161E+00  0.20791518713E+00  0.62454582129E+00  0.14438818119E+01  0.93800000000E+00 0.  1.
         22    1    1    2    0    0 -0.75614336198E+00 -0.18274671589E+00  0.28913029473E+01  0.29941245597E+01  0.00000000000E+00 0.  1.
</event>
<event>
 5    1  0.1160133E+000  0.1451379E+01  0.7818608E-02  0.3532358E+00
         11   -1    0    0    0    0  0.00000000000E+00  0.00000000000E+00  0.39999999674E+01  0.40000000000E+01  0.51100000000E-03 0.  1.
    9000002   -1    0    0    0    0 -0.00000000000E+00 -0.00000000000E+00  0.00000000000E+00  0.93800000000E+00  0.93800000000E+00 0.  1.
         11    1    1    2    0    0  0.19434943805E+00 -0.69739585942E-01  0.40646384442E+00  0.45590397219E+00  0.51100000000E-03 0.  1.
    9000002    1    1    2    0    0  0.58180356014E+00 -0.66764912831E+00  0.87069060583E+00  0.15563408599E+01  0.93800000000E+00 0.  1.
         22    1    1    2    0    0 -0.77615299819E+00  0.73738871425E+00  0.27228455171E+01  0.29257551679E+01  0.00000000000E+00 0.  1.
</event>
<event>
 5    1  0.1160133E+000  0.1598350E+01  0.7818608E-02  0.3355156E+00
         11   -1    0    0    0    0  0.00000000000E+00  0.00000000000E+00  0.39999999674E+01  0.40000000000E+01  0.51100000000E-03 0.  1.
    9000002   -1    0    0    0    0 -0.00000000000E+00 -0.00000000000E+00  0.00000000000E+00  0.93800000000E+00  0.93800000000E+00 0.  1.
         11    1    1    2    0    0  0.90937931024E-02 -0.43890786759E+00  0.13473033465E+01  0.14170213061E+01  0.51100000000E-03 0.  1.
    9000002    1    1    2    0    0 -0.28553652901E-01  0.10813180181E+01  0.99635464113E+00  0.17443137729E+01  0.93800000000E+00 0.  1.
         22    1    1    2    0    0  0.19459859798E-01 -0.64241015056E+00  0.16563419797E+01  0.17766649210E+01  0.00000000000E+00 0.  1.
</event>
<event>
 5    1  0.1160133E+000  0.1590452E+01  0.7818608E-02  0.3363792E+00
         11   -1    0    0    0    0  0.00000000000E+00  0.00000000000E+00  0.39999999674E+01  0.40000000000E+01  0.51100000000E-03 0.  1.
    9000002   -1    0    0    0    0 -0.00000000000E+00 -0.00000000000E+00  0.00000000000E+00  0.93800000000E+00  0.93800000000E+00 0.  1.
         11    1    1    2    0    0  0.13516127330E+00 -0.26113619184E-01  0.58264752432E+00  0.59868930977E+00  0.51100000000E-03 0.  1.
    9000002    1    1    2    0    0 -0.68912560430E+00  0.64273761933E+00  0.70875166259E+00  0.15067112082E+01  0.93800000000E+00 0.  1.
         22    1    1    2    0    0  0.55396433100E+00 -0.61662400015E+00  0.27086007804E+01  0.28325994820E+01  0.00000000000E+00 0.  1.
</event>
<event>
 5    1  0.1160133E+000  0.1599648E+01  0.7818608E-02  0.3353746E+00
         11   -1    0    0    0    0  0.00000000000E+00  0.00000000000E+00  0.39999999674E+01  0.40000000000E+01  0.51100000000E-03 0.  1.
    9000002   -1    0    0    0    0 -0.00000000000E+00 -0.00000000000E+00  0.00000000000E+00  0.93800000000E+00  0.93800000000E+00 0.  1.
         11    1    1    2    0    0  0.98084371060E-01  0.20889784992E+00  0.83138213851E+00  0.86281827572E+00  0.51100000000E-03 0.  1.
    9000002    1    1    2    0    0 -0.40480212106E+00 -0.82152402149E+00  0.64656904848E+00  0.14617325369E+01  0.93800000000E+00 0.  1.
         22    1    1    2    0    0  0.30671775000E+00  0.61262617157E+00  0.25220487804E+01  0.26134491873E+01  0.00000000000E+00 0.  1.
</event>
<event>
 5    1  0.1160133E+000  0.1598179E+01  0.7818608E-02  0.3355343E+00
         11   -1    0    0    0    0  0.00000000000E+00  0.00000000000E+00  0.39999999674E+01  0.40000000000E+01  0.51100000000E-03 0. -1.
    9000002   -1    0    0    0    0 -0.00000000000E+00 -0.00000000000E+00  0.00000000000E+00  0.93800000000E+00  0.93800000000E+00 0.  1.
         11    1    1    2    0    0  0.47317939670E+00 -0.81240984580E-01  0.10954637613E+01  0.11960518185E+01  0.51100000000E-03 0. -1.
    9000002    1    1    2    0    0 -0.11284479056E+01  0.13771894313E+00  0.11538118369E+01  0.18717603847E+01  0.93800000000E+00 0.  1.
         22    1    1    2    0    0  0.65526850886E+00 -0.56477958552E-01  0.17507243692E+01  0.18701877968E+01  0.00000000000E+00 0. -1.
</event>
<event>
 5    1  0.1160133E+000  0.1599657E+01  0.7818608E-02  0.3353735E+00
         11   -1    0    0    0    0  0.00000000000E+00  0.00000000000E+00  0.39999999674E+01  0.40000000000E+01  0.51100000000E-03 0. -1.
    9000002   -1    0    0    0    0 -0.00000000000E+00 -0.00000000000E+00  0.00000000000E+00  0.93800000000E+00  0.93800000000E+00 0.  1.
         11    1    1    2    0    0 -0.10360467580E+00  0.23075902767E+00  0.88307700910E+00  0.91859072650E+00  0.51100000000E-03 0. -1.
    9000002    1    1    2    0    0  0.38868070979E+00 -0.87477473401E+00  0.72042519265E+00  0.15215649798E+01  0.93800000000E+00 0.  1.
         22    1    1    2    0    0 -0.28507603400E+00  0.64401570634E+00  0.23964977656E+01  0.24978442937E+01  0.00000000000E+00 0. -1.
</event>
<event>
 5    1  0.1160133E+000  0.1608555E+01  0.7818608E-02  0.3344131E+00
         11   -1    0    0    0    0  0.00000000000E+00  0.00000000000E+00  0.39999999674E+01  0.40000000000E+01  0.51100000000E-03 0.  1.
    9000002   -1    0    0    0    0 -0.00000000000E+00 -0.00000000000E+00  0.00000000000E+00  0.93800000000E+00  0.93800000000E+00 0.  1.
         11    1    1    2    0    0  0.11857835896E+00  0.43538831466E+00  0.82925850026E+00  0.94408354139E+00  0.51100000000E-03 0.  1.
    9000002    1    1    2    0    0  0.26675694157E+00  0.46750311177E+00  0.58816624611E+00  0.12310572523E+01  0.93800000000E+00 0.  1.
         22    1    1    2    0    0 -0.38533530053E+00 -0.90289142643E+00  0.25825752210E+01  0.27628592063E+01  0.00000000000E+00 0.  1.
</event>
<event>
 5    1  0.1160133E+000  0.1559982E+01  0.7818608E-02  0.3397977E+00
         11   -1    0    0    0    0  0.00000000000E+00  0.00000000000E+00  0.39999999674E+01  0.40000000000E+01  0.51100000000E-03 0.  1.
    9000002   -1    0    0    0    0 -0.00000000000E+00 -0.00000000000E+00  0.00000000000E+00  0.93800000000E+00  0.93800000000E+00 0. -1.
         11    1    1    2    0    0  0.93376176765E-01 -0.10194053217E+00  0.11891870680E+01  0.11971955255E+01  0.51100000000E-03 0.  1.
    9000002    1    1    2    0    0 -0.16928030759E+00  0.92014434884E+00  0.75041207839E+00  0.15225911246E+01  0.93800000000E+00 0. -1.
         22    1    1    2    0    0  0.75904130829E-01 -0.81820381667E+00  0.20604008210E+01  0.22182133499E+01  0.00000000000E+00 0.  1.
</event>
<event>
 5    1  0.1221539E+000  0.1532546E+01  0.7818608E-02  0.3429995E+00
         11   -1    0    0    0    0  0.00000000000E+00  0.00000000000E+00  0.39999999674E+01  0.40000000000E+01  0.51100000000E-03 0. -1.
    9000002   -1    0    0    0    0 -0.00000000000E+00 -0.00000000000E+00  0.00000000000E+00  0.93800000000E+00  0.93800000000E+00 0. -1.
         11    1    1    2    0    0 -0.10226210400E+00 -0.47606433765E-01  0.10868438021E+01  0.10926818483E+01  0.51100000000E-03 0. -1.
    9000002    1    1    2    0    0 -0.56927351980E+00 -0.15027613314E+00  0.31054172159E+00  0.11501892963E+01  0.93800000000E+00 0. -1.
         22    1    1    2    0    0  0.67153562380E+00  0.19788256691E+00  0.26026144437E+01  0.26951288553E+01  0.00000000000E+00 0. -1.
</event>
<event>
 5    1  0.1160133E+000  0.1594069E+01  0.7818608E-02  0.3359826E+00
         11   -1    0    0    0    0  0.00000000000E+00  0.00000000000E+00  0.39999999674E+01  0.40000000000E+01  0.51100000000E-03 0. -1.
    9000002   -1    0    0    0    0 -0.00000000000E+00 -0.00000000000E+00  0.00000000000E+00  0.93800000000E+00  0.93800000000E+00 0. -1.
         11    1    1    2    0    0  0.31587625731E+00  0.91736795702E-01  0.52692007825E+00  0.62115898094E+00  0.51100000000E-03 0. -1.
    9000002    1    1    2    0    0 -0.11218162210E+01 -0.63068960454E+00  0.20819040335E+01  0.26211465842E+01  0.93800000000E+00 0. -1.
         22    1    1    2    0    0  0.80593996372E+00  0.53895280884E+00  0.13911758556E+01  0.16956944349E+01  0.00000000000E+00 0. -1.
</event>
<event>
 5    1  0.1160133E+000  0.1521896E+01  0.7818608E-02  0.3442756E+00
         11   -1    0    0    0    0  0.00000000000E+00  0.00000000000E+00  0.39999999674E+01  0.40000000000E+01  0.51100000000E-03 0. -1.
    9000002   -1    0    0    0    0 -0.00000000000E+00 -0.00000000000E+00  0.00000000000E+00  0.93800000000E+00  0.93800000000E+00 0. -1.
         11    1    1    2    0    0  0.39166189904E-01 -0.13202182665E+00  0.34669593866E-02  0.13775352653E+00  0.51100000000E-03 0. -1.
    9000002    1    1    2    0    0  0.98268298765E+00  0.64190085613E+00  0.25153547709E+01  0.29299413282E+01  0.93800000000E+00 0. -1.
         22    1    1    2    0    0 -0.10218491776E+01 -0.50987902948E+00  0.14811782371E+01  0.18703051452E+01  0.00000000000E+00 0. -1.
</event>
<event>
 5    1  0.1160133E+000  0.1599671E+01  0.7818608E-02  0.3353720E+00
         11   -1    0    0    0    0  0.00000000000E+00  0.00000000000E+00  0.39999999674E+01  0.40000000000E+01  0.51100000000E-03 0. -1.
    9000002   -1    0    0    0    0 -0.00000000000E+00 -0.00000000000E+00  0.00000000000E+00  0.93800000000E+00  0.93800000000E+00 0. -1.
         11    1    1    2    0    0 -0.95201896215E-01  0.17463463669E+00  0.51785547997E+00  0.55473887248E+00  0.51100000000E-03 0. -1.
    9000002    1    1    2    0    0  0.54420202101E+00 -0.98133449689E+00  0.11047399222E+01  0.18328850292E+01  0.93800000000E+00 0. -1.
         22    1    1    2    0    0 -0.44900012480E+00  0.80669986019E+00  0.23774045652E+01  0.25503760983E+01  0.00000000000E+00 0. -1.
</event>
<event>
 5    1  0.1160133E+000  0.1595294E+01  0.7818608E-02  0.3358487E+00
         11   -1    0    0    0    0  0.00000000000E+00  0.00000000000E+00  0.39999999674E+01  0.40000000000E+01  0.51100000000E-03 0. -1.
    9000002   -1    0    0    0    0 -0.00000000000E+00 -0.00000000000E+00  0.00000000000E+00  0.93800000000E+00  0.93800000000E+00 0.  1.
         11    1    1    2    0    0  0.49998946491E-01 -0.11032884850E+00  0.24072255215E+00  0.26948090414E+00  0.51100000000E-03 0. -1.
    9000002    1    1    2    0    0 -0.56342270339E+00  0.85395557881E+00  0.86268855878E+00  0.16342462552E+01  0.93800000000E+00 0.  1.
         22    1    1    2    0    0  0.51342375690E+00 -0.74362673031E+00  0.28965888564E+01  0.30342728406E+01  0.00000000000E+00 0. -1.
</event>
<event>
 5    1  0.1160133E+000  0.1599668E+01  0.7818608E-02  0.3353724E+00
         11   -1    0    0    0    0  0.00000000000E+00  0.00000000000E+00  0.39999999674E+01  0.40000000000E+01  0.51100000000E-03 0.  1.
    9000002   -1    0    0    0    0 -0.00000000000E+00 -0.00000000000E+00  0.00000000000E+00  0.93800000000E+00  0.93800000000E+00 0. -1.
         11    1    1    2    0    0  0.26817752745E+00  0.88305358370E-01  0.99921072703E+00  0.10383348981E+01  0.51100000000E-03 0.  1.
    9000002    1    1    2    0    0 -0.88696347677E+00 -0.28443157865E+00  0.67359680063E+00  0.14836381573E+01  0.93800000000E+00 0. -1.
         22    1    1    2    0    0  0.61878594932E+00  0.19612622028E+00  0.23271924397E+01  0.24160269445E+01  0.00000000000E+00 0.  1.
</event>
<event>
 5    1  0.1160133E+000  0.1596387E+01  0.7818608E-02  0.3357294E+00
         11   -1    0    0    0    0  0.00000000000E+00  0.00000000000E+00  0.39999999674E+01  0.40000000000E+01  0.51100000000E-03 0.  1.
    9000002   -1    0    0    0    0 -0.00000000000E+00 -0.00000000000E+00  0.00000000000E+00  0.93800000000E+00  0.93800000000E+00 0. -1.
         11    1    1    2    0    0 -0.86898422028E-01  0.24804609851E-01  0.42369464527E+00  0.43322513543E+00  0.51100000000E-03 0.  1.
    9000002    1    1    2    0    0  0.91378571676E+00  0.90536936070E-01  0.65594518077E+00  0.14674158760E+01  0.93800000000E+00 0. -1.
         22    1    1    2    0    0 -0.82688729474E+00 -0.11534154592E+00  0.29203601413E+01  0.30373589886E+01  0.00000000000E+00 0.  1.
</event>
<event>
 5    1  0.1160133E+000  0.1595532E+01  0.7818608E-02  0.3358227E+00
         11   -1    0    0    0    0  0.00000000000E+00  0.00000000000E+00  0.39999999674E+01  0.40000000000E+01  0.51100000000E-03 0. -1.
    9000002   -1    0    0    0    0 -0.00000000000E+00 -0.00000000000E+00  0.00000000000E+00  0.93800000000E+00  0.93800000000E+00 0. -1.
         11    1    1    2    0    0  0.26842114315E+00  0.31772168135E+00  0.99628087129E+00  0.10796169749E+01  0.51100000000E-03 0. -1.
    9000002    1    1    2    0    0 -0.76961190591E+00 -0.74035292054E+00  0.96794171850E+00  0.17196453422E+01  0.93800000000E+00 0. -1.
         22    1    1    2    0    0  0.50119076277E+00  0.42263123919E+00  0.20357773776E+01  0.21387376828E+01  0.00000000000E+00 0. -1.
</event>
<event>
 5    1  0.1160133E+000  0.1599676E+01  0.7818608E-02  0.3353716E+00
         11   -1    0    0    0    0  0.00000000000E+00  0.00000000000E+00  0.39999999674E+01  0.40000000000E+01  0.51100000000E-03 0. -1.
    9000002   -1    0    0    0    0 -0.00000000000E+00 -0.00000000000E+00  0.00000000000E+00  0.93800000000E+00  0.93800000000E+00 0. -1.
         11    1    1    2    0    0 -0.87403301322E-01  0.33329798918E+00  0.10943415192E+01  0.11473057607E+01  0.51100000000E-03 0. -1.
    9000002    1    1    2    0    0  0.25117324682E+00 -0.97255501673E+00  0.81377406245E+00  0.15971923758E+01  0.93800000000E+00 0. -1.
         22    1    1    2    0    0 -0.16376994550E+00  0.63925702755E+00  0.20918843857E+01  0.21935018635E+01  0.00000000000E+00 0. -1.
</event>
<event>
 5    1  0.1160133E+000  0.1599650E+01  0.7818608E-02  0.3353743E+00
         11   -1    0    0    0    0  0.00000000000E+00  0.00000000000E+00  0.39999999674E+01  0.40000000000E+01  0.51100000000E-03 0.  1.
    9000002   -1    0    0    0    0 -0.00000000000E+00 -0.00000000000E+00  0.00000000000E+00  0.93800000000E+00  0.93800000000E+00 0.  1.
         11    1    1    2    0    0  0.50371576275E-01 -0.61737239353E-01  0.27773016214E+00  0.28893439827E+00  0.51100000000E-03 0.  1.
    9000002    1    1    2    0    0 -0.56195861502E+00  0.74203033093E+00  0.67249200720E+00  0.14827326114E+01  0.93800000000E+00 0.  1.
         22    1    1    2    0    0  0.51158703875E+00 -0.68029309158E+00  0.30497777980E+01  0.31663329904E+01  0.00000000000E+00 0.  1.
</event>
<event>
 5    1  0.1160133E+000  0.1046390E+01  0.7818608E-02  0.4421928E+00
         11   -1    0    0    0    0  0.00000000000E+00  0.00000000000E+00  0.39999999674E+01  0.40000000000E+01  0.51100000000E-03 0. -1.
    9000002   -1    0    0    0    0 -0.00000000000E+00 -0.00000000000E+00  0.00000000000E+00  0.93800000000E+00  0.93800000000E+00 0. -1.
         11    1    1    2    0    0 -0.37125601434E+00 -0.73056040934E+00  0.60227071796E+00  0.10169954861E+01  0.51100000000E-03 0. -1.
    9000002    1    1    2    0    0  0.41076418098E+00 -0.63311735794E-02  0.10785053075E+01  0.14872071122E+01  0.93800000000E+00 0. -1.
         22    1    1    2    0    0 -0.39508166641E-01  0.73689158292E+00  0.23192239419E+01  0.24337974017E+01  0.00000000000E+00 0. -1.
</event>
<event>
 5    1  0.1160133E+000  0.1599501E+01  0.7818608E-02  0.3353905E+00
         11   -1    0    0    0    0  0.00000000000E+00  0.00000000000E+00  0.39999999674E+01  0.40000000000E+01  0.51100000000E-03 0.  1.
    9000002   -1    0    0    0    0 -0.00000000000E+00 -0.00000000000E+00  0.00000000000E+00  0.93800000000E+00  0.93800000000E+00 0. -1.
         11    1    1    2    0    0  0.14038689193E+00  0.41335903991E+00  0.12714231027E+01  0.13442809017E+01  0.51100000000E-03 0.  1.
    9000002    1    1    2    0    0 -0.30263564291E+00 -0.10084326715E+01  0.92204843507E+00  0.16847973474E+01  0.93800000000E+00 0. -1.
         22    1    1    2    0    0  0.16224875098E+00  0.59507363160E+00  0.18065284296E+01  0.19089217509E+01  0.00000000000E+00 0.  1.
</event>
<event>
 5    1  0.1160133E+000  0.1483114E+01  0.7818608E-02  0.3490894E+00
         11   -1    0    0    0    0  0.00000000000E+00  0.00000000000E+00  0.39999999674E+01  0.40000000000E+01  0.51100000000E-03 0. -1.
    9000002   -1    0    0    0    0 -0.00000000000E+00 -0.00000000000E+00  0.00000000000E+00  0.93800000000E+00  0.93800000000E+00 0.  1.
         11    1    1    2    0    0 -0.15753766261E+00  0.12504687080E+00  0.23898257277E+00  0.31235839391E+00  0.51100000000E-03 0. -1.
    9000002    1    1    2    0    0  0.44938993122E+00  0.85946614051E+00  0.99875188107E+00  0.16786848057E+01  0.93800000000E+00 0. -1.
         22    1    1    2    0    0 -0.29185226861E+00 -0.98451301131E+00  0.27622655135E+01  0.29469568004E+01  0.00000000000E+00 0. -1.
</event>
<event>
 5    1  0.1160133E+000  0.1599675E+01  0.7818608E-02  0.3353716E+00
         11   -1    0    0    0    0  0.00000000000E+00  0.00000000000E+00  0.39999999674E+01  0.40000000000E+01  0.51100000000E-03 0. -1.
    9000002   -1    0    0    0    0 -0.00000000000E+00 -0.00000000000E+00  0.00000000000E+00  0.93800000000E+00  0.93800000000E+00 0.  1.
         11    1    1    2    0    0  0.58403660875E-02 -0.37852382180E+00  0.13858491458E+01  0.14366253894E+01  0.51100000000E-03 0. -1.
    9000002    1    1    2    0    0 -0.12896126689E-01  0.91345462885E+00  0.64262232735E+00  0.14585517216E+01  0.93800000000E+00 0.  1.
         22    1    1    2    0    0  0.70557606020E-02 -0.53493080704E+00  0.19715284942E+01  0.20428228889E+01  0.00000000000E+00 0. -1.
</event>
<event>
 5    1  0.1160133E+000  0.1582937E+01  0.7818608E-02  0.3372094E+00
         11   -1    0    0    0    0  0.00000000000E+00  0.00000000000E+00  0.39999999674E+01  0.40000000000E+01  0.51100000000E-03 0.  1.
    9000002   -1    0    0    0    0 -0.00000000000E+00 -0.00000000000E+00  0.00000000000E+00  0.93800000000E+00  0.93800000000E+00 0.  1.
         11    1    1    2    0    0  0.34077775019E+00 -0.71302626877E+00  0.12715910365E+01  0.14971572930E+01  0.51100000000E-03 0.  1.
    9000002    1    1    2    0    0 -0.40541805308E+00  0.11540018250E+01  0.15724348254E+01  0.22019262681E+01  0.93800000000E+00 0.  1.
         22    1    1    2    0    0  0.64640302892E-01 -0.44097555624E+00  0.11559741055E+01  0.12389164389E+01  0.00000000000E+00 0.  1.
</event>
<event>
 5    1  0.1160133E+000  0.1453834E+01  0.7818608E-02  0.3529081E+00
         11   -1    0    0    0    0  0.00000000000E+00  0.00000000000E+00  0.39999999674E+01  0.40000000000E+01  0.51100000000E-03 0.  1.
    9000002   -1    0    0    0    0 -0.00000000000E+00 -0.00000000000E+00  0.00000000000E+00  0.93800000000E+00  0.93800000000E+00 0. -1.
         11    1    1    2    0    0  0.61840867009E-01  0.27845336769E-01 -0.33440734118E-01  0.75618776977E-01  0.51100000000E-03 0.  1.
    9000002    1    1    2    0    0  0.82937472563E+00 -0.27297471164E-01  0.74919907344E+00  0.14593665883E+01  0.93800000000E+00 0. -1.
         22    1    1    2    0    0 -0.89121559264E+00 -0.54786560497E-03  0.32842416280E+01  0.34030146347E+01  0.00000000000E+00 0.  1.
</event>
<event>
 5    1  0.1160133E+000  0.1599677E+01  0.7818608E-02  0.3353714E+00
         11   -1    0    0    0    0  0.00000000000E+00  0.00000000000E+00  0.39999999674E+01  0.40000000000E+01  0.51100000000E-03 0. -1.
    9000002   -1    0    0    0    0 -0.00000000000E+00 -0.00000000000E+00  0.00000000000E+00  0.93800000000E+00  0.93800000000E+00 0. -1.
         11    1    1    2    0    0 -0.33518255699E+00  0.36878176569E+00  0.13586615681E+01  0.14471727108E+01  0.51100000000E-03 0.  1.
    9000002    1    1    2    0    0  0.73504526442E+00 -0.80834878394E+00  0.10217140366E+01  0.17656338436E+01  0.93800000000E+00 0. -1.
         22    1    1    2    0    0 -0.39986270743E+00  0.43956701824E+00  0.16196243627E+01  0.17251934456E+01  0.00000000000E+00 0. -1.
</event>
<event>
 5    1  0.1160133E+000  0.1546050E+01  0.7818608E-02  0.3414084E+00
         11   -1    0    0    0    0  0.00000000000E+00  0.00000000000E+00  0.39999999674E+01  0.40000000000E+01  0.51100000000E-03 0. -1.
    9000002   -1    0    0    0    0 -0.00000000000E+00 -0.00000000000E+00  0.00000000000E+00  0.93800000000E+00  0.93800000000E+00 0.  1.
         11    1    1    2    0    0  0.66974312721E-01 -0.40062141654E-01  0.79483115298E+00  0.79865346466E+00  0.51100000000E-03 0. -1.
    9000002    1    1    2    0    0  0.51378657413E+00 -0.47749309761E+00  0.41473290398E+00  0.12425070155E+01  0.93800000000E+00 0.  1.
         22    1    1    2    0    0 -0.58076088685E+00  0.51755523926E+00  0.27904359104E+01  0.28968395198E+01  0.00000000000E+00 0. -1.
</event>
<event>
 5    1  0.1160133E+000  0.1599677E+01  0.7818608E-02  0.3353714E+00
         11   -1    0    0    0    0  0.00000000000E+00  0.00000000000E+00  0.39999999674E+01  0.40000000000E+01  0.51100000000E-03 0.  1.
    9000002   -1    0    0    0    0 -0.00000000000E+00 -0.00000000000E+00  0.00000000000E+00  0.93800000000E+00  0.93800000000E+00 0.  1.
         11    1    1    2    0    0  0.45154980528E+00 -0.28204978817E+00  0.12595972037E+01  0.13674921156E+01  0.51100000000E-03 0.  1.
    9000002    1    1    2    0    0 -0.98838089259E+00  0.61658915207E+00  0.12420879404E+01  0.19441464510E+01  0.93800000000E+00 0.  1.
         22    1    1    2    0    0  0.53683108731E+00 -0.33453936390E+00  0.14983148232E+01  0.16263614333E+01  0.00000000000E+00 0.  1.
</event>
<event>
 5    1  0.1160133E+000  0.1599634E+01  0.7818608E-02  0.3353760E+00
         11   -1    0    0    0    0  0.00000000000E+00  0.00000000000E+00  0.39999999674E+01  0.40000000000E+01  0.51100000000E-03 0.  1.
    9000002   -1    0    0    0    0 -0.00000000000E+00 -0.00000000000E+00  0.00000000000E+00  0.93800000000E+00  0.93800000000E+00 0.  1.
         11    1    1    2    0    0  0.10940614723E+00 -0.12569800192E+00  0.36965660198E+00  0.40548237600E+00  0.51100000000E-03 0.  1.
    9000002    1    1    2    0    0 -0.76425498138E+00  0.92789450429E+00  0.13850179942E+01  0.20599011461E+01  0.93800000000E+00 0.  1.
         22    1    1    2    0    0  0.65484883415E+00 -0.80219650238E+00  0.22453253712E+01  0.24726164779E+01  0.00000000000E+00 0.  1.
</event>
<event>
 5    1  0.1160133E+000  0.1599673E+01  0.7818608E-02  0.3353718E+00
         11   -1    0    0    0    0  0.00000000000E+00  0.00000000000E+00  0.39999999674E+01  0.40000000000E+01  0.51100000000E-03 0. -1.
    9000002   -1    0    0    0    0 -0.00000000000E+00 -0.00000000000E+00  0.00000000000E+00  0.93800000000E+00  0.93800000000E+00 0. -1.
         11    1    1    2    0    0  0.12250406254E+00 -0.19578230420E+00  0.61085471574E+00  0.65305566443E+00  0.51100000000E-03 0. -1.
    9000002    1    1    2    0    0 -0.59439539046E+00  0.93400735986E+00  0.10615019670E+01  0.17978615226E+01  0.93800000000E+00 0. -1.
         22    1    1    2    0    0  0.47189132792E+00 -0.73822505566E+00  0.23276432846E+01  0.24870828130E+01  0.00000000000E+00 0. -1.
</event>
<event>
 5    1  0.1160133E+000  0.1597937E+01  0.7818608E-02  0.3355605E+00
         11   -1    0    0    0    0  0.00000000000E+00  0.00000000000E+00  0.39999999674E+01  0.40000000000E+01  0.51100000000E-03 0. -1.
    9000002   -1    0    0    0    0 -0.00000000000E+00 -0.00000000000E+00  0.00000000000E+00  0.93800000000E+00  0.93800000000E+00 0.  1.
         11    1    1    2    0    0  0.44090712490E-01  0.43942601566E+00  0.85595068845E+00  0.96316720061E+00  0.51100000000E-03 0. -1.
    9000002    1    1    2    0    0 -0.23271843064E+00 -0.11965076230E+01  0.14684881976E+01  0.21265206198E+01  0.93800000000E+00 0.  1.
         22    1    1    2    0    0  0.18862771815E+00  0.75708160730E+00  0.16755610813E+01  0.18483121796E+01  0.00000000000E+00 0. -1.
</event>
<event>
 5    1  0.1160133E+000  0.1599669E+01  0.7818608E-02  0.3353723E+00
         11   -1    0    0    0    0  0.00000000000E+00  0.00000000000E+00  0.39999999674E+01  0.40000000000E+01  0.51100000000E-03 0. -1.
    9000002   -1    0    0    0    0 -0.00000000000E+00 -0.00000000000E+00  0.00000000000E+00  0.93800000000E+00  0.93800000000E+00 0. -1.
         11    1    1    2    0    0 -0.22763688160E-01  0.32924040553E+00  0.10746456579E+01  0.11241801374E+01  0.51100000000E-03 0. -1.
    9000002    1    1    2    0    0  0.77471351733E-01 -0.98412145493E+00  0.77834800116E+00  0.15684917785E+01  0.93800000000E+00 0. -1.
         22    1    1    2    0    0 -0.54707663573E-01  0.65488104940E+00  0.21470063083E+01  0.22453280841E+01  0.00000000000E+00 0. -1.
</event>
<event>
 5    1  0.1160133E+000  0.1637906E+01  0.7818608E-02  0.3313222E+00
         11   -1    0    0    0    0  0.00000000000E+00  0.00000000000E+00  0.39999999674E+01  0.40000000000E+01  0.51100000000E-03 0. -1.
    9000002   -1    0    0    0    0 -0.00000000000E+00 -0.00000000000E+00  0.00000000000E+00  0.93800000000E+00  0.93800000000E+00 0. -1.
         11    1    1    2    0    0 -0.27216329862E-01  0.32824080451E+00  0.13906913071E+00  0.35752375948E+00  0.51100000000E-03 0. -1.
    9000002    1    1    2    0    0  0.32069774537E+00  0.49567194962E+00  0.72386441395E+00  0.13237678857E+01  0.93800000000E+00 0. -1.
         22    1    1    2    0    0 -0.29348141550E+00 -0.82391275413E+00  0.31370664227E+01  0.32567083548E+01  0.00000000000E+00 0. -1.
</event>
<event>
 5    1  0.1160133E+000  0.1599677E+01  0.7818608E-02  0.3353714E+00
         11   -1    0    0    0    0  0.00000000000E+00  0.00000000000E+00  0.39999999674E+01  0.40000000000E+01  0.51100000000E-03 0.  1.
    9000002   -1    0    0    0    0 -0.00000000000E+00 -0.00000000000E+00  0.00000000000E+00  0.93800000000E+00  0.93800000000E+00 0.  1.
         11    1    1    2    0    0  0.32967234080E+00 -0.10208649629E+00  0.11163040551E+01  0.11684350686E+01  0.51100000000E-03 0. -1.
    9000002    1    1    2    0    0 -0.94791666062E+00  0.29483856627E+00  0.78952970875E+00  0.15775540994E+01  0.93800000000E+00 0.  1.
         22    1    1    2    0    0  0.61824431982E+00 -0.19275206997E+00  0.20941662035E+01  0.21920108319E+01  0.00000000000E+00 0.  1.
</event>
<event>
 5    1  0.1160133E+000  0.1599652E+01  0.7818608E-02  0.3353741E+00
         11   -1    0    0    0    0  0.00000000000E+00  0.00000000000E+00  0.39999999674E+01  0.40000000000E+01  0.51100000000E-03 0. -1.
    9000002   -1    0    0    0    0 -0.00000000000E+00 -0.00000000000E+00  0.00000000000E+00  0.93800000000E+00  0.93800000000E+00 0.  1.
         11    1    1    2    0    0 -0.35114614756E-01 -0.22407611889E+00  0.75438034953E+00  0.78773924373E+00  0.51100000000E-03 0. -1.
    9000002    1    1    2    0    0  0.13774483798E+00  0.95329530413E+00  0.73164866658E+00  0.15306532424E+01  0.93800000000E+00 0.  1.
         22    1    1    2    0    0 -0.10263022322E+00 -0.72921918524E+00  0.25139709512E+01  0.26196075138E+01  0.00000000000E+00 0. -1.
</event>
<event>
 5    1  0.1160133E+000  0.1599598E+01  0.7818608E-02  0.3353800E+00
         11   -1    0    0    0    0  0.00000000000E+00  0.00000000000E+00  0.39999999674E+01  0.40000000000E+01  0.51100000000E-03 0. -1.
    9000002   -1    0    0    0    0 -0.00000000000E+00 -0.00000000000E+00  0.00000000000E+00  0.93800000000E+00  0.93800000000E+00 0. -1.
         11    1    1    2    0    0 -0.41710175044E+00 -0.74816650548E-03  0.13999226402E+01  0.14607388848E+01  0.51100000000E-03 0. -1.
    9000002    1    1    2    0    0  0.96402280434E+00 -0.21362833639E-01  0.73376325521E+00  0.15323344454E+01  0.93800000000E+00 0. -1.
         22    1    1    2    0    0 -0.54692105390E+00  0.22111000145E-01  0.18663140720E+01  0.19449266698E+01  0.00000000000E+00 0. -1.
</event>
<event>
 5    1  0.1160133E+000  0.1599326E+01  0.7818608E-02  0.3354095E+00
         11   -1    0    0    0    0  0.00000000000E+00  0.00000000000E+00  0.39999999674E+01  0.40000000000E+01  0.51100000000E-03 0. -1.
    9000002   -1    0    0    0    0 -0.00000000000E+00 -0.00000000000E+00  0.00000000000E+00  0.93800000000E+00  0.93800000000E+00 0. -1.
         11    1    1    2    0    0  0.34361335459E+00 -0.63553074482E-01  0.79239120561E+00  0.86602148621E+00  0.51100000000E-03 0. -1.
    9000002    1    1    2    0    0 -0.11653427693E+01  0.14880355959E+00  0.12786909352E+01  0.19735908332E+01  0.93800000000E+00 0. -1.
         22    1    1    2    0    0  0.82172941471E+00 -0.85250485108E-01  0.19289178266E+01  0.20983876806E+01  0.00000000000E+00 0. -1.
</event>
<event>
 5    1  0.1160133E+000  0.1567766E+01  0.7818608E-02  0.3389110E+00
         11   -1    0    0    0    0  0.00000000000E+00  0.00000000000E+00  0.39999999674E+01  0.40000000000E+01  0.51100000000E-03 0.  1.
    9000002   -1    0    0    0    0 -0.00000000000E+00 -0.00000000000E+00  0.00000000000E+00  0.93800000000E+00  0.93800000000E+00 0. -1.
         11    1    1    2    0    0 -0.69808493914E-02  0.38123010259E-01  0.44098745006E+00  0.44268757425E+00  0.51100000000E-03 0.  1.
    9000002    1    1    2    0    0 -0.45168815211E+00  0.70796143069E+00  0.57253210205E+00  0.13830649233E+01  0.93800000000E+00 0. -1.
         22    1    1    2    0    0  0.45866900151E+00 -0.74608444095E+00  0.29864804152E+01  0.31122475025E+01  0.00000000000E+00 0.  1.
</event>
<event>
 5    1  0.1160133E+000  0.1594160E+01  0.7818608E-02  0.3359727E+00
         11   -1    0    0    0    0  0.00000000000E+00  0.00000000000E+00  0.39999999674E+01  0.40000000000E+01  0.51100000000E-03 0.  1.
    9000002   -1    0    0    0    0 -0.00000000000E+00 -0.00000000000E+00  0.00000000000E+00  0.93800000000E+00  0.93800000000E+00 0. -1.
         11    1    1    2    0    0 -0.67073160014E-01 -0.64023963062E-01  0.61569149087E+00  0.62263484458E+00  0.51100000000E-03 0.  1.
    9000002    1    1    2    0    0  0.60327813253E+00  0.66001853902E+00  0.61895765596E+00  0.14361481668E+01  0.93800000000E+00 0. -1.
         22    1    1    2    0    0 -0.53620497252E+00 -0.59599457596E+00  0.27653508205E+01  0.28792169886E+01  0.00000000000E+00 0.  1.
</event>
<event>
 5    1  0.1160133E+000  0.1596319E+01  0.7818608E-02  0.3357369E+00
         11   -1    0    0    0    0  0.00000000000E+00  0.00000000000E+00  0.39999999674E+01  0.40000000000E+01  0.51100000000E-03 0.  1.
    9000002   -1    0    0    0    0 -0.00000000000E+00 -0.00000000000E+00  0.00000000000E+00  0.93800000000E+00  0.93800000000E+00 0.  1.
         11    1    1    2    0    0 -0.28629126569E+00  0.16246210872E+00  0.13508690559E+01  0.13903970990E+01  0.51100000000E-03 0.  1.
    9000002    1    1    2    0    0  0.78276129952E+00 -0.54305449667E+00  0.71775774809E+00  0.15174464153E+01  0.93800000000E+00 0.  1.
         22    1    1    2    0    0 -0.49647003383E+00  0.38059238795E+00  0.19313731634E+01  0.20301564857E+01  0.00000000000E+00 0.  1.
</event>
<event>
 5    1  0.1160133E+000  0.1597504E+01  0.7818608E-02  0.3356077E+00
         11   -1    0    0    0    0  0.00000000000E+00  0.00000000000E+00  0.39999999674E+01  0.40000000000E+01  0.51100000000E-03 0. -1.
    9000002   -1    0    0    0    0 -0.00000000000E+00 -0.00000000000E+00  0.00000000000E+00  0.93800000000E+00  0.93800000000E+00 0. -1.
         11    1    1    2    0    0 -0.50755502964E-01  0.22905159419E-01  0.23399693709E+00  0.24053190038E+00  0.51100000000E-03 0. -1.
    9000002    1    1    2    0    0  0.96411111450E+00 -0.52602690645E+00  0.10427520250E+01  0.17814012274E+01  0.93800000000E+00 0. -1.
         22    1    1    2    0    0 -0.91335561153E+00  0.50312174703E+00  0.27232510053E+01  0.29160668722E+01  0.00000000000E+00 0. -1.
</event>
<event>
 5    1  0.1160133E+000  0.1598750E+01  0.7818608E-02  0.3354722E+00
         11   -1    0    0    0    0  0.00000000000E+00  0.00000000000E+00  0.39999999674E+01  0.40000000000E+01  0.51100000000E-03 0. -1.
    9000002   -1    0    0    0    0 -0.00000000000E+00 -0.00000000000E+00  0.00000000000E+00  0.93800000000E+00  0.93800000000E+00 0.  1.
         11    1    1    2    0    0 -0.26543825253E+00  0.60742085253E+00  0.12573995766E+01  0.14214329089E+01  0.51100000000E-03 0. -1.
    9000002    1    1    2    0    0  0.49159014907E+00 -0.11655982489E+01  0.17388424627E+01  0.23459960065E+01  0.93800000000E+00 0.  1.
         22    1    1    2    0    0 -0.22615189654E+00  0.55817739633E+00  0.10037579280E+01  0.11705710846E+01  0.00000000000E+00 0. -1.
</event>
<event>
 5    1  0.1160133E+000  0.1599671E+01  0.7818608E-02  0.3353720E+00
         11   -1    0    0    0    0  0.00000000000E+00  0.00000000000E+00  0.39999999674E+01  0.40000000000E+01  0.51100000000E-03 0.  1.
    9000002   -1    0    0    0    0 -0.00000000000E+00 -0.00000000000E+00  0.00000000000E+00  0.93800000000E+00  0.93800000000E+00 0.  1.
         11    1    1    2    0    0 -0.25022904936E+00  0.19814050305E+00  0.10527592525E+01  0.11000802430E+01  0.51100000000E-03 0.  1.
    9000002    1    1    2    0    0  0.77548609631E+00 -0.60579132895E+00  0.77212497357E+00  0.15634522041E+01  0.93800000000E+00 0.  1.
         22    1    1    2    0    0 -0.52525704695E+00  0.40765082590E+00  0.21751157413E+01  0.22744675529E+01  0.00000000000E+00 0. -1.
</event>
<event>
 5    1  0.1160133E+000  0.1593705E+01  0.7818608E-02  0.3360225E+00
         11   -1    0    0    0    0  0.00000000000E+00  0.00000000000E+00  0.39999999674E+01  0.40000000000E+01  0.51100000000E-03 0. -1.
    9000002   -1    0    0    0    0 -0.00000000000E+00 -0.00000000000E+00  0.00000000000E+00  0.93800000000E+00  0.93800000000E+00 0. -1.
         11    1    1    2    0    0  0.22462322617E+00  0.18287899731E+00  0.64154086238E+00  0.70390003595E+00  0.51100000000E-03 0. -1.
    9000002    1    1    2    0    0 -0.71530757680E+00 -0.76170510104E+00  0.91612605284E+00  0.16766008872E+01  0.93800000000E+00 0. -1.
         22    1    1    2    0    0  0.49068435063E+00  0.57882610373E+00  0.24423330521E+01  0.25574990768E+01  0.00000000000E+00 0. -1.
</event>
<event>
 5    1  0.1160133E+000  0.1599635E+01  0.7818608E-02  0.3353760E+00
         11   -1    0    0    0    0  0.00000000000E+00  0.00000000000E+00  0.39999999674E+01  0.40000000000E+01  0.51100000000E-03 0. -1.
    9000002   -1    0    0    0    0 -0.00000000000E+00 -0.00000000000E+00  0.00000000000E+00  0.93800000000E+00  0.93800000000E+00 0.  1.
         11    1    1    2    0    0 -0.50279199261E+00 -0.46287744907E-01  0.14103115366E+01  0.14979723744E+01  0.51100000000E-03 0. -1.
    9000002    1    1    2    0    0  0.10797068479E+01  0.11136434071E+00  0.10029368579E+01  0.17503985931E+01  0.93800000000E+00 0.  1.
         22    1    1    2    0    0 -0.57691485526E+00 -0.65076595803E-01  0.15867515728E+01  0.16896290325E+01  0.00000000000E+00 0. -1.
</event>
<event>
 5    1  0.1160133E+000  0.1599619E+01  0.7818608E-02  0.3353777E+00
         11   -1    0    0    0    0  0.00000000000E+00  0.00000000000E+00  0.39999999674E+01  0.40000000000E+01  0.51100000000E-03 0. -1.
    9000002   -1    0    0    0    0 -0.00000000000E+00 -0.00000000000E+00  0.00000000000E+00  0.93800000000E+00  0.93800000000E+00 0.  1.
         11    1    1    2    0    0 -0.19846845098E+00 -0.18219826159E+00  0.10079640299E+01  0.10433492605E+01  0.51100000000E-03 0. -1.
    9000002    1    1    2    0    0  0.68811140001E+00  0.59724127381E+00  0.63866091750E+00  0.14553096597E+01  0.93800000000E+00 0.  1.
         22    1    1    2    0    0 -0.48964294903E+00 -0.41504301222E+00  0.23533750199E+01  0.24393410799E+01  0.00000000000E+00 0. -1.
</event>
<event>
 5    1  0.1160133E+000  0.1120427E+01  0.7818608E-02  0.4195954E+00
         11   -1    0    0    0    0  0.00000000000E+00  0.00000000000E+00  0.39999999674E+01  0.40000000000E+01  0.51100000000E-03 0.  1.
    9000002   -1    0    0    0    0 -0.00000000000E+00 -0.00000000000E+00  0.00000000000E+00  0.93800000000E+00  0.93800000000E+00 0.  1.
         11    1    1    2    0    0 -0.95831346303E-01 -0.79705808387E+00  0.25537912873E+00  0.84243931325E+00  0.51100000000E-03 0.  1.
    9000002    1    1    2    0    0 -0.28632858774E+00  0.48290776529E+00  0.19667097479E+01  0.22501055981E+01  0.93800000000E+00 0.  1.
         22    1    1    2    0    0  0.38215993405E+00  0.31415031858E+00  0.17779110907E+01  0.18454550887E+01  0.00000000000E+00 0.  1.
</event>
<event>
 5    1  0.1160133E+000  0.1566087E+01  0.7818608E-02  0.3391014E+00
         11   -1    0    0    0    0  0.00000000000E+00  0.00000000000E+00  0.39999999674E+01  0.40000000000E+01  0.51100000000E-03 0. -1.
    9000002   -1    0    0    0    0 -0.00000000000E+00 -0.00000000000E+00  0.00000000000E+00  0.93800000000E+00  0.93800000000E+00 0. -1.
         11    1    1    2    0    0 -0.28872430482E+00  0.18762602705E+00  0.10496374646E+01  0.11046738516E+01  0.51100000000E-03 0. -1.
    9000002    1    1    2    0    0  0.11754602398E+01 -0.30078086818E+00  0.16225487235E+01  0.22326406487E+01  0.93800000000E+00 0. -1.
         22    1    1    2    0    0 -0.88673593502E+00  0.11315484114E+00  0.13278137792E+01  0.16006854996E+01  0.00000000000E+00 0. -1.
</event>
<event>
 5    1  0.1160133E+000  0.1599676E+01  0.7818608E-02  0.3353716E+00
         11   -1    0    0    0    0  0.00000000000E+00  0.00000000000E+00  0.39999999674E+01  0.40000000000E+01  0.51100000000E-03 0.  1.
    9000002   -1    0    0    0    0 -0.00000000000E+00 -0.00000000000E+00  0.00000000000E+00  0.93800000000E+00  0.93800000000E+00 0.  1.
         11    1    1    2    0    0 -0.35771936431E-01 -0.36555819034E-01  0.15617148609E+00  0.16433427376E+00  0.51100000000E-03 0.  1.
    9000002    1    1    2    0    0  0.71113426039E+00  0.73711490834E+00  0.85618634817E+00  0.16315481566E+01  0.93800000000E+00 0.  1.
         22    1    1    2    0    0 -0.67536232396E+00 -0.70055908931E+00  0.29876421331E+01  0.31421175697E+01  0.00000000000E+00 0.  1.
</event>
<event>
 5    1  0.1160133E+000  0.1599677E+01  0.7818608E-02  0.3353714E+00
         11   -1    0    0    0    0  0.00000000000E+00  0.00000000000E+00  0.39999999674E+01  0.40000000000E+01  0.51100000000E-03 0.  1.
    9000002   -1    0    0    0    0 -0.00000000000E+00 -0.00000000000E+00  0.00000000000E+00  0.93800000000E+00  0.93800000000E+00 0.  1.
         11    1    1    2    0    0 -0.29502057755E+00 -0.34445801480E+00  0.97922487026E+00  0.10791524789E+01  0.51100000000E-03 0.  1.
    9000002    1    1    2    0    0  0.78371546306E+00  0.91571143975E+00  0.13984558210E+01  0.20708114475E+01  0.93800000000E+00 0.  1.
         22    1    1    2    0    0 -0.48869488551E+00 -0.57125342495E+00  0.16223192761E+01  0.17880360735E+01  0.00000000000E+00 0.  1.
</event>
<event>
 5    1  0.1160133E+000  0.1599353E+01  0.7818608E-02  0.3354066E+00
         11   -1    0    0    0    0  0.00000000000E+00  0.00000000000E+00  0.39999999674E+01  0.40000000000E+01  0.51100000000E-03 0. -1.
    9000002   -1    0    0    0    0 -0.00000000000E+00 -0.00000000000E+00  0.00000000000E+00  0.93800000000E+00  0.93800000000E+00 0.  1.
         11    1    1    2    0    0 -0.61756148789E-01 -0.15679660583E+00  0.67586491084E+00  0.69655770496E+00  0.51100000000E-03 0. -1.
    9000002    1    1    2    0    0  0.36030764978E+00  0.84637633321E+00  0.65394961441E+00  0.14675382782E+01  0.93800000000E+00 0.  1.
         22    1    1    2    0    0 -0.29855150099E+00 -0.68957972738E+00  0.26701854421E+01  0.27739040168E+01  0.00000000000E+00 0. -1.
</event>
<event>
 5    1  0.1160133E+000  0.1599237E+01  0.7818608E-02  0.3354192E+00
         11   -1    0    0    0    0  0.00000000000E+00  0.00000000000E+00  0.39999999674E+01  0.40000000000E+01  0.51100000000E-03 0. -1.
    9000002   -1    0    0    0    0 -0.00000000000E+00 -0.00000000000E+00  0.00000000000E+00  0.93800000000E+00  0.93800000000E+00 0.  1.
         11    1    1    2    0    0 -0.66068689255E+00  0.71022790306E-03  0.12068541988E+01  0.13758651797E+01  0.51100000000E-03 0. -1.
    9000002    1    1    2    0    0  0.12686144124E+01 -0.26232274865E-01  0.17657308446E+01  0.23680625150E+01  0.93800000000E+00 0.  1.
         22    1    1    2    0    0 -0.60792751983E+00  0.25522046962E-01  0.10274149240E+01  0.11940723053E+01  0.00000000000E+00 0.  1.
</event>
<event>
 5    1  0.1160133E+000  0.1599675E+01  0.7818608E-02  0.3353716E+00
         11   -1    0    0    0    0  0.00000000000E+00  0.00000000000E+00  0.39999999674E+01  0.40000000000E+01  0.51100000000E-03 0. -1.
    9000002   -1    0    0    0    0 -0.00000000000E+00 -0.00000000000E+00  0.00000000000E+00  0.93800000000E+00  0.93800000000E+00 0. -1.
         11    1    1    2    0    0  0.12879962888E-02 -0.20766365780E+00  0.44987233913E+00  0.49549090440E+00  0.51100000000E-03 0. -1.
    9000002    1    1    2    0    0 -0.83172949694E-02  0.12066105611E+01  0.14042947499E+01  0.20755399221E+01  0.93800000000E+00 0. -1.
         22    1    1    2    0    0  0.70292986806E-02 -0.99894690331E+00  0.21458328783E+01  0.23669691735E+01  0.00000000000E+00 0. -1.
</event>
<event>
 5    1  0.1160133E+000  0.1579966E+01  0.7818608E-02  0.3375399E+00
         11   -1    0    0    0    0  0.00000000000E+00  0.00000000000E+00  0.39999999674E+01  0.40000000000E+01  0.51100000000E-03 0. -1.
    9000002   -1    0    0    0    0 -0.00000000000E+00 -0.00000000000E+00  0.00000000000E+00  0.93800000000E+00  0.93800000000E+00 0. -1.
         11    1    1    2    0    0 -0.38493255014E-01 -0.12468401818E-01  0.13984345044E+00  0.14558036776E+00  0.51100000000E-03 0. -1.
    9000002    1    1    2    0    0  0.72503592491E+00 -0.10443124900E+01  0.21595508062E+01  0.26757745334E+01  0.93800000000E+00 0. -1.
         22    1    1    2    0    0 -0.68654266990E+00  0.10567808918E+01  0.17006057108E+01  0.21166450988E+01  0.00000000000E+00 0. -1.
</event>
<event>
 5    1  0.1160133E+000  0.1599530E+01  0.7818608E-02  0.3353873E+00
         11   -1    0    0    0    0  0.00000000000E+00  0.00000000000E+00  0.39999999674E+01  0.40000000000E+01  0.51100000000E-03 0.  1.
    9000002   -1    0    0    0    0 -0.00000000000E+00 -0.00000000000E+00  0.00000000000E+00  0.93800000000E+00  0.93800000000E+00 0.  1.
         11    1    1    2    0    0 -0.28215021590E+00 -0.24944207828E+00  0.82494877289E+00  0.90684664292E+00  0.51100000000E-03 0.  1.
    9000002    1    1    2    0    0  0.87106319885E+00  0.80435503472E+00  0.13187582907E+01  0.20061668793E+01  0.93800000000E+00 0.  1.
         22    1    1    2    0    0 -0.58891298295E+00 -0.55491295643E+00  0.18562929037E+01  0.20249864778E+01  0.00000000000E+00 0.  1.
</event>
<event>
 5    1  0.1160133E+000  0.1599358E+01  0.7818608E-02  0.3354060E+00
         11   -1    0    0    0    0  0.00000000000E+00  0.00000000000E+00  0.39999999674E+01  0.40000000000E+01  0.51100000000E-03 0. -1.
    9000002   -1    0    0    0    0 -0.00000000000E+00 -0.00000000000E+00  0.00000000000E+00  0.93800000000E+00  0.93800000000E+00 0. -1.
         11    1    1    2    0    0  0.17465760576E+00  0.26209574419E+00  0.83461089800E+00  0.89206225711E+00  0.51100000000E-03 0. -1.
    9000002    1    1    2    0    0 -0.65033262140E+00 -0.87275114416E+00  0.10114348204E+01  0.17571202218E+01  0.93800000000E+00 0. -1.
         22    1    1    2    0    0  0.47567501564E+00  0.61065539997E+00  0.21539542490E+01  0.22888175211E+01  0.00000000000E+00 0. -1.
</event>
<event>
 5    1  0.1160133E+000  0.1513617E+01  0.7818608E-02  0.3452810E+00
         11   -1    0    0    0    0  0.00000000000E+00  0.00000000000E+00  0.39999999674E+01  0.40000000000E+01  0.51100000000E-03 0.  1.
    9000002   -1    0    0    0    0 -0.00000000000E+00 -0.00000000000E+00  0.00000000000E+00  0.93800000000E+00  0.93800000000E+00 0.  1.
         11    1    1    2    0    0 -0.73521800791E-01 -0.42539070863E-01  0.79681126482E+00  0.80132607633E+00  0.51100000000E-03 0.  1.
    9000002    1    1    2    0    0 -0.48902432126E+00 -0.78594872834E+00  0.82126197057E+00  0.15527959991E+01  0.93800000000E+00 0.  1.
         22    1    1    2    0    0  0.56254612205E+00  0.82848779920E+00  0.23819267320E+01  0.25838779246E+01  0.00000000000E+00 0.  1.
</event>
<event>
 5    1  0.1160133E+000  0.1599675E+01  0.7818608E-02  0.3353716E+00
         11   -1    0    0    0    0  0.00000000000E+00  0.00000000000E+00  0.39999999674E+01  0.40000000000E+01  0.51100000000E-03 0.  1.
    9000002   -1    0    0    0    0 -0.00000000000E+00 -0.00000000000E+00  0.00000000000E+00  0.93800000000E+00  0.93800000000E+00 0. -1.
         11    1    1    2    0    0  0.38615660106E+00 -0.37154105388E-01  0.14253668236E+01  0.14772163656E+01  0.51100000000E-03 0.  1.
    9000002    1    1    2    0    0 -0.91199171079E+00  0.86094814451E-01  0.64687376701E+00  0.14619955089E+01  0.93800000000E+00 0. -1.
         22    1    1    2    0    0  0.52583510973E+00 -0.48940709063E-01  0.19277593768E+01  0.19987881255E+01  0.00000000000E+00 0.  1.
</event>
<event>
 5    1  0.1160133E+000  0.1597464E+01  0.7818608E-02  0.3356120E+00
         11   -1    0    0    0    0  0.00000000000E+00  0.00000000000E+00  0.39999999674E+01  0.40000000000E+01  0.51100000000E-03 0.  1.
    9000002   -1    0    0    0    0 -0.00000000000E+00 -0.00000000000E+00  0.00000000000E+00  0.93800000000E+00  0.93800000000E+00 0. -1.
         11    1    1    2    0    0 -0.32163085711E+00  0.17969156598E+00  0.97771797483E+00  0.10448292523E+01  0.51100000000E-03 0.  1.
    9000002    1    1    2    0    0  0.91525465232E+00 -0.44947736245E+00  0.85070681474E+00  0.16258127391E+01  0.93800000000E+00 0. -1.
         22    1    1    2    0    0 -0.59362379521E+00  0.26978579646E+00  0.21715751778E+01  0.22673580086E+01  0.00000000000E+00 0.  1.
</event>
<event>
 5    1  0.1160133E+000  0.1573161E+01  0.7818608E-02  0.3383019E+00
         11   -1    0    0    0    0  0.00000000000E+00  0.00000000000E+00  0.39999999674E+01  0.40000000000E+01  0.51100000000E-03 0.  1.
    9000002   -1    0    0    0    0 -0.00000000000E+00 -0.00000000000E+00  0.00000000000E+00  0.93800000000E+00  0.93800000000E+00 0. -1.
         11    1    1    2    0    0  0.68981384616E-01 -0.26453624162E+00  0.94632266589E+00  0.98502015393E+00  0.51100000000E-03 0.  1.
    9000002    1    1    2    0    0  0.36911723842E+00  0.92305954414E+00  0.84489169062E+00  0.16068517127E+01  0.93800000000E+00 0. -1.
         22    1    1    2    0    0 -0.43809862304E+00 -0.65852330253E+00  0.22087856108E+01  0.23461281334E+01  0.00000000000E+00 0.  1.
</event>
<event>
 5    1  0.1160133E+000  0.1597935E+01  0.7818608E-02  0.3355608E+00
         11   -1    0    0    0    0  0.00000000000E+00  0.00000000000E+00  0.39999999674E+01  0.40000000000E+01  0.51100000000E-03 0. -1.
    9000002   -1    0    0    0    0 -0.00000000000E+00 -0.00000000000E+00  0.00000000000E+00  0.93800000000E+00  0.93800000000E+00 0. -1.
         11    1    1    2    0    0 -0.12632369163E+00  0.25383877822E+00  0.80433770096E+00  0.85284887213E+00  0.51100000000E-03 0. -1.
    9000002    1    1    2    0    0  0.33575954954E+00 -0.94314581670E+00  0.81019697124E+00  0.15932738744E+01  0.93800000000E+00 0. -1.
         22    1    1    2    0    0 -0.20943585792E+00  0.68930703848E+00  0.23854652952E+01  0.24918772535E+01  0.00000000000E+00 0. -1.
</event>
<event>
 5    1  0.1160133E+000  0.1726890E+01  0.7818608E-02  0.3226202E+00
         11   -1    0    0    0    0  0.00000000000E+00  0.00000000000E+00  0.39999999674E+01  0.40000000000E+01  0.51100000000E-03 0.  1.
    9000002   -1    0    0    0    0 -0.00000000000E+00 -0.00000000000E+00  0.00000000000E+00  0.93800000000E+00  0.93800000000E+00 0.  1.
         11    1    1    2    0    0  0.23091996683E+00  0.47636263900E+00  0.42877609237E+00  0.68124488507E+00  0.51100000000E-03 0.  1.
    9000002    1    1    2    0    0  0.29656917138E+00  0.14125144896E+00  0.56603467028E+00  0.11437414451E+01  0.93800000000E+00 0. -1.
         22    1    1    2    0    0 -0.52748913821E+00 -0.61761408796E+00  0.30051892047E+01  0.31130136698E+01  0.00000000000E+00 0.  1.
</event>
<event>
 5    1  0.1160133E+000  0.1560491E+01  0.7818608E-02  0.3397394E+00
         11   -1    0    0    0    0  0.00000000000E+00  0.00000000000E+00  0.39999999674E+01  0.40000000000E+01  0.51100000000E-03 0.  1.
    9000002   -1    0    0    0    0 -0.00000000000E+00 -0.00000000000E+00  0.00000000000E+00  0.93800000000E+00  0.93800000000E+00 0. -1.
         11    1    1    2    0    0 -0.65833782062E-01  0.12022510390E+00  0.13176040849E+01  0.13247146667E+01  0.51100000000E-03 0.  1.
    9000002    1    1    2    0    0  0.75518101934E+00 -0.45160120274E+00  0.64856618094E+00  0.14403902629E+01  0.93800000000E+00 0. -1.
         22    1    1    2    0    0 -0.68934723728E+00  0.33137609885E+00  0.20338297015E+01  0.21728950705E+01  0.00000000000E+00 0.  1.
</event>
<event>
 5    1  0.1930295E+000  0.1452497E+01  0.7818608E-02  0.3530863E+00
         11   -1    0    0    0    0  0.00000000000E+00  0.00000000000E+00  0.39999999674E+01  0.40000000000E+01  0.51100000000E-03 0.  1.
    9000002   -1    0    0    0    0 -0.00000000000E+00 -0.00000000000E+00  0.00000000000E+00  0.93800000000E+00  0.93800000000E+00 0. -1.
         11    1    1    2    0    0  0.18114957555E+00  0.26703183106E+00  0.14196233746E+01  0.14558337660E+01  0.51100000000E-03 0.  1.
    9000002    1    1    2    0    0  0.41628757851E+00  0.12445415043E+00  0.27647042250E+00  0.10700766693E+01  0.93800000000E+00 0. -1.
         22    1    1    2    0    0 -0.59743715406E+00 -0.39148598149E+00  0.23039061703E+01  0.24120895647E+01  0.00000000000E+00 0.  1.
</event>
<event>
 5    1  0.1160133E+000  0.1599677E+01  0.7818608E-02  0.3353714E+00
         11   -1    0    0    0    0  0.00000000000E+00  0.00000000000E+00  0.39999999674E+01  0.40000000000E+01  0.51100000000E-03 0. -1.
    9000002   -1    0    0    0    0 -0.00000000000E+00 -0.00000000000E+00  0.00000000000E+00  0.93800000000E+00  0.93800000000E+00 0.  1.
         11    1    1    2    0    0 -0.40421099264E+00 -0.34378603497E+00  0.13740420590E+01  0.14729450789E+01  0.51100000000E-03 0. -1.
    9000002    1    1    2    0    0  0.85401786034E+00  0.72499226201E+00  0.10991938497E+01  0.18283958557E+01  0.93800000000E+00 0.  1.
         22    1    1    2    0    0 -0.44980686770E+00 -0.38120622704E+00  0.15267640586E+01  0.16366590655E+01  0.00000000000E+00 0. -1.
</event>
<event>
 5    1  0.1160133E+000  0.1589838E+01  0.7818608E-02  0.3364468E+00
         11   -1    0    0    0    0  0.00000000000E+00  0.00000000000E+00  0.39999999674E+01  0.40000000000E+01  0.51100000000E-03 0. -1.
    9000002   -1    0    0    0    0 -0.00000000000E+00 -0.00000000000E+00  0.00000000000E+00  0.93800000000E+00  0.93800000000E+00 0.  1.
         11    1    1    2    0    0  0.17645512355E-02  0.13211758858E-01  0.97681907761E-01  0.98588439677E-01  0.51100000000E-03 0. -1.
    9000002    1    1    2    0    0 -0.72252308379E-01  0.92547830036E+00  0.68432682724E+00  0.14865657358E+01  0.93800000000E+00 0.  1.
         22    1    1    2    0    0  0.70487757144E-01 -0.93869005922E+00  0.32179912324E+01  0.33528458245E+01  0.00000000000E+00 0. -1.
</event>
<event>
 5    1  0.1160133E+000  0.1599676E+01  0.7818608E-02  0.3353715E+00
         11   -1    0    0    0    0  0.00000000000E+00  0.00000000000E+00  0.39999999674E+01  0.40000000000E+01  0.51100000000E-03 0. -1.
    9000002   -1    0    0    0    0 -0.00000000000E+00 -0.00000000000E+00  0.00000000000E+00  0.93800000000E+00  0.93800000000E+00 0. -1.
         11    1    1    2    0    0 -0.32778645158E-01 -0.84559189279E-01  0.24618298609E+00  0.26235666531E+00  0.51100000000E-03 0. -1.
    9000002    1    1    2    0    0  0.38933326707E+00  0.10220028315E+01  0.10245977133E+01  0.17679690762E+01  0.93800000000E+00 0. -1.
         22    1    1    2    0    0 -0.35655462191E+00 -0.93744364219E+00  0.27292192680E+01  0.29076742585E+01  0.00000000000E+00 0. -1.
</event>
<event>
 5    1  0.1160133E+000  0.1599674E+01  0.7818608E-02  0.3353717E+00
         11   -1    0    0    0    0  0.00000000000E+00  0.00000000000E+00  0.39999999674E+01  0.40000000000E+01  0.51100000000E-03 0.  1.
    9000002   -1    0    0    0    0 -0.00000000000E+00 -0.00000000000E+00  0.00000000000E+00  0.93800000000E+00  0.93800000000E+00 0. -1.
         11    1    1    2    0    0 -0.77356082704E-01 -0.72883711703E-01  0.33121969076E+00  0.34785448628E+00  0.51100000000E-03 0.  1.
    9000002    1    1    2    0    0  0.73251414382E+00  0.69244451551E+00  0.82119775363E+00  0.16032049552E+01  0.93800000000E+00 0. -1.
         22    1    1    2    0    0 -0.65515806112E+00 -0.61956080381E+00  0.28475825230E+01  0.29869405585E+01  0.00000000000E+00 0.  1.
</event>
<event>
 5    1  0.1160133E+000  0.1599606E+01  0.7818608E-02  0.3353791E+00
         11   -1    0    0    0    0  0.00000000000E+00  0.00000000000E+00  0.39999999674E+01  0.40000000000E+01  0.51100000000E-03 0.  1.
    9000002   -1    0    0    0    0 -0.00000000000E+00 -0.00000000000E+00  0.00000000000E+00  0.93800000000E+00  0.93800000000E+00 0.  1.
         11    1    1    2    0    0  0.22411668411E+00 -0.41451384639E-01  0.60711414376E+00  0.64848619882E+00  0.51100000000E-03 0.  1.
    9000002    1    1    2    0    0 -0.10645216922E+01  0.20940176238E+00  0.10016664886E+01  0.17493528191E+01  0.93800000000E+00 0.  1.
         22    1    1    2    0    0  0.84040500806E+00 -0.16795037774E+00  0.23912193350E+01  0.25401609821E+01  0.00000000000E+00 0.  1.
</event>
<event>
 5    1  0.1160133E+000  0.1599625E+01  0.7818608E-02  0.3353771E+00
         11   -1    0    0    0    0  0.00000000000E+00  0.00000000000E+00  0.39999999674E+01  0.40000000000E+01  0.51100000000E-03 0.  1.
    9000002   -1    0    0    0    0 -0.00000000000E+00 -0.00000000000E+00  0.00000000000E+00  0.93800000000E+00  0.93800000000E+00 0. -1.
         11    1    1    2    0    0 -0.23888278937E-01  0.14813333155E+00  0.51596966117E+00  0.53734447625E+00  0.51100000000E-03 0.  1.
    9000002    1    1    2    0    0  0.18732902710E+00 -0.92655047400E+00  0.69846482748E+00  0.15037569819E+01  0.93800000000E+00 0. -1.
         22    1    1    2    0    0 -0.16344074817E+00  0.77841714245E+00  0.27855654787E+01  0.28968985419E+01  0.00000000000E+00 0.  1.
</event>
<event>
 5    1  0.1160133E+000  0.1599637E+01  0.7818608E-02  0.3353757E+00
         11   -1    0    0    0    0  0.00000000000E+00  0.00000000000E+00  0.39999999674E+01  0.40000000000E+01  0.51100000000E-03 0. -1.
    9000002   -1    0    0    0    0 -0.00000000000E+00 -0.00000000000E+00  0.00000000000E+00  0.93800000000E+00  0.93800000000E+00 0. -1.
         11    1    1    2    0    0  0.43782390287E-01  0.37013515267E+00  0.13007621599E+01  0.13531073079E+01  0.51100000000E-03 0. -1.
    9000002    1    1    2    0    0 -0.12339632566E+00 -0.94806539581E+00  0.71826620629E+00  0.15198042608E+01  0.93800000000E+00 0. -1.
         22    1    1    2    0    0  0.79613935369E-01  0.57793024314E+00  0.19809716011E+01  0.20650884313E+01  0.00000000000E+00 0. -1.
</event>
<event>
 5    1  0.1160133E+000  0.1599523E+01  0.7818608E-02  0.3353882E+00
         11   -1    0    0    0    0  0.00000000000E+00  0.00000000000E+00  0.39999999674E+01  0.40000000000E+01  0.51100000000E-03 0.  1.
    9000002   -1    0    0    0    0 -0.00000000000E+00 -0.00000000000E+00  0.00000000000E+00  0.93800000000E+00  0.93800000000E+00 0.  1.
         11    1    1    2    0    0  0.35497406962E+00 -0.31585206732E+00  0.12048108216E+01  0.12951210351E+01  0.51100000000E-03 0.  1.
    9000002    1    1    2    0    0 -0.82476134271E+00  0.74955418170E+00  0.10828572741E+01  0.18150720702E+01  0.93800000000E+00 0.  1.
         22    1    1    2    0    0  0.46978727308E+00 -0.43370211438E+00  0.17123318716E+01  0.18278068947E+01  0.00000000000E+00 0.  1.
</event>
<event>
 5    1  0.1160133E+000  0.1599667E+01  0.7818608E-02  0.3353724E+00
         11   -1    0    0    0    0  0.00000000000E+00  0.00000000000E+00  0.39999999674E+01  0.40000000000E+01  0.51100000000E-03 0. -1.
    9000002   -1    0    0    0    0 -0.00000000000E+00 -0.00000000000E+00  0.00000000000E+00  0.93800000000E+00  0.93800000000E+00 0. -1.
         11    1    1    2    0    0 -0.15296525846E+00  0.75864769429E-01  0.58383822416E+00  0.60829365166E+00  0.51100000000E-03 0. -1.
    9000002    1    1    2    0    0  0.86262180546E+00 -0.41078203391E+00  0.71704795331E+00  0.15188350885E+01  0.93800000000E+00 0. -1.
         22    1    1    2    0    0 -0.70965654700E+00  0.33491726448E+00  0.26991137899E+01  0.28108712599E+01  0.00000000000E+00 0. -1.
</event>
<event>
 5    1  0.1160133E+000  0.1595807E+01  0.7818608E-02  0.3357927E+00
         11   -1    0    0    0    0  0.00000000000E+00  0.00000000000E+00  0.39999999674E+01  0.40000000000E+01  0.51100000000E-03 0. -1.
    9000002   -1    0    0    0    0 -0.00000000000E+00 -0.00000000000E+00  0.00000000000E+00  0.93800000000E+00  0.93800000000E+00 0. -1.
         11    1    1    2    0    0  0.43081885759E-01 -0.10463928128E+00  0.55159225645E+00  0.56308055069E+00  0.51100000000E-03 0. -1.
    9000002    1    1    2    0    0 -0.60229462210E+00  0.67837356623E+00  0.63797035180E+00  0.14525149490E+01  0.93800000000E+00 0. -1.
         22    1    1    2    0    0  0.55921273634E+00 -0.57373428495E+00  0.28104373591E+01  0.29224045004E+01  0.00000000000E+00 0. -1.
</event>
<event>
 5    1  0.1160133E+000  0.1599666E+01  0.7818608E-02  0.3353726E+00
         11   -1    0    0    0    0  0.00000000000E+00  0.00000000000E+00  0.39999999674E+01  0.40000000000E+01  0.51100000000E-03 0. -1.
    9000002   -1    0    0    0    0 -0.00000000000E+00 -0.00000000000E+00  0.00000000000E+00  0.93800000000E+00  0.93800000000E+00 0. -1.
         11    1    1    2    0    0  0.81091621719E-01  0.49726708498E-01  0.32614803662E+00  0.33973725078E+00  0.51100000000E-03 0. -1.
    9000002    1    1    2    0    0 -0.83391319114E+00 -0.49524938534E+00  0.74440663520E+00  0.15409959126E+01  0.93800000000E+00 0. -1.
         22    1    1    2    0    0  0.75282156942E+00  0.44552267684E+00  0.29294452955E+01  0.30572668367E+01  0.00000000000E+00 0. -1.
</event>
<event>
 5    1  0.1160133E+000  0.1596445E+01  0.7818608E-02  0.3357231E+00
         11   -1    0    0    0    0  0.00000000000E+00  0.00000000000E+00  0.39999999674E+01  0.40000000000E+01  0.51100000000E-03 0.  1.
    9000002   -1    0    0    0    0 -0.00000000000E+00 -0.00000000000E+00  0.00000000000E+00  0.93800000000E+00  0.93800000000E+00 0.  1.
         11    1    1    2    0    0 -0.24458115799E-01 -0.10326882421E+00  0.30986692410E+00  0.32753690061E+00  0.51100000000E-03 0.  1.
    9000002    1    1    2    0    0 -0.12885963134E+00  0.92542851536E+00  0.68409621831E+00  0.14902531253E+01  0.93800000000E+00 0.  1.
         22    1    1    2    0    0  0.15331774714E+00 -0.82215969115E+00  0.30060368249E+01  0.31202099741E+01  0.00000000000E+00 0.  1.
</event>
<event>
 5    1  0.1160133E+000  0.1599260E+01  0.7818608E-02  0.3354167E+00
         11   -1    0    0    0    0  0.00000000000E+00  0.00000000000E+00  0.39999999674E+01  0.40000000000E+01  0.51100000000E-03 0. -1.
    9000002   -1    0    0    0    0 -0.00000000000E+00 -0.00000000000E+00  0.00000000000E+00  0.93800000000E+00  0.93800000000E+00 0.  1.
         11    1    1    2    0    0 -0.23521326695E+00  0.83291271554E-01  0.74282491507E+00  0.78361459432E+00  0.51100000000E-03 0. -1.
    9000002    1    1    2    0    0  0.10273137117E+01 -0.27992553991E+00  0.95139765506E+00  0.17084300595E+01  0.93800000000E+00 0.  1.
         22    1    1    2    0    0 -0.79210044472E+00  0.19663426835E+00  0.23057773972E+01  0.24459553462E+01  0.00000000000E+00 0. -1.
</event>
<event>
 5    1  0.1160133E+000  0.1595222E+01  0.7818608E-02  0.3358565E+00
         11   -1    0    0    0    0  0.00000000000E+00  0.00000000000E+00  0.39999999674E+01  0.40000000000E+01  0.51100000000E-03 0.  1.
    9000002   -1    0    0    0    0 -0.00000000000E+00 -0.00000000000E+00  0.00000000000E+00  0.93800000000E+00  0.93800000000E+00 0. -1.
         11    1    1    2    0    0  0.31196507637E+00  0.40158478452E+00  0.12091283917E+01  0.13117104394E+01  0.51100000000E-03 0.  1.
    9000002    1    1    2    0    0 -0.72156149740E+00 -0.80003301811E+00  0.99278953482E+00  0.17395915857E+01  0.93800000000E+00 0. -1.
         22    1    1    2    0    0  0.40959642104E+00  0.39844823359E+00  0.17980820408E+01  0.18866979749E+01  0.00000000000E+00 0.  1.
</event>
<event>
 5    1  0.1160133E+000  0.1598660E+01  0.7818608E-02  0.3354819E+00
         11   -1    0    0    0    0  0.00000000000E+00  0.00000000000E+00  0.39999999674E+01  0.40000000000E+01  0.51100000000E-03 0. -1.
    9000002   -1    0    0    0    0 -0.00000000000E+00 -0.00000000000E+00  0.00000000000E+00  0.93800000000E+00  0.93800000000E+00 0. -1.
         11    1    1    2    0    0  0.22322387778E+00  0.13824765633E-01  0.69260428763E+00  0.72781933480E+00  0.51100000000E-03 0. -1.
    9000002    1    1    2    0    0 -0.10838567637E+01  0.25308220849E-01  0.10019928418E+01  0.17490625047E+01  0.93800000000E+00 0. -1.
         22    1    1    2    0    0  0.86063288592E+00 -0.39132986481E-01  0.23054028379E+01  0.24611181605E+01  0.00000000000E+00 0.  1.
</event>
<event>
 5    1  0.1160133E+000  0.1469713E+01  0.7818608E-02  0.3508167E+00
         11   -1    0    0    0    0  0.00000000000E+00  0.00000000000E+00  0.39999999674E+01  0.40000000000E+01  0.51100000000E-03 0.  1.
    9000002   -1    0    0    0    0 -0.00000000000E+00 -0.00000000000E+00  0.00000000000E+00  0.93800000000E+00  0.93800000000E+00 0.  1.
         11    1    1    2    0    0 -0.18835504903E+00  0.10441935296E+00  0.11208159573E+01  0.11413192792E+01  0.51100000000E-03 0.  1.
    9000002    1    1    2    0    0 -0.31372205744E+00  0.57015373876E+00  0.45183880662E+00  0.12278025584E+01  0.93800000000E+00 0.  1.
         22    1    1    2    0    0  0.50207710647E+00 -0.67457309172E+00  0.24273452034E+01  0.25688781624E+01  0.00000000000E+00 0.  1.
</event>
<event>
 5    1  0.1160133E+000  0.1118723E+01  0.7818608E-02  0.4200712E+00
         11   -1    0    0    0    0  0.00000000000E+00  0.00000000000E+00  0.39999999674E+01  0.40000000000E+01  0.51100000000E-03 0.  1.
    9000002   -1    0    0    0    0 -0.00000000000E+00 -0.00000000000E+00  0.00000000000E+00  0.93800000000E+00  0.93800000000E+00 0. -1.
         11    1    1    2    0    0 -0.18037297027E+00  0.60417201041E+00  0.12945092905E+01  0.14399002712E+01  0.51100000000E-03 0.  1.
    9000002    1    1    2    0    0 -0.24493163867E+00  0.42415737834E+00  0.96411770008E+00  0.14315264332E+01  0.93800000000E+00 0. -1.
         22    1    1    2    0    0  0.42530460895E+00 -0.10283293888E+01  0.17413729768E+01  0.20665732957E+01  0.00000000000E+00 0. -1.
</event>
<event>
 5    1  0.1160133E+000  0.1599621E+01  0.7818608E-02  0.3353775E+00
         11   -1    0    0    0    0  0.00000000000E+00  0.00000000000E+00  0.39999999674E+01  0.40000000000E+01  0.51100000000E-03 0.  1.
    9000002   -1    0    0    0    0 -0.00000000000E+00 -0.00000000000E+00  0.00000000000E+00  0.93800000000E+00  0.93800000000E+00 0.  1.
         11    1    1    2    0    0  0.25892479704E+00 -0.11120263885E+00  0.93755904078E+00  0.97899197825E+00  0.51100000000E-03 0.  1.
    9000002    1    1    2    0    0 -0.91595729809E+00  0.37174678469E+00  0.78115996857E+00  0.15707413346E+01  0.93800000000E+00 0.  1.
         22    1    1    2    0    0  0.65703250105E+00 -0.26054414584E+00  0.22812809580E+01  0.23882666871E+01  0.00000000000E+00 0.  1.
</event>
<event>
 5    1  0.1160133E+000  0.1599677E+01  0.7818608E-02  0.3353714E+00
         11   -1    0    0    0    0  0.00000000000E+00  0.00000000000E+00  0.39999999674E+01  0.40000000000E+01  0.51100000000E-03 0.  1.
    9000002   -1    0    0    0    0 -0.00000000000E+00 -0.00000000000E+00  0.00000000000E+00  0.93800000000E+00  0.93800000000E+00 0.  1.
         11    1    1    2    0    0 -0.37887536855E+00  0.20305003634E+00  0.13273784561E+01  0.13952453866E+01  0.51100000000E-03 0.  1.
    9000002    1    1    2    0    0  0.89982369700E+00 -0.48283474322E+00  0.84949858609E+00  0.16261315822E+01  0.93800000000E+00 0.  1.
         22    1    1    2    0    0 -0.52094832845E+00  0.27978470688E+00  0.18231229252E+01  0.19166230311E+01  0.00000000000E+00 0.  1.
</event>
<event>
 5    1  0.1160133E+000  0.1599675E+01  0.7818608E-02  0.3353717E+00
         11   -1    0    0    0    0  0.00000000000E+00  0.00000000000E+00  0.39999999674E+01  0.40000000000E+01  0.51100000000E-03 0. -1.
    9000002   -1    0    0    0    0 -0.00000000000E+00 -0.00000000000E+00  0.00000000000E+00  0.93800000000E+00  0.93800000000E+00 0. -1.
         11    1    1    2    0    0 -0.20677015869E+00  0.68738351375E-01  0.53309032517E+00  0.57590313021E+00  0.51100000000E-03 0. -1.
    9000002    1    1    2    0    0  0.10867823699E+01 -0.36813820206E+00  0.11831019828E+01  0.18963638778E+01  0.93800000000E+00 0. -1.
         22    1    1    2    0    0 -0.88001221126E+00  0.29939985068E+00  0.22838076594E+01  0.24657329919E+01  0.00000000000E+00 0. -1.
</event>
<event>
 5    1  0.1160133E+000  0.1599672E+01  0.7818608E-02  0.3353719E+00
         11   -1    0    0    0    0  0.00000000000E+00  0.00000000000E+00  0.39999999674E+01  0.40000000000E+01  0.51100000000E-03 0. -1.
    9000002   -1    0    0    0    0 -0.00000000000E+00 -0.00000000000E+00  0.00000000000E+00  0.93800000000E+00  0.93800000000E+00 0.  1.
         11    1    1    2    0    0  0.81048701253E-01 -0.64967474182E-01  0.33666454023E+00  0.35232504658E+00  0.51100000000E-03 0. -1.
    9000002    1    1    2    0    0 -0.78500636066E+00  0.61894572949E+00  0.80379379231E+00  0.15891058061E+01  0.93800000000E+00 0.  1.
         22    1    1    2    0    0  0.70395765941E+00 -0.55397825531E+00  0.28595416348E+01  0.29965691474E+01  0.00000000000E+00 0. -1.
</event>
<event>
 5    1  0.1160133E+000  0.1599676E+01  0.7818608E-02  0.3353715E+00
         11   -1    0    0    0    0  0.00000000000E+00  0.00000000000E+00  0.39999999674E+01  0.40000000000E+01  0.51100000000E-03 0.  1.
    9000002   -1    0    0    0    0 -0.00000000000E+00 -0.00000000000E+00  0.00000000000E+00  0.93800000000E+00  0.93800000000E+00 0.  1.
         11    1    1    2    0    0 -0.27859137445E+00 -0.20002249867E+00  0.12224863463E+01  0.12696831423E+01  0.51100000000E-03 0.  1.
    9000002    1    1    2    0    0  0.75916053326E+00  0.54503599041E+00  0.67906761844E+00  0.14880745198E+01  0.93800000000E+00 0.  1.
         22    1    1    2    0    0 -0.48056915881E+00 -0.34501349174E+00  0.20984460026E+01  0.21802423379E+01  0.00000000000E+00 0.  1.
</event>
<event>
 5    1  0.1160133E+000  0.1599673E+01  0.7818608E-02  0.3353719E+00
         11   -1    0    0    0    0  0.00000000000E+00  0.00000000000E+00  0.39999999674E+01  0.40000000000E+01  0.51100000000E-03 0. -1.
    9000002   -1    0    0    0    0 -0.00000000000E+00 -0.00000000000E+00  0.00000000000E+00  0.93800000000E+00  0.93800000000E+00 0. -1.
         11    1    1    2    0    0 -0.72462199598E-01  0.15759024414E+00  0.61412188830E+00  0.63814685631E+00  0.51100000000E-03 0. -1.
    9000002    1    1    2    0    0  0.39359420306E+00 -0.84350886299E+00  0.67247058540E+00  0.14827286626E+01  0.93800000000E+00 0. -1.
         22    1    1    2    0    0 -0.32113200347E+00  0.68591861886E+00  0.27134074937E+01  0.28171244811E+01  0.00000000000E+00 0. -1.
</event>
<event>
 5    1  0.1160133E+000  0.1596842E+01  0.7818608E-02  0.3356799E+00
         11   -1    0    0    0    0  0.00000000000E+00  0.00000000000E+00  0.39999999674E+01  0.40000000000E+01  0.51100000000E-03 0.  1.
    9000002   -1    0    0    0    0 -0.00000000000E+00 -0.00000000000E+00  0.00000000000E+00  0.93800000000E+00  0.93800000000E+00 0.  1.
         11    1    1    2    0    0  0.83227335263E-01 -0.27214044650E+00  0.91960696685E+00  0.96263411873E+00  0.51100000000E-03 0.  1.
    9000002    1    1    2    0    0 -0.97519390406E-01  0.93182153048E+00  0.68800496686E+00  0.14936519777E+01  0.93800000000E+00 0.  1.
         22    1    1    2    0    0  0.14292055143E-01 -0.65968108399E+00  0.23923880337E+01  0.24817139035E+01  0.00000000000E+00 0.  1.
</event>
<event>
 5    1  0.1160133E+000  0.1599663E+01  0.7818608E-02  0.3353729E+00
         11   -1    0    0    0    0  0.00000000000E+00  0.00000000000E+00  0.39999999674E+01  0.40000000000E+01  0.51100000000E-03 0.  1.
    9000002   -1    0    0    0    0 -0.00000000000E+00 -0.00000000000E+00  0.00000000000E+00  0.93800000000E+00  0.93800000000E+00 0. -1.
         11    1    1    2    0    0  0.23755208304E+00  0.27926472604E+00  0.97183085065E+00  0.10386891945E+01  0.51100000000E-03 0.  1.
    9000002    1    1    2    0    0 -0.72000936174E+00 -0.83473889328E+00  0.10483423804E+01  0.17871956378E+01  0.93800000000E+00 0. -1.
         22    1    1    2    0    0  0.48245727870E+00  0.55547416725E+00  0.19798267363E+01  0.21121151678E+01  0.00000000000E+00 0.  1.
</event>
<event>
 5    1  0.1160133E+000  0.1599677E+01  0.7818608E-02  0.3353714E+00
         11   -1    0    0    0    0  0.00000000000E+00  0.00000000000E+00  0.39999999674E+01  0.40000000000E+01  0.51100000000E-03 0.  1.
    9000002   -1    0    0    0    0 -0.00000000000E+00 -0.00000000000E+00  0.00000000000E+00  0.93800000000E+00  0.93800000000E+00 0.  1.
         11    1    1    2    0    0 -0.16933259648E+00  0.48803169427E-02  0.54441713767E+00  0.57016456102E+00  0.51100000000E-03 0.  1.
    9000002    1    1    2    0    0  0.99605776521E+00 -0.27206203596E-01  0.79712188782E+00  0.15837040611E+01  0.93800000000E+00 0.  1.
         22    1    1    2    0    0 -0.82672516872E+00  0.22325886654E-01  0.26584609419E+01  0.27841313779E+01  0.00000000000E+00 0.  1.
</event>
<event>
 5    1  0.1160133E+000  0.1599673E+01  0.7818608E-02  0.3353718E+00
         11   -1    0    0    0    0  0.00000000000E+00  0.00000000000E+00  0.39999999674E+01  0.40000000000E+01  0.51100000000E-03 0.  1.
    9000002   -1    0    0    0    0 -0.00000000000E+00 -0.00000000000E+00  0.00000000000E+00  0.93800000000E+00  0.93800000000E+00 0. -1.
         11    1    1    2    0    0 -0.24824281376E-01 -0.91092777131E-01  0.31226566090E+00  0.32622728747E+00  0.51100000000E-03 0.  1.
    9000002    1    1    2    0    0  0.25355926412E+00  0.95392402653E+00  0.77810296685E+00  0.15682957552E+01  0.93800000000E+00 0. -1.
         22    1    1    2    0    0 -0.22873498275E+00 -0.86283124939E+00  0.29096313396E+01  0.30434769573E+01  0.00000000000E+00 0.  1.
</event>
<event>
 5    1  0.1160133E+000  0.1187583E+01  0.7818608E-02  0.4022511E+00
         11   -1    0    0    0    0  0.00000000000E+00  0.00000000000E+00  0.39999999674E+01  0.40000000000E+01  0.51100000000E-03 0. -1.
    9000002   -1    0    0    0    0 -0.00000000000E+00 -0.00000000000E+00  0.00000000000E+00  0.93800000000E+00  0.93800000000E+00 0. -1.
         11    1    1    2    0    0 -0.42755987777E+00  0.15018985029E+00 -0.46876659150E-01  0.45558986215E+00  0.51100000000E-03 0. -1.
    9000002    1    1    2    0    0  0.43418679285E+00  0.54981989829E+00  0.19803506479E+01  0.23005331513E+01  0.93800000000E+00 0. -1.
         22    1    1    2    0    0 -0.66269150829E-02 -0.70000974858E+00  0.20665259786E+01  0.21818769865E+01  0.00000000000E+00 0. -1.
</event>
<event>
 5    1  0.1160133E+000  0.1597114E+01  0.7818608E-02  0.3356502E+00
         11   -1    0    0    0    0  0.00000000000E+00  0.00000000000E+00  0.39999999674E+01  0.40000000000E+01  0.51100000000E-03 0.  1.
    9000002   -1    0    0    0    0 -0.00000000000E+00 -0.00000000000E+00  0.00000000000E+00  0.93800000000E+00  0.93800000000E+00 0.  1.
         11    1    1    2    0    0 -0.10658158798E+00 -0.10664040358E+00  0.34853701321E+00  0.37975007738E+00  0.51100000000E-03 0.  1.
    9000002    1    1    2    0    0  0.71483464843E+00  0.70711221833E+00  0.82093706000E+00  0.16014924041E+01  0.93800000000E+00 0.  1.
         22    1    1    2    0    0 -0.60825306045E+00 -0.60047181475E+00  0.28305258942E+01  0.29567575185E+01  0.00000000000E+00 0.  1.
</event>
<event>
 5    1  0.1160133E+000  0.1599661E+01  0.7818608E-02  0.3353731E+00
         11   -1    0    0    0    0  0.00000000000E+00  0.00000000000E+00  0.39999999674E+01  0.40000000000E+01  0.51100000000E-03 0.  1.
    9000002   -1    0    0    0    0 -0.00000000000E+00 -0.00000000000E+00  0.00000000000E+00  0.93800000000E+00  0.93800000000E+00 0.  1.
         11    1    1    2    0    0 -0.82182432452E-01  0.25278879086E-01  0.28384481391E+00  0.29658238895E+00  0.51100000000E-03 0.  1.
    9000002    1    1    2    0    0  0.91636455733E+00 -0.28718282487E+00  0.72618458589E+00  0.15262326263E+01  0.93800000000E+00 0.  1.
         22    1    1    2    0    0 -0.83418212488E+00  0.26190394578E+00  0.29899705676E+01  0.31151849847E+01  0.00000000000E+00 0.  1.
</event>
<event>
 5    1  0.1160133E+000  0.1599669E+01  0.7818608E-02  0.3353723E+00
         11   -1    0    0    0    0  0.00000000000E+00  0.00000000000E+00  0.39999999674E+01  0.40000000000E+01  0.51100000000E-03 0.  1.
    9000002   -1    0    0    0    0 -0.00000000000E+00 -0.00000000000E+00  0.00000000000E+00  0.93800000000E+00  0.93800000000E+00 0.  1.
         11    1    1    2    0    0 -0.58797882639E+00 -0.35809427306E-02  0.11498461621E+01  0.12914636585E+01  0.51100000000E-03 0.  1.
    9000002    1    1    2    0    0  0.12394135050E+01  0.24361508606E-02  0.15650953508E+01  0.22057921997E+01  0.93800000000E+00 0.  1.
         22    1    1    2    0    0 -0.65143467856E+00  0.11447918699E-02  0.12850584544E+01  0.14407441419E+01  0.00000000000E+00 0.  1.
</event>
<event>
 5    1  0.1160133E+000  0.1595733E+01  0.7818608E-02  0.3358007E+00
         11   -1    0    0    0    0  0.00000000000E+00  0.00000000000E+00  0.39999999674E+01  0.40000000000E+01  0.51100000000E-03 0. -1.
    9000002   -1    0    0    0    0 -0.00000000000E+00 -0.00000000000E+00  0.00000000000E+00  0.93800000000E+00  0.93800000000E+00 0. -1.
         11    1    1    2    0    0  0.14635134354E+00  0.11254446689E+00  0.65277740989E+00  0.67838306345E+00  0.51100000000E-03 0. -1.
    9000002    1    1    2    0    0 -0.90665599367E+00 -0.31567602936E+00  0.73259632185E+00  0.15291232184E+01  0.93800000000E+00 0. -1.
         22    1    1    2    0    0  0.76030465013E+00  0.20313156247E+00  0.26146262356E+01  0.27304937181E+01  0.00000000000E+00 0.  1.
</event>
<event>
 5    1  0.1160133E+000  0.1599638E+01  0.7818608E-02  0.3353757E+00
         11   -1    0    0    0    0  0.00000000000E+00  0.00000000000E+00  0.39999999674E+01  0.40000000000E+01  0.51100000000E-03 0.  1.
    9000002   -1    0    0    0    0 -0.00000000000E+00 -0.00000000000E+00  0.00000000000E+00  0.93800000000E+00  0.93800000000E+00 0.  1.
         11    1    1    2    0    0 -0.32571378382E-03  0.68042412873E-02  0.21628892563E-01  0.22682017182E-01  0.51100000000E-03 0.  1.
    9000002    1    1    2    0    0  0.14941173407E+00 -0.90883157959E+00  0.65547777030E+00  0.14689430941E+01  0.93800000000E+00 0.  1.
         22    1    1    2    0    0 -0.14908602029E+00  0.90202733831E+00  0.33228933045E+01  0.34463748887E+01  0.00000000000E+00 0.  1.
</event>
<event>
 5    1  0.1160133E+000  0.1599554E+01  0.7818608E-02  0.3353848E+00
         11   -1    0    0    0    0  0.00000000000E+00  0.00000000000E+00  0.39999999674E+01  0.40000000000E+01  0.51100000000E-03 0.  1.
    9000002   -1    0    0    0    0 -0.00000000000E+00 -0.00000000000E+00  0.00000000000E+00  0.93800000000E+00  0.93800000000E+00 0.  1.
         11    1    1    2    0    0  0.47173300188E+00 -0.28596274184E-01  0.90301390548E+00  0.10192076072E+01  0.51100000000E-03 0.  1.
    9000002    1    1    2    0    0 -0.12521860524E+01  0.47960789798E-01  0.16480783476E+01  0.22729444311E+01  0.93800000000E+00 0.  1.
         22    1    1    2    0    0  0.78045305049E+00 -0.19364515615E-01  0.14489077143E+01  0.16458479617E+01  0.00000000000E+00 0.  1.
</event>
<event>
 5    1  0.1160133E+000  0.1599546E+01  0.7818608E-02  0.3353856E+00
         11   -1    0    0    0    0  0.00000000000E+00  0.00000000000E+00  0.39999999674E+01  0.40000000000E+01  0.51100000000E-03 0. -1.
    9000002   -1    0    0    0    0 -0.00000000000E+00 -0.00000000000E+00  0.00000000000E+00  0.93800000000E+00  0.93800000000E+00 0. -1.
         11    1    1    2    0    0  0.12448999325E+00  0.20656062733E-01  0.39446207739E+00  0.41415579552E+00  0.51100000000E-03 0. -1.
    9000002    1    1    2    0    0 -0.95739701790E+00 -0.14097139872E+00  0.74045664857E+00  0.15377262544E+01  0.93800000000E+00 0. -1.
         22    1    1    2    0    0  0.83290702465E+00  0.12031533599E+00  0.28650812414E+01  0.29861179501E+01  0.00000000000E+00 0. -1.
</event>
<event>
 5    1  0.1160133E+000  0.1599673E+01  0.7818608E-02  0.3353718E+00
         11   -1    0    0    0    0  0.00000000000E+00  0.00000000000E+00  0.39999999674E+01  0.40000000000E+01  0.51100000000E-03 0.  1.
    9000002   -1    0    0    0    0 -0.00000000000E+00 -0.00000000000E+00  0.00000000000E+00  0.93800000000E+00  0.93800000000E+00 0.  1.
         11    1    1    2    0    0  0.17548486416E+00  0.44009284007E+00  0.13209427177E+01  0.14033412165E+01  0.51100000000E-03 0.  1.
    9000002    1    1    2    0    0 -0.39509373900E+00 -0.10041143990E+01  0.98629935332E+00  0.17369442142E+01  0.93800000000E+00 0.  1.
         22    1    1    2    0    0  0.21960887484E+00  0.56402155897E+00  0.16927578963E+01  0.17977145692E+01  0.00000000000E+00 0. -1.
</event>
<event>
 5    1  0.1160133E+000  0.1599676E+01  0.7818608E-02  0.3353715E+00
         11   -1    0    0    0    0  0.00000000000E+00  0.00000000000E+00  0.39999999674E+01  0.40000000000E+01  0.51100000000E-03 0.  1.
    9000002   -1    0    0    0    0 -0.00000000000E+00 -0.00000000000E+00  0.00000000000E+00  0.93800000000E+00  0.93800000000E+00 0.  1.
         11    1    1    2    0    0 -0.58660344721E-01  0.31862966331E+00  0.11690354583E+01  0.12130993621E+01  0.51100000000E-03 0.  1.
    9000002    1    1    2    0    0  0.17004054688E+00 -0.90883804793E+00  0.66160375602E+00  0.14739280562E+01  0.93800000000E+00 0.  1.
         22    1    1    2    0    0 -0.11138020216E+00  0.59020838462E+00  0.21693607530E+01  0.22509725817E+01  0.00000000000E+00 0.  1.
</event>
<event>
 5    1  0.1160133E+000  0.1599677E+01  0.7818608E-02  0.3353714E+00
         11   -1    0    0    0    0  0.00000000000E+00  0.00000000000E+00  0.39999999674E+01  0.40000000000E+01  0.51100000000E-03 0.  1.
    9000002   -1    0    0    0    0 -0.00000000000E+00 -0.00000000000E+00  0.00000000000E+00  0.93800000000E+00  0.93800000000E+00 0.  1.
         11    1    1    2    0    0 -0.34270734764E+00 -0.11872442563E+00  0.11765966651E+01  0.12312285689E+01  0.51100000000E-03 0.  1.
    9000002    1    1    2    0    0  0.93755711654E+00  0.32381860923E+00  0.78788889557E+00  0.15762248413E+01  0.93800000000E+00 0.  1.
         22    1    1    2    0    0 -0.59484976891E+00 -0.20509418360E+00  0.20355144067E+01  0.21305465899E+01  0.00000000000E+00 0.  1.
</event>
<event>
 5    1  0.1160133E+000  0.1599677E+01  0.7818608E-02  0.3353714E+00
         11   -1    0    0    0    0  0.00000000000E+00  0.00000000000E+00  0.39999999674E+01  0.40000000000E+01  0.51100000000E-03 0.  1.
    9000002   -1    0    0    0    0 -0.00000000000E+00 -0.00000000000E+00  0.00000000000E+00  0.93800000000E+00  0.93800000000E+00 0.  1.
         11    1    1    2    0    0  0.82762540569E-01 -0.36207953983E+00  0.13674154524E+01  0.14169603071E+01  0.51100000000E-03 0.  1.
    9000002    1    1    2    0    0 -0.20244366228E+00  0.88999732452E+00  0.64124083390E+00  0.14574335255E+01  0.93800000000E+00 0.  1.
         22    1    1    2    0    0  0.11968112171E+00 -0.52791778469E+00  0.19913436811E+01  0.20636061675E+01  0.00000000000E+00 0.  1.
</event>
<event>
 5    1  0.1160133E+000  0.1599591E+01  0.7818608E-02  0.3353807E+00
         11   -1    0    0    0    0  0.00000000000E+00  0.00000000000E+00  0.39999999674E+01  0.40000000000E+01  0.51100000000E-03 0.  1.
    9000002   -1    0    0    0    0 -0.00000000000E+00 -0.00000000000E+00  0.00000000000E+00  0.93800000000E+00  0.93800000000E+00 0.  1.
         11    1    1    2    0    0  0.79206916425E-01  0.26283611684E-01  0.17616174535E+00  0.19493020673E+00  0.51100000000E-03 0.  1.
    9000002    1    1    2    0    0 -0.11407883621E+01 -0.33237583856E+00  0.13285891209E+01  0.20141660401E+01  0.93800000000E+00 0.  1.
         22    1    1    2    0    0  0.10615814457E+01  0.30609222688E+00  0.24952491011E+01  0.27289037531E+01  0.00000000000E+00 0.  1.
</event>
<event>
 5    1  0.1160133E+000  0.1599677E+01  0.7818608E-02  0.3353714E+00
         11   -1    0    0    0    0  0.00000000000E+00  0.00000000000E+00  0.39999999674E+01  0.40000000000E+01  0.51100000000E-03 0. -1.
    9000002   -1    0    0    0    0 -0.00000000000E+00 -0.00000000000E+00  0.00000000000E+00  0.93800000000E+00  0.93800000000E+00 0. -1.
         11    1    1    2    0    0 -0.22586508055E+00  0.64145493582E-01  0.66534492624E+00  0.70555921860E+00  0.51100000000E-03 0.  1.
    9000002    1    1    2    0    0  0.10311269381E+01 -0.29250881565E+00  0.96793530331E+00  0.17220705331E+01  0.93800000000E+00 0. -1.
         22    1    1    2    0    0 -0.80526185754E+00  0.22836332207E+00  0.23667197378E+01  0.25103702483E+01  0.00000000000E+00 0. -1.
</event>
<event>
 5    1  0.1160133E+000  0.1599672E+01  0.7818608E-02  0.3353720E+00
         11   -1    0    0    0    0  0.00000000000E+00  0.00000000000E+00  0.39999999674E+01  0.40000000000E+01  0.51100000000E-03 0. -1.
    9000002   -1    0    0    0    0 -0.00000000000E+00 -0.00000000000E+00  0.00000000000E+00  0.93800000000E+00  0.93800000000E+00 0. -1.
         11    1    1    2    0    0  0.81295950934E-01  0.24034231444E-01  0.24049052149E+00  0.25499534892E+00  0.51100000000E-03 0. -1.
    9000002    1    1    2    0    0 -0.10226068673E+01 -0.28925386816E+00  0.94544522586E+00  0.17038495475E+01  0.93800000000E+00 0. -1.
         22    1    1    2    0    0  0.94131091639E+00  0.26521963671E+00  0.28140642200E+01  0.29791551036E+01  0.00000000000E+00 0. -1.
</event>
<event>
 5    1  0.1160133E+000  0.1599574E+01  0.7818608E-02  0.3353826E+00
         11   -1    0    0    0    0  0.00000000000E+00  0.00000000000E+00  0.39999999674E+01  0.40000000000E+01  0.51100000000E-03 0. -1.
    9000002   -1    0    0    0    0 -0.00000000000E+00 -0.00000000000E+00  0.00000000000E+00  0.93800000000E+00  0.93800000000E+00 0.  1.
         11    1    1    2    0    0 -0.26568880556E+00  0.15632577508E+00  0.99462277096E+00  0.10412987117E+01  0.51100000000E-03 0. -1.
    9000002    1    1    2    0    0  0.83378774984E+00 -0.53171531362E+00  0.78201114675E+00  0.15714033919E+01  0.93800000000E+00 0.  1.
         22    1    1    2    0    0 -0.56809894428E+00  0.37538953854E+00  0.22233660497E+01  0.23252978964E+01  0.00000000000E+00 0.  1.
</event>
<event>
 5    1  0.1160133E+000  0.1599595E+01  0.7818608E-02  0.3353804E+00
         11   -1    0    0    0    0  0.00000000000E+00  0.00000000000E+00  0.39999999674E+01  0.40000000000E+01  0.51100000000E-03 0. -1.
    9000002   -1    0    0    0    0 -0.00000000000E+00 -0.00000000000E+00  0.00000000000E+00  0.93800000000E+00  0.93800000000E+00 0. -1.
         11    1    1    2    0    0  0.16173246668E+00 -0.68844836135E+00  0.11908725615E+01  0.13850257239E+01  0.51100000000E-03 0. -1.
    9000002    1    1    2    0    0 -0.30925659522E+00  0.12417969975E+01  0.18637865527E+01  0.24477017259E+01  0.93800000000E+00 0. -1.
         22    1    1    2    0    0  0.14752412854E+00 -0.55334863617E+00  0.94534085317E+00  0.11052725502E+01  0.00000000000E+00 0.  1.
</event>
<event>
 5    1  0.1160133E+000  0.1599424E+01  0.7818608E-02  0.3353988E+00
         11   -1    0    0    0    0  0.00000000000E+00  0.00000000000E+00  0.39999999674E+01  0.40000000000E+01  0.51100000000E-03 0. -1.
    9000002   -1    0    0    0    0 -0.00000000000E+00 -0.00000000000E+00  0.00000000000E+00  0.93800000000E+00  0.93800000000E+00 0. -1.
         11    1    1    2    0    0  0.23412945150E+00  0.56996998166E+00  0.10839815565E+01  0.12468755575E+01  0.51100000000E-03 0. -1.
    9000002    1    1    2    0    0 -0.51837596635E+00 -0.11601101429E+01  0.17789629182E+01  0.23788909707E+01  0.93800000000E+00 0. -1.
         22    1    1    2    0    0  0.28424651485E+00  0.59014016119E+00  0.11370554927E+01  0.13122334718E+01  0.00000000000E+00 0. -1.
</event>
<event>
 5    1  0.1160133E+000  0.1599667E+01  0.7818608E-02  0.3353725E+00
         11   -1    0    0    0    0  0.00000000000E+00  0.00000000000E+00  0.39999999674E+01  0.40000000000E+01  0.51100000000E-03 0. -1.
    9000002   -1    0    0    0    0 -0.00000000000E+00 -0.00000000000E+00  0.00000000000E+00  0.93800000000E+00  0.93800000000E+00 0.  1.
         11    1    1    2    0    0 -0.11918559109E+00  0.37109722597E+00  0.12735704408E+01  0.13318784798E+01  0.51100000000E-03 0. -1.
    9000002    1    1    2    0    0  0.31088295234E+00 -0.93657060422E+00  0.77765760134E+00  0.15679311374E+01  0.93800000000E+00 0.  1.
         22    1    1    2    0    0 -0.19169736125E+00  0.56547337825E+00  0.19487719252E+01  0.20381903827E+01  0.00000000000E+00 0. -1.
</event>
<event>
 5    1  0.1160133E+000  0.1599079E+01  0.7818608E-02  0.3354364E+00
         11   -1    0    0    0    0  0.00000000000E+00  0.00000000000E+00  0.39999999674E+01  0.40000000000E+01  0.51100000000E-03 0.  1.
    9000002   -1    0    0    0    0 -0.00000000000E+00 -0.00000000000E+00  0.00000000000E+00  0.93800000000E+00  0.93800000000E+00 0.  1.
         11    1    1    2    0    0  0.14494090651E+00 -0.22801138146E+00  0.71971033754E+00  0.76875242279E+00  0.51100000000E-03 0.  1.
    9000002    1    1    2    0    0 -0.55861730934E+00  0.88562506047E+00  0.90933794931E+00  0.16742534313E+01  0.93800000000E+00 0.  1.
         22    1    1    2    0    0  0.41367640283E+00 -0.65761367900E+00  0.23709516805E+01  0.24949941460E+01  0.00000000000E+00 0.  1.
</event>
<event>
 5    1  0.1160133E+000  0.1599275E+01  0.7818608E-02  0.3354151E+00
         11   -1    0    0    0    0  0.00000000000E+00  0.00000000000E+00  0.39999999674E+01  0.40000000000E+01  0.51100000000E-03 0.  1.
    9000002   -1    0    0    0    0 -0.00000000000E+00 -0.00000000000E+00  0.00000000000E+00  0.93800000000E+00  0.93800000000E+00 0. -1.
         11    1    1    2    0    0 -0.19232690491E+00  0.28794152422E+00  0.12395475319E+01  0.12870036148E+01  0.51100000000E-03 0.  1.
    9000002    1    1    2    0    0  0.56558598215E+00 -0.73443226057E+00  0.66637615353E+00  0.14775586034E+01  0.93800000000E+00 0. -1.
         22    1    1    2    0    0 -0.37325907724E+00  0.44649073635E+00  0.20940762820E+01  0.21734377817E+01  0.00000000000E+00 0.  1.
</event>
<event>
 5    1  0.1160133E+000  0.1599673E+01  0.7818608E-02  0.3353718E+00
         11   -1    0    0    0    0  0.00000000000E+00  0.00000000000E+00  0.39999999674E+01  0.40000000000E+01  0.51100000000E-03 0.  1.
    9000002   -1    0    0    0    0 -0.00000000000E+00 -0.00000000000E+00  0.00000000000E+00  0.93800000000E+00  0.93800000000E+00 0.  1.
         11    1    1    2    0    0  0.34852662974E+00  0.21463422882E+00  0.81933652348E+00  0.91588823753E+00  0.51100000000E-03 0.  1.
    9000002    1    1    2    0    0 -0.10492545759E+01 -0.65092541420E+00  0.15396082613E+01  0.21851491158E+01  0.93800000000E+00 0.  1.
         22    1    1    2    0    0  0.70072794620E+00  0.43629118538E+00  0.16410551826E+01  0.18369626467E+01  0.00000000000E+00 0.  1.
</event>
<event>
 5    1  0.1160133E+000  0.1599637E+01  0.7818608E-02  0.3353757E+00
         11   -1    0    0    0    0  0.00000000000E+00  0.00000000000E+00  0.39999999674E+01  0.40000000000E+01  0.51100000000E-03 0.  1.
    9000002   -1    0    0    0    0 -0.00000000000E+00 -0.00000000000E+00  0.00000000000E+00  0.93800000000E+00  0.93800000000E+00 0.  1.
         11    1    1    2    0    0 -0.16884307355E+00  0.17301950637E+00  0.70348284273E+00  0.74386296064E+00  0.51100000000E-03 0.  1.
    9000002    1    1    2    0    0  0.71422838818E+00 -0.76635209075E+00  0.90926617939E+00  0.16745228283E+01  0.93800000000E+00 0.  1.
         22    1    1    2    0    0 -0.54538531462E+00  0.59333258438E+00  0.23872509452E+01  0.25196142111E+01  0.00000000000E+00 0.  1.
</event>
<event>
 5    1  0.1602639E+000  0.1514048E+01  0.7818608E-02  0.3452284E+00
         11   -1    0    0    0    0  0.00000000000E+00  0.00000000000E+00  0.39999999674E+01  0.40000000000E+01  0.51100000000E-03 0. -1.
    9000002   -1    0    0    0    0 -0.00000000000E+00 -0.00000000000E+00  0.00000000000E+00  0.93800000000E+00  0.93800000000E+00 0. -1.
         11    1    1    2    0    0 -0.77315972806E-02 -0.42339737202E+00  0.12108548159E+01  0.12827683963E+01  0.51100000000E-03 0. -1.
    9000002    1    1    2    0    0  0.30097222816E+00 -0.29489221222E+00  0.33518063330E+00  0.10815432289E+01  0.93800000000E+00 0. -1.
         22    1    1    2    0    0 -0.29324063088E+00  0.71828958424E+00  0.24539645181E+01  0.25736883748E+01  0.00000000000E+00 0. -1.
</event>
<event>
 5    1  0.1160133E+000  0.1599660E+01  0.7818608E-02  0.3353733E+00
         11   -1    0    0    0    0  0.00000000000E+00  0.00000000000E+00  0.39999999674E+01  0.40000000000E+01  0.51100000000E-03 0. -1.
    9000002   -1    0    0    0    0 -0.00000000000E+00 -0.00000000000E+00  0.00000000000E+00  0.93800000000E+00  0.93800000000E+00 0.  1.
         11    1    1    2    0    0 -0.11161090629E-01  0.91750493509E-01  0.25645248762E+00  0.27260018806E+00  0.51100000000E-03 0. -1.
    9000002    1    1    2    0    0  0.10593076604E+00 -0.10652188678E+01  0.96461739985E+00  0.17193729356E+01  0.93800000000E+00 0.  1.
         22    1    1    2    0    0 -0.94769675410E-01  0.97346837433E+00  0.27789300799E+01  0.29460268763E+01  0.00000000000E+00 0. -1.
</event>
<event>
 5    1  0.1160133E+000  0.1532719E+01  0.7818608E-02  0.3429789E+00
         11   -1    0    0    0    0  0.00000000000E+00  0.00000000000E+00  0.39999999674E+01  0.40000000000E+01  0.51100000000E-03 0. -1.
    9000002   -1    0    0    0    0 -0.00000000000E+00 -0.00000000000E+00  0.00000000000E+00  0.93800000000E+00  0.93800000000E+00 0.  1.
         11    1    1    2    0    0  0.73941932488E+00  0.53516760720E+00  0.10512050736E+01  0.13921844970E+01  0.51100000000E-03 0. -1.
    9000002    1    1    2    0    0 -0.80680894463E+00 -0.89789652582E+00  0.19288284560E+01  0.24611749343E+01  0.93800000000E+00 0.  1.
         22    1    1    2    0    0  0.67389619748E-01  0.36272891862E+00  0.10199664378E+01  0.10846405688E+01  0.00000000000E+00 0. -1.
</event>
<event>
 5    1  0.1160133E+000  0.1599676E+01  0.7818608E-02  0.3353715E+00
         11   -1    0    0    0    0  0.00000000000E+00  0.00000000000E+00  0.39999999674E+01  0.40000000000E+01  0.51100000000E-03 0. -1.
    9000002   -1    0    0    0    0 -0.00000000000E+00 -0.00000000000E+00  0.00000000000E+00  0.93800000000E+00  0.93800000000E+00 0. -1.
         11    1    1    2    0    0  0.26684277574E+00  0.19819714987E+00  0.11554969453E+01  0.12023562820E+01  0.51100000000E-03 0. -1.
    9000002    1    1    2    0    0 -0.75881141024E+00 -0.56435747465E+00  0.69905812751E+00  0.15042673902E+01  0.93800000000E+00 0. -1.
         22    1    1    2    0    0  0.49196863450E+00  0.36616032478E+00  0.21454448946E+01  0.22313763278E+01  0.00000000000E+00 0. -1.
</event>
<event>
 5    1  0.1160133E+000  0.1596863E+01  0.7818608E-02  0.3356775E+00
         11   -1    0    0    0    0  0.00000000000E+00  0.00000000000E+00  0.39999999674E+01  0.40000000000E+01  0.51100000000E-03 0.  1.
    9000002   -1    0    0    0    0 -0.00000000000E+00 -0.00000000000E+00  0.00000000000E+00  0.93800000000E+00  0.93800000000E+00 0.  1.
         11    1    1    2    0    0  0.24956305262E+00  0.51151905244E-02  0.82090573320E+00  0.85801769582E+00  0.51100000000E-03 0.  1.
    9000002    1    1    2    0    0 -0.98185895558E+00 -0.23548841987E+00  0.83039285182E+00  0.16090053116E+01  0.93800000000E+00 0.  1.
         22    1    1    2    0    0  0.73229590296E+00  0.23037322935E+00  0.23487013823E+01  0.24709769925E+01  0.00000000000E+00 0.  1.
</event>
<event>
 5    1  0.1332016E+000  0.1593962E+01  0.7818608E-02  0.3359943E+00
         11   -1    0    0    0    0  0.00000000000E+00  0.00000000000E+00  0.39999999674E+01  0.40000000000E+01  0.51100000000E-03 0.  1.
    9000002   -1    0    0    0    0 -0.00000000000E+00 -0.00000000000E+00  0.00000000000E+00  0.93800000000E+00  0.93800000000E+00 0. -1.
         11    1    1    2    0    0  0.11427106331E+00  0.23072150282E+00  0.12584229544E+01  0.12844916820E+01  0.51100000000E-03 0.  1.
    9000002    1    1    2    0    0 -0.55784943995E+00 -0.62606622492E+00  0.53302749648E+00  0.13664249806E+01  0.93800000000E+00 0. -1.
         22    1    1    2    0    0  0.44357837664E+00  0.39534472210E+00  0.22085495165E+01  0.22870833374E+01  0.00000000000E+00 0. -1.
</event>
<event>
 5    1  0.1160133E+000  0.1599032E+01  0.7818608E-02  0.3354414E+00
         11   -1    0    0    0    0  0.00000000000E+00  0.00000000000E+00  0.39999999674E+01  0.40000000000E+01  0.51100000000E-03 0. -1.
    9000002   -1    0    0    0    0 -0.00000000000E+00 -0.00000000000E+00  0.00000000000E+00  0.93800000000E+00  0.93800000000E+00 0. -1.
         11    1    1    2    0    0 -0.23767278164E+00  0.15739302801E-01  0.84820096686E+00  0.88101147443E+00  0.51100000000E-03 0. -1.
    9000002    1    1    2    0    0  0.93336837763E+00  0.42656493213E-01  0.67976230858E+00  0.14882596887E+01  0.93800000000E+00 0. -1.
         22    1    1    2    0    0 -0.69569559599E+00 -0.58395796014E-01  0.24720366919E+01  0.25687288369E+01  0.00000000000E+00 0.  1.
</event>
<event>
 5    1  0.1160133E+000  0.1589913E+01  0.7818608E-02  0.3364385E+00
         11   -1    0    0    0    0  0.00000000000E+00  0.00000000000E+00  0.39999999674E+01  0.40000000000E+01  0.51100000000E-03 0.  1.
    9000002   -1    0    0    0    0 -0.00000000000E+00 -0.00000000000E+00  0.00000000000E+00  0.93800000000E+00  0.93800000000E+00 0. -1.
         11    1    1    2    0    0 -0.74700190705E-01 -0.60765117675E+00  0.10983912257E+01  0.12574910007E+01  0.51100000000E-03 0.  1.
    9000002    1    1    2    0    0  0.27462544769E+00  0.11611966364E+01  0.13889255473E+01  0.20573660201E+01  0.93800000000E+00 0. -1.
         22    1    1    2    0    0 -0.19992525699E+00 -0.55354545961E+00  0.15126831944E+01  0.16231429792E+01  0.00000000000E+00 0. -1.
</event>
<event>
 5    1  0.1160133E+000  0.1589523E+01  0.7818608E-02  0.3364814E+00
         11   -1    0    0    0    0  0.00000000000E+00  0.00000000000E+00  0.39999999674E+01  0.40000000000E+01  0.51100000000E-03 0. -1.
    9000002   -1    0    0    0    0 -0.00000000000E+00 -0.00000000000E+00  0.00000000000E+00  0.93800000000E+00  0.93800000000E+00 0.  1.
         11    1    1    2    0    0  0.47480568875E-02 -0.29281022255E-01  0.13048680696E+00  0.13381700273E+00  0.51100000000E-03 0. -1.
    9000002    1    1    2    0    0 -0.88982179328E+00 -0.17728998843E+00  0.64823115839E+00  0.14571417908E+01  0.93800000000E+00 0.  1.
         22    1    1    2    0    0  0.88507373639E+00  0.20657101068E+00  0.32212820020E+01  0.33470412065E+01  0.00000000000E+00 0. -1.
</event>
<event>
 5    1  0.1160133E+000  0.1585234E+01  0.7818608E-02  0.3369548E+00
         11   -1    0    0    0    0  0.00000000000E+00  0.00000000000E+00  0.39999999674E+01  0.40000000000E+01  0.51100000000E-03 0. -1.
    9000002   -1    0    0    0    0 -0.00000000000E+00 -0.00000000000E+00  0.00000000000E+00  0.93800000000E+00  0.93800000000E+00 0. -1.
         11    1    1    2    0    0  0.13521306345E+00 -0.54556661380E+00  0.12469817103E+01  0.13678044997E+01  0.51100000000E-03 0. -1.
    9000002    1    1    2    0    0 -0.54741272251E+00  0.10076382610E+01  0.12280379100E+01  0.19242964071E+01  0.93800000000E+00 0. -1.
         22    1    1    2    0    0  0.41219965906E+00 -0.46207164720E+00  0.15249803471E+01  0.16458990932E+01  0.00000000000E+00 0. -1.
</event>
<event>
 5    1  0.1198626E+000  0.1586532E+01  0.7818608E-02  0.3368112E+00
         11   -1    0    0    0    0  0.00000000000E+00  0.00000000000E+00  0.39999999674E+01  0.40000000000E+01  0.51100000000E-03 0. -1.
    9000002   -1    0    0    0    0 -0.00000000000E+00 -0.00000000000E+00  0.00000000000E+00  0.93800000000E+00  0.93800000000E+00 0. -1.
         11    1    1    2    0    0  0.23208019042E+00 -0.54932826552E+00  0.12847532543E+01  0.14164088194E+01  0.51100000000E-03 0. -1.
    9000002    1    1    2    0    0 -0.45518781780E+00  0.96232078843E+00  0.98102955905E+00  0.17249696360E+01  0.93800000000E+00 0. -1.
         22    1    1    2    0    0  0.22310762737E+00 -0.41299252291E+00  0.17342171540E+01  0.17966215446E+01  0.00000000000E+00 0.  1.
</event>
<event>
 5    1  0.1160133E+000  0.1570510E+01  0.7818608E-02  0.3386006E+00
         11   -1    0    0    0    0  0.00000000000E+00  0.00000000000E+00  0.39999999674E+01  0.40000000000E+01  0.51100000000E-03 0.  1.
    9000002   -1    0    0    0    0 -0.00000000000E+00 -0.00000000000E+00  0.00000000000E+00  0.93800000000E+00  0.93800000000E+00 0.  1.
         11    1    1    2    0    0  0.57462050633E-01 -0.32017152080E+00  0.87290804223E+00  0.93154731565E+00  0.51100000000E-03 0.  1.
    9000002    1    1    2    0    0  0.37021206512E+00  0.84835793891E+00  0.71260155161E+00  0.14981365549E+01  0.93800000000E+00 0.  1.
         22    1    1    2    0    0 -0.42767411576E+00 -0.52818641811E+00  0.24144903735E+01  0.25083161295E+01  0.00000000000E+00 0. -1.
</event>
<event>
 5    1  0.1160133E+000  0.1596305E+01  0.7818608E-02  0.3357383E+00
         11   -1    0    0    0    0  0.00000000000E+00  0.00000000000E+00  0.39999999674E+01  0.40000000000E+01  0.51100000000E-03 0.  1.
    9000002   -1    0    0    0    0 -0.00000000000E+00 -0.00000000000E+00  0.00000000000E+00  0.93800000000E+00  0.93800000000E+00 0.  1.
         11    1    1    2    0    0  0.19189661802E+00 -0.59229392144E-02  0.62669993126E+00  0.65544828795E+00  0.51100000000E-03 0.  1.
    9000002    1    1    2    0    0 -0.89927376984E+00 -0.23399151419E+00  0.67519926178E+00  0.14829643910E+01  0.93800000000E+00 0.  1.
         22    1    1    2    0    0  0.70737715181E+00  0.23991445340E+00  0.26981007743E+01  0.27995873211E+01  0.00000000000E+00 0.  1.
</event>
<event>
 5    1  0.1160133E+000  0.1599676E+01  0.7818608E-02  0.3353715E+00
         11   -1    0    0    0    0  0.00000000000E+00  0.00000000000E+00  0.39999999674E+01  0.40000000000E+01  0.51100000000E-03 0. -1.
    9000002   -1    0    0    0    0 -0.00000000000E+00 -0.00000000000E+00  0.00000000000E+00  0.93800000000E+00  0.93800000000E+00 0. -1.
         11    1    1    2    0    0 -0.19250594349E-01  0.16660836384E+00  0.56170386032E+00  0.58620851248E+00  0.51100000000E-03 0. -1.
    9000002    1    1    2    0    0  0.11201332014E+00 -0.96834601527E+00  0.75390373503E+00  0.15486948799E+01  0.93800000000E+00 0. -1.
         22    1    1    2    0    0 -0.92762725793E-01  0.80173765144E+00  0.26843923720E+01  0.28030966077E+01  0.00000000000E+00 0. -1.
</event>
<event>
 5    1  0.1160133E+000  0.1597762E+01  0.7818608E-02  0.3355796E+00
         11   -1    0    0    0    0  0.00000000000E+00  0.00000000000E+00  0.39999999674E+01  0.40000000000E+01  0.51100000000E-03 0.  1.
    9000002   -1    0    0    0    0 -0.00000000000E+00 -0.00000000000E+00  0.00000000000E+00  0.93800000000E+00  0.93800000000E+00 0.  1.
         11    1    1    2    0    0 -0.20469247306E+00  0.20939679930E+00  0.69949520122E+00  0.75831380426E+00  0.51100000000E-03 0.  1.
    9000002    1    1    2    0    0  0.71971215496E+00 -0.79093117493E+00  0.96634060786E+00  0.17196557446E+01  0.93800000000E+00 0.  1.
         22    1    1    2    0    0 -0.51501968190E+00  0.58153437564E+00  0.23341641583E+01  0.24600304512E+01  0.00000000000E+00 0.  1.
</event>
<event>
 5    1  0.1160133E+000  0.1598484E+01  0.7818608E-02  0.3355010E+00
         11   -1    0    0    0    0  0.00000000000E+00  0.00000000000E+00  0.39999999674E+01  0.40000000000E+01  0.51100000000E-03 0.  1.
    9000002   -1    0    0    0    0 -0.00000000000E+00 -0.00000000000E+00  0.00000000000E+00  0.93800000000E+00  0.93800000000E+00 0. -1.
         11    1    1    2    0    0  0.44143672757E-01 -0.35679902228E+00  0.73729150781E+00  0.82027631609E+00  0.51100000000E-03 0.  1.
    9000002    1    1    2    0    0 -0.16592770031E+00  0.11643299080E+01  0.12865128528E+01  0.19794331150E+01  0.93800000000E+00 0. -1.
         22    1    1    2    0    0  0.12178402756E+00 -0.80753088575E+00  0.19761956067E+01  0.21382905689E+01  0.00000000000E+00 0.  1.
</event>
<event>
 5    1  0.1300366E+000  0.1552294E+01  0.7818608E-02  0.3406827E+00
         11   -1    0    0    0    0  0.00000000000E+00  0.00000000000E+00  0.39999999674E+01  0.40000000000E+01  0.51100000000E-03 0.  1.
    9000002   -1    0    0    0    0 -0.00000000000E+00 -0.00000000000E+00  0.00000000000E+00  0.93800000000E+00  0.93800000000E+00 0. -1.
         11    1    1    2    0    0 -0.13898964871E+00 -0.24341086925E-01  0.14288658074E+01  0.14358162723E+01  0.51100000000E-03 0.  1.
    9000002    1    1    2    0    0  0.12176981999E+00  0.67287144188E+00  0.38679032863E+00  0.12235336631E+01  0.93800000000E+00 0. -1.
         22    1    1    2    0    0  0.17219828719E-01 -0.64853035495E+00  0.21843438313E+01  0.22786500646E+01  0.00000000000E+00 0.  1.
</event>
<event>
 5    1  0.1160133E+000  0.1598735E+01  0.7818608E-02  0.3354738E+00
         11   -1    0    0    0    0  0.00000000000E+00  0.00000000000E+00  0.39999999674E+01  0.40000000000E+01  0.51100000000E-03 0.  1.
    9000002   -1    0    0    0    0 -0.00000000000E+00 -0.00000000000E+00  0.00000000000E+00  0.93800000000E+00  0.93800000000E+00 0. -1.
         11    1    1    2    0    0 -0.16027304421E+00 -0.18382973910E+00  0.82645309670E+00  0.86168776471E+00  0.51100000000E-03 0.  1.
    9000002    1    1    2    0    0  0.53952992794E+00  0.81095352681E+00  0.75410992757E+00  0.15483100299E+01  0.93800000000E+00 0. -1.
         22    1    1    2    0    0 -0.37925688373E+00 -0.62712378771E+00  0.24194369431E+01  0.25280022054E+01  0.00000000000E+00 0.  1.
</event>
<event>
 5    1  0.1160133E+000  0.1546645E+01  0.7818608E-02  0.3413390E+00
         11   -1    0    0    0    0  0.00000000000E+00  0.00000000000E+00  0.39999999674E+01  0.40000000000E+01  0.51100000000E-03 0. -1.
    9000002   -1    0    0    0    0 -0.00000000000E+00 -0.00000000000E+00  0.00000000000E+00  0.93800000000E+00  0.93800000000E+00 0. -1.
         11    1    1    2    0    0  0.13980092169E+00 -0.17538513689E+00  0.50664963780E+00  0.55407432764E+00  0.51100000000E-03 0. -1.
    9000002    1    1    2    0    0  0.40503874840E+00  0.10264954697E+01  0.12111094348E+01  0.18879564085E+01  0.93800000000E+00 0. -1.
         22    1    1    2    0    0 -0.54483967009E+00 -0.85111033284E+00  0.22822408947E+01  0.24959692639E+01  0.00000000000E+00 0. -1.
</event>
<event>
 5    1  0.1160133E+000  0.1599676E+01  0.7818608E-02  0.3353715E+00
         11   -1    0    0    0    0  0.00000000000E+00  0.00000000000E+00  0.39999999674E+01  0.40000000000E+01  0.51100000000E-03 0. -1.
    9000002   -1    0    0    0    0 -0.00000000000E+00 -0.00000000000E+00  0.00000000000E+00  0.93800000000E+00  0.93800000000E+00 0. -1.
         11    1    1    2    0    0 -0.19409898237E+00 -0.14180198570E+00  0.84704400316E+00  0.88049192075E+00  0.51100000000E-03 0. -1.
    9000002    1    1    2    0    0  0.76161510430E+00  0.55202695006E+00  0.68993817670E+00  0.14968800915E+01  0.93800000000E+00 0. -1.
         22    1    1    2    0    0 -0.56751612192E+00 -0.41022496435E+00  0.24630177875E+01  0.25606279877E+01  0.00000000000E+00 0. -1.
</event>
<event>
 5    1  0.1160133E+000  0.1599654E+01  0.7818608E-02  0.3353739E+00
         11   -1    0    0    0    0  0.00000000000E+00  0.00000000000E+00  0.39999999674E+01  0.40000000000E+01  0.51100000000E-03 0. -1.
    9000002   -1    0    0    0    0 -0.00000000000E+00 -0.00000000000E+00  0.00000000000E+00  0.93800000000E+00  0.93800000000E+00 0. -1.
         11    1    1    2    0    0 -0.47815329700E-01  0.33671615850E+00  0.92980598480E+00  0.99005227521E+00  0.51100000000E-03 0. -1.
    9000002    1    1    2    0    0  0.16971174035E+00 -0.10759785232E+01  0.10130065782E+01  0.17585670828E+01  0.93800000000E+00 0. -1.
         22    1    1    2    0    0 -0.12189641065E+00  0.73926236473E+00  0.20571874043E+01  0.21893806420E+01  0.00000000000E+00 0. -1.
</event>
<event>
 5    1  0.1160133E+000  0.1599561E+01  0.7818608E-02  0.3353839E+00
         11   -1    0    0    0    0  0.00000000000E+00  0.00000000000E+00  0.39999999674E+01  0.40000000000E+01  0.51100000000E-03 0. -1.
    9000002   -1    0    0    0    0 -0.00000000000E+00 -0.00000000000E+00  0.00000000000E+00  0.93800000000E+00  0.93800000000E+00 0.  1.
         11    1    1    2    0    0 -0.18922988269E+00 -0.39413628172E+00  0.13329650316E+01  0.14028354835E+01  0.51100000000E-03 0. -1.
    9000002    1    1    2    0    0  0.44829370087E+00  0.94498440713E+00  0.90557464563E+00  0.16714880229E+01  0.93800000000E+00 0.  1.
         22    1    1    2    0    0 -0.25906381819E+00 -0.55084812541E+00  0.17614602901E+01  0.18636764936E+01  0.00000000000E+00 0. -1.
</event>
<event>
 5    1  0.1160133E+000  0.1599563E+01  0.7818608E-02  0.3353838E+00
         11   -1    0    0    0    0  0.00000000000E+00  0.00000000000E+00  0.39999999674E+01  0.40000000000E+01  0.51100000000E-03 0. -1.
    9000002   -1    0    0    0    0 -0.00000000000E+00 -0.00000000000E+00  0.00000000000E+00  0.93800000000E+00  0.93800000000E+00 0.  1.
         11    1    1    2    0    0  0.28622969823E+00  0.51890969273E+00  0.12243482829E+01  0.13602292778E+01  0.51100000000E-03 0. -1.
    9000002    1    1    2    0    0 -0.56663816059E+00 -0.10820283398E+01  0.14724633361E+01  0.21306938798E+01  0.93800000000E+00 0.  1.
         22    1    1    2    0    0  0.28040846237E+00  0.56311864706E+00  0.13031883484E+01  0.14470768424E+01  0.00000000000E+00 0. -1.
</event>
<event>
 5    1  0.1221188E+000  0.1595585E+01  0.7818608E-02  0.3358169E+00
         11   -1    0    0    0    0  0.00000000000E+00  0.00000000000E+00  0.39999999674E+01  0.40000000000E+01  0.51100000000E-03 0.  1.
    9000002   -1    0    0    0    0 -0.00000000000E+00 -0.00000000000E+00  0.00000000000E+00  0.93800000000E+00  0.93800000000E+00 0. -1.
         11    1    1    2    0    0 -0.19447550030E+00  0.18793140627E+00  0.13142059235E+01  0.13417437923E+01  0.51100000000E-03 0.  1.
    9000002    1    1    2    0    0  0.53938238545E+00 -0.68515565157E+00  0.58124730336E+00  0.14064366506E+01  0.93800000000E+00 0. -1.
         22    1    1    2    0    0 -0.34490688515E+00  0.49722424530E+00  0.21045467405E+01  0.21898195571E+01  0.00000000000E+00 0.  1.
</event>
<event>
 5    1  0.1160133E+000  0.1455111E+01  0.7818608E-02  0.3527379E+00
         11   -1    0    0    0    0  0.00000000000E+00  0.00000000000E+00  0.39999999674E+01  0.40000000000E+01  0.51100000000E-03 0.  1.
    9000002   -1    0    0    0    0 -0.00000000000E+00 -0.00000000000E+00  0.00000000000E+00  0.93800000000E+00  0.93800000000E+00 0.  1.
         11    1    1    2    0    0  0.26882513555E+00  0.70043842682E-01  0.10092849430E+01  0.10468187287E+01  0.51100000000E-03 0.  1.
    9000002    1    1    2    0    0  0.57316718810E+00 -0.10375182465E+00  0.41238154339E+00  0.11786380292E+01  0.93800000000E+00 0.  1.
         22    1    1    2    0    0 -0.84199232365E+00  0.33707981969E-01  0.25783334810E+01  0.27125432421E+01  0.00000000000E+00 0.  1.
</event>
<event>
 5    1  0.1160133E+000  0.1599651E+01  0.7818608E-02  0.3353742E+00
         11   -1    0    0    0    0  0.00000000000E+00  0.00000000000E+00  0.39999999674E+01  0.40000000000E+01  0.51100000000E-03 0.  1.
    9000002   -1    0    0    0    0 -0.00000000000E+00 -0.00000000000E+00  0.00000000000E+00  0.93800000000E+00  0.93800000000E+00 0. -1.
         11    1    1    2    0    0  0.99217081334E-01 -0.16001488109E+00  0.63726441416E+00  0.66449603917E+00  0.51100000000E-03 0.  1.
    9000002    1    1    2    0    0 -0.53075757468E+00  0.81641194389E+00  0.75194342100E+00  0.15470924257E+01  0.93800000000E+00 0. -1.
         22    1    1    2    0    0  0.43154049335E+00 -0.65639706280E+00  0.26107921322E+01  0.27264115351E+01  0.00000000000E+00 0.  1.
</event>
<event>
 5    1  0.1160133E+000  0.1540259E+01  0.7818608E-02  0.3420871E+00
         11   -1    0    0    0    0  0.00000000000E+00  0.00000000000E+00  0.39999999674E+01  0.40000000000E+01  0.51100000000E-03 0. -1.
    9000002   -1    0    0    0    0 -0.00000000000E+00 -0.00000000000E+00  0.00000000000E+00  0.93800000000E+00  0.93800000000E+00 0. -1.
         11    1    1    2    0    0 -0.19459045231E+00 -0.18529383070E+00  0.12658179530E+01  0.12940226424E+01  0.51100000000E-03 0. -1.
    9000002    1    1    2    0    0  0.74300585174E+00 -0.23976286383E+00  0.52525422933E+00  0.13286383752E+01  0.93800000000E+00 0. -1.
         22    1    1    2    0    0 -0.54841539944E+00  0.42505669454E+00  0.22089277851E+01  0.23153389824E+01  0.00000000000E+00 0. -1.
</event>
<event>
 5    1  0.1160133E+000  0.1577229E+01  0.7818608E-02  0.3378456E+00
         11   -1    0    0    0    0  0.00000000000E+00  0.00000000000E+00  0.39999999674E+01  0.40000000000E+01  0.51100000000E-03 0.  1.
    9000002   -1    0    0    0    0 -0.00000000000E+00 -0.00000000000E+00  0.00000000000E+00  0.93800000000E+00  0.93800000000E+00 0.  1.
         11    1    1    2    0    0  0.25756826520E-01  0.12375960020E+00  0.35913002463E+00  0.38072889104E+00  0.51100000000E-03 0.  1.
    9000002    1    1    2    0    0  0.72378937615E+00 -0.75867030207E+00  0.96293685194E+00  0.17048586654E+01  0.93800000000E+00 0.  1.
         22    1    1    2    0    0 -0.74954620267E+00  0.63491070187E+00  0.26779330908E+01  0.28524124435E+01  0.00000000000E+00 0.  1.
</event>
<event>
 5    1  0.1160133E+000  0.1583980E+01  0.7818608E-02  0.3370936E+00
         11   -1    0    0    0    0  0.00000000000E+00  0.00000000000E+00  0.39999999674E+01  0.40000000000E+01  0.51100000000E-03 0.  1.
    9000002   -1    0    0    0    0 -0.00000000000E+00 -0.00000000000E+00  0.00000000000E+00  0.93800000000E+00  0.93800000000E+00 0.  1.
         11    1    1    2    0    0  0.97846996665E-01  0.28995670570E+00  0.54136020803E+00  0.62186820299E+00  0.51100000000E-03 0.  1.
    9000002    1    1    2    0    0 -0.35249462439E+00 -0.97335929494E+00  0.91487942532E+00  0.16698889604E+01  0.93800000000E+00 0.  1.
         22    1    1    2    0    0  0.25464762773E+00  0.68340258924E+00  0.25437603340E+01  0.26462428366E+01  0.00000000000E+00 0.  1.
</event>
<event>
 5    1  0.1160133E+000  0.1599667E+01  0.7818608E-02  0.3353725E+00
         11   -1    0    0    0    0  0.00000000000E+00  0.00000000000E+00  0.39999999674E+01  0.40000000000E+01  0.51100000000E-03 0.  1.
    9000002   -1    0    0    0    0 -0.00000000000E+00 -0.00000000000E+00  0.00000000000E+00  0.93800000000E+00  0.93800000000E+00 0. -1.
         11    1    1    2    0    0  0.15798044009E+00  0.36487658110E-01  0.45449882846E+00  0.48255426103E+00  0.51100000000E-03 0.  1.
    9000002    1    1    2    0    0 -0.10590859554E+01 -0.24436526456E+00  0.10067288078E+01  0.17534891890E+01  0.93800000000E+00 0. -1.
         22    1    1    2    0    0  0.90110551530E+00  0.20787760645E+00  0.25387723311E+01  0.27019565500E+01  0.00000000000E+00 0.  1.
</event>
<event>
 5    1  0.1160133E+000  0.1599606E+01  0.7818608E-02  0.3353791E+00
         11   -1    0    0    0    0  0.00000000000E+00  0.00000000000E+00  0.39999999674E+01  0.40000000000E+01  0.51100000000E-03 0.  1.
    9000002   -1    0    0    0    0 -0.00000000000E+00 -0.00000000000E+00  0.00000000000E+00  0.93800000000E+00  0.93800000000E+00 0.  1.
         11    1    1    2    0    0  0.16528945890E+00 -0.52106611661E+00  0.13886423994E+01  0.14923667370E+01  0.51100000000E-03 0.  1.
    9000002    1    1    2    0    0 -0.32234718123E+00  0.10785980832E+01  0.11156474672E+01  0.18416826006E+01  0.93800000000E+00 0.  1.
         22    1    1    2    0    0  0.15705772233E+00 -0.55753196660E+00  0.14957101007E+01  0.16039506624E+01  0.00000000000E+00 0.  1.
</event>
<event>
 5    1  0.1160133E+000  0.1584210E+01  0.7818608E-02  0.3370682E+00
         11   -1    0    0    0    0  0.00000000000E+00  0.00000000000E+00  0.39999999674E+01  0.40000000000E+01  0.51100000000E-03 0. -1.
    9000002   -1    0    0    0    0 -0.00000000000E+00 -0.00000000000E+00  0.00000000000E+00  0.93800000000E+00  0.93800000000E+00 0. -1.
         11    1    1    2    0    0 -0.36371180269E-01  0.66927484783E-02  0.26912053587E+00  0.27165010507E+00  0.51100000000E-03 0. -1.
    9000002    1    1    2    0    0 -0.18051416844E+00 -0.88065001853E+00  0.64256172174E+00  0.14494341608E+01  0.93800000000E+00 0. -1.
         22    1    1    2    0    0  0.21688534871E+00  0.87395727006E+00  0.30883177097E+01  0.32169157342E+01  0.00000000000E+00 0. -1.
</event>
<event>
 5    1  0.1160133E+000  0.1599673E+01  0.7818608E-02  0.3353718E+00
         11   -1    0    0    0    0  0.00000000000E+00  0.00000000000E+00  0.39999999674E+01  0.40000000000E+01  0.51100000000E-03 0. -1.
    9000002   -1    0    0    0    0 -0.00000000000E+00 -0.00000000000E+00  0.00000000000E+00  0.93800000000E+00  0.93800000000E+00 0. -1.
         11    1    1    2    0    0 -0.16903825383E+00 -0.71574059105E-01  0.63003389463E+00  0.65623147341E+00  0.51100000000E-03 0. -1.
    9000002    1    1    2    0    0  0.87664102423E+00  0.38118055863E+00  0.71795327280E+00  0.15195719810E+01  0.93800000000E+00 0. -1.
         22    1    1    2    0    0 -0.70760277040E+00 -0.30960649952E+00  0.26520127999E+01  0.27621965455E+01  0.00000000000E+00 0. -1.
</event>
<event>
 5    1  0.1160133E+000  0.1599637E+01  0.7818608E-02  0.3353757E+00
         11   -1    0    0    0    0  0.00000000000E+00  0.00000000000E+00  0.39999999674E+01  0.40000000000E+01  0.51100000000E-03 0.  1.
    9000002   -1    0    0    0    0 -0.00000000000E+00 -0.00000000000E+00  0.00000000000E+00  0.93800000000E+00  0.93800000000E+00 0.  1.
         11    1    1    2    0    0 -0.12299081742E+00 -0.25621835673E+00  0.10233615855E+01  0.10620940558E+01  0.51100000000E-03 0.  1.
    9000002    1    1    2    0    0  0.37938037370E+00  0.83686939355E+00  0.65172321481E+00  0.14659014287E+01  0.93800000000E+00 0.  1.
         22    1    1    2    0    0 -0.25638955629E+00 -0.58065103682E+00  0.23249151670E+01  0.24100045155E+01  0.00000000000E+00 0.  1.
</event>
<event>
 5    1  0.1160133E+000  0.1597524E+01  0.7818608E-02  0.3356055E+00
         11   -1    0    0    0    0  0.00000000000E+00  0.00000000000E+00  0.39999999674E+01  0.40000000000E+01  0.51100000000E-03 0.  1.
    9000002   -1    0    0    0    0 -0.00000000000E+00 -0.00000000000E+00  0.00000000000E+00  0.93800000000E+00  0.93800000000E+00 0. -1.
         11    1    1    2    0    0 -0.86304211611E-01 -0.24886880695E+00  0.10638738863E+01  0.10959981784E+01  0.51100000000E-03 0.  1.
    9000002    1    1    2    0    0  0.43847076321E+00  0.79296675971E+00  0.63350583451E+00  0.14499056985E+01  0.93800000000E+00 0. -1.
         22    1    1    2    0    0 -0.35216655160E+00 -0.54409795275E+00  0.23026202466E+01  0.23920961231E+01  0.00000000000E+00 0.  1.
</event>
<event>
 5    1  0.1160133E+000  0.1593612E+01  0.7818608E-02  0.3360326E+00
         11   -1    0    0    0    0  0.00000000000E+00  0.00000000000E+00  0.39999999674E+01  0.40000000000E+01  0.51100000000E-03 0.  1.
    9000002   -1    0    0    0    0 -0.00000000000E+00 -0.00000000000E+00  0.00000000000E+00  0.93800000000E+00  0.93800000000E+00 0.  1.
         11    1    1    2    0    0 -0.91280459644E-01 -0.14268690267E+00  0.55873676942E+00  0.58384819356E+00  0.51100000000E-03 0.  1.
    9000002    1    1    2    0    0  0.84731103943E+00  0.57680245553E+00  0.87050419111E+00  0.16395909908E+01  0.93800000000E+00 0. -1.
         22    1    1    2    0    0 -0.75603057978E+00 -0.43411555287E+00  0.25707590068E+01  0.27145608157E+01  0.00000000000E+00 0.  1.
</event>
<event>
 5    1  0.1160133E+000  0.1599573E+01  0.7818608E-02  0.3353827E+00
         11   -1    0    0    0    0  0.00000000000E+00  0.00000000000E+00  0.39999999674E+01  0.40000000000E+01  0.51100000000E-03 0. -1.
    9000002   -1    0    0    0    0 -0.00000000000E+00 -0.00000000000E+00  0.00000000000E+00  0.93800000000E+00  0.93800000000E+00 0. -1.
         11    1    1    2    0    0 -0.18190830399E+00  0.56626405612E+00  0.12085134355E+01  0.13469412004E+01  0.51100000000E-03 0. -1.
    9000002    1    1    2    0    0  0.37737773577E+00 -0.11598944761E+01  0.14643827100E+01  0.21241539192E+01  0.93800000000E+00 0. -1.
         22    1    1    2    0    0 -0.19546943178E+00  0.59363041998E+00  0.13271038218E+01  0.14669048804E+01  0.00000000000E+00 0.  1.
</event>
<event>
 5    1  0.1160133E+000  0.1456270E+01  0.7818608E-02  0.3525840E+00
         11   -1    0    0    0    0  0.00000000000E+00  0.00000000000E+00  0.39999999674E+01  0.40000000000E+01  0.51100000000E-03 0. -1.
    9000002   -1    0    0    0    0 -0.00000000000E+00 -0.00000000000E+00  0.00000000000E+00  0.93800000000E+00  0.93800000000E+00 0. -1.
         11    1    1    2    0    0  0.22853752169E+00 -0.11643883803E+00  0.26788100395E-01  0.25788614787E+00  0.51100000000E-03 0. -1.
    9000002    1    1    2    0    0 -0.10287932322E+01  0.12984017362E-02  0.13660735603E+01  0.19504917771E+01  0.93800000000E+00 0.  1.
         22    1    1    2    0    0  0.80025571051E+00  0.11514043629E+00  0.26071383067E+01  0.27296220750E+01  0.00000000000E+00 0. -1.
</event>
<event>
 5    1  0.1160133E+000  0.1546629E+01  0.7818608E-02  0.3413409E+00
         11   -1    0    0    0    0  0.00000000000E+00  0.00000000000E+00  0.39999999674E+01  0.40000000000E+01  0.51100000000E-03 0.  1.
    9000002   -1    0    0    0    0 -0.00000000000E+00 -0.00000000000E+00  0.00000000000E+00  0.93800000000E+00  0.93800000000E+00 0.  1.
         11    1    1    2    0    0 -0.15896338741E+00 -0.24423707613E+00  0.10695966911E+01  0.11085839845E+01  0.51100000000E-03 0.  1.
    9000002    1    1    2    0    0  0.91831006559E+00  0.78684121584E+00  0.17560091100E+01  0.23293399215E+01  0.93800000000E+00 0.  1.
         22    1    1    2    0    0 -0.75934667819E+00 -0.54260413971E+00  0.11743941662E+01  0.15000760940E+01  0.00000000000E+00 0.  1.
</event>
<event>
 5    1  0.1160133E+000  0.1585664E+01  0.7818608E-02  0.3369071E+00
         11   -1    0    0    0    0  0.00000000000E+00  0.00000000000E+00  0.39999999674E+01  0.40000000000E+01  0.51100000000E-03 0.  1.
    9000002   -1    0    0    0    0 -0.00000000000E+00 -0.00000000000E+00  0.00000000000E+00  0.93800000000E+00  0.93800000000E+00 0.  1.
         11    1    1    2    0    0  0.16777764466E-01  0.18813463363E-01  0.31108186942E+00  0.31210195512E+00  0.51100000000E-03 0.  1.
    9000002    1    1    2    0    0  0.36004595972E+00 -0.90020704519E+00  0.76931707942E+00  0.15529644510E+01  0.93800000000E+00 0.  1.
         22    1    1    2    0    0 -0.37682372418E+00  0.88139358183E+00  0.29196010185E+01  0.30729335939E+01  0.00000000000E+00 0.  1.
</event>
<event>
 5    1  0.1160133E+000  0.1599676E+01  0.7818608E-02  0.3353715E+00
         11   -1    0    0    0    0  0.00000000000E+00  0.00000000000E+00  0.39999999674E+01  0.40000000000E+01  0.51100000000E-03 0.  1.
    9000002   -1    0    0    0    0 -0.00000000000E+00 -0.00000000000E+00  0.00000000000E+00  0.93800000000E+00  0.93800000000E+00 0.  1.
         11    1    1    2    0    0  0.48595222100E+00 -0.24958157856E+00  0.68201352051E+00  0.87383249466E+00  0.51100000000E-03 0.  1.
    9000002    1    1    2    0    0 -0.11488782697E+01  0.58978662022E+00  0.23915831040E+01  0.28752883819E+01  0.93800000000E+00 0.  1.
         22    1    1    2    0    0  0.66292604869E+00 -0.34020504166E+00  0.92640334286E+00  0.11888791234E+01  0.00000000000E+00 0.  1.
</event>
<event>
 5    1  0.1160133E+000  0.1540328E+01  0.7818608E-02  0.3420790E+00
         11   -1    0    0    0    0  0.00000000000E+00  0.00000000000E+00  0.39999999674E+01  0.40000000000E+01  0.51100000000E-03 0.  1.
    9000002   -1    0    0    0    0 -0.00000000000E+00 -0.00000000000E+00  0.00000000000E+00  0.93800000000E+00  0.93800000000E+00 0. -1.
         11    1    1    2    0    0  0.10361067252E+00 -0.34850779189E+00  0.14520153762E+01  0.14968439352E+01  0.51100000000E-03 0.  1.
    9000002    1    1    2    0    0 -0.75249632350E+00  0.36629014586E+00  0.60984818124E+00  0.13972036330E+01  0.93800000000E+00 0. -1.
         22    1    1    2    0    0  0.64888565098E+00 -0.17782353968E-01  0.19381364099E+01  0.20439524318E+01  0.00000000000E+00 0.  1.
</event>
<event>
 5    1  0.1160133E+000  0.1478987E+01  0.7818608E-02  0.3496178E+00
         11   -1    0    0    0    0  0.00000000000E+00  0.00000000000E+00  0.39999999674E+01  0.40000000000E+01  0.51100000000E-03 0. -1.
    9000002   -1    0    0    0    0 -0.00000000000E+00 -0.00000000000E+00  0.00000000000E+00  0.93800000000E+00  0.93800000000E+00 0. -1.
         11    1    1    2    0    0 -0.18957157921E+00 -0.24160869477E+00  0.74715380223E+00  0.80780641885E+00  0.51100000000E-03 0. -1.
    9000002    1    1    2    0    0 -0.33193544440E+00 -0.42022439969E+00  0.39393324735E+00  0.11496943458E+01  0.93800000000E+00 0. -1.
         22    1    1    2    0    0  0.52150702362E+00  0.66183309446E+00  0.28589129178E+01  0.29804992354E+01  0.00000000000E+00 0. -1.
</event>
<event>
 5    1  0.1160133E+000  0.1599676E+01  0.7818608E-02  0.3353715E+00
         11   -1    0    0    0    0  0.00000000000E+00  0.00000000000E+00  0.39999999674E+01  0.40000000000E+01  0.51100000000E-03 0. -1.
    9000002   -1    0    0    0    0 -0.00000000000E+00 -0.00000000000E+00  0.00000000000E+00  0.93800000000E+00  0.93800000000E+00 0. -1.
         11    1    1    2    0    0  0.23650240124E+00 -0.57876785523E+00  0.11987997825E+01  0.13520454119E+01  0.51100000000E-03 0. -1.
    9000002    1    1    2    0    0 -0.47203975727E+00  0.11535486630E+01  0.16054321682E+01  0.22384710177E+01  0.93800000000E+00 0. -1.
         22    1    1    2    0    0  0.23553735603E+00 -0.57478080775E+00  0.11957680166E+01  0.13474835704E+01  0.00000000000E+00 0. -1.
</event>
<event>
 5    1  0.1160133E+000  0.1599674E+01  0.7818608E-02  0.3353717E+00
         11   -1    0    0    0    0  0.00000000000E+00  0.00000000000E+00  0.39999999674E+01  0.40000000000E+01  0.51100000000E-03 0. -1.
    9000002   -1    0    0    0    0 -0.00000000000E+00 -0.00000000000E+00  0.00000000000E+00  0.93800000000E+00  0.93800000000E+00 0. -1.
         11    1    1    2    0    0 -0.13042155313E+00  0.17784173910E+00  0.80042825795E+00  0.83025485420E+00  0.51100000000E-03 0. -1.
    9000002    1    1    2    0    0  0.54367596658E+00 -0.73778740498E+00  0.64759468109E+00  0.14625787782E+01  0.93800000000E+00 0. -1.
         22    1    1    2    0    0 -0.41325441346E+00  0.55994566588E+00  0.25519770283E+01  0.26451663676E+01  0.00000000000E+00 0. -1.
</event>
<event>
 5    1  0.1160133E+000  0.1599676E+01  0.7818608E-02  0.3353715E+00
         11   -1    0    0    0    0  0.00000000000E+00  0.00000000000E+00  0.39999999674E+01  0.40000000000E+01  0.51100000000E-03 0. -1.
    9000002   -1    0    0    0    0 -0.00000000000E+00 -0.00000000000E+00  0.00000000000E+00  0.93800000000E+00  0.93800000000E+00 0. -1.
         11    1    1    2    0    0 -0.44293685900E+00  0.33637408998E-01  0.13234189487E+01  0.13959808420E+01  0.51100000000E-03 0. -1.
    9000002    1    1    2    0    0  0.10379831162E+01 -0.77486491460E-01  0.89361617381E+00  0.16618685182E+01  0.93800000000E+00 0. -1.
         22    1    1    2    0    0 -0.59504625717E+00  0.43849082462E-01  0.17829648449E+01  0.18801506398E+01  0.00000000000E+00 0. -1.
</event>
<event>
 5    1  0.1160133E+000  0.1586758E+01  0.7818608E-02  0.3367862E+00
         11   -1    0    0    0    0  0.00000000000E+00  0.00000000000E+00  0.39999999674E+01  0.40000000000E+01  0.51100000000E-03 0.  1.
    9000002   -1    0    0    0    0 -0.00000000000E+00 -0.00000000000E+00  0.00000000000E+00  0.93800000000E+00  0.93800000000E+00 0.  1.
         11    1    1    2    0    0  0.15804383538E-01 -0.44290563098E-01  0.35946486797E+00  0.36252818504E+00  0.51100000000E-03 0.  1.
    9000002    1    1    2    0    0 -0.90797589221E+00  0.19612408601E+00  0.69062871004E+00  0.14898647231E+01  0.93800000000E+00 0.  1.
         22    1    1    2    0    0  0.89217150867E+00 -0.15183352291E+00  0.29499063893E+01  0.30856070919E+01  0.00000000000E+00 0.  1.
</event>
<event>
 5    1  0.1196911E+000  0.1599670E+01  0.7818608E-02  0.3353722E+00
         11   -1    0    0    0    0  0.00000000000E+00  0.00000000000E+00  0.39999999674E+01  0.40000000000E+01  0.51100000000E-03 0. -1.
    9000002   -1    0    0    0    0 -0.00000000000E+00 -0.00000000000E+00  0.00000000000E+00  0.93800000000E+00  0.93800000000E+00 0.  1.
         11    1    1    2    0    0 -0.33014984813E+00 -0.22117889204E+00  0.14210357269E+01  0.14755547509E+01  0.51100000000E-03 0. -1.
    9000002    1    1    2    0    0  0.76709531186E+00  0.52114869266E+00  0.66644136104E+00  0.14778427741E+01  0.93800000000E+00 0.  1.
         22    1    1    2    0    0 -0.43694546373E+00 -0.29996980062E+00  0.19125228794E+01  0.19846024750E+01  0.00000000000E+00 0.  1.
</event>
<event>
 5    1  0.1160133E+000  0.1599283E+01  0.7818608E-02  0.3354142E+00
         11   -1    0    0    0    0  0.00000000000E+00  0.00000000000E+00  0.39999999674E+01  0.40000000000E+01  0.51100000000E-03 0.  1.
    9000002   -1    0    0    0    0 -0.00000000000E+00 -0.00000000000E+00  0.00000000000E+00  0.93800000000E+00  0.93800000000E+00 0.  1.
         11    1    1    2    0    0  0.16269942188E+00 -0.46510110728E-01  0.40932096566E+00  0.44292009023E+00  0.51100000000E-03 0.  1.
    9000002    1    1    2    0    0 -0.10918527037E+01  0.22798162024E+00  0.10861749958E+01  0.18176187904E+01  0.93800000000E+00 0.  1.
         22    1    1    2    0    0  0.92915328185E+00 -0.18147150952E+00  0.25045040059E+01  0.26774611194E+01  0.00000000000E+00 0.  1.
</event>
<event>
 5    1  0.1160133E+000  0.1599675E+01  0.7818608E-02  0.3353716E+00
         11   -1    0    0    0    0  0.00000000000E+00  0.00000000000E+00  0.39999999674E+01  0.40000000000E+01  0.51100000000E-03 0.  1.
    9000002   -1    0    0    0    0 -0.00000000000E+00 -0.00000000000E+00  0.00000000000E+00  0.93800000000E+00  0.93800000000E+00 0. -1.
         11    1    1    2    0    0  0.14033836140E+00 -0.10597979046E+00  0.50323900344E+00  0.53308191432E+00  0.51100000000E-03 0.  1.
    9000002    1    1    2    0    0 -0.85517428877E+00  0.64007652388E+00  0.95888197939E+00  0.17147360354E+01  0.93800000000E+00 0. -1.
         22    1    1    2    0    0  0.71483592737E+00 -0.53409673342E+00  0.25378789845E+01  0.26901820503E+01  0.00000000000E+00 0.  1.
</event>
<event>
 5    1  0.1405482E+000  0.1527640E+01  0.7818608E-02  0.3435850E+00
         11   -1    0    0    0    0  0.00000000000E+00  0.00000000000E+00  0.39999999674E+01  0.40000000000E+01  0.51100000000E-03 0. -1.
    9000002   -1    0    0    0    0 -0.00000000000E+00 -0.00000000000E+00  0.00000000000E+00  0.93800000000E+00  0.93800000000E+00 0.  1.
         11    1    1    2    0    0 -0.25810894679E+00  0.38500197759E+00  0.11581745263E+01  0.12474835653E+01  0.51100000000E-03 0. -1.
    9000002    1    1    2    0    0  0.48467213411E-02  0.27881611448E+00  0.25973033127E+00  0.10124553133E+01  0.93800000000E+00 0.  1.
         22    1    1    2    0    0  0.25326222545E+00 -0.66381809207E+00  0.25820951098E+01  0.26780611214E+01  0.00000000000E+00 0. -1.
</event>
<event>
 5    1  0.1160133E+000  0.1599322E+01  0.7818608E-02  0.3354100E+00
         11   -1    0    0    0    0  0.00000000000E+00  0.00000000000E+00  0.39999999674E+01  0.40000000000E+01  0.51100000000E-03 0. -1.
    9000002   -1    0    0    0    0 -0.00000000000E+00 -0.00000000000E+00  0.00000000000E+00  0.93800000000E+00  0.93800000000E+00 0. -1.
         11    1    1    2    0    0  0.29751514778E-01  0.57527009835E-01  0.26368348814E+00  0.27152118247E+00  0.51100000000E-03 0. -1.
    9000002    1    1    2    0    0 -0.41967830633E+00 -0.86421767491E+00  0.72756925273E+00  0.15271552272E+01  0.93800000000E+00 0. -1.
         22    1    1    2    0    0  0.38992679155E+00  0.80669066508E+00  0.30087472265E+01  0.31393235903E+01  0.00000000000E+00 0. -1.
</event>
<event>
 5    1  0.1160133E+000  0.1458848E+01  0.7818608E-02  0.3522423E+00
         11   -1    0    0    0    0  0.00000000000E+00  0.00000000000E+00  0.39999999674E+01  0.40000000000E+01  0.51100000000E-03 0.  1.
    9000002   -1    0    0    0    0 -0.00000000000E+00 -0.00000000000E+00  0.00000000000E+00  0.93800000000E+00  0.93800000000E+00 0. -1.
         11    1    1    2    0    0 -0.92358247594E-01  0.39885714982E+00  0.62708148129E+00  0.74889820214E+00  0.51100000000E-03 0.  1.
    9000002    1    1    2    0    0 -0.61782396412E+00 -0.53406017957E+00  0.71489604291E+00  0.14345198075E+01  0.93800000000E+00 0. -1.
         22    1    1    2    0    0  0.71018221171E+00  0.13520302975E+00  0.26580224432E+01  0.27545819903E+01  0.00000000000E+00 0.  1.
</event>
<event>
 5    1  0.1160133E+000  0.1599661E+01  0.7818608E-02  0.3353731E+00
         11   -1    0    0    0    0  0.00000000000E+00  0.00000000000E+00  0.39999999674E+01  0.40000000000E+01  0.51100000000E-03 0.  1.
    9000002   -1    0    0    0    0 -0.00000000000E+00 -0.00000000000E+00  0.00000000000E+00  0.93800000000E+00  0.93800000000E+00 0. -1.
         11    1    1    2    0    0  0.22086147430E+00  0.10722735896E+00  0.65879330061E+00  0.70305502728E+00  0.51100000000E-03 0.  1.
    9000002    1    1    2    0    0 -0.10000499993E+01 -0.46633784002E+00  0.10513153746E+01  0.17896030283E+01  0.93800000000E+00 0. -1.
         22    1    1    2    0    0  0.77918852500E+00  0.35911048107E+00  0.22898912922E+01  0.24453419444E+01  0.00000000000E+00 0.  1.
</event>
<event>
 5    1  0.1160133E+000  0.1529393E+01  0.7818608E-02  0.3433754E+00
         11   -1    0    0    0    0  0.00000000000E+00  0.00000000000E+00  0.39999999674E+01  0.40000000000E+01  0.51100000000E-03 0.  1.
    9000002   -1    0    0    0    0 -0.00000000000E+00 -0.00000000000E+00  0.00000000000E+00  0.93800000000E+00  0.93800000000E+00 0. -1.
         11    1    1    2    0    0  0.77552545958E-01 -0.10429635600E+00  0.11444870635E+01  0.11518433170E+01  0.51100000000E-03 0.  1.
    9000002    1    1    2    0    0 -0.16711860001E-01 -0.58898966139E+00  0.31440535554E+00  0.11514698585E+01  0.93800000000E+00 0. -1.
         22    1    1    2    0    0 -0.60840685957E-01  0.69328601739E+00  0.25411075483E+01  0.26346868245E+01  0.00000000000E+00 0. -1.
</event>
<event>
 5    1  0.1160133E+000  0.1598971E+01  0.7818608E-02  0.3354481E+00
         11   -1    0    0    0    0  0.00000000000E+00  0.00000000000E+00  0.39999999674E+01  0.40000000000E+01  0.51100000000E-03 0. -1.
    9000002   -1    0    0    0    0 -0.00000000000E+00 -0.00000000000E+00  0.00000000000E+00  0.93800000000E+00  0.93800000000E+00 0.  1.
         11    1    1    2    0    0 -0.59099862389E-01  0.29309273435E+00  0.10410843847E+01  0.10831680857E+01  0.51100000000E-03 0. -1.
    9000002    1    1    2    0    0  0.16979113159E+00 -0.99101615791E+00  0.81722908958E+00  0.15995778938E+01  0.93800000000E+00 0.  1.
         22    1    1    2    0    0 -0.11069126920E+00  0.69792342356E+00  0.21416864931E+01  0.22552540205E+01  0.00000000000E+00 0. -1.
</event>
<event>
 5    1  0.1160133E+000  0.1599677E+01  0.7818608E-02  0.3353714E+00
         11   -1    0    0    0    0  0.00000000000E+00  0.00000000000E+00  0.39999999674E+01  0.40000000000E+01  0.51100000000E-03 0. -1.
    9000002   -1    0    0    0    0 -0.00000000000E+00 -0.00000000000E+00  0.00000000000E+00  0.93800000000E+00  0.93800000000E+00 0.  1.
         11    1    1    2    0    0  0.18578659002E+00  0.87142698631E-01  0.68307714697E+00  0.71323569511E+00  0.51100000000E-03 0. -1.
    9000002    1    1    2    0    0 -0.88135731812E+00 -0.41573732698E+00  0.75329035339E+00  0.15481985027E+01  0.93800000000E+00 0.  1.
         22    1    1    2    0    0  0.69557072810E+00  0.32859462835E+00  0.25636324670E+01  0.26765658022E+01  0.00000000000E+00 0. -1.
</event>
<event>
 5    1  0.1160133E+000  0.1598654E+01  0.7818608E-02  0.3354826E+00
         11   -1    0    0    0    0  0.00000000000E+00  0.00000000000E+00  0.39999999674E+01  0.40000000000E+01  0.51100000000E-03 0. -1.
    9000002   -1    0    0    0    0 -0.00000000000E+00 -0.00000000000E+00  0.00000000000E+00  0.93800000000E+00  0.93800000000E+00 0.  1.
         11    1    1    2    0    0  0.15497890016E-01 -0.86960904595E-01  0.24553814951E+00  0.26094372480E+00  0.51100000000E-03 0. -1.
    9000002    1    1    2    0    0 -0.58937335792E-01  0.93460925359E+00  0.68417594888E+00  0.14916128169E+01  0.93800000000E+00 0.  1.
         22    1    1    2    0    0  0.43439445776E-01 -0.84764834900E+00  0.30702858690E+01  0.31854434583E+01  0.00000000000E+00 0. -1.
</event>
<event>
 5    1  0.1160133E+000  0.1599676E+01  0.7818608E-02  0.3353715E+00
         11   -1    0    0    0    0  0.00000000000E+00  0.00000000000E+00  0.39999999674E+01  0.40000000000E+01  0.51100000000E-03 0.  1.
    9000002   -1    0    0    0    0 -0.00000000000E+00 -0.00000000000E+00  0.00000000000E+00  0.93800000000E+00  0.93800000000E+00 0. -1.
         11    1    1    2    0    0 -0.43059981157E+00  0.12708568445E+00  0.11017945428E+01  0.11897556239E+01  0.51100000000E-03 0.  1.
    9000002    1    1    2    0    0  0.11009036764E+01 -0.32216552271E+00  0.11819054335E+01  0.18953954686E+01  0.93800000000E+00 0. -1.
         22    1    1    2    0    0 -0.67030386487E+00  0.19507983826E+00  0.17162999911E+01  0.18528489075E+01  0.00000000000E+00 0.  1.
</event>
<event>
 5    1  0.1160133E+000  0.1532201E+01  0.7818608E-02  0.3430406E+00
         11   -1    0    0    0    0  0.00000000000E+00  0.00000000000E+00  0.39999999674E+01  0.40000000000E+01  0.51100000000E-03 0.  1.
    9000002   -1    0    0    0    0 -0.00000000000E+00 -0.00000000000E+00  0.00000000000E+00  0.93800000000E+00  0.93800000000E+00 0.  1.
         11    1    1    2    0    0  0.16255439977E+00  0.14592991260E-02  0.10595217264E+01  0.10719200587E+01  0.51100000000E-03 0.  1.
    9000002    1    1    2    0    0  0.99878065365E-01 -0.71797680975E+00  0.46116841024E+00  0.12720010338E+01  0.93800000000E+00 0.  1.
         22    1    1    2    0    0 -0.26243246513E+00  0.71651751062E+00  0.24793098308E+01  0.25940789076E+01  0.00000000000E+00 0.  1.
</event>
<event>
 5    1  0.1160133E+000  0.1590349E+01  0.7818608E-02  0.3363906E+00
         11   -1    0    0    0    0  0.00000000000E+00  0.00000000000E+00  0.39999999674E+01  0.40000000000E+01  0.51100000000E-03 0. -1.
    9000002   -1    0    0    0    0 -0.00000000000E+00 -0.00000000000E+00  0.00000000000E+00  0.93800000000E+00  0.93800000000E+00 0. -1.
         11    1    1    2    0    0 -0.17668305830E+00  0.13936297046E+00  0.77049782074E+00  0.80268679664E+00  0.51100000000E-03 0. -1.
    9000002    1    1    2    0    0  0.66228024672E+00 -0.91198856123E+00  0.11470641732E+01  0.18617031124E+01  0.93800000000E+00 0. -1.
         22    1    1    2    0    0 -0.48559718842E+00  0.77262559077E+00  0.20824379734E+01  0.22736100910E+01  0.00000000000E+00 0. -1.
</event>
<event>
 5    1  0.1160133E+000  0.1599629E+01  0.7818608E-02  0.3353766E+00
         11   -1    0    0    0    0  0.00000000000E+00  0.00000000000E+00  0.39999999674E+01  0.40000000000E+01  0.51100000000E-03 0. -1.
    9000002   -1    0    0    0    0 -0.00000000000E+00 -0.00000000000E+00  0.00000000000E+00  0.93800000000E+00  0.93800000000E+00 0.  1.
         11    1    1    2    0    0 -0.18615332193E+00 -0.33871734079E+00  0.12337265113E+01  0.12928510595E+01  0.51100000000E-03 0. -1.
    9000002    1    1    2    0    0  0.46269439985E+00  0.88480584958E+00  0.80143591669E+00  0.15871707620E+01  0.93800000000E+00 0.  1.
         22    1    1    2    0    0 -0.27654107791E+00 -0.54608850879E+00  0.19648375394E+01  0.20579781786E+01  0.00000000000E+00 0. -1.
</event>
<event>
 5    1  0.1160133E+000  0.1599675E+01  0.7818608E-02  0.3353717E+00
         11   -1    0    0    0    0  0.00000000000E+00  0.00000000000E+00  0.39999999674E+01  0.40000000000E+01  0.51100000000E-03 0. -1.
    9000002   -1    0    0    0    0 -0.00000000000E+00 -0.00000000000E+00  0.00000000000E+00  0.93800000000E+00  0.93800000000E+00 0. -1.
         11    1    1    2    0    0  0.47526489420E+00  0.25371217280E+00  0.12239018061E+01  0.13372294038E+01  0.51100000000E-03 0. -1.
    9000002    1    1    2    0    0 -0.10453004091E+01 -0.55891800769E+00  0.13170701105E+01  0.20048840267E+01  0.93800000000E+00 0. -1.
         22    1    1    2    0    0  0.57003551486E+00  0.30520583489E+00  0.14590280508E+01  0.15958865695E+01  0.00000000000E+00 0. -1.
</event>
<event>
 5    1  0.1160133E+000  0.1599674E+01  0.7818608E-02  0.3353717E+00
         11   -1    0    0    0    0  0.00000000000E+00  0.00000000000E+00  0.39999999674E+01  0.40000000000E+01  0.51100000000E-03 0.  1.
    9000002   -1    0    0    0    0 -0.00000000000E+00 -0.00000000000E+00  0.00000000000E+00  0.93800000000E+00  0.93800000000E+00 0. -1.
         11    1    1    2    0    0 -0.29745241722E-01 -0.19063047051E-01  0.98592458149E-01  0.10473257895E+00  0.51100000000E-03 0. -1.
    9000002    1    1    2    0    0  0.90134104597E+00  0.59655269090E+00  0.99099595565E+00  0.17407492003E+01  0.93800000000E+00 0. -1.
         22    1    1    2    0    0 -0.87159580424E+00 -0.57748964385E+00  0.29104115536E+01  0.30925182208E+01  0.00000000000E+00 0.  1.
</event>
<event>
 5    1  0.1160133E+000  0.1598298E+01  0.7818608E-02  0.3355213E+00
         11   -1    0    0    0    0  0.00000000000E+00  0.00000000000E+00  0.39999999674E+01  0.40000000000E+01  0.51100000000E-03 0. -1.
    9000002   -1    0    0    0    0 -0.00000000000E+00 -0.00000000000E+00  0.00000000000E+00  0.93800000000E+00  0.93800000000E+00 0. -1.
         11    1    1    2    0    0  0.32525133622E+00 -0.32741937388E+00  0.13909619159E+01  0.14655262505E+01  0.51100000000E-03 0. -1.
    9000002    1    1    2    0    0 -0.66513919389E+00  0.71144619204E+00  0.75473059069E+00  0.15485567784E+01  0.93800000000E+00 0. -1.
         22    1    1    2    0    0  0.33988785767E+00 -0.38402681816E+00  0.18543074607E+01  0.19239169711E+01  0.00000000000E+00 0. -1.
</event>
<event>
 5    1  0.1160133E+000  0.1599675E+01  0.7818608E-02  0.3353716E+00
         11   -1    0    0    0    0  0.00000000000E+00  0.00000000000E+00  0.39999999674E+01  0.40000000000E+01  0.51100000000E-03 0.  1.
    9000002   -1    0    0    0    0 -0.00000000000E+00 -0.00000000000E+00  0.00000000000E+00  0.93800000000E+00  0.93800000000E+00 0.  1.
         11    1    1    2    0    0  0.22568337453E+00 -0.22890323875E-01  0.67625384156E+00  0.71328568737E+00  0.51100000000E-03 0.  1.
    9000002    1    1    2    0    0 -0.10328683514E+01  0.10884135253E+00  0.88838229415E+00  0.16576279957E+01  0.93800000000E+00 0.  1.
         22    1    1    2    0    0  0.80718497691E+00 -0.85951028652E-01  0.24353638317E+01  0.25670863170E+01  0.00000000000E+00 0.  1.
</event>
<event>
 5    1  0.1160133E+000  0.1599677E+01  0.7818608E-02  0.3353714E+00
         11   -1    0    0    0    0  0.00000000000E+00  0.00000000000E+00  0.39999999674E+01  0.40000000000E+01  0.51100000000E-03 0.  1.
    9000002   -1    0    0    0    0 -0.00000000000E+00 -0.00000000000E+00  0.00000000000E+00  0.93800000000E+00  0.93800000000E+00 0.  1.
         11    1    1    2    0    0  0.14522428147E+00 -0.16766857181E+00  0.78713295093E+00  0.81779055110E+00  0.51100000000E-03 0.  1.
    9000002    1    1    2    0    0 -0.61045047356E+00  0.70710892329E+00  0.67836780391E+00  0.14875078781E+01  0.93800000000E+00 0.  1.
         22    1    1    2    0    0  0.46522619209E+00 -0.53944035148E+00  0.25344992125E+01  0.26327015708E+01  0.00000000000E+00 0.  1.
</event>
<event>
 5    1  0.1160133E+000  0.1599641E+01  0.7818608E-02  0.3353753E+00
         11   -1    0    0    0    0  0.00000000000E+00  0.00000000000E+00  0.39999999674E+01  0.40000000000E+01  0.51100000000E-03 0.  1.
    9000002   -1    0    0    0    0 -0.00000000000E+00 -0.00000000000E+00  0.00000000000E+00  0.93800000000E+00  0.93800000000E+00 0.  1.
         11    1    1    2    0    0 -0.11504995090E+00 -0.22240291620E-01  0.40816815072E+00  0.42465588676E+00  0.51100000000E-03 0.  1.
    9000002    1    1    2    0    0  0.91080281999E+00  0.21052184123E+00  0.67959394065E+00  0.14884801466E+01  0.93800000000E+00 0.  1.
         22    1    1    2    0    0 -0.79575286909E+00 -0.18828154961E+00  0.29122378760E+01  0.30248639667E+01  0.00000000000E+00 0.  1.
</event>
<event>
 5    1  0.1160133E+000  0.1599012E+01  0.7818608E-02  0.3354437E+00
         11   -1    0    0    0    0  0.00000000000E+00  0.00000000000E+00  0.39999999674E+01  0.40000000000E+01  0.51100000000E-03 0.  1.
    9000002   -1    0    0    0    0 -0.00000000000E+00 -0.00000000000E+00  0.00000000000E+00  0.93800000000E+00  0.93800000000E+00 0. -1.
         11    1    1    2    0    0 -0.77023097899E-01  0.55301440890E-01  0.15543827129E+00  0.18207724810E+00  0.51100000000E-03 0.  1.
    9000002    1    1    2    0    0  0.10898587755E+01 -0.69897366864E+00  0.22520529396E+01  0.27618730570E+01  0.93800000000E+00 0. -1.
         22    1    1    2    0    0 -0.10128356776E+01  0.64367222775E+00  0.15925087565E+01  0.19940496949E+01  0.00000000000E+00 0.  1.
</event>
<event>
 5    1  0.1160133E+000  0.1592599E+01  0.7818608E-02  0.3361435E+00
         11   -1    0    0    0    0  0.00000000000E+00  0.00000000000E+00  0.39999999674E+01  0.40000000000E+01  0.51100000000E-03 0.  1.
    9000002   -1    0    0    0    0 -0.00000000000E+00 -0.00000000000E+00  0.00000000000E+00  0.93800000000E+00  0.93800000000E+00 0.  1.
         11    1    1    2    0    0  0.14875591324E+00 -0.57696952201E-01  0.82604922071E+00  0.84131732193E+00  0.51100000000E-03 0.  1.
    9000002    1    1    2    0    0 -0.83620309777E+00  0.48206211655E+00  0.74809713164E+00  0.15398418176E+01  0.93800000000E+00 0.  1.
         22    1    1    2    0    0  0.68744718452E+00 -0.42436516435E+00  0.24258536150E+01  0.25568408605E+01  0.00000000000E+00 0.  1.
</event>
<event>
 5    1  0.1160133E+000  0.1599660E+01  0.7818608E-02  0.3353733E+00
         11   -1    0    0    0    0  0.00000000000E+00  0.00000000000E+00  0.39999999674E+01  0.40000000000E+01  0.51100000000E-03 0.  1.
    9000002   -1    0    0    0    0 -0.00000000000E+00 -0.00000000000E+00  0.00000000000E+00  0.93800000000E+00  0.93800000000E+00 0. -1.
         11    1    1    2    0    0 -0.11435099075E-01 -0.89818958343E-01  0.21899392530E+00  0.23697427541E+00  0.51100000000E-03 0.  1.
    9000002    1    1    2    0    0  0.11283311489E+00  0.11514202211E+01  0.12146188861E+01  0.19218852400E+01  0.93800000000E+00 0. -1.
         22    1    1    2    0    0 -0.10139801582E+00 -0.10616012627E+01  0.25663871560E+01  0.27791404846E+01  0.00000000000E+00 0.  1.
</event>
<event>
 5    1  0.1160133E+000  0.1599666E+01  0.7818608E-02  0.3353725E+00
         11   -1    0    0    0    0  0.00000000000E+00  0.00000000000E+00  0.39999999674E+01  0.40000000000E+01  0.51100000000E-03 0.  1.
    9000002   -1    0    0    0    0 -0.00000000000E+00 -0.00000000000E+00  0.00000000000E+00  0.93800000000E+00  0.93800000000E+00 0. -1.
         11    1    1    2    0    0 -0.23143256242E+00  0.37247462673E+00  0.13018386999E+01  0.13737112652E+01  0.51100000000E-03 0.  1.
    9000002    1    1    2    0    0  0.55404975055E+00 -0.88002298470E+00  0.89142813416E+00  0.16600902680E+01  0.93800000000E+00 0. -1.
         22    1    1    2    0    0 -0.32261718813E+00  0.50754835797E+00  0.18067331333E+01  0.19041984668E+01  0.00000000000E+00 0.  1.
</event>
<event>
 5    1  0.1160133E+000  0.1589598E+01  0.7818608E-02  0.3364731E+00
         11   -1    0    0    0    0  0.00000000000E+00  0.00000000000E+00  0.39999999674E+01  0.40000000000E+01  0.51100000000E-03 0.  1.
    9000002   -1    0    0    0    0 -0.00000000000E+00 -0.00000000000E+00  0.00000000000E+00  0.93800000000E+00  0.93800000000E+00 0. -1.
         11    1    1    2    0    0  0.29721438672E+00 -0.42110472486E+00  0.10083215341E+01  0.11324213695E+01  0.51100000000E-03 0.  1.
    9000002    1    1    2    0    0 -0.57981948570E+00  0.96189707854E+00  0.11370419294E+01  0.18531446179E+01  0.93800000000E+00 0. -1.
         22    1    1    2    0    0  0.28260509898E+00 -0.54079235369E+00  0.18546365039E+01  0.19524340126E+01  0.00000000000E+00 0.  1.
</event>
<event>
 5    1  0.1160133E+000  0.1599632E+01  0.7818608E-02  0.3353763E+00
         11   -1    0    0    0    0  0.00000000000E+00  0.00000000000E+00  0.39999999674E+01  0.40000000000E+01  0.51100000000E-03 0.  1.
    9000002   -1    0    0    0    0 -0.00000000000E+00 -0.00000000000E+00  0.00000000000E+00  0.93800000000E+00  0.93800000000E+00 0.  1.
         11    1    1    2    0    0 -0.37993645120E-01  0.19219425419E+00  0.66269551466E+00  0.69104830127E+00  0.51100000000E-03 0.  1.
    9000002    1    1    2    0    0  0.18629537501E+00 -0.92499585069E+00  0.69531504949E+00  0.15012096151E+01  0.93800000000E+00 0.  1.
         22    1    1    2    0    0 -0.14830172989E+00  0.73280159650E+00  0.26419894032E+01  0.27457420836E+01  0.00000000000E+00 0.  1.
</event>
<event>
 5    1  0.1160133E+000  0.1288373E+01  0.7818608E-02  0.3804424E+00
         11   -1    0    0    0    0  0.00000000000E+00  0.00000000000E+00  0.39999999674E+01  0.40000000000E+01  0.51100000000E-03 0. -1.
    9000002   -1    0    0    0    0 -0.00000000000E+00 -0.00000000000E+00  0.00000000000E+00  0.93800000000E+00  0.93800000000E+00 0.  1.
         11    1    1    2    0    0 -0.41234028801E+00 -0.42225511594E+00  0.11575038096E+01  0.12992841207E+01  0.51100000000E-03 0. -1.
    9000002    1    1    2    0    0  0.18275879414E+00 -0.30813253396E+00  0.40307560172E+00  0.10819705985E+01  0.93800000000E+00 0.  1.
         22    1    1    2    0    0  0.22958149386E+00  0.73038764989E+00  0.24394205561E+01  0.25567452808E+01  0.00000000000E+00 0. -1.
</event>
<event>
 5    1  0.1160133E+000  0.1591529E+01  0.7818608E-02  0.3362609E+00
         11   -1    0    0    0    0  0.00000000000E+00  0.00000000000E+00  0.39999999674E+01  0.40000000000E+01  0.51100000000E-03 0. -1.
    9000002   -1    0    0    0    0 -0.00000000000E+00 -0.00000000000E+00  0.00000000000E+00  0.93800000000E+00  0.93800000000E+00 0. -1.
         11    1    1    2    0    0 -0.18425836587E+00 -0.10415748696E+00  0.87383051802E+00  0.89909952888E+00  0.51100000000E-03 0. -1.
    9000002    1    1    2    0    0  0.87060603173E+00  0.62561312437E+00  0.98818308763E+00  0.17336944536E+01  0.93800000000E+00 0. -1.
         22    1    1    2    0    0 -0.68634766586E+00 -0.52145563741E+00  0.21379863617E+01  0.23052060175E+01  0.00000000000E+00 0. -1.
</event>
<event>
 5    1  0.1160133E+000  0.1582348E+01  0.7818608E-02  0.3372748E+00
         11   -1    0    0    0    0  0.00000000000E+00  0.00000000000E+00  0.39999999674E+01  0.40000000000E+01  0.51100000000E-03 0. -1.
    9000002   -1    0    0    0    0 -0.00000000000E+00 -0.00000000000E+00  0.00000000000E+00  0.93800000000E+00  0.93800000000E+00 0.  1.
         11    1    1    2    0    0 -0.13736901832E-01  0.30965412987E-01  0.39499840983E+00  0.39644869045E+00  0.51100000000E-03 0. -1.
    9000002    1    1    2    0    0 -0.57223920596E+00 -0.77628185244E+00  0.76532103815E+00  0.15477827737E+01  0.93800000000E+00 0.  1.
         22    1    1    2    0    0  0.58597610779E+00  0.74531643945E+00  0.28396805194E+01  0.29937685358E+01  0.00000000000E+00 0. -1.
</event>
<event>
 5    1  0.1160133E+000  0.1599302E+01  0.7818608E-02  0.3354121E+00
         11   -1    0    0    0    0  0.00000000000E+00  0.00000000000E+00  0.39999999674E+01  0.40000000000E+01  0.51100000000E-03 0.  1.
    9000002   -1    0    0    0    0 -0.00000000000E+00 -0.00000000000E+00  0.00000000000E+00  0.93800000000E+00  0.93800000000E+00 0. -1.
         11    1    1    2    0    0  0.11651696545E+00  0.26024714195E+00  0.10378410701E+01  0.10762988089E+01  0.51100000000E-03 0.  1.
    9000002    1    1    2    0    0 -0.43303718553E+00 -0.80088691693E+00  0.63800068109E+00  0.14545892640E+01  0.93800000000E+00 0. -1.
         22    1    1    2    0    0  0.31652022008E+00  0.54063977498E+00  0.23241582162E+01  0.24071119271E+01  0.00000000000E+00 0.  1.
</event>
<event>
 5    1  0.1160133E+000  0.1576066E+01  0.7818608E-02  0.3379757E+00
         11   -1    0    0    0    0  0.00000000000E+00  0.00000000000E+00  0.39999999674E+01  0.40000000000E+01  0.51100000000E-03 0.  1.
    9000002   -1    0    0    0    0 -0.00000000000E+00 -0.00000000000E+00  0.00000000000E+00  0.93800000000E+00  0.93800000000E+00 0. -1.
         11    1    1    2    0    0  0.88232374327E-01  0.10427516979E+00  0.12292760926E+01  0.12368420416E+01  0.51100000000E-03 0.  1.
    9000002    1    1    2    0    0 -0.59126501515E+00 -0.64751426066E+00  0.61864159076E+00  0.14252825873E+01  0.93800000000E+00 0. -1.
         22    1    1    2    0    0  0.50303264082E+00  0.54323909087E+00  0.21520822840E+01  0.22758753711E+01  0.00000000000E+00 0.  1.
</event>
<event>
 5    1  0.1160133E+000  0.1599668E+01  0.7818608E-02  0.3353724E+00
         11   -1    0    0    0    0  0.00000000000E+00  0.00000000000E+00  0.39999999674E+01  0.40000000000E+01  0.51100000000E-03 0. -1.
    9000002   -1    0    0    0    0 -0.00000000000E+00 -0.00000000000E+00  0.00000000000E+00  0.93800000000E+00  0.93800000000E+00 0. -1.
         11    1    1    2    0    0 -0.30498198781E+00  0.23168028057E+00  0.13748918147E+01  0.14272412300E+01  0.51100000000E-03 0. -1.
    9000002    1    1    2    0    0  0.73697349566E+00 -0.56935199727E+00  0.67330034513E+00  0.14833977838E+01  0.93800000000E+00 0. -1.
         22    1    1    2    0    0 -0.43199150786E+00  0.33767171669E+00  0.19518078075E+01  0.20273609863E+01  0.00000000000E+00 0. -1.
</event>
<event>
 5    1  0.1160133E+000  0.1599487E+01  0.7818608E-02  0.3353920E+00
         11   -1    0    0    0    0  0.00000000000E+00  0.00000000000E+00  0.39999999674E+01  0.40000000000E+01  0.51100000000E-03 0.  1.
    9000002   -1    0    0    0    0 -0.00000000000E+00 -0.00000000000E+00  0.00000000000E+00  0.93800000000E+00  0.93800000000E+00 0.  1.
         11    1    1    2    0    0  0.96073326365E-02  0.73922190588E-02  0.34590642233E-01  0.36656778283E-01  0.51100000000E-03 0.  1.
    9000002    1    1    2    0    0 -0.83140094904E+00 -0.39964826280E+00  0.65820001800E+00  0.14710600041E+01  0.93800000000E+00 0.  1.
         22    1    1    2    0    0  0.82179361640E+00  0.39225604375E+00  0.33072093071E+01  0.34302832176E+01  0.00000000000E+00 0.  1.
</event>
<event>
 5    1  0.1160133E+000  0.1599265E+01  0.7818608E-02  0.3354162E+00
         11   -1    0    0    0    0  0.00000000000E+00  0.00000000000E+00  0.39999999674E+01  0.40000000000E+01  0.51100000000E-03 0.  1.
    9000002   -1    0    0    0    0 -0.00000000000E+00 -0.00000000000E+00  0.00000000000E+00  0.93800000000E+00  0.93800000000E+00 0.  1.
         11    1    1    2    0    0  0.33016992726E+00  0.18740357754E-01  0.99085813541E+00  0.10445877117E+01  0.51100000000E-03 0.  1.
    9000002    1    1    2    0    0 -0.10488419310E+01 -0.12467206007E+00  0.93061194726E+00  0.16915954348E+01  0.93800000000E+00 0.  1.
         22    1    1    2    0    0  0.71867200373E+00  0.10593170231E+00  0.20785298847E+01  0.22018168534E+01  0.00000000000E+00 0.  1.
</event>
<event>
 5    1  0.1160133E+000  0.1484701E+01  0.7818608E-02  0.3488871E+00
         11   -1    0    0    0    0  0.00000000000E+00  0.00000000000E+00  0.39999999674E+01  0.40000000000E+01  0.51100000000E-03 0.  1.
    9000002   -1    0    0    0    0 -0.00000000000E+00 -0.00000000000E+00  0.00000000000E+00  0.93800000000E+00  0.93800000000E+00 0. -1.
         11    1    1    2    0    0 -0.25662962256E+00  0.11292231759E+00  0.11080358282E+01  0.11429583854E+01  0.51100000000E-03 0.  1.
    9000002    1    1    2    0    0  0.15116828479E+00  0.64758438289E+00  0.44916967581E+00  0.12344289291E+01  0.93800000000E+00 0. -1.
         22    1    1    2    0    0  0.10546133777E+00 -0.76050670048E+00  0.24427944633E+01  0.25606126855E+01  0.00000000000E+00 0.  1.
</event>
<event>
 5    1  0.1160133E+000  0.1599673E+01  0.7818608E-02  0.3353719E+00
         11   -1    0    0    0    0  0.00000000000E+00  0.00000000000E+00  0.39999999674E+01  0.40000000000E+01  0.51100000000E-03 0. -1.
    9000002   -1    0    0    0    0 -0.00000000000E+00 -0.00000000000E+00  0.00000000000E+00  0.93800000000E+00  0.93800000000E+00 0.  1.
         11    1    1    2    0    0 -0.29581499480E+00 -0.27117407095E-01  0.90077208095E+00  0.94848957183E+00  0.51100000000E-03 0. -1.
    9000002    1    1    2    0    0  0.10300253245E+01  0.10004533998E+00  0.87993869729E+00  0.16507868882E+01  0.93800000000E+00 0.  1.
         22    1    1    2    0    0 -0.73421032970E+00 -0.72927932889E-01  0.22192891891E+01  0.23387235400E+01  0.00000000000E+00 0. -1.
</event>
<event>
 5    1  0.1160133E+000  0.1542369E+01  0.7818608E-02  0.3418392E+00
         11   -1    0    0    0    0  0.00000000000E+00  0.00000000000E+00  0.39999999674E+01  0.40000000000E+01  0.51100000000E-03 0. -1.
    9000002   -1    0    0    0    0 -0.00000000000E+00 -0.00000000000E+00  0.00000000000E+00  0.93800000000E+00  0.93800000000E+00 0.  1.
         11    1    1    2    0    0 -0.10335465097E+00 -0.20291014281E+00  0.13974280257E+01  0.14158601831E+01  0.51100000000E-03 0. -1.
    9000002    1    1    2    0    0  0.77345026717E+00  0.18706111640E-01  0.51239060431E+00  0.13194557082E+01  0.93800000000E+00 0.  1.
         22    1    1    2    0    0 -0.67009561620E+00  0.18420403117E+00  0.20901813373E+01  0.22026841087E+01  0.00000000000E+00 0. -1.
</event>
<event>
 5    1  0.1160133E+000  0.1592266E+01  0.7818608E-02  0.3361800E+00
         11   -1    0    0    0    0  0.00000000000E+00  0.00000000000E+00  0.39999999674E+01  0.40000000000E+01  0.51100000000E-03 0.  1.
    9000002   -1    0    0    0    0 -0.00000000000E+00 -0.00000000000E+00  0.00000000000E+00  0.93800000000E+00  0.93800000000E+00 0. -1.
         11    1    1    2    0    0  0.53325988484E-01  0.47170733838E-01  0.19047033727E+00  0.20334195258E+00  0.51100000000E-03 0.  1.
    9000002    1    1    2    0    0 -0.19416272080E+00 -0.11680514351E+01  0.13411256285E+01  0.20200260564E+01  0.93800000000E+00 0. -1.
         22    1    1    2    0    0  0.14083673231E+00  0.11208807012E+01  0.24684040016E+01  0.27146319910E+01  0.00000000000E+00 0.  1.
</event>
<event>
 5    1  0.1160133E+000  0.1599670E+01  0.7818608E-02  0.3353721E+00
         11   -1    0    0    0    0  0.00000000000E+00  0.00000000000E+00  0.39999999674E+01  0.40000000000E+01  0.51100000000E-03 0.  1.
    9000002   -1    0    0    0    0 -0.00000000000E+00 -0.00000000000E+00  0.00000000000E+00  0.93800000000E+00  0.93800000000E+00 0. -1.
         11    1    1    2    0    0  0.19421723619E+00 -0.48727018901E+00  0.12763636785E+01  0.13799482138E+01  0.51100000000E-03 0.  1.
    9000002    1    1    2    0    0 -0.42001650615E+00  0.10722979045E+01  0.11968252652E+01  0.19074777527E+01  0.93800000000E+00 0. -1.
         22    1    1    2    0    0  0.22579926997E+00 -0.58502771549E+00  0.15268110237E+01  0.16505740335E+01  0.00000000000E+00 0.  1.
</event>
<event>
 5    1  0.1160133E+000  0.1592216E+01  0.7818608E-02  0.3361856E+00
         11   -1    0    0    0    0  0.00000000000E+00  0.00000000000E+00  0.39999999674E+01  0.40000000000E+01  0.51100000000E-03 0. -1.
    9000002   -1    0    0    0    0 -0.00000000000E+00 -0.00000000000E+00  0.00000000000E+00  0.93800000000E+00  0.93800000000E+00 0. -1.
         11    1    1    2    0    0 -0.20862089160E-01 -0.18006113625E+00  0.30387515541E+00  0.35383274403E+00  0.51100000000E-03 0. -1.
    9000002    1    1    2    0    0  0.26738133434E+00  0.10699119170E+01  0.10694942757E+01  0.17999628590E+01  0.93800000000E+00 0. -1.
         22    1    1    2    0    0 -0.24651924518E+00 -0.88985078071E+00  0.26266305363E+01  0.27842043970E+01  0.00000000000E+00 0. -1.
</event>
<event>
 5    1  0.1160133E+000  0.1596164E+01  0.7818608E-02  0.3357538E+00
         11   -1    0    0    0    0  0.00000000000E+00  0.00000000000E+00  0.39999999674E+01  0.40000000000E+01  0.51100000000E-03 0. -1.
    9000002   -1    0    0    0    0 -0.00000000000E+00 -0.00000000000E+00  0.00000000000E+00  0.93800000000E+00  0.93800000000E+00 0.  1.
         11    1    1    2    0    0  0.34265602987E+00  0.26797835959E+00  0.11894776103E+01  0.12665239053E+01  0.51100000000E-03 0. -1.
    9000002    1    1    2    0    0 -0.82764059624E+00 -0.55231508668E+00  0.80093819080E+00  0.15847355921E+01  0.93800000000E+00 0.  1.
         22    1    1    2    0    0  0.48498456637E+00  0.28433672709E+00  0.20095841662E+01  0.20867405026E+01  0.00000000000E+00 0. -1.
</event>
<event>
 5    1  0.1160133E+000  0.1599674E+01  0.7818608E-02  0.3353717E+00
         11   -1    0    0    0    0  0.00000000000E+00  0.00000000000E+00  0.39999999674E+01  0.40000000000E+01  0.51100000000E-03 0. -1.
    9000002   -1    0    0    0    0 -0.00000000000E+00 -0.00000000000E+00  0.00000000000E+00  0.93800000000E+00  0.93800000000E+00 0. -1.
         11    1    1    2    0    0 -0.10631549893E-01 -0.17198909933E-01  0.60033215817E-01  0.63348879061E-01  0.51100000000E-03 0.  1.
    9000002    1    1    2    0    0  0.53743737520E+00  0.89100023395E+00  0.89285571316E+00  0.16612512374E+01  0.93800000000E+00 0. -1.
         22    1    1    2    0    0 -0.52680582531E+00 -0.87380132402E+00  0.30471110384E+01  0.32133998836E+01  0.00000000000E+00 0. -1.
</event>
<event>
 5    1  0.1160133E+000  0.1599603E+01  0.7818608E-02  0.3353795E+00
         11   -1    0    0    0    0  0.00000000000E+00  0.00000000000E+00  0.39999999674E+01  0.40000000000E+01  0.51100000000E-03 0. -1.
    9000002   -1    0    0    0    0 -0.00000000000E+00 -0.00000000000E+00  0.00000000000E+00  0.93800000000E+00  0.93800000000E+00 0.  1.
         11    1    1    2    0    0  0.73318948962E-01  0.19650739273E+00  0.62884766788E+00  0.66290306546E+00  0.51100000000E-03 0. -1.
    9000002    1    1    2    0    0 -0.34651157727E+00 -0.95235336990E+00  0.83289777630E+00  0.16126406668E+01  0.93800000000E+00 0.  1.
         22    1    1    2    0    0  0.27319262831E+00  0.75584597718E+00  0.25382545232E+01  0.26624562678E+01  0.00000000000E+00 0. -1.
</event>
<event>
 5    1  0.1160133E+000  0.1526288E+01  0.7818608E-02  0.3437471E+00
         11   -1    0    0    0    0  0.00000000000E+00  0.00000000000E+00  0.39999999674E+01  0.40000000000E+01  0.51100000000E-03 0.  1.
    9000002   -1    0    0    0    0 -0.00000000000E+00 -0.00000000000E+00  0.00000000000E+00  0.93800000000E+00  0.93800000000E+00 0. -1.
         11    1    1    2    0    0 -0.15187165239E+00 -0.25972353921E+00  0.33578349525E+00  0.45085710866E+00  0.51100000000E-03 0.  1.
    9000002    1    1    2    0    0  0.55701396380E-01 -0.66651608736E+00  0.62958606364E+00  0.13128476499E+01  0.93800000000E+00 0. -1.
         22    1    1    2    0    0  0.96170256014E-01  0.92623962657E+00  0.30346304085E+01  0.31742952415E+01  0.00000000000E+00 0.  1.
</event>
<event>
 5    1  0.1191618E+000  0.1450949E+01  0.7818608E-02  0.3532933E+00
         11   -1    0    0    0    0  0.00000000000E+00  0.00000000000E+00  0.39999999674E+01  0.40000000000E+01  0.51100000000E-03 0. -1.
    9000002   -1    0    0    0    0 -0.00000000000E+00 -0.00000000000E+00  0.00000000000E+00  0.93800000000E+00  0.93800000000E+00 0. -1.
         11    1    1    2    0    0 -0.27563183922E+00  0.52289700926E-01  0.11514192008E+01  0.11851048733E+01  0.51100000000E-03 0. -1.
    9000002    1    1    2    0    0 -0.44296584278E+00  0.20822362194E+00  0.31113878270E+00  0.11028268934E+01  0.93800000000E+00 0. -1.
         22    1    1    2    0    0  0.71859768200E+00 -0.26051332287E+00  0.25374419839E+01  0.26500682334E+01  0.00000000000E+00 0. -1.
</event>
<event>
 5    1  0.1160133E+000  0.1599676E+01  0.7818608E-02  0.3353715E+00
         11   -1    0    0    0    0  0.00000000000E+00  0.00000000000E+00  0.39999999674E+01  0.40000000000E+01  0.51100000000E-03 0.  1.
    9000002   -1    0    0    0    0 -0.00000000000E+00 -0.00000000000E+00  0.00000000000E+00  0.93800000000E+00  0.93800000000E+00 0.  1.
         11    1    1    2    0    0 -0.38398218035E+00  0.11817308866E-02  0.10580670721E+01  0.11255886911E+01  0.51100000000E-03 0.  1.
    9000002    1    1    2    0    0  0.10879965922E+01 -0.44637775397E-02  0.10095843617E+01  0.17558078179E+01  0.93800000000E+00 0.  1.
         22    1    1    2    0    0 -0.70401441189E+00  0.32820466531E-02  0.19323485336E+01  0.20566034910E+01  0.00000000000E+00 0.  1.
</event>
<event>
 5    1  0.1160133E+000  0.1599672E+01  0.7818608E-02  0.3353720E+00
         11   -1    0    0    0    0  0.00000000000E+00  0.00000000000E+00  0.39999999674E+01  0.40000000000E+01  0.51100000000E-03 0.  1.
    9000002   -1    0    0    0    0 -0.00000000000E+00 -0.00000000000E+00  0.00000000000E+00  0.93800000000E+00  0.93800000000E+00 0.  1.
         11    1    1    2    0    0  0.34068256773E+00  0.15976365064E+00  0.79613297149E+00  0.88057765440E+00  0.51100000000E-03 0.  1.
    9000002    1    1    2    0    0 -0.11014397959E+01 -0.50752665481E+00  0.14314358418E+01  0.20975236586E+01  0.93800000000E+00 0.  1.
         22    1    1    2    0    0  0.76075722815E+00  0.34776300417E+00  0.17724311541E+01  0.19598986870E+01  0.00000000000E+00 0.  1.
</event>
<event>
 5    1  0.1160133E+000  0.1599674E+01  0.7818608E-02  0.3353717E+00
         11   -1    0    0    0    0  0.00000000000E+00  0.00000000000E+00  0.39999999674E+01  0.40000000000E+01  0.51100000000E-03 0.  1.
    9000002   -1    0    0    0    0 -0.00000000000E+00 -0.00000000000E+00  0.00000000000E+00  0.93800000000E+00  0.93800000000E+00 0.  1.
         11    1    1    2    0    0  0.44433662299E+00 -0.36088547606E+00  0.12175607101E+01  0.13454098652E+01  0.51100000000E-03 0.  1.
    9000002    1    1    2    0    0 -0.94111169160E+00  0.76471682026E+00  0.14309209852E+01  0.20971079841E+01  0.93800000000E+00 0.  1.
         22    1    1    2    0    0  0.49677506861E+00 -0.40383134420E+00  0.13515182720E+01  0.14954821507E+01  0.00000000000E+00 0.  1.
</event>
<event>
 5    1  0.1160133E+000  0.1599673E+01  0.7818608E-02  0.3353719E+00
         11   -1    0    0    0    0  0.00000000000E+00  0.00000000000E+00  0.39999999674E+01  0.40000000000E+01  0.51100000000E-03 0. -1.
    9000002   -1    0    0    0    0 -0.00000000000E+00 -0.00000000000E+00  0.00000000000E+00  0.93800000000E+00  0.93800000000E+00 0. -1.
         11    1    1    2    0    0  0.22999180510E+00 -0.11461221736E-01  0.54146095005E+00  0.58839426541E+00  0.51100000000E-03 0. -1.
    9000002    1    1    2    0    0 -0.11694492919E+01  0.65281196233E-01  0.12645945049E+01  0.19623752299E+01  0.93800000000E+00 0. -1.
         22    1    1    2    0    0  0.93945748683E+00 -0.53819974496E-01  0.21939445124E+01  0.23872305047E+01  0.00000000000E+00 0. -1.
</event>
<event>
 5    1  0.1160133E+000  0.1589987E+01  0.7818608E-02  0.3364303E+00
         11   -1    0    0    0    0  0.00000000000E+00  0.00000000000E+00  0.39999999674E+01  0.40000000000E+01  0.51100000000E-03 0.  1.
    9000002   -1    0    0    0    0 -0.00000000000E+00 -0.00000000000E+00  0.00000000000E+00  0.93800000000E+00  0.93800000000E+00 0. -1.
         11    1    1    2    0    0 -0.28615350327E+00  0.14718834213E+00  0.13617320458E+01  0.13992364565E+01  0.51100000000E-03 0.  1.
    9000002    1    1    2    0    0  0.92057795109E+00 -0.18240515890E+00  0.70246133106E+00  0.15013431745E+01  0.93800000000E+00 0. -1.
         22    1    1    2    0    0 -0.63442444782E+00  0.35216816775E-01  0.19358065905E+01  0.20374203690E+01  0.00000000000E+00 0.  1.
</event>
<event>
 5    1  0.1160133E+000  0.1599588E+01  0.7818608E-02  0.3353811E+00
         11   -1    0    0    0    0  0.00000000000E+00  0.00000000000E+00  0.39999999674E+01  0.40000000000E+01  0.51100000000E-03 0. -1.
    9000002   -1    0    0    0    0 -0.00000000000E+00 -0.00000000000E+00  0.00000000000E+00  0.93800000000E+00  0.93800000000E+00 0. -1.
         11    1    1    2    0    0  0.31855830326E-01 -0.21868426386E-01  0.13257022538E+00  0.13808746423E+00  0.51100000000E-03 0. -1.
    9000002    1    1    2    0    0 -0.79967424978E+00  0.44112548948E+00  0.64230231470E+00  0.14582410180E+01  0.93800000000E+00 0. -1.
         22    1    1    2    0    0  0.76781841946E+00 -0.41925706310E+00  0.32251274273E+01  0.33416715177E+01  0.00000000000E+00 0. -1.
</event>
<event>
 5    1  0.1160133E+000  0.1510396E+01  0.7818608E-02  0.3456753E+00
         11   -1    0    0    0    0  0.00000000000E+00  0.00000000000E+00  0.39999999674E+01  0.40000000000E+01  0.51100000000E-03 0.  1.
    9000002   -1    0    0    0    0 -0.00000000000E+00 -0.00000000000E+00  0.00000000000E+00  0.93800000000E+00  0.93800000000E+00 0. -1.
         11    1    1    2    0    0  0.12670139848E+00 -0.96985167266E-01  0.10764192163E+01  0.10881810315E+01  0.51100000000E-03 0.  1.
    9000002    1    1    2    0    0  0.58573704188E+00  0.65941589945E+00  0.73988556348E+00  0.14849888409E+01  0.93800000000E+00 0. -1.
         22    1    1    2    0    0 -0.71243844036E+00 -0.56243073218E+00  0.21836951876E+01  0.23648301275E+01  0.00000000000E+00 0.  1.
</event>
<event>
 5    1  0.1160133E+000  0.1535225E+01  0.7818608E-02  0.3426815E+00
         11   -1    0    0    0    0  0.00000000000E+00  0.00000000000E+00  0.39999999674E+01  0.40000000000E+01  0.51100000000E-03 0.  1.
    9000002   -1    0    0    0    0 -0.00000000000E+00 -0.00000000000E+00  0.00000000000E+00  0.93800000000E+00  0.93800000000E+00 0.  1.
         11    1    1    2    0    0  0.40160939831E-01  0.14638899406E+00  0.73746635711E+00  0.75292730570E+00  0.51100000000E-03 0.  1.
    9000002    1    1    2    0    0 -0.54860030406E+00  0.43602912056E+00  0.42742965456E+00  0.12464444621E+01  0.93800000000E+00 0.  1.
         22    1    1    2    0    0  0.50843936423E+00 -0.58241811463E+00  0.28351039557E+01  0.29386282322E+01  0.00000000000E+00 0.  1.
</event>
<event>
 5    1  0.1160133E+000  0.1594442E+01  0.7818608E-02  0.3359418E+00
         11   -1    0    0    0    0  0.00000000000E+00  0.00000000000E+00  0.39999999674E+01  0.40000000000E+01  0.51100000000E-03 0. -1.
    9000002   -1    0    0    0    0 -0.00000000000E+00 -0.00000000000E+00  0.00000000000E+00  0.93800000000E+00  0.93800000000E+00 0. -1.
         11    1    1    2    0    0 -0.19294495296E+00  0.10730184495E+00  0.85072154724E+00  0.87890207240E+00  0.51100000000E-03 0. -1.
    9000002    1    1    2    0    0  0.90298080037E+00 -0.57578558145E+00  0.97820306580E+00  0.17273183261E+01  0.93800000000E+00 0. -1.
         22    1    1    2    0    0 -0.71003584741E+00  0.46848373649E+00  0.21710753543E+01  0.23317796015E+01  0.00000000000E+00 0. -1.
</event>
<event>
 5    1  0.1160133E+000  0.1599677E+01  0.7818608E-02  0.3353714E+00
         11   -1    0    0    0    0  0.00000000000E+00  0.00000000000E+00  0.39999999674E+01  0.40000000000E+01  0.51100000000E-03 0.  1.
    9000002   -1    0    0    0    0 -0.00000000000E+00 -0.00000000000E+00  0.00000000000E+00  0.93800000000E+00  0.93800000000E+00 0. -1.
         11    1    1    2    0    0  0.56096504746E-02  0.10270011890E+00  0.36305758389E+00  0.37734580022E+00  0.51100000000E-03 0. -1.
    9000002    1    1    2    0    0 -0.52564321413E-01 -0.93789160449E+00  0.68765459393E+00  0.14950306051E+01  0.93800000000E+00 0. -1.
         22    1    1    2    0    0  0.46954670938E-01  0.83519148559E+00  0.29492877895E+01  0.30656235947E+01  0.00000000000E+00 0.  1.
</event>
<event>
 5    1  0.1160133E+000  0.1589431E+01  0.7818608E-02  0.3364915E+00
         11   -1    0    0    0    0  0.00000000000E+00  0.00000000000E+00  0.39999999674E+01  0.40000000000E+01  0.51100000000E-03 0.  1.
    9000002   -1    0    0    0    0 -0.00000000000E+00 -0.00000000000E+00  0.00000000000E+00  0.93800000000E+00  0.93800000000E+00 0. -1.
         11    1    1    2    0    0  0.34219198235E+00  0.19598027778E-01  0.73283055469E+00  0.80902430031E+00  0.51100000000E-03 0.  1.
    9000002    1    1    2    0    0 -0.10091520617E+01 -0.29331068274E-02  0.84420209811E+00  0.16158334287E+01  0.93800000000E+00 0. -1.
         22    1    1    2    0    0  0.66696007934E+00 -0.16664920950E-01  0.24229673146E+01  0.25131422710E+01  0.00000000000E+00 0.  1.
</event>
<event>
 5    1  0.1160133E+000  0.1599332E+01  0.7818608E-02  0.3354089E+00
         11   -1    0    0    0    0  0.00000000000E+00  0.00000000000E+00  0.39999999674E+01  0.40000000000E+01  0.51100000000E-03 0.  1.
    9000002   -1    0    0    0    0 -0.00000000000E+00 -0.00000000000E+00  0.00000000000E+00  0.93800000000E+00  0.93800000000E+00 0.  1.
         11    1    1    2    0    0 -0.21113010466E-01 -0.43626910322E+00  0.13389502724E+01  0.14083907777E+01  0.51100000000E-03 0.  1.
    9000002    1    1    2    0    0  0.53565127941E-01  0.99085633781E+00  0.78935374337E+00  0.15772091926E+01  0.93800000000E+00 0.  1.
         22    1    1    2    0    0 -0.32452117474E-01 -0.55458723459E+00  0.18716959516E+01  0.19524000297E+01  0.00000000000E+00 0.  1.
</event>
<event>
 5    1  0.1160133E+000  0.1589895E+01  0.7818608E-02  0.3364404E+00
         11   -1    0    0    0    0  0.00000000000E+00  0.00000000000E+00  0.39999999674E+01  0.40000000000E+01  0.51100000000E-03 0. -1.
    9000002   -1    0    0    0    0 -0.00000000000E+00 -0.00000000000E+00  0.00000000000E+00  0.93800000000E+00  0.93800000000E+00 0. -1.
         11    1    1    2    0    0 -0.60123343397E-01  0.18944284886E+00  0.42666834235E+00  0.47069049799E+00  0.51100000000E-03 0. -1.
    9000002    1    1    2    0    0 -0.16878124733E+00 -0.11625649635E+01  0.13137064441E+01  0.19964250612E+01  0.93800000000E+00 0. -1.
         22    1    1    2    0    0  0.22890459072E+00  0.97312211463E+00  0.22596251809E+01  0.24708844408E+01  0.00000000000E+00 0. -1.
</event>
<event>
 5    1  0.1160133E+000  0.1599676E+01  0.7818608E-02  0.3353715E+00
         11   -1    0    0    0    0  0.00000000000E+00  0.00000000000E+00  0.39999999674E+01  0.40000000000E+01  0.51100000000E-03 0. -1.
    9000002   -1    0    0    0    0 -0.00000000000E+00 -0.00000000000E+00  0.00000000000E+00  0.93800000000E+00  0.93800000000E+00 0.  1.
         11    1    1    2    0    0 -0.39233866312E+00  0.38959795885E-01  0.11862094118E+01  0.12500162087E+01  0.51100000000E-03 0. -1.
    9000002    1    1    2    0    0  0.10301219222E+01 -0.10485533108E+00  0.88122688723E+00  0.16518325102E+01  0.93800000000E+00 0.  1.
         22    1    1    2    0    0 -0.63778325912E+00  0.65895535194E-01  0.19325636683E+01  0.20361512811E+01  0.00000000000E+00 0. -1.
</event>
<event>
 5    1  0.1160133E+000  0.1599677E+01  0.7818608E-02  0.3353714E+00
         11   -1    0    0    0    0  0.00000000000E+00  0.00000000000E+00  0.39999999674E+01  0.40000000000E+01  0.51100000000E-03 0. -1.
    9000002   -1    0    0    0    0 -0.00000000000E+00 -0.00000000000E+00  0.00000000000E+00  0.93800000000E+00  0.93800000000E+00 0.  1.
         11    1    1    2    0    0  0.34334588672E+00  0.15032029436E+00  0.62149281312E+00  0.72576591730E+00  0.51100000000E-03 0. -1.
    9000002    1    1    2    0    0 -0.11733580746E+01 -0.51340395404E+00  0.18740955150E+01  0.24561007289E+01  0.93800000000E+00 0.  1.
         22    1    1    2    0    0  0.83001218790E+00  0.36308365967E+00  0.15044116392E+01  0.17561333538E+01  0.00000000000E+00 0. -1.
</event>
<event>
 5    1  0.1160133E+000  0.1457376E+01  0.7818608E-02  0.3524372E+00
         11   -1    0    0    0    0  0.00000000000E+00  0.00000000000E+00  0.39999999674E+01  0.40000000000E+01  0.51100000000E-03 0. -1.
    9000002   -1    0    0    0    0 -0.00000000000E+00 -0.00000000000E+00  0.00000000000E+00  0.93800000000E+00  0.93800000000E+00 0.  1.
         11    1    1    2    0    0  0.26935366733E+00 -0.29357911456E+00  0.35284877785E+00  0.53220542628E+00  0.51100000000E-03 0. -1.
    9000002    1    1    2    0    0  0.14264374874E+00  0.89717513157E+00  0.95912290666E+00  0.16201948049E+01  0.93800000000E+00 0.  1.
         22    1    1    2    0    0 -0.41199741607E+00 -0.60359601701E+00  0.26880282829E+01  0.27855997688E+01  0.00000000000E+00 0. -1.
</event>
<event>
 5    1  0.1160133E+000  0.1599496E+01  0.7818608E-02  0.3353911E+00
         11   -1    0    0    0    0  0.00000000000E+00  0.00000000000E+00  0.39999999674E+01  0.40000000000E+01  0.51100000000E-03 0.  1.
    9000002   -1    0    0    0    0 -0.00000000000E+00 -0.00000000000E+00  0.00000000000E+00  0.93800000000E+00  0.93800000000E+00 0.  1.
         11    1    1    2    0    0  0.26688758808E+00  0.38417193723E+00  0.14033353593E+01  0.14792455691E+01  0.51100000000E-03 0.  1.
    9000002    1    1    2    0    0 -0.60569328052E+00 -0.86819797353E+00  0.93580848275E+00  0.16959403255E+01  0.93800000000E+00 0.  1.
         22    1    1    2    0    0  0.33880569245E+00  0.48402603630E+00  0.16608561253E+01  0.17628141054E+01  0.00000000000E+00 0.  1.
</event>
<event>
 5    1  0.1160133E+000  0.1574636E+01  0.7818608E-02  0.3381361E+00
         11   -1    0    0    0    0  0.00000000000E+00  0.00000000000E+00  0.39999999674E+01  0.40000000000E+01  0.51100000000E-03 0. -1.
    9000002   -1    0    0    0    0 -0.00000000000E+00 -0.00000000000E+00  0.00000000000E+00  0.93800000000E+00  0.93800000000E+00 0. -1.
         11    1    1    2    0    0 -0.77392881943E-01 -0.41582502126E+00  0.71103469347E+00  0.82732744601E+00  0.51100000000E-03 0. -1.
    9000002    1    1    2    0    0  0.10631046501E+00 -0.47122275934E+00  0.46951722065E+00  0.11548347173E+01  0.93800000000E+00 0. -1.
         22    1    1    2    0    0 -0.28917583070E-01  0.88704778060E+00  0.28194480532E+01  0.29558378366E+01  0.00000000000E+00 0. -1.
</event>
<event>
 5    1  0.1160133E+000  0.1567352E+01  0.7818608E-02  0.3389580E+00
         11   -1    0    0    0    0  0.00000000000E+00  0.00000000000E+00  0.39999999674E+01  0.40000000000E+01  0.51100000000E-03 0. -1.
    9000002   -1    0    0    0    0 -0.00000000000E+00 -0.00000000000E+00  0.00000000000E+00  0.93800000000E+00  0.93800000000E+00 0. -1.
         11    1    1    2    0    0 -0.10265932397E-01 -0.55364687540E+00  0.13145568741E+01  0.14264257038E+01  0.51100000000E-03 0. -1.
    9000002    1    1    2    0    0 -0.31331644349E+00  0.93507255618E+00  0.83959063928E+00  0.15991511250E+01  0.93800000000E+00 0. -1.
         22    1    1    2    0    0  0.32358237589E+00 -0.38142568078E+00  0.18458524540E+01  0.19124231712E+01  0.00000000000E+00 0. -1.
</event>
<event>
 5    1  0.1160133E+000  0.1599676E+01  0.7818608E-02  0.3353715E+00
         11   -1    0    0    0    0  0.00000000000E+00  0.00000000000E+00  0.39999999674E+01  0.40000000000E+01  0.51100000000E-03 0. -1.
    9000002   -1    0    0    0    0 -0.00000000000E+00 -0.00000000000E+00  0.00000000000E+00  0.93800000000E+00  0.93800000000E+00 0.  1.
         11    1    1    2    0    0  0.32017788453E+00 -0.21089099314E+00  0.11139365474E+01  0.11780678170E+01  0.51100000000E-03 0. -1.
    9000002    1    1    2    0    0 -0.88169999207E+00  0.57882131698E+00  0.92607438396E+00  0.16881607618E+01  0.93800000000E+00 0.  1.
         22    1    1    2    0    0  0.56152210754E+00 -0.36793032384E+00  0.19599890360E+01  0.20717714212E+01  0.00000000000E+00 0.  1.
</event>
<event>
 5    1  0.1160133E+000  0.1599677E+01  0.7818608E-02  0.3353714E+00
         11   -1    0    0    0    0  0.00000000000E+00  0.00000000000E+00  0.39999999674E+01  0.40000000000E+01  0.51100000000E-03 0. -1.
    9000002   -1    0    0    0    0 -0.00000000000E+00 -0.00000000000E+00  0.00000000000E+00  0.93800000000E+00  0.93800000000E+00 0. -1.
         11    1    1    2    0    0  0.14173504518E+00 -0.35803861256E+00  0.97417583410E+00  0.10475205430E+01  0.51100000000E-03 0. -1.
    9000002    1    1    2    0    0 -0.41594810849E+00  0.10537597942E+01  0.11371063380E+01  0.18591066018E+01  0.93800000000E+00 0. -1.
         22    1    1    2    0    0  0.27421306332E+00 -0.69572118168E+00  0.18887177953E+01  0.20313728552E+01  0.00000000000E+00 0. -1.
</event>
<event>
 5    1  0.1160133E+000  0.1599676E+01  0.7818608E-02  0.3353715E+00
         11   -1    0    0    0    0  0.00000000000E+00  0.00000000000E+00  0.39999999674E+01  0.40000000000E+01  0.51100000000E-03 0.  1.
    9000002   -1    0    0    0    0 -0.00000000000E+00 -0.00000000000E+00  0.00000000000E+00  0.93800000000E+00  0.93800000000E+00 0.  1.
         11    1    1    2    0    0  0.28892434922E+00  0.24897419695E+00  0.13523723149E+01  0.14051251081E+01  0.51100000000E-03 0.  1.
    9000002    1    1    2    0    0 -0.71092012442E+00 -0.60990020742E+00  0.68286885665E+00  0.14911537686E+01  0.93800000000E+00 0.  1.
         22    1    1    2    0    0  0.42199577520E+00  0.36092601047E+00  0.19647587958E+01  0.20417211232E+01  0.00000000000E+00 0.  1.
</event>
<event>
 5    1  0.1160133E+000  0.1599677E+01  0.7818608E-02  0.3353714E+00
         11   -1    0    0    0    0  0.00000000000E+00  0.00000000000E+00  0.39999999674E+01  0.40000000000E+01  0.51100000000E-03 0. -1.
    9000002   -1    0    0    0    0 -0.00000000000E+00 -0.00000000000E+00  0.00000000000E+00  0.93800000000E+00  0.93800000000E+00 0. -1.
         11    1    1    2    0    0  0.31738920447E+00 -0.28766688551E-01  0.11670988358E+01  0.12098278320E+01  0.51100000000E-03 0.  1.
    9000002    1    1    2    0    0 -0.91143350643E+00  0.82569111812E-01  0.64537158800E+00  0.14607796485E+01  0.93800000000E+00 0. -1.
         22    1    1    2    0    0  0.59404430196E+00 -0.53802423261E-01  0.21875295436E+01  0.22673925195E+01  0.00000000000E+00 0. -1.
</event>
<event>
 5    1  0.1160133E+000  0.1598906E+01  0.7818608E-02  0.3354552E+00
         11   -1    0    0    0    0  0.00000000000E+00  0.00000000000E+00  0.39999999674E+01  0.40000000000E+01  0.51100000000E-03 0.  1.
    9000002   -1    0    0    0    0 -0.00000000000E+00 -0.00000000000E+00  0.00000000000E+00  0.93800000000E+00  0.93800000000E+00 0. -1.
         11    1    1    2    0    0  0.15192579936E+00  0.44315718165E+00  0.98919689376E+00  0.10945229517E+01  0.51100000000E-03 0.  1.
    9000002    1    1    2    0    0 -0.39528800825E+00 -0.11133265725E+01  0.13049442742E+01  0.19946107955E+01  0.93800000000E+00 0. -1.
         22    1    1    2    0    0  0.24336220890E+00  0.67016939090E+00  0.17058587994E+01  0.18488662528E+01  0.00000000000E+00 0.  1.
</event>
<event>
 5    1  0.1160133E+000  0.1599677E+01  0.7818608E-02  0.3353714E+00
         11   -1    0    0    0    0  0.00000000000E+00  0.00000000000E+00  0.39999999674E+01  0.40000000000E+01  0.51100000000E-03 0. -1.
    9000002   -1    0    0    0    0 -0.00000000000E+00 -0.00000000000E+00  0.00000000000E+00  0.93800000000E+00  0.93800000000E+00 0. -1.
         11    1    1    2    0    0 -0.29746883546E-01  0.20558331105E+00  0.67595788216E+00  0.70715535383E+00  0.51100000000E-03 0. -1.
    9000002    1    1    2    0    0  0.13943494827E+00 -0.97970684304E+00  0.78318814384E+00  0.15724170159E+01  0.93800000000E+00 0. -1.
         22    1    1    2    0    0 -0.10968806472E+00  0.77412353199E+00  0.25408539414E+01  0.26584276303E+01  0.00000000000E+00 0. -1.
</event>
<event>
 5    1  0.1160133E+000  0.1594227E+01  0.7818608E-02  0.3359653E+00
         11   -1    0    0    0    0  0.00000000000E+00  0.00000000000E+00  0.39999999674E+01  0.40000000000E+01  0.51100000000E-03 0. -1.
    9000002   -1    0    0    0    0 -0.00000000000E+00 -0.00000000000E+00  0.00000000000E+00  0.93800000000E+00  0.93800000000E+00 0. -1.
         11    1    1    2    0    0  0.16590465151E-01  0.66551500308E-01  0.87873867488E-01  0.11147386885E+00  0.51100000000E-03 0. -1.
    9000002    1    1    2    0    0 -0.36327943108E+00 -0.10558848114E+01  0.11039238369E+01  0.18290315792E+01  0.93800000000E+00 0. -1.
         22    1    1    2    0    0  0.34668896593E+00  0.98933331105E+00  0.28082022630E+01  0.29974945520E+01  0.00000000000E+00 0. -1.
</event>
<event>
 5    1  0.1160133E+000  0.1599668E+01  0.7818608E-02  0.3353723E+00
         11   -1    0    0    0    0  0.00000000000E+00  0.00000000000E+00  0.39999999674E+01  0.40000000000E+01  0.51100000000E-03 0. -1.
    9000002   -1    0    0    0    0 -0.00000000000E+00 -0.00000000000E+00  0.00000000000E+00  0.93800000000E+00  0.93800000000E+00 0.  1.
         11    1    1    2    0    0  0.15756097768E-01  0.39654810656E-02  0.48320859124E-01  0.50981822294E-01  0.51100000000E-03 0. -1.
    9000002    1    1    2    0    0 -0.10381740594E+01 -0.25766555344E+00  0.96259526320E+00  0.17177399558E+01  0.93800000000E+00 0.  1.
         22    1    1    2    0    0  0.10224179617E+01  0.25370007237E+00  0.29890838450E+01  0.31692782219E+01  0.00000000000E+00 0. -1.
</event>
<event>
 5    1  0.1160133E+000  0.1599507E+01  0.7818608E-02  0.3353898E+00
         11   -1    0    0    0    0  0.00000000000E+00  0.00000000000E+00  0.39999999674E+01  0.40000000000E+01  0.51100000000E-03 0.  1.
    9000002   -1    0    0    0    0 -0.00000000000E+00 -0.00000000000E+00  0.00000000000E+00  0.93800000000E+00  0.93800000000E+00 0.  1.
         11    1    1    2    0    0 -0.94498792879E-01  0.11937001310E+00  0.23396456096E+00  0.27913956866E+00  0.51100000000E-03 0.  1.
    9000002    1    1    2    0    0  0.77846027451E+00 -0.10350900225E+01  0.21513755572E+01  0.26806104793E+01  0.93800000000E+00 0.  1.
         22    1    1    2    0    0 -0.68396148163E+00  0.91572000944E+00  0.16146598492E+01  0.19782499520E+01  0.00000000000E+00 0.  1.
</event>
<event>
 5    1  0.1160133E+000  0.1454890E+01  0.7818608E-02  0.3527673E+00
         11   -1    0    0    0    0  0.00000000000E+00  0.00000000000E+00  0.39999999674E+01  0.40000000000E+01  0.51100000000E-03 0.  1.
    9000002   -1    0    0    0    0 -0.00000000000E+00 -0.00000000000E+00  0.00000000000E+00  0.93800000000E+00  0.93800000000E+00 0. -1.
         11    1    1    2    0    0 -0.21176447882E+00  0.31747051160E-01  0.13530034225E+01  0.13698432728E+01  0.51100000000E-03 0.  1.
    9000002    1    1    2    0    0 -0.65386457757E+00  0.11023470910E+00  0.50751228790E+00  0.12558277347E+01  0.93800000000E+00 0. -1.
         22    1    1    2    0    0  0.86562905639E+00 -0.14198176026E+00  0.21394842570E+01  0.23123289924E+01  0.00000000000E+00 0.  1.
</event>
<event>
 5    1  0.1160133E+000  0.1599655E+01  0.7818608E-02  0.3353738E+00
         11   -1    0    0    0    0  0.00000000000E+00  0.00000000000E+00  0.39999999674E+01  0.40000000000E+01  0.51100000000E-03 0.  1.
    9000002   -1    0    0    0    0 -0.00000000000E+00 -0.00000000000E+00  0.00000000000E+00  0.93800000000E+00  0.93800000000E+00 0.  1.
         11    1    1    2    0    0  0.20445791192E+00 -0.38584122318E+00  0.13949306681E+01  0.14616799640E+01  0.51100000000E-03 0.  1.
    9000002    1    1    2    0    0 -0.48006903254E+00  0.87938042670E+00  0.80843325393E+00  0.15928542108E+01  0.93800000000E+00 0.  1.
         22    1    1    2    0    0  0.27561112062E+00 -0.49353920352E+00  0.17966360454E+01  0.18834658252E+01  0.00000000000E+00 0.  1.
</event>
<event>
 5    1  0.1160133E+000  0.1599676E+01  0.7818608E-02  0.3353715E+00
         11   -1    0    0    0    0  0.00000000000E+00  0.00000000000E+00  0.39999999674E+01  0.40000000000E+01  0.51100000000E-03 0.  1.
    9000002   -1    0    0    0    0 -0.00000000000E+00 -0.00000000000E+00  0.00000000000E+00  0.93800000000E+00  0.93800000000E+00 0.  1.
         11    1    1    2    0    0  0.85395226198E-01 -0.12657475261E+00  0.49628227365E+00  0.51923970275E+00  0.51100000000E-03 0.  1.
    9000002    1    1    2    0    0 -0.55502677914E+00  0.81732770532E+00  0.77994258276E+00  0.15697877996E+01  0.93800000000E+00 0.  1.
         22    1    1    2    0    0  0.46963155294E+00 -0.69075295270E+00  0.27237751110E+01  0.28489724976E+01  0.00000000000E+00 0.  1.
</event>
<event>
 5    1  0.1160133E+000  0.1467911E+01  0.7818608E-02  0.3510515E+00
         11   -1    0    0    0    0  0.00000000000E+00  0.00000000000E+00  0.39999999674E+01  0.40000000000E+01  0.51100000000E-03 0. -1.
    9000002   -1    0    0    0    0 -0.00000000000E+00 -0.00000000000E+00  0.00000000000E+00  0.93800000000E+00  0.93800000000E+00 0.  1.
         11    1    1    2    0    0  0.52948827974E+00 -0.12254014359E+00  0.56890083560E+00  0.78677973222E+00  0.51100000000E-03 0. -1.
    9000002    1    1    2    0    0 -0.82013015173E+00 -0.57039989511E+00  0.12896337300E+01  0.18817461741E+01  0.93800000000E+00 0.  1.
         22    1    1    2    0    0  0.29064187199E+00  0.69294003870E+00  0.21414654018E+01  0.22694740937E+01  0.00000000000E+00 0. -1.
</event>
<event>
 5    1  0.1160133E+000  0.1598787E+01  0.7818608E-02  0.3354681E+00
         11   -1    0    0    0    0  0.00000000000E+00  0.00000000000E+00  0.39999999674E+01  0.40000000000E+01  0.51100000000E-03 0.  1.
    9000002   -1    0    0    0    0 -0.00000000000E+00 -0.00000000000E+00  0.00000000000E+00  0.93800000000E+00  0.93800000000E+00 0.  1.
         11    1    1    2    0    0  0.42973504838E-01  0.18199161805E+00  0.53189164464E+00  0.56380551072E+00  0.51100000000E-03 0.  1.
    9000002    1    1    2    0    0 -0.11051248907E+00 -0.10087973878E+01  0.83753556456E+00  0.16159192436E+01  0.93800000000E+00 0.  1.
         22    1    1    2    0    0  0.67538984236E-01  0.82680576971E+00  0.26305727582E+01  0.27582752457E+01  0.00000000000E+00 0.  1.
</event>
<event>
 5    1  0.1160133E+000  0.1594782E+01  0.7818608E-02  0.3359046E+00
         11   -1    0    0    0    0  0.00000000000E+00  0.00000000000E+00  0.39999999674E+01  0.40000000000E+01  0.51100000000E-03 0.  1.
    9000002   -1    0    0    0    0 -0.00000000000E+00 -0.00000000000E+00  0.00000000000E+00  0.93800000000E+00  0.93800000000E+00 0.  1.
         11    1    1    2    0    0  0.20922035053E+00  0.12123500709E+00  0.11054613483E+01  0.11315989288E+01  0.51100000000E-03 0.  1.
    9000002    1    1    2    0    0 -0.82483380792E+00 -0.48896667960E+00  0.73207015225E+00  0.15281393694E+01  0.93800000000E+00 0.  1.
         22    1    1    2    0    0  0.61561345738E+00  0.36773167251E+00  0.21624684668E+01  0.22782617018E+01  0.00000000000E+00 0. -1.
</event>
<event>
 5    1  0.1160133E+000  0.1554801E+01  0.7818608E-02  0.3403930E+00
         11   -1    0    0    0    0  0.00000000000E+00  0.00000000000E+00  0.39999999674E+01  0.40000000000E+01  0.51100000000E-03 0.  1.
    9000002   -1    0    0    0    0 -0.00000000000E+00 -0.00000000000E+00  0.00000000000E+00  0.93800000000E+00  0.93800000000E+00 0.  1.
         11    1    1    2    0    0  0.19387116565E-01 -0.26553355091E+00  0.96424653389E+00  0.10003277294E+01  0.51100000000E-03 0.  1.
    9000002    1    1    2    0    0  0.64314333258E+00  0.54850745990E+00  0.60069150749E+00  0.13982732447E+01  0.93800000000E+00 0.  1.
         22    1    1    2    0    0 -0.66253044914E+00 -0.28297390898E+00  0.24350619260E+01  0.25393990259E+01  0.00000000000E+00 0.  1.
</event>
<event>
 5    1  0.1160133E+000  0.1599461E+01  0.7818608E-02  0.3353949E+00
         11   -1    0    0    0    0  0.00000000000E+00  0.00000000000E+00  0.39999999674E+01  0.40000000000E+01  0.51100000000E-03 0.  1.
    9000002   -1    0    0    0    0 -0.00000000000E+00 -0.00000000000E+00  0.00000000000E+00  0.93800000000E+00  0.93800000000E+00 0. -1.
         11    1    1    2    0    0 -0.52374484412E-01  0.36836565993E+00  0.11707492811E+01  0.12284504411E+01  0.51100000000E-03 0.  1.
    9000002    1    1    2    0    0  0.17213304922E+00 -0.10179116924E+01  0.87472395151E+00  0.16464385781E+01  0.93800000000E+00 0. -1.
         22    1    1    2    0    0 -0.11975856481E+00  0.64954603243E+00  0.19545267348E+01  0.20631109808E+01  0.00000000000E+00 0.  1.
</event>
<event>
 5    1  0.1160133E+000  0.1599555E+01  0.7818608E-02  0.3353847E+00
         11   -1    0    0    0    0  0.00000000000E+00  0.00000000000E+00  0.39999999674E+01  0.40000000000E+01  0.51100000000E-03 0. -1.
    9000002   -1    0    0    0    0 -0.00000000000E+00 -0.00000000000E+00  0.00000000000E+00  0.93800000000E+00  0.93800000000E+00 0. -1.
         11    1    1    2    0    0 -0.55527332530E-01  0.66861959366E-01  0.26015192285E+00  0.27428651143E+00  0.51100000000E-03 0. -1.
    9000002    1    1    2    0    0  0.71220027226E+00 -0.73016479035E+00  0.84713910024E+00  0.16241485474E+01  0.93800000000E+00 0. -1.
         22    1    1    2    0    0 -0.65667293973E+00  0.66330283098E+00  0.28927089443E+01  0.30395649412E+01  0.00000000000E+00 0. -1.
</event>
<event>
 5    1  0.1160133E+000  0.1599483E+01  0.7818608E-02  0.3353924E+00
         11   -1    0    0    0    0  0.00000000000E+00  0.00000000000E+00  0.39999999674E+01  0.40000000000E+01  0.51100000000E-03 0. -1.
    9000002   -1    0    0    0    0 -0.00000000000E+00 -0.00000000000E+00  0.00000000000E+00  0.93800000000E+00  0.93800000000E+00 0. -1.
         11    1    1    2    0    0  0.10100600444E-01 -0.44720049629E+00  0.14224161911E+01  0.14910930179E+01  0.51100000000E-03 0. -1.
    9000002    1    1    2    0    0 -0.53670219837E-02  0.10233031046E+01  0.85457081005E+00  0.16301267798E+01  0.93800000000E+00 0. -1.
         22    1    1    2    0    0 -0.47335784607E-02 -0.57610260829E+00  0.17230129662E+01  0.18167802024E+01  0.00000000000E+00 0. -1.
</event>
<event>
 5    1  0.1160133E+000  0.1563032E+01  0.7818608E-02  0.3394491E+00
         11   -1    0    0    0    0  0.00000000000E+00  0.00000000000E+00  0.39999999674E+01  0.40000000000E+01  0.51100000000E-03 0.  1.
    9000002   -1    0    0    0    0 -0.00000000000E+00 -0.00000000000E+00  0.00000000000E+00  0.93800000000E+00  0.93800000000E+00 0. -1.
         11    1    1    2    0    0  0.22540928893E+00  0.34762194836E+00  0.59652046500E+00  0.72628320427E+00  0.51100000000E-03 0.  1.
    9000002    1    1    2    0    0 -0.73881302541E-01  0.44327990023E+00  0.42038373226E+00  0.11218386690E+01  0.93800000000E+00 0. -1.
         22    1    1    2    0    0 -0.15152798639E+00 -0.79090184859E+00  0.29830957701E+01  0.30898781268E+01  0.00000000000E+00 0.  1.
</event>
<event>
 5    1  0.1160133E+000  0.1599670E+01  0.7818608E-02  0.3353722E+00
         11   -1    0    0    0    0  0.00000000000E+00  0.00000000000E+00  0.39999999674E+01  0.40000000000E+01  0.51100000000E-03 0. -1.
    9000002   -1    0    0    0    0 -0.00000000000E+00 -0.00000000000E+00  0.00000000000E+00  0.93800000000E+00  0.93800000000E+00 0.  1.
         11    1    1    2    0    0 -0.21724931199E+00  0.26403519486E+00  0.12249674908E+01  0.12717930108E+01  0.51100000000E-03 0. -1.
    9000002    1    1    2    0    0  0.59808888431E+00 -0.71529154228E+00  0.67524839801E+00  0.14849770042E+01  0.93800000000E+00 0.  1.
         22    1    1    2    0    0 -0.38083957232E+00  0.45125634742E+00  0.20997840785E+01  0.21812299850E+01  0.00000000000E+00 0. -1.
</event>
<event>
 5    1  0.1160133E+000  0.1597564E+01  0.7818608E-02  0.3356012E+00
         11   -1    0    0    0    0  0.00000000000E+00  0.00000000000E+00  0.39999999674E+01  0.40000000000E+01  0.51100000000E-03 0.  1.
    9000002   -1    0    0    0    0 -0.00000000000E+00 -0.00000000000E+00  0.00000000000E+00  0.93800000000E+00  0.93800000000E+00 0. -1.
         11    1    1    2    0    0  0.39838673689E+00  0.24551872818E+00  0.99009452665E+00  0.10951159166E+01  0.51100000000E-03 0.  1.
    9000002    1    1    2    0    0 -0.10787680897E+01 -0.51143274836E+00  0.13592886744E+01  0.20378453690E+01  0.93800000000E+00 0. -1.
         22    1    1    2    0    0  0.68038135280E+00  0.26591402018E+00  0.16506167663E+01  0.18050387144E+01  0.00000000000E+00 0.  1.
</event>
<event>
 5    1  0.1160133E+000  0.1599609E+01  0.7818608E-02  0.3353787E+00
         11   -1    0    0    0    0  0.00000000000E+00  0.00000000000E+00  0.39999999674E+01  0.40000000000E+01  0.51100000000E-03 0.  1.
    9000002   -1    0    0    0    0 -0.00000000000E+00 -0.00000000000E+00  0.00000000000E+00  0.93800000000E+00  0.93800000000E+00 0.  1.
         11    1    1    2    0    0 -0.10620339703E+00  0.12414672739E+00  0.47664320711E+00  0.50386563632E+00  0.51100000000E-03 0.  1.
    9000002    1    1    2    0    0  0.64981798859E+00 -0.80204547780E+00  0.87415714388E+00  0.16460665476E+01  0.93800000000E+00 0.  1.
         22    1    1    2    0    0 -0.54361459157E+00  0.67789875041E+00  0.26491996164E+01  0.27880678161E+01  0.00000000000E+00 0.  1.
</event>
<event>
 5    1  0.1160133E+000  0.1599309E+01  0.7818608E-02  0.3354114E+00
         11   -1    0    0    0    0  0.00000000000E+00  0.00000000000E+00  0.39999999674E+01  0.40000000000E+01  0.51100000000E-03 0.  1.
    9000002   -1    0    0    0    0 -0.00000000000E+00 -0.00000000000E+00  0.00000000000E+00  0.93800000000E+00  0.93800000000E+00 0. -1.
         11    1    1    2    0    0 -0.35269201945E+00 -0.54453985110E-01  0.10792465042E+01  0.11367190396E+01  0.51100000000E-03 0.  1.
    9000002    1    1    2    0    0  0.10581620379E+01  0.15573691296E+00  0.96316502773E+00  0.17179906155E+01  0.93800000000E+00 0.  1.
         22    1    1    2    0    0 -0.70547001842E+00 -0.10128292785E+00  0.19575884354E+01  0.20832903448E+01  0.00000000000E+00 0.  1.
</event>
<event>
 5    1  0.1160133E+000  0.1599661E+01  0.7818608E-02  0.3353731E+00
         11   -1    0    0    0    0  0.00000000000E+00  0.00000000000E+00  0.39999999674E+01  0.40000000000E+01  0.51100000000E-03 0.  1.
    9000002   -1    0    0    0    0 -0.00000000000E+00 -0.00000000000E+00  0.00000000000E+00  0.93800000000E+00  0.93800000000E+00 0.  1.
         11    1    1    2    0    0  0.87874281462E-02  0.99532157477E-01  0.28266059095E+00  0.29980183465E+00  0.51100000000E-03 0.  1.
    9000002    1    1    2    0    0 -0.10815763219E+00 -0.10517728589E+01  0.93234765050E+00  0.16932336996E+01  0.93800000000E+00 0.  1.
         22    1    1    2    0    0  0.99370204043E-01  0.95224070145E+00  0.27849917259E+01  0.29449644657E+01  0.00000000000E+00 0.  1.
</event>
<event>
 5    1  0.1160133E+000  0.1597814E+01  0.7818608E-02  0.3355740E+00
         11   -1    0    0    0    0  0.00000000000E+00  0.00000000000E+00  0.39999999674E+01  0.40000000000E+01  0.51100000000E-03 0.  1.
    9000002   -1    0    0    0    0 -0.00000000000E+00 -0.00000000000E+00  0.00000000000E+00  0.93800000000E+00  0.93800000000E+00 0.  1.
         11    1    1    2    0    0 -0.21159430071E+00  0.15261560489E+00  0.75097676633E+00  0.79500316706E+00  0.51100000000E-03 0.  1.
    9000002    1    1    2    0    0  0.98443155740E+00 -0.51235283743E+00  0.10740774443E+01  0.18069580177E+01  0.93800000000E+00 0.  1.
         22    1    1    2    0    0 -0.77283725669E+00  0.35973723254E+00  0.21749457567E+01  0.23360388153E+01  0.00000000000E+00 0.  1.
</event>
<event>
 5    1  0.1160133E+000  0.1599578E+01  0.7818608E-02  0.3353822E+00
         11   -1    0    0    0    0  0.00000000000E+00  0.00000000000E+00  0.39999999674E+01  0.40000000000E+01  0.51100000000E-03 0.  1.
    9000002   -1    0    0    0    0 -0.00000000000E+00 -0.00000000000E+00  0.00000000000E+00  0.93800000000E+00  0.93800000000E+00 0.  1.
         11    1    1    2    0    0  0.28312658557E+00 -0.31090455278E+00  0.92059407727E+00  0.10120849869E+01  0.51100000000E-03 0.  1.
    9000002    1    1    2    0    0 -0.81137318520E+00  0.89926210011E+00  0.14248810035E+01  0.20921588478E+01  0.93800000000E+00 0.  1.
         22    1    1    2    0    0  0.52824659962E+00 -0.58835754734E+00  0.16545248866E+01  0.18337561653E+01  0.00000000000E+00 0.  1.
</event>
<event>
 5    1  0.1160133E+000  0.1457677E+01  0.7818608E-02  0.3523974E+00
         11   -1    0    0    0    0  0.00000000000E+00  0.00000000000E+00  0.39999999674E+01  0.40000000000E+01  0.51100000000E-03 0. -1.
    9000002   -1    0    0    0    0 -0.00000000000E+00 -0.00000000000E+00  0.00000000000E+00  0.93800000000E+00  0.93800000000E+00 0. -1.
         11    1    1    2    0    0 -0.25807909806E+00 -0.10636300990E+00  0.11268826593E+01  0.11609404376E+01  0.51100000000E-03 0. -1.
    9000002    1    1    2    0    0 -0.59501211694E+00  0.13836578629E+00  0.44736603652E+00  0.12054728868E+01  0.93800000000E+00 0. -1.
         22    1    1    2    0    0  0.85309121500E+00 -0.32002776391E-01  0.24257512716E+01  0.25715866756E+01  0.00000000000E+00 0. -1.
</event>
<event>
 5    1  0.1160133E+000  0.1569609E+01  0.7818608E-02  0.3387024E+00
         11   -1    0    0    0    0  0.00000000000E+00  0.00000000000E+00  0.39999999674E+01  0.40000000000E+01  0.51100000000E-03 0.  1.
    9000002   -1    0    0    0    0 -0.00000000000E+00 -0.00000000000E+00  0.00000000000E+00  0.93800000000E+00  0.93800000000E+00 0.  1.
         11    1    1    2    0    0 -0.20130454651E+00 -0.17340706504E+00  0.13164846455E+00  0.29652168553E+00  0.51100000000E-03 0.  1.
    9000002    1    1    2    0    0  0.91163113164E+00  0.86638986497E+00  0.22470049524E+01  0.27405433721E+01  0.93800000000E+00 0.  1.
         22    1    1    2    0    0 -0.71032658513E+00 -0.69298279993E+00  0.16213465504E+01  0.19009349424E+01  0.00000000000E+00 0.  1.
</event>
<event>
 5    1  0.1160133E+000  0.1599304E+01  0.7818608E-02  0.3354119E+00
         11   -1    0    0    0    0  0.00000000000E+00  0.00000000000E+00  0.39999999674E+01  0.40000000000E+01  0.51100000000E-03 0.  1.
    9000002   -1    0    0    0    0 -0.00000000000E+00 -0.00000000000E+00  0.00000000000E+00  0.93800000000E+00  0.93800000000E+00 0.  1.
         11    1    1    2    0    0  0.14101573324E+00  0.11032560603E+00  0.68636363579E+00  0.70933241715E+00  0.51100000000E-03 0.  1.
    9000002    1    1    2    0    0 -0.69298936235E+00 -0.62610871420E+00  0.67859953199E+00  0.14874769589E+01  0.93800000000E+00 0.  1.
         22    1    1    2    0    0  0.55197362910E+00  0.51578310817E+00  0.26350367996E+01  0.27411906240E+01  0.00000000000E+00 0.  1.
</event>
<event>
 5    1  0.1160133E+000  0.1599297E+01  0.7818608E-02  0.3354127E+00
         11   -1    0    0    0    0  0.00000000000E+00  0.00000000000E+00  0.39999999674E+01  0.40000000000E+01  0.51100000000E-03 0.  1.
    9000002   -1    0    0    0    0 -0.00000000000E+00 -0.00000000000E+00  0.00000000000E+00  0.93800000000E+00  0.93800000000E+00 0. -1.
         11    1    1    2    0    0  0.11719282105E+00  0.23853392869E+00  0.99227547598E+00  0.10272504436E+01  0.51100000000E-03 0.  1.
    9000002    1    1    2    0    0 -0.34314006127E+00 -0.85470385959E+00  0.65599490271E+00  0.14691620406E+01  0.93800000000E+00 0. -1.
         22    1    1    2    0    0  0.22594724023E+00  0.61616993090E+00  0.23517295887E+01  0.24415875158E+01  0.00000000000E+00 0.  1.
</event>
<event>
 5    1  0.1160133E+000  0.1599482E+01  0.7818608E-02  0.3353926E+00
         11   -1    0    0    0    0  0.00000000000E+00  0.00000000000E+00  0.39999999674E+01  0.40000000000E+01  0.51100000000E-03 0.  1.
    9000002   -1    0    0    0    0 -0.00000000000E+00 -0.00000000000E+00  0.00000000000E+00  0.93800000000E+00  0.93800000000E+00 0. -1.
         11    1    1    2    0    0  0.27918111803E+00 -0.34899374439E+00  0.66551420242E+00  0.80165338210E+00  0.51100000000E-03 0.  1.
    9000002    1    1    2    0    0 -0.77188681248E+00  0.10380108248E+01  0.20863762132E+01  0.26279431932E+01  0.93800000000E+00 0.  1.
         22    1    1    2    0    0  0.49270569445E+00 -0.68901708043E+00  0.12481095518E+01  0.15084034247E+01  0.00000000000E+00 0. -1.
</event>
<event>
 5    1  0.1160133E+000  0.1092262E+01  0.7818608E-02  0.4277091E+00
         11   -1    0    0    0    0  0.00000000000E+00  0.00000000000E+00  0.39999999674E+01  0.40000000000E+01  0.51100000000E-03 0.  1.
    9000002   -1    0    0    0    0 -0.00000000000E+00 -0.00000000000E+00  0.00000000000E+00  0.93800000000E+00  0.93800000000E+00 0.  1.
         11    1    1    2    0    0 -0.75549760992E+00 -0.12688981248E-01  0.86521414318E+00  0.11487094600E+01  0.51100000000E-03 0.  1.
    9000002    1    1    2    0    0 -0.21296856548E+00  0.16129354221E-01  0.76451308461E+00  0.12287961680E+01  0.93800000000E+00 0.  1.
         22    1    1    2    0    0  0.96846617539E+00 -0.34403729732E-02  0.23702727396E+01  0.25604943720E+01  0.00000000000E+00 0.  1.
</event>
<event>
 5    1  0.1160133E+000  0.1599293E+01  0.7818608E-02  0.3354131E+00
         11   -1    0    0    0    0  0.00000000000E+00  0.00000000000E+00  0.39999999674E+01  0.40000000000E+01  0.51100000000E-03 0.  1.
    9000002   -1    0    0    0    0 -0.00000000000E+00 -0.00000000000E+00  0.00000000000E+00  0.93800000000E+00  0.93800000000E+00 0.  1.
         11    1    1    2    0    0  0.29335881729E+00  0.52634202313E-01  0.78884330383E+00  0.84326969236E+00  0.51100000000E-03 0.  1.
    9000002    1    1    2    0    0 -0.10638101054E+01 -0.26619137292E+00  0.10335600388E+01  0.17750042651E+01  0.93800000000E+00 0.  1.
         22    1    1    2    0    0  0.77045128810E+00  0.21355717061E+00  0.21775966247E+01  0.23197260425E+01  0.00000000000E+00 0.  1.
</event>
<event>
 5    1  0.1160133E+000  0.1599675E+01  0.7818608E-02  0.3353716E+00
         11   -1    0    0    0    0  0.00000000000E+00  0.00000000000E+00  0.39999999674E+01  0.40000000000E+01  0.51100000000E-03 0. -1.
    9000002   -1    0    0    0    0 -0.00000000000E+00 -0.00000000000E+00  0.00000000000E+00  0.93800000000E+00  0.93800000000E+00 0.  1.
         11    1    1    2    0    0 -0.18022454906E+00  0.50593520326E+00  0.77134665136E+00  0.93990809958E+00  0.51100000000E-03 0. -1.
    9000002    1    1    2    0    0  0.43134503788E+00 -0.12211295993E+01  0.21355621353E+01  0.26678991124E+01  0.93800000000E+00 0.  1.
         22    1    1    2    0    0 -0.25112048882E+00  0.71519439605E+00  0.10930911807E+01  0.13301927881E+01  0.00000000000E+00 0. -1.
</event>
<event>
 5    1  0.1160133E+000  0.1599673E+01  0.7818608E-02  0.3353718E+00
         11   -1    0    0    0    0  0.00000000000E+00  0.00000000000E+00  0.39999999674E+01  0.40000000000E+01  0.51100000000E-03 0. -1.
    9000002   -1    0    0    0    0 -0.00000000000E+00 -0.00000000000E+00  0.00000000000E+00  0.93800000000E+00  0.93800000000E+00 0.  1.
         11    1    1    2    0    0  0.29243390352E+00 -0.98662671695E-01  0.11202680166E+01  0.11620037009E+01  0.51100000000E-03 0. -1.
    9000002    1    1    2    0    0 -0.87044024722E+00  0.28986525002E+00  0.64924841385E+00  0.14639178905E+01  0.93800000000E+00 0.  1.
         22    1    1    2    0    0  0.57800634370E+00 -0.19120257833E+00  0.22304835369E+01  0.23120784087E+01  0.00000000000E+00 0. -1.
</event>
<event>
 5    1  0.1160133E+000  0.1599655E+01  0.7818608E-02  0.3353738E+00
         11   -1    0    0    0    0  0.00000000000E+00  0.00000000000E+00  0.39999999674E+01  0.40000000000E+01  0.51100000000E-03 0. -1.
    9000002   -1    0    0    0    0 -0.00000000000E+00 -0.00000000000E+00  0.00000000000E+00  0.93800000000E+00  0.93800000000E+00 0. -1.
         11    1    1    2    0    0  0.22944229571E+00  0.98891692157E-01  0.89911706959E+00  0.93318545841E+00  0.51100000000E-03 0. -1.
    9000002    1    1    2    0    0 -0.83727429749E+00 -0.37529150674E+00  0.64944907519E+00  0.14640696929E+01  0.93800000000E+00 0. -1.
         22    1    1    2    0    0  0.60783200178E+00  0.27639981458E+00  0.24514338226E+01  0.25407448487E+01  0.00000000000E+00 0. -1.
</event>
<event>
 5    1  0.1160133E+000  0.1534930E+01  0.7818608E-02  0.3427165E+00
         11   -1    0    0    0    0  0.00000000000E+00  0.00000000000E+00  0.39999999674E+01  0.40000000000E+01  0.51100000000E-03 0.  1.
    9000002   -1    0    0    0    0 -0.00000000000E+00 -0.00000000000E+00  0.00000000000E+00  0.93800000000E+00  0.93800000000E+00 0. -1.
         11    1    1    2    0    0 -0.10841257361E+00  0.89577146365E-01  0.34841782181E+00  0.37572941187E+00  0.51100000000E-03 0.  1.
    9000002    1    1    2    0    0 -0.72568240709E+00 -0.51138941419E+00  0.70584463373E+00  0.14717998287E+01  0.93800000000E+00 0. -1.
         22    1    1    2    0    0  0.83409498070E+00  0.42181226782E+00  0.29457375118E+01  0.30904707594E+01  0.00000000000E+00 0.  1.
</event>
<event>
 5    1  0.1160133E+000  0.1599632E+01  0.7818608E-02  0.3353763E+00
         11   -1    0    0    0    0  0.00000000000E+00  0.00000000000E+00  0.39999999674E+01  0.40000000000E+01  0.51100000000E-03 0.  1.
    9000002   -1    0    0    0    0 -0.00000000000E+00 -0.00000000000E+00  0.00000000000E+00  0.93800000000E+00  0.93800000000E+00 0. -1.
         11    1    1    2    0    0  0.23226259959E-03 -0.13075271305E-02  0.68374533910E-02  0.69839432262E-02  0.51100000000E-03 0. -1.
    9000002    1    1    2    0    0 -0.17388169181E+00  0.89752086157E+00  0.64381775993E+00  0.14594943808E+01  0.93800000000E+00 0. -1.
         22    1    1    2    0    0  0.17364942921E+00 -0.89621333444E+00  0.33493447540E+01  0.34715216759E+01  0.00000000000E+00 0.  1.
</event>
<event>
 5    1  0.1160133E+000  0.1599676E+01  0.7818608E-02  0.3353715E+00
         11   -1    0    0    0    0  0.00000000000E+00  0.00000000000E+00  0.39999999674E+01  0.40000000000E+01  0.51100000000E-03 0.  1.
    9000002   -1    0    0    0    0 -0.00000000000E+00 -0.00000000000E+00  0.00000000000E+00  0.93800000000E+00  0.93800000000E+00 0.  1.
         11    1    1    2    0    0 -0.42471056866E-01 -0.46233117880E-02  0.11703057990E+00  0.12458564699E+00  0.51100000000E-03 0. -1.
    9000002    1    1    2    0    0  0.10822210494E+01  0.11999459851E+00  0.10118220729E+01  0.17576202692E+01  0.93800000000E+00 0.  1.
         22    1    1    2    0    0 -0.10397499925E+01 -0.11537128672E+00  0.28711473146E+01  0.30557940838E+01  0.00000000000E+00 0.  1.
</event>
<event>
 5    1  0.1160133E+000  0.1599646E+01  0.7818608E-02  0.3353748E+00
         11   -1    0    0    0    0  0.00000000000E+00  0.00000000000E+00  0.39999999674E+01  0.40000000000E+01  0.51100000000E-03 0. -1.
    9000002   -1    0    0    0    0 -0.00000000000E+00 -0.00000000000E+00  0.00000000000E+00  0.93800000000E+00  0.93800000000E+00 0. -1.
         11    1    1    2    0    0 -0.61379576734E+00 -0.78177218921E-01  0.12410646661E+01  0.13867583381E+01  0.51100000000E-03 0. -1.
    9000002    1    1    2    0    0  0.12253003609E+01  0.16265618926E+00  0.15466950715E+01  0.21908737194E+01  0.93800000000E+00 0. -1.
         22    1    1    2    0    0 -0.61150459357E+00 -0.84478970334E-01  0.12122402297E+01  0.13603679425E+01  0.00000000000E+00 0.  1.
</event>
<event>
 5    1  0.1160133E+000  0.1599296E+01  0.7818608E-02  0.3354127E+00
         11   -1    0    0    0    0  0.00000000000E+00  0.00000000000E+00  0.39999999674E+01  0.40000000000E+01  0.51100000000E-03 0.  1.
    9000002   -1    0    0    0    0 -0.00000000000E+00 -0.00000000000E+00  0.00000000000E+00  0.93800000000E+00  0.93800000000E+00 0.  1.
         11    1    1    2    0    0  0.10116846790E+00  0.35960771782E+00  0.88723321486E+00  0.96267118389E+00  0.51100000000E-03 0.  1.
    9000002    1    1    2    0    0 -0.24959777483E+00 -0.11264847284E+01  0.12052861558E+01  0.19141122250E+01  0.93800000000E+00 0.  1.
         22    1    1    2    0    0  0.14842930693E+00  0.76687701063E+00  0.19074805967E+01  0.20612165911E+01  0.00000000000E+00 0.  1.
</event>
<event>
 5    1  0.1160133E+000  0.1592261E+01  0.7818608E-02  0.3361806E+00
         11   -1    0    0    0    0  0.00000000000E+00  0.00000000000E+00  0.39999999674E+01  0.40000000000E+01  0.51100000000E-03 0.  1.
    9000002   -1    0    0    0    0 -0.00000000000E+00 -0.00000000000E+00  0.00000000000E+00  0.93800000000E+00  0.93800000000E+00 0.  1.
         11    1    1    2    0    0  0.46003671499E+00 -0.10925558804E+00  0.69026717814E+00  0.83668369232E+00  0.51100000000E-03 0.  1.
    9000002    1    1    2    0    0  0.16719346000E+00 -0.40886122842E+00  0.45379992469E+00  0.11317683194E+01  0.93800000000E+00 0.  1.
         22    1    1    2    0    0 -0.62723017499E+00  0.51811681647E+00  0.28559328645E+01  0.29695479883E+01  0.00000000000E+00 0.  1.
</event>
<event>
 5    1  0.1160133E+000  0.1599677E+01  0.7818608E-02  0.3353714E+00
         11   -1    0    0    0    0  0.00000000000E+00  0.00000000000E+00  0.39999999674E+01  0.40000000000E+01  0.51100000000E-03 0. -1.
    9000002   -1    0    0    0    0 -0.00000000000E+00 -0.00000000000E+00  0.00000000000E+00  0.93800000000E+00  0.93800000000E+00 0.  1.
         11    1    1    2    0    0  0.39889101892E+00 -0.27526914979E+00  0.90786218315E+00  0.10291264036E+01  0.51100000000E-03 0. -1.
    9000002    1    1    2    0    0 -0.10311843716E+01  0.71290986584E+00  0.16506280493E+01  0.22750821177E+01  0.93800000000E+00 0.  1.
         22    1    1    2    0    0  0.63229335270E+00 -0.43764071605E+00  0.14415097349E+01  0.16337914787E+01  0.00000000000E+00 0.  1.
</event>
<event>
 5    1  0.1160133E+000  0.1549142E+01  0.7818608E-02  0.3410482E+00
         11   -1    0    0    0    0  0.00000000000E+00  0.00000000000E+00  0.39999999674E+01  0.40000000000E+01  0.51100000000E-03 0.  1.
    9000002   -1    0    0    0    0 -0.00000000000E+00 -0.00000000000E+00  0.00000000000E+00  0.93800000000E+00  0.93800000000E+00 0. -1.
         11    1    1    2    0    0 -0.20678144726E+00 -0.96687197040E-01  0.22731273203E+00  0.32214642675E+00  0.51100000000E-03 0.  1.
    9000002    1    1    2    0    0  0.10386551563E+01 -0.65011682185E-01  0.10127415079E+01  0.17287337604E+01  0.93800000000E+00 0. -1.
         22    1    1    2    0    0 -0.83187370906E+00  0.16169887922E+00  0.27599457274E+01  0.28871198128E+01  0.00000000000E+00 0.  1.
</event>
<event>
 5    1  0.1160133E+000  0.1452570E+01  0.7818608E-02  0.3530767E+00
         11   -1    0    0    0    0  0.00000000000E+00  0.00000000000E+00  0.39999999674E+01  0.40000000000E+01  0.51100000000E-03 0. -1.
    9000002   -1    0    0    0    0 -0.00000000000E+00 -0.00000000000E+00  0.00000000000E+00  0.93800000000E+00  0.93800000000E+00 0.  1.
         11    1    1    2    0    0 -0.10960679073E+00  0.18348800582E+00  0.36804021764E+00  0.42559999973E+00  0.51100000000E-03 0. -1.
    9000002    1    1    2    0    0  0.22294542816E+00  0.88226914403E+00  0.92536137942E+00  0.16013248231E+01  0.93800000000E+00 0.  1.
         22    1    1    2    0    0 -0.11333863743E+00 -0.10657571498E+01  0.27065983703E+01  0.29110751772E+01  0.00000000000E+00 0. -1.
</event>
<event>
 5    1  0.1160133E+000  0.1599199E+01  0.7818608E-02  0.3354233E+00
         11   -1    0    0    0    0  0.00000000000E+00  0.00000000000E+00  0.39999999674E+01  0.40000000000E+01  0.51100000000E-03 0. -1.
    9000002   -1    0    0    0    0 -0.00000000000E+00 -0.00000000000E+00  0.00000000000E+00  0.93800000000E+00  0.93800000000E+00 0. -1.
         11    1    1    2    0    0  0.25148750964E+00 -0.14870253475E+00  0.10141204600E+01  0.10553667513E+01  0.51100000000E-03 0. -1.
    9000002    1    1    2    0    0 -0.83170959918E+00  0.54206957171E+00  0.79054262430E+00  0.15780943948E+01  0.93800000000E+00 0. -1.
         22    1    1    2    0    0  0.58022208954E+00 -0.39336703696E+00  0.21953368831E+01  0.23045388539E+01  0.00000000000E+00 0. -1.
</event>
<event>
 5    1  0.1160133E+000  0.1599660E+01  0.7818608E-02  0.3353732E+00
         11   -1    0    0    0    0  0.00000000000E+00  0.00000000000E+00  0.39999999674E+01  0.40000000000E+01  0.51100000000E-03 0. -1.
    9000002   -1    0    0    0    0 -0.00000000000E+00 -0.00000000000E+00  0.00000000000E+00  0.93800000000E+00  0.93800000000E+00 0. -1.
         11    1    1    2    0    0  0.51882526997E-01 -0.10240087160E+00  0.39892749399E+00  0.41511581720E+00  0.51100000000E-03 0. -1.
    9000002    1    1    2    0    0 -0.40577897110E+00  0.85870459811E+00  0.70654879606E+00  0.15103262434E+01  0.93800000000E+00 0. -1.
         22    1    1    2    0    0  0.35389644410E+00 -0.75630372651E+00  0.28945236773E+01  0.30125579394E+01  0.00000000000E+00 0. -1.
</event>
<event>
 5    1  0.1160133E+000  0.1599187E+01  0.7818608E-02  0.3354246E+00
         11   -1    0    0    0    0  0.00000000000E+00  0.00000000000E+00  0.39999999674E+01  0.40000000000E+01  0.51100000000E-03 0.  1.
    9000002   -1    0    0    0    0 -0.00000000000E+00 -0.00000000000E+00  0.00000000000E+00  0.93800000000E+00  0.93800000000E+00 0.  1.
         11    1    1    2    0    0  0.88781750170E-01  0.85515276886E-01  0.51240166874E+00  0.52702067606E+00  0.51100000000E-03 0.  1.
    9000002    1    1    2    0    0 -0.63121014242E+00 -0.67465672781E+00  0.66116442528E+00  0.14732855601E+01  0.93800000000E+00 0.  1.
         22    1    1    2    0    0  0.54242839225E+00  0.58914145092E+00  0.28264338733E+01  0.29376937639E+01  0.00000000000E+00 0.  1.
</event>
<event>
 5    1  0.1160133E+000  0.1599391E+01  0.7818608E-02  0.3354024E+00
         11   -1    0    0    0    0  0.00000000000E+00  0.00000000000E+00  0.39999999674E+01  0.40000000000E+01  0.51100000000E-03 0. -1.
    9000002   -1    0    0    0    0 -0.00000000000E+00 -0.00000000000E+00  0.00000000000E+00  0.93800000000E+00  0.93800000000E+00 0. -1.
         11    1    1    2    0    0 -0.29500644072E+00 -0.58298197171E-01  0.92994560982E+00  0.97735693490E+00  0.51100000000E-03 0. -1.
    9000002    1    1    2    0    0  0.95957415395E+00  0.19876840332E+00  0.76449920233E+00  0.15571109355E+01  0.93800000000E+00 0. -1.
         22    1    1    2    0    0 -0.66456771323E+00 -0.14047020615E+00  0.23055551552E+01  0.24035321296E+01  0.00000000000E+00 0. -1.
</event>
<event>
 5    1  0.1160133E+000  0.1597847E+01  0.7818608E-02  0.3355703E+00
         11   -1    0    0    0    0  0.00000000000E+00  0.00000000000E+00  0.39999999674E+01  0.40000000000E+01  0.51100000000E-03 0. -1.
    9000002   -1    0    0    0    0 -0.00000000000E+00 -0.00000000000E+00  0.00000000000E+00  0.93800000000E+00  0.93800000000E+00 0. -1.
         11    1    1    2    0    0 -0.12661349188E+00 -0.22365113499E+00  0.78416891210E+00  0.82521024614E+00  0.51100000000E-03 0. -1.
    9000002    1    1    2    0    0  0.43048553406E+00  0.10128967618E+01  0.10481902734E+01  0.17860079771E+01  0.93800000000E+00 0. -1.
         22    1    1    2    0    0 -0.30387204218E+00 -0.78924562681E+00  0.21676407818E+01  0.23267817767E+01  0.00000000000E+00 0. -1.
</event>
<event>
 5    1  0.1160133E+000  0.1599251E+01  0.7818608E-02  0.3354177E+00
         11   -1    0    0    0    0  0.00000000000E+00  0.00000000000E+00  0.39999999674E+01  0.40000000000E+01  0.51100000000E-03 0.  1.
    9000002   -1    0    0    0    0 -0.00000000000E+00 -0.00000000000E+00  0.00000000000E+00  0.93800000000E+00  0.93800000000E+00 0.  1.
         11    1    1    2    0    0  0.27394711775E+00 -0.67182785785E-01  0.98335386440E+00  0.10230081299E+01  0.51100000000E-03 0.  1.
    9000002    1    1    2    0    0 -0.91082422858E+00  0.29982828685E+00  0.72425832890E+00  0.15244316659E+01  0.93800000000E+00 0.  1.
         22    1    1    2    0    0  0.63687711083E+00 -0.23264550106E+00  0.22923877741E+01  0.23905602042E+01  0.00000000000E+00 0.  1.
</event>
<event>
 5    1  0.1166728E+000  0.1461307E+01  0.7818608E-02  0.3519176E+00
         11   -1    0    0    0    0  0.00000000000E+00  0.00000000000E+00  0.39999999674E+01  0.40000000000E+01  0.51100000000E-03 0.  1.
    9000002   -1    0    0    0    0 -0.00000000000E+00 -0.00000000000E+00  0.00000000000E+00  0.93800000000E+00  0.93800000000E+00 0. -1.
         11    1    1    2    0    0  0.28489239890E+00  0.78640394246E-01  0.89666813137E+00  0.94411969024E+00  0.51100000000E-03 0.  1.
    9000002    1    1    2    0    0  0.40829006843E+00 -0.39323872828E+00  0.37035483151E+00  0.11568682633E+01  0.93800000000E+00 0. -1.
         22    1    1    2    0    0 -0.69318246733E+00  0.31459833403E+00  0.27329770045E+01  0.28370120465E+01  0.00000000000E+00 0.  1.
</event>
<event>
 5    1  0.1160133E+000  0.1599649E+01  0.7818608E-02  0.3353744E+00
         11   -1    0    0    0    0  0.00000000000E+00  0.00000000000E+00  0.39999999674E+01  0.40000000000E+01  0.51100000000E-03 0.  1.
    9000002   -1    0    0    0    0 -0.00000000000E+00 -0.00000000000E+00  0.00000000000E+00  0.93800000000E+00  0.93800000000E+00 0.  1.
         11    1    1    2    0    0  0.18051177914E-01  0.66857072184E+00  0.12490726804E+01  0.14168611355E+01  0.51100000000E-03 0.  1.
    9000002    1    1    2    0    0 -0.45203889462E-01 -0.12529338328E+01  0.16516116092E+01  0.22758628009E+01  0.93800000000E+00 0.  1.
         22    1    1    2    0    0  0.27152711548E-01  0.58436311097E+00  0.10993156778E+01  0.12452760636E+01  0.00000000000E+00 0.  1.
</event>
<event>
 5    1  0.1160133E+000  0.1597105E+01  0.7818608E-02  0.3356511E+00
         11   -1    0    0    0    0  0.00000000000E+00  0.00000000000E+00  0.39999999674E+01  0.40000000000E+01  0.51100000000E-03 0. -1.
    9000002   -1    0    0    0    0 -0.00000000000E+00 -0.00000000000E+00  0.00000000000E+00  0.93800000000E+00  0.93800000000E+00 0. -1.
         11    1    1    2    0    0  0.15105486841E+00  0.16848580926E+00  0.80142626409E+00  0.83276008495E+00  0.51100000000E-03 0. -1.
    9000002    1    1    2    0    0 -0.78396208847E+00 -0.70402126484E+00  0.92937256441E+00  0.16893252680E+01  0.93800000000E+00 0. -1.
         22    1    1    2    0    0  0.63290722006E+00  0.53553545559E+00  0.22692011389E+01  0.24159146471E+01  0.00000000000E+00 0. -1.
</event>
<event>
 5    1  0.1160133E+000  0.1568510E+01  0.7818608E-02  0.3388267E+00
         11   -1    0    0    0    0  0.00000000000E+00  0.00000000000E+00  0.39999999674E+01  0.40000000000E+01  0.51100000000E-03 0. -1.
    9000002   -1    0    0    0    0 -0.00000000000E+00 -0.00000000000E+00  0.00000000000E+00  0.93800000000E+00  0.93800000000E+00 0.  1.
         11    1    1    2    0    0 -0.69779142358E+00  0.13699910322E+00  0.13010019976E+01  0.14826624983E+01  0.51100000000E-03 0. -1.
    9000002    1    1    2    0    0  0.10406203041E+01 -0.47390814093E+00  0.12759288756E+01  0.19532839115E+01  0.93800000000E+00 0.  1.
         22    1    1    2    0    0 -0.34282888051E+00  0.33690903770E+00  0.14230690941E+01  0.15020535902E+01  0.00000000000E+00 0. -1.
</event>
<event>
 5    1  0.1160133E+000  0.1599027E+01  0.7818608E-02  0.3354420E+00
         11   -1    0    0    0    0  0.00000000000E+00  0.00000000000E+00  0.39999999674E+01  0.40000000000E+01  0.51100000000E-03 0.  1.
    9000002   -1    0    0    0    0 -0.00000000000E+00 -0.00000000000E+00  0.00000000000E+00  0.93800000000E+00  0.93800000000E+00 0.  1.
         11    1    1    2    0    0  0.65628632752E-01 -0.56148029756E+00  0.12797268206E+01  0.13990240307E+01  0.51100000000E-03 0.  1.
    9000002    1    1    2    0    0 -0.11609081343E+00  0.12017712109E+01  0.14103353387E+01  0.20800530973E+01  0.93800000000E+00 0.  1.
         22    1    1    2    0    0  0.50462180676E-01 -0.64029091330E+00  0.13099378081E+01  0.14589228720E+01  0.00000000000E+00 0.  1.
</event>
<event>
 5    1  0.1160133E+000  0.1594767E+01  0.7818608E-02  0.3359063E+00
         11   -1    0    0    0    0  0.00000000000E+00  0.00000000000E+00  0.39999999674E+01  0.40000000000E+01  0.51100000000E-03 0.  1.
    9000002   -1    0    0    0    0 -0.00000000000E+00 -0.00000000000E+00  0.00000000000E+00  0.93800000000E+00  0.93800000000E+00 0. -1.
         11    1    1    2    0    0  0.56732897444E-01  0.12897539313E+00  0.37676022634E+00  0.40224594834E+00  0.51100000000E-03 0.  1.
    9000002    1    1    2    0    0 -0.38499307657E-01 -0.97125620245E+00  0.75740766088E+00  0.15486546330E+01  0.93800000000E+00 0. -1.
         22    1    1    2    0    0 -0.18233589788E-01  0.84228080932E+00  0.28658320801E+01  0.29870994187E+01  0.00000000000E+00 0.  1.
</event>
<event>
 5    1  0.1160133E+000  0.1599674E+01  0.7818608E-02  0.3353717E+00
         11   -1    0    0    0    0  0.00000000000E+00  0.00000000000E+00  0.39999999674E+01  0.40000000000E+01  0.51100000000E-03 0.  1.
    9000002   -1    0    0    0    0 -0.00000000000E+00 -0.00000000000E+00  0.00000000000E+00  0.93800000000E+00  0.93800000000E+00 0. -1.
         11    1    1    2    0    0  0.43365090845E-01  0.24166754782E-01  0.17006519873E+00  0.17716375498E+00  0.51100000000E-03 0.  1.
    9000002    1    1    2    0    0 -0.82455975226E+00 -0.47519975897E+00  0.71009314273E+00  0.15132051637E+01  0.93800000000E+00 0. -1.
         22    1    1    2    0    0  0.78119466141E+00  0.45103300418E+00  0.31198416259E+01  0.32476310814E+01  0.00000000000E+00 0.  1.
</event>
<event>
 5    1  0.1160133E+000  0.1596387E+01  0.7818608E-02  0.3357294E+00
         11   -1    0    0    0    0  0.00000000000E+00  0.00000000000E+00  0.39999999674E+01  0.40000000000E+01  0.51100000000E-03 0.  1.
    9000002   -1    0    0    0    0 -0.00000000000E+00 -0.00000000000E+00  0.00000000000E+00  0.93800000000E+00  0.93800000000E+00 0.  1.
         11    1    1    2    0    0 -0.37435477436E+00  0.41530514706E+00  0.12046656656E+01  0.13280961898E+01  0.51100000000E-03 0.  1.
    9000002    1    1    2    0    0  0.90828881729E+00 -0.83443456515E+00  0.15507278443E+01  0.21922295651E+01  0.93800000000E+00 0.  1.
         22    1    1    2    0    0 -0.53393404292E+00  0.41912941808E+00  0.12446064574E+01  0.14176742451E+01  0.00000000000E+00 0. -1.
</event>
<event>
 5    1  0.1160133E+000  0.1599019E+01  0.7818608E-02  0.3354429E+00
         11   -1    0    0    0    0  0.00000000000E+00  0.00000000000E+00  0.39999999674E+01  0.40000000000E+01  0.51100000000E-03 0.  1.
    9000002   -1    0    0    0    0 -0.00000000000E+00 -0.00000000000E+00  0.00000000000E+00  0.93800000000E+00  0.93800000000E+00 0.  1.
         11    1    1    2    0    0  0.19274608275E+00  0.70654076989E-01  0.56615968816E+00  0.60222927912E+00  0.51100000000E-03 0.  1.
    9000002    1    1    2    0    0 -0.10590655618E+01 -0.43767175304E+00  0.11802883615E+01  0.18937003575E+01  0.93800000000E+00 0.  1.
         22    1    1    2    0    0  0.86631947900E+00  0.36701767605E+00  0.22535519177E+01  0.24420703634E+01  0.00000000000E+00 0.  1.
</event>
<event>
 5    1  0.1160133E+000  0.1599672E+01  0.7818608E-02  0.3353719E+00
         11   -1    0    0    0    0  0.00000000000E+00  0.00000000000E+00  0.39999999674E+01  0.40000000000E+01  0.51100000000E-03 0. -1.
    9000002   -1    0    0    0    0 -0.00000000000E+00 -0.00000000000E+00  0.00000000000E+00  0.93800000000E+00  0.93800000000E+00 0. -1.
         11    1    1    2    0    0  0.34965672360E+00  0.28702275790E+00  0.39453034746E+00  0.60024690262E+00  0.51100000000E-03 0. -1.
    9000002    1    1    2    0    0 -0.94228487286E+00 -0.78238551793E+00  0.29315761197E+01  0.33127043976E+01  0.93800000000E+00 0. -1.
         22    1    1    2    0    0  0.59262814925E+00  0.49536276003E+00  0.67389350019E+00  0.10250486998E+01  0.00000000000E+00 0. -1.
</event>
<event>
 5    1  0.1160133E+000  0.1589954E+01  0.7818608E-02  0.3364339E+00
         11   -1    0    0    0    0  0.00000000000E+00  0.00000000000E+00  0.39999999674E+01  0.40000000000E+01  0.51100000000E-03 0.  1.
    9000002   -1    0    0    0    0 -0.00000000000E+00 -0.00000000000E+00  0.00000000000E+00  0.93800000000E+00  0.93800000000E+00 0. -1.
         11    1    1    2    0    0 -0.26291293739E+00  0.13900151620E+00  0.80327613342E+00  0.85656140573E+00  0.51100000000E-03 0.  1.
    9000002    1    1    2    0    0  0.95000932844E+00 -0.15866312826E+00  0.74894710483E+00  0.15389793625E+01  0.93800000000E+00 0. -1.
         22    1    1    2    0    0 -0.68709639105E+00  0.19661612057E-01  0.24477767291E+01  0.25424592318E+01  0.00000000000E+00 0.  1.
</event>
<event>
 5    1  0.1160133E+000  0.1599650E+01  0.7818608E-02  0.3353744E+00
         11   -1    0    0    0    0  0.00000000000E+00  0.00000000000E+00  0.39999999674E+01  0.40000000000E+01  0.51100000000E-03 0.  1.
    9000002   -1    0    0    0    0 -0.00000000000E+00 -0.00000000000E+00  0.00000000000E+00  0.93800000000E+00  0.93800000000E+00 0. -1.
         11    1    1    2    0    0  0.16695059535E+00 -0.10330774249E+00  0.71044182674E+00  0.73707044524E+00  0.51100000000E-03 0.  1.
    9000002    1    1    2    0    0 -0.80392485823E+00  0.48222501614E+00  0.68429539849E+00  0.14922936495E+01  0.93800000000E+00 0. -1.
         22    1    1    2    0    0  0.63697426289E+00 -0.37891727365E+00  0.26052627421E+01  0.27086359053E+01  0.00000000000E+00 0.  1.
</event>
<event>
 5    1  0.1160133E+000  0.1599624E+01  0.7818608E-02  0.3353772E+00
         11   -1    0    0    0    0  0.00000000000E+00  0.00000000000E+00  0.39999999674E+01  0.40000000000E+01  0.51100000000E-03 0.  1.
    9000002   -1    0    0    0    0 -0.00000000000E+00 -0.00000000000E+00  0.00000000000E+00  0.93800000000E+00  0.93800000000E+00 0. -1.
         11    1    1    2    0    0 -0.17898075639E+00  0.26862569846E+00  0.11779055016E+01  0.12213334962E+01  0.51100000000E-03 0.  1.
    9000002    1    1    2    0    0  0.52106653452E+00 -0.77566793142E+00  0.67894774780E+00  0.14879466111E+01  0.93800000000E+00 0. -1.
         22    1    1    2    0    0 -0.34208577813E+00  0.50704223295E+00  0.21431467180E+01  0.22287198928E+01  0.00000000000E+00 0.  1.
</event>
<event>
 5    1  0.1160133E+000  0.1599677E+01  0.7818608E-02  0.3353714E+00
         11   -1    0    0    0    0  0.00000000000E+00  0.00000000000E+00  0.39999999674E+01  0.40000000000E+01  0.51100000000E-03 0.  1.
    9000002   -1    0    0    0    0 -0.00000000000E+00 -0.00000000000E+00  0.00000000000E+00  0.93800000000E+00  0.93800000000E+00 0.  1.
         11    1    1    2    0    0 -0.18079275168E+00  0.40841821754E+00  0.13281325916E+01  0.14012237157E+01  0.51100000000E-03 0.  1.
    9000002    1    1    2    0    0  0.42268522019E+00 -0.95334053197E+00  0.89816120024E+00  0.16655505117E+01  0.93800000000E+00 0.  1.
         22    1    1    2    0    0 -0.24189246851E+00  0.54492231443E+00  0.17737061755E+01  0.18712257726E+01  0.00000000000E+00 0. -1.
</event>
<event>
 5    1  0.1160133E+000  0.1534159E+01  0.7818608E-02  0.3428080E+00
         11   -1    0    0    0    0  0.00000000000E+00  0.00000000000E+00  0.39999999674E+01  0.40000000000E+01  0.51100000000E-03 0.  1.
    9000002   -1    0    0    0    0 -0.00000000000E+00 -0.00000000000E+00  0.00000000000E+00  0.93800000000E+00  0.93800000000E+00 0.  1.
         11    1    1    2    0    0  0.11402411078E+00 -0.34129621722E+00  0.13569585183E+01  0.14038594257E+01  0.51100000000E-03 0.  1.
    9000002    1    1    2    0    0  0.83463835002E+00  0.14801955208E-01  0.98380993445E+00  0.15951696651E+01  0.93800000000E+00 0.  1.
         22    1    1    2    0    0 -0.94866246080E+00  0.32649426202E+00  0.16592315146E+01  0.19389709092E+01  0.00000000000E+00 0.  1.
</event>
<event>
 5    1  0.1160133E+000  0.1599469E+01  0.7818608E-02  0.3353940E+00
         11   -1    0    0    0    0  0.00000000000E+00  0.00000000000E+00  0.39999999674E+01  0.40000000000E+01  0.51100000000E-03 0.  1.
    9000002   -1    0    0    0    0 -0.00000000000E+00 -0.00000000000E+00  0.00000000000E+00  0.93800000000E+00  0.93800000000E+00 0.  1.
         11    1    1    2    0    0 -0.20544780364E-01  0.42045140949E+00  0.14135582675E+01  0.14749063402E+01  0.51100000000E-03 0.  1.
    9000002    1    1    2    0    0  0.79191063605E-02 -0.96640430832E+00  0.73813926019E+00  0.15358038829E+01  0.93800000000E+00 0.  1.
         22    1    1    2    0    0  0.12625674004E-01  0.54595289883E+00  0.18483024397E+01  0.19272897769E+01  0.00000000000E+00 0.  1.
</event>
<event>
 5    1  0.1160133E+000  0.1599538E+01  0.7818608E-02  0.3353865E+00
         11   -1    0    0    0    0  0.00000000000E+00  0.00000000000E+00  0.39999999674E+01  0.40000000000E+01  0.51100000000E-03 0.  1.
    9000002   -1    0    0    0    0 -0.00000000000E+00 -0.00000000000E+00  0.00000000000E+00  0.93800000000E+00  0.93800000000E+00 0.  1.
         11    1    1    2    0    0  0.16731188593E+00  0.54112963486E-01  0.57748222925E+00  0.60366171505E+00  0.51100000000E-03 0.  1.
    9000002    1    1    2    0    0 -0.96515622239E+00 -0.33041882060E+00  0.84752795593E+00  0.16244539903E+01  0.93800000000E+00 0.  1.
         22    1    1    2    0    0  0.79784433646E+00  0.27630585711E+00  0.25749897822E+01  0.27098842946E+01  0.00000000000E+00 0.  1.
</event>
<event>
 5    1  0.1160133E+000  0.1596625E+01  0.7818608E-02  0.3357034E+00
         11   -1    0    0    0    0  0.00000000000E+00  0.00000000000E+00  0.39999999674E+01  0.40000000000E+01  0.51100000000E-03 0. -1.
    9000002   -1    0    0    0    0 -0.00000000000E+00 -0.00000000000E+00  0.00000000000E+00  0.93800000000E+00  0.93800000000E+00 0.  1.
         11    1    1    2    0    0  0.15200715676E+00  0.55931059612E-02  0.38889386303E+00  0.41758371181E+00  0.51100000000E-03 0. -1.
    9000002    1    1    2    0    0 -0.96219779654E+00 -0.27587894892E+00  0.81240925753E+00  0.15942981515E+01  0.93800000000E+00 0.  1.
         22    1    1    2    0    0  0.81019063978E+00  0.27028584296E+00  0.27986968468E+01  0.29261181367E+01  0.00000000000E+00 0. -1.
</event>
<event>
 5    1  0.1160133E+000  0.1581689E+01  0.7818608E-02  0.3373480E+00
         11   -1    0    0    0    0  0.00000000000E+00  0.00000000000E+00  0.39999999674E+01  0.40000000000E+01  0.51100000000E-03 0. -1.
    9000002   -1    0    0    0    0 -0.00000000000E+00 -0.00000000000E+00  0.00000000000E+00  0.93800000000E+00  0.93800000000E+00 0.  1.
         11    1    1    2    0    0 -0.59022469165E+00 -0.24450427251E-01  0.11713135140E+01  0.13118455013E+01  0.51100000000E-03 0. -1.
    9000002    1    1    2    0    0  0.10876746801E+01 -0.91757230489E-01  0.10661537992E+01  0.17910844544E+01  0.93800000000E+00 0.  1.
         22    1    1    2    0    0 -0.49744998848E+00  0.11620765774E+00  0.17625326541E+01  0.18350700443E+01  0.00000000000E+00 0. -1.
</event>
<event>
 5    1  0.1160133E+000  0.1599676E+01  0.7818608E-02  0.3353716E+00
         11   -1    0    0    0    0  0.00000000000E+00  0.00000000000E+00  0.39999999674E+01  0.40000000000E+01  0.51100000000E-03 0.  1.
    9000002   -1    0    0    0    0 -0.00000000000E+00 -0.00000000000E+00  0.00000000000E+00  0.93800000000E+00  0.93800000000E+00 0. -1.
         11    1    1    2    0    0 -0.11781569843E+00 -0.13020398523E+00  0.59705595375E+00  0.62234210013E+00  0.51100000000E-03 0.  1.
    9000002    1    1    2    0    0  0.64926953193E+00  0.70891692264E+00  0.72803885944E+00  0.15277430115E+01  0.93800000000E+00 0. -1.
         22    1    1    2    0    0 -0.53145383350E+00 -0.57871293741E+00  0.26749051542E+01  0.27879148884E+01  0.00000000000E+00 0.  1.
</event>
<event>
 5    1  0.1160133E+000  0.1599675E+01  0.7818608E-02  0.3353716E+00
         11   -1    0    0    0    0  0.00000000000E+00  0.00000000000E+00  0.39999999674E+01  0.40000000000E+01  0.51100000000E-03 0. -1.
    9000002   -1    0    0    0    0 -0.00000000000E+00 -0.00000000000E+00  0.00000000000E+00  0.93800000000E+00  0.93800000000E+00 0. -1.
         11    1    1    2    0    0  0.37760485453E+00  0.49694311685E-01  0.12241577822E+01  0.12820364611E+01  0.51100000000E-03 0. -1.
    9000002    1    1    2    0    0 -0.99016992772E+00 -0.13132161558E+00  0.80208496089E+00  0.15877235707E+01  0.93800000000E+00 0. -1.
         22    1    1    2    0    0  0.61256507320E+00  0.81627303894E-01  0.19737572243E+01  0.20682399682E+01  0.00000000000E+00 0. -1.
</event>
<event>
 5    1  0.1160133E+000  0.1599529E+01  0.7818608E-02  0.3353875E+00
         11   -1    0    0    0    0  0.00000000000E+00  0.00000000000E+00  0.39999999674E+01  0.40000000000E+01  0.51100000000E-03 0. -1.
    9000002   -1    0    0    0    0 -0.00000000000E+00 -0.00000000000E+00  0.00000000000E+00  0.93800000000E+00  0.93800000000E+00 0.  1.
         11    1    1    2    0    0 -0.61150290550E-01  0.74483664990E-01  0.15720268533E+00  0.18439121394E+00  0.51100000000E-03 0. -1.
    9000002    1    1    2    0    0  0.73523707115E+00 -0.10547097508E+01  0.19364843276E+01  0.25065517669E+01  0.93800000000E+00 0.  1.
         22    1    1    2    0    0 -0.67408678060E+00  0.98022608579E+00  0.19063129544E+01  0.22470570191E+01  0.00000000000E+00 0. -1.
</event>
<event>
 5    1  0.1160133E+000  0.1599672E+01  0.7818608E-02  0.3353720E+00
         11   -1    0    0    0    0  0.00000000000E+00  0.00000000000E+00  0.39999999674E+01  0.40000000000E+01  0.51100000000E-03 0.  1.
    9000002   -1    0    0    0    0 -0.00000000000E+00 -0.00000000000E+00  0.00000000000E+00  0.93800000000E+00  0.93800000000E+00 0.  1.
         11    1    1    2    0    0  0.95839303813E-01 -0.34258856350E-01  0.38418228982E+00  0.39743569835E+00  0.51100000000E-03 0. -1.
    9000002    1    1    2    0    0 -0.84717826756E+00  0.31470852878E+00  0.62618565383E+00  0.14452352570E+01  0.93800000000E+00 0.  1.
         22    1    1    2    0    0  0.75133896375E+00 -0.28044967243E+00  0.29896320237E+01  0.30953290446E+01  0.00000000000E+00 0.  1.
</event>
<event>
 5    1  0.1160133E+000  0.1599670E+01  0.7818608E-02  0.3353722E+00
         11   -1    0    0    0    0  0.00000000000E+00  0.00000000000E+00  0.39999999674E+01  0.40000000000E+01  0.51100000000E-03 0.  1.
    9000002   -1    0    0    0    0 -0.00000000000E+00 -0.00000000000E+00  0.00000000000E+00  0.93800000000E+00  0.93800000000E+00 0.  1.
         11    1    1    2    0    0  0.89189199787E-01  0.32066482448E+00  0.95711264514E+00  0.10133338639E+01  0.51100000000E-03 0.  1.
    9000002    1    1    2    0    0 -0.28730892543E+00 -0.10285142109E+01  0.95815918908E+00  0.17141472901E+01  0.93800000000E+00 0.  1.
         22    1    1    2    0    0  0.19811972565E+00  0.70784938641E+00  0.20847281331E+01  0.22105188460E+01  0.00000000000E+00 0.  1.
</event>
<event>
 5    1  0.1160133E+000  0.1599659E+01  0.7818608E-02  0.3353734E+00
         11   -1    0    0    0    0  0.00000000000E+00  0.00000000000E+00  0.39999999674E+01  0.40000000000E+01  0.51100000000E-03 0. -1.
    9000002   -1    0    0    0    0 -0.00000000000E+00 -0.00000000000E+00  0.00000000000E+00  0.93800000000E+00  0.93800000000E+00 0. -1.
         11    1    1    2    0    0  0.18424355840E-02  0.15918109694E+00  0.53605226643E+00  0.55919076320E+00  0.51100000000E-03 0. -1.
    9000002    1    1    2    0    0  0.11767562125E-01 -0.96855470684E+00  0.74199331042E+00  0.15390369613E+01  0.93800000000E+00 0. -1.
         22    1    1    2    0    0 -0.13609997709E-01  0.80937360990E+00  0.27219543905E+01  0.28397722755E+01  0.00000000000E+00 0. -1.
</event>
<event>
 5    1  0.1160133E+000  0.1496615E+01  0.7818608E-02  0.3473831E+00
         11   -1    0    0    0    0  0.00000000000E+00  0.00000000000E+00  0.39999999674E+01  0.40000000000E+01  0.51100000000E-03 0.  1.
    9000002   -1    0    0    0    0 -0.00000000000E+00 -0.00000000000E+00  0.00000000000E+00  0.93800000000E+00  0.93800000000E+00 0.  1.
         11    1    1    2    0    0 -0.62646427298E-01 -0.14489391104E+00  0.62719850235E+00  0.64675887530E+00  0.51100000000E-03 0.  1.
    9000002    1    1    2    0    0 -0.82564157444E-01 -0.78447554431E+00  0.60265154257E+00  0.13657421431E+01  0.93800000000E+00 0.  1.
         22    1    1    2    0    0  0.14521058474E+00  0.92936945535E+00  0.27701499224E+01  0.29254989816E+01  0.00000000000E+00 0.  1.
</event>
<event>
 5    1  0.1160133E+000  0.1599676E+01  0.7818608E-02  0.3353715E+00
         11   -1    0    0    0    0  0.00000000000E+00  0.00000000000E+00  0.39999999674E+01  0.40000000000E+01  0.51100000000E-03 0.  1.
    9000002   -1    0    0    0    0 -0.00000000000E+00 -0.00000000000E+00  0.00000000000E+00  0.93800000000E+00  0.93800000000E+00 0.  1.
         11    1    1    2    0    0  0.94836466079E-03  0.10676215096E+00  0.35491039940E+00  0.37062205682E+00  0.51100000000E-03 0. -1.
    9000002    1    1    2    0    0 -0.10071891803E-01 -0.97263146114E+00  0.74978638055E+00  0.15453598347E+01  0.93800000000E+00 0.  1.
         22    1    1    2    0    0  0.91235271424E-02  0.86586931018E+00  0.28953031874E+01  0.30220181085E+01  0.00000000000E+00 0.  1.
</event>
<event>
 5    1  0.1160133E+000  0.1592649E+01  0.7818608E-02  0.3361381E+00
         11   -1    0    0    0    0  0.00000000000E+00  0.00000000000E+00  0.39999999674E+01  0.40000000000E+01  0.51100000000E-03 0.  1.
    9000002   -1    0    0    0    0 -0.00000000000E+00 -0.00000000000E+00  0.00000000000E+00  0.93800000000E+00  0.93800000000E+00 0. -1.
         11    1    1    2    0    0 -0.22644142000E-01  0.26174717142E+00  0.75407800812E+00  0.79853506019E+00  0.51100000000E-03 0.  1.
    9000002    1    1    2    0    0 -0.25269536741E+00 -0.99478403629E+00  0.87561674469E+00  0.16431673412E+01  0.93800000000E+00 0. -1.
         22    1    1    2    0    0  0.27533950941E+00  0.73303686488E+00  0.23703052146E+01  0.24962975986E+01  0.00000000000E+00 0.  1.
</event>
<event>
 5    1  0.1160133E+000  0.1555483E+01  0.7818608E-02  0.3403145E+00
         11   -1    0    0    0    0  0.00000000000E+00  0.00000000000E+00  0.39999999674E+01  0.40000000000E+01  0.51100000000E-03 0.  1.
    9000002   -1    0    0    0    0 -0.00000000000E+00 -0.00000000000E+00  0.00000000000E+00  0.93800000000E+00  0.93800000000E+00 0. -1.
         11    1    1    2    0    0 -0.27486690629E+00 -0.13883659475E+00  0.68659827693E+00  0.75249243931E+00  0.51100000000E-03 0.  1.
    9000002    1    1    2    0    0  0.11114655142E+01 -0.31762440028E+00  0.13796179461E+01  0.20296380283E+01  0.93800000000E+00 0. -1.
         22    1    1    2    0    0 -0.83659860788E+00  0.45646099502E+00  0.19337837444E+01  0.21558695324E+01  0.00000000000E+00 0.  1.
</event>
<event>
 5    1  0.1160133E+000  0.1599677E+01  0.7818608E-02  0.3353714E+00
         11   -1    0    0    0    0  0.00000000000E+00  0.00000000000E+00  0.39999999674E+01  0.40000000000E+01  0.51100000000E-03 0. -1.
    9000002   -1    0    0    0    0 -0.00000000000E+00 -0.00000000000E+00  0.00000000000E+00  0.93800000000E+00  0.93800000000E+00 0. -1.
         11    1    1    2    0    0  0.81344358893E-01 -0.20308045530E+00  0.77886174854E+00  0.80900213875E+00  0.51100000000E-03 0.  1.
    9000002    1    1    2    0    0 -0.34757143144E+00  0.86646574394E+00  0.67733837554E+00  0.14866741608E+01  0.93800000000E+00 0. -1.
         22    1    1    2    0    0  0.26622707255E+00 -0.66338528864E+00  0.25437998433E+01  0.26423237005E+01  0.00000000000E+00 0. -1.
</event>
<event>
 5    1  0.1160133E+000  0.1597137E+01  0.7818608E-02  0.3356476E+00
         11   -1    0    0    0    0  0.00000000000E+00  0.00000000000E+00  0.39999999674E+01  0.40000000000E+01  0.51100000000E-03 0. -1.
    9000002   -1    0    0    0    0 -0.00000000000E+00 -0.00000000000E+00  0.00000000000E+00  0.93800000000E+00  0.93800000000E+00 0. -1.
         11    1    1    2    0    0  0.30004719181E+00  0.28531514439E+00  0.10077457965E+01  0.10894883663E+01  0.51100000000E-03 0. -1.
    9000002    1    1    2    0    0 -0.83992090921E+00 -0.68008243630E+00  0.99683108975E+00  0.17439883817E+01  0.93800000000E+00 0. -1.
         22    1    1    2    0    0  0.53987371740E+00  0.39476729191E+00  0.19954230811E+01  0.21045232520E+01  0.00000000000E+00 0. -1.
</event>
<event>
 5    1  0.1160133E+000  0.1599629E+01  0.7818608E-02  0.3353766E+00
         11   -1    0    0    0    0  0.00000000000E+00  0.00000000000E+00  0.39999999674E+01  0.40000000000E+01  0.51100000000E-03 0.  1.
    9000002   -1    0    0    0    0 -0.00000000000E+00 -0.00000000000E+00  0.00000000000E+00  0.93800000000E+00  0.93800000000E+00 0. -1.
         11    1    1    2    0    0  0.12056615736E+00  0.15789549950E+00  0.49689423831E+00  0.53513674164E+00  0.51100000000E-03 0.  1.
    9000002    1    1    2    0    0 -0.66007359305E+00 -0.92220718269E+00  0.11409689078E+01  0.18622076373E+01  0.93800000000E+00 0. -1.
         22    1    1    2    0    0  0.53950743569E+00  0.76431168319E+00  0.23621368213E+01  0.25406556210E+01  0.00000000000E+00 0.  1.
</event>
<event>
 5    1  0.1160133E+000  0.1599656E+01  0.7818608E-02  0.3353737E+00
         11   -1    0    0    0    0  0.00000000000E+00  0.00000000000E+00  0.39999999674E+01  0.40000000000E+01  0.51100000000E-03 0.  1.
    9000002   -1    0    0    0    0 -0.00000000000E+00 -0.00000000000E+00  0.00000000000E+00  0.93800000000E+00  0.93800000000E+00 0.  1.
         11    1    1    2    0    0 -0.69972860635E-01 -0.18953514405E+00  0.39054284217E+00  0.43970870442E+00  0.51100000000E-03 0.  1.
    9000002    1    1    2    0    0  0.43454351590E+00  0.11733264969E+01  0.16352300861E+01  0.22625968642E+01  0.93800000000E+00 0.  1.
         22    1    1    2    0    0 -0.36457065526E+00 -0.98379135283E+00  0.19742270390E+01  0.22356944313E+01  0.00000000000E+00 0.  1.
</event>
<event>
 5    1  0.1160133E+000  0.1559775E+01  0.7818608E-02  0.3398214E+00
         11   -1    0    0    0    0  0.00000000000E+00  0.00000000000E+00  0.39999999674E+01  0.40000000000E+01  0.51100000000E-03 0.  1.
    9000002   -1    0    0    0    0 -0.00000000000E+00 -0.00000000000E+00  0.00000000000E+00  0.93800000000E+00  0.93800000000E+00 0.  1.
         11    1    1    2    0    0 -0.42229601321E-02 -0.41224694864E+00  0.83675086637E+00  0.93280097209E+00  0.51100000000E-03 0.  1.
    9000002    1    1    2    0    0 -0.13648420356E+00 -0.47911558571E+00  0.46384534603E+00  0.11589547823E+01  0.93800000000E+00 0.  1.
         22    1    1    2    0    0  0.14070716369E+00  0.89136253435E+00  0.26994037550E+01  0.28462442456E+01  0.00000000000E+00 0.  1.
</event>
<event>
 5    1  0.1160133E+000  0.1547233E+01  0.7818608E-02  0.3412705E+00
         11   -1    0    0    0    0  0.00000000000E+00  0.00000000000E+00  0.39999999674E+01  0.40000000000E+01  0.51100000000E-03 0.  1.
    9000002   -1    0    0    0    0 -0.00000000000E+00 -0.00000000000E+00  0.00000000000E+00  0.93800000000E+00  0.93800000000E+00 0.  1.
         11    1    1    2    0    0 -0.34602140033E-01  0.18776814568E+00  0.73553469975E+00  0.75991166611E+00  0.51100000000E-03 0.  1.
    9000002    1    1    2    0    0  0.96317715474E+00 -0.22599098200E+00  0.88968559572E+00  0.16279332341E+01  0.93800000000E+00 0.  1.
         22    1    1    2    0    0 -0.92857501470E+00  0.38222836317E-01  0.23747796719E+01  0.25501550998E+01  0.00000000000E+00 0.  1.
</event>
<event>
 5    1  0.1160133E+000  0.1599676E+01  0.7818608E-02  0.3353715E+00
         11   -1    0    0    0    0  0.00000000000E+00  0.00000000000E+00  0.39999999674E+01  0.40000000000E+01  0.51100000000E-03 0.  1.
    9000002   -1    0    0    0    0 -0.00000000000E+00 -0.00000000000E+00  0.00000000000E+00  0.93800000000E+00  0.93800000000E+00 0.  1.
         11    1    1    2    0    0 -0.92889927615E-01  0.87980849506E-01  0.46489619522E+00  0.48218036251E+00  0.51100000000E-03 0.  1.
    9000002    1    1    2    0    0  0.67197144645E+00 -0.63391949264E+00  0.66019500075E+00  0.14727868098E+01  0.93800000000E+00 0.  1.
         22    1    1    2    0    0 -0.57908151884E+00  0.54593864314E+00  0.28749087714E+01  0.29830328277E+01  0.00000000000E+00 0.  1.
</event>
<event>
 5    1  0.1160133E+000  0.1591727E+01  0.7818608E-02  0.3362391E+00
         11   -1    0    0    0    0  0.00000000000E+00  0.00000000000E+00  0.39999999674E+01  0.40000000000E+01  0.51100000000E-03 0. -1.
    9000002   -1    0    0    0    0 -0.00000000000E+00 -0.00000000000E+00  0.00000000000E+00  0.93800000000E+00  0.93800000000E+00 0. -1.
         11    1    1    2    0    0  0.14310110519E+00  0.31909427989E+00  0.11684725934E+01  0.12196833804E+01  0.51100000000E-03 0. -1.
    9000002    1    1    2    0    0 -0.24351623790E+00 -0.10595318767E+01  0.10274445244E+01  0.17656143991E+01  0.93800000000E+00 0. -1.
         22    1    1    2    0    0  0.10041513271E+00  0.74043759679E+00  0.18040828496E+01  0.19527022205E+01  0.00000000000E+00 0. -1.
</event>
<event>
 5    1  0.1160133E+000  0.1599677E+01  0.7818608E-02  0.3353714E+00
         11   -1    0    0    0    0  0.00000000000E+00  0.00000000000E+00  0.39999999674E+01  0.40000000000E+01  0.51100000000E-03 0. -1.
    9000002   -1    0    0    0    0 -0.00000000000E+00 -0.00000000000E+00  0.00000000000E+00  0.93800000000E+00  0.93800000000E+00 0.  1.
         11    1    1    2    0    0  0.21308144746E+00  0.82412492850E-01  0.77015409913E+00  0.80332628475E+00  0.51100000000E-03 0.  1.
    9000002    1    1    2    0    0 -0.90158184900E+00 -0.34963242487E+00  0.73884974728E+00  0.15365010941E+01  0.93800000000E+00 0.  1.
         22    1    1    2    0    0  0.68850040154E+00  0.26721993202E+00  0.24909961210E+01  0.25981726212E+01  0.00000000000E+00 0. -1.
</event>
<event>
 5    1  0.1160133E+000  0.1596249E+01  0.7818608E-02  0.3357444E+00
         11   -1    0    0    0    0  0.00000000000E+00  0.00000000000E+00  0.39999999674E+01  0.40000000000E+01  0.51100000000E-03 0.  1.
    9000002   -1    0    0    0    0 -0.00000000000E+00 -0.00000000000E+00  0.00000000000E+00  0.93800000000E+00  0.93800000000E+00 0.  1.
         11    1    1    2    0    0 -0.77532745544E-01 -0.45869883170E-02  0.68901649593E-01  0.10382709440E+00  0.51100000000E-03 0.  1.
    9000002    1    1    2    0    0  0.12474356909E+01 -0.33121173462E+00  0.22881920377E+01  0.27895275258E+01  0.93800000000E+00 0.  1.
         22    1    1    2    0    0 -0.11699029454E+01  0.33579872294E+00  0.16429062801E+01  0.20446453798E+01  0.00000000000E+00 0.  1.
</event>
<event>
 5    1  0.1160133E+000  0.1592024E+01  0.7818608E-02  0.3362066E+00
         11   -1    0    0    0    0  0.00000000000E+00  0.00000000000E+00  0.39999999674E+01  0.40000000000E+01  0.51100000000E-03 0.  1.
    9000002   -1    0    0    0    0 -0.00000000000E+00 -0.00000000000E+00  0.00000000000E+00  0.93800000000E+00  0.93800000000E+00 0.  1.
         11    1    1    2    0    0  0.45628918409E-01  0.44857643272E-01  0.27772119442E+00  0.28499741982E+00  0.51100000000E-03 0.  1.
    9000002    1    1    2    0    0 -0.10806870334E+01 -0.18123148885E+00  0.10502603841E+01  0.17842702124E+01  0.93800000000E+00 0. -1.
         22    1    1    2    0    0  0.10350581150E+01  0.13637384558E+00  0.26720183889E+01  0.28687323677E+01  0.00000000000E+00 0.  1.
</event>
<event>
 5    1  0.1160133E+000  0.1599674E+01  0.7818608E-02  0.3353717E+00
         11   -1    0    0    0    0  0.00000000000E+00  0.00000000000E+00  0.39999999674E+01  0.40000000000E+01  0.51100000000E-03 0. -1.
    9000002   -1    0    0    0    0 -0.00000000000E+00 -0.00000000000E+00  0.00000000000E+00  0.93800000000E+00  0.93800000000E+00 0. -1.
         11    1    1    2    0    0 -0.47471080947E+00 -0.70902815681E-01  0.12423506340E+01  0.13318456820E+01  0.51100000000E-03 0. -1.
    9000002    1    1    2    0    0  0.11105538556E+01  0.16322222641E+00  0.11057822922E+01  0.18337311251E+01  0.93800000000E+00 0. -1.
         22    1    1    2    0    0 -0.63584304613E+00 -0.92319410731E-01  0.16518670411E+01  0.17724231928E+01  0.00000000000E+00 0. -1.
</event>
<event>
 5    1  0.1160133E+000  0.1599422E+01  0.7818608E-02  0.3353991E+00
         11   -1    0    0    0    0  0.00000000000E+00  0.00000000000E+00  0.39999999674E+01  0.40000000000E+01  0.51100000000E-03 0. -1.
    9000002   -1    0    0    0    0 -0.00000000000E+00 -0.00000000000E+00  0.00000000000E+00  0.93800000000E+00  0.93800000000E+00 0.  1.
         11    1    1    2    0    0  0.10142502678E+00 -0.40429168718E+00  0.12134418420E+01  0.12830355293E+01  0.51100000000E-03 0. -1.
    9000002    1    1    2    0    0 -0.21047543211E+00  0.10342563354E+01  0.92840927549E+00  0.16899035054E+01  0.93800000000E+00 0.  1.
         22    1    1    2    0    0  0.10905040533E+00 -0.62996464825E+00  0.18581488498E+01  0.19650609652E+01  0.00000000000E+00 0. -1.
</event>
<event>
 5    1  0.1160133E+000  0.1599633E+01  0.7818608E-02  0.3353762E+00
         11   -1    0    0    0    0  0.00000000000E+00  0.00000000000E+00  0.39999999674E+01  0.40000000000E+01  0.51100000000E-03 0.  1.
    9000002   -1    0    0    0    0 -0.00000000000E+00 -0.00000000000E+00  0.00000000000E+00  0.93800000000E+00  0.93800000000E+00 0. -1.
         11    1    1    2    0    0 -0.40183047757E-01  0.55981094555E-01  0.23150085620E+00  0.24153978516E+00  0.51100000000E-03 0.  1.
    9000002    1    1    2    0    0  0.54244343670E+00 -0.75579502055E+00  0.67163539809E+00  0.14820287120E+01  0.93800000000E+00 0. -1.
         22    1    1    2    0    0 -0.50226038894E+00  0.69981392600E+00  0.30968637131E+01  0.32144315029E+01  0.00000000000E+00 0.  1.
</event>
<event>
 5    1  0.1160133E+000  0.1599670E+01  0.7818608E-02  0.3353721E+00
         11   -1    0    0    0    0  0.00000000000E+00  0.00000000000E+00  0.39999999674E+01  0.40000000000E+01  0.51100000000E-03 0.  1.
    9000002   -1    0    0    0    0 -0.00000000000E+00 -0.00000000000E+00  0.00000000000E+00  0.93800000000E+00  0.93800000000E+00 0. -1.
         11    1    1    2    0    0 -0.50096476934E+00  0.30677741954E-01  0.49294633997E+00  0.70349355305E+00  0.51100000000E-03 0.  1.
    9000002    1    1    2    0    0  0.12532239260E+01 -0.77365183209E-01  0.27559994455E+01  0.31704782800E+01  0.93800000000E+00 0. -1.
         22    1    1    2    0    0 -0.75225915665E+00  0.46687441255E-01  0.75105418184E+00  0.10640281669E+01  0.00000000000E+00 0.  1.
</event>
<event>
 5    1  0.1160133E+000  0.1599634E+01  0.7818608E-02  0.3353761E+00
         11   -1    0    0    0    0  0.00000000000E+00  0.00000000000E+00  0.39999999674E+01  0.40000000000E+01  0.51100000000E-03 0. -1.
    9000002   -1    0    0    0    0 -0.00000000000E+00 -0.00000000000E+00  0.00000000000E+00  0.93800000000E+00  0.93800000000E+00 0. -1.
         11    1    1    2    0    0 -0.19554393868E+00 -0.78668714812E-01  0.43145022468E+00  0.48018304441E+00  0.51100000000E-03 0. -1.
    9000002    1    1    2    0    0  0.11501527265E+01  0.42545042606E+00  0.14961509637E+01  0.21499235022E+01  0.93800000000E+00 0. -1.
         22    1    1    2    0    0 -0.95460878779E+00 -0.34678171125E+00  0.20723987790E+01  0.23078934534E+01  0.00000000000E+00 0. -1.
</event>
<event>
 5    1  0.1197226E+000  0.1575375E+01  0.7818608E-02  0.3380532E+00
         11   -1    0    0    0    0  0.00000000000E+00  0.00000000000E+00  0.39999999674E+01  0.40000000000E+01  0.51100000000E-03 0. -1.
    9000002   -1    0    0    0    0 -0.00000000000E+00 -0.00000000000E+00  0.00000000000E+00  0.93800000000E+00  0.93800000000E+00 0.  1.
         11    1    1    2    0    0 -0.10026751110E+00 -0.21462606361E+00  0.13700485075E+01  0.13903780403E+01  0.51100000000E-03 0. -1.
    9000002    1    1    2    0    0 -0.17269272221E+00  0.75095129004E+00  0.46391738905E+00  0.12995437508E+01  0.93800000000E+00 0.  1.
         22    1    1    2    0    0  0.27296023332E+00 -0.53632522642E+00  0.21660340708E+01  0.22480782089E+01  0.00000000000E+00 0. -1.
</event>
<event>
 5    1  0.1160133E+000  0.1598371E+01  0.7818608E-02  0.3355133E+00
         11   -1    0    0    0    0  0.00000000000E+00  0.00000000000E+00  0.39999999674E+01  0.40000000000E+01  0.51100000000E-03 0. -1.
    9000002   -1    0    0    0    0 -0.00000000000E+00 -0.00000000000E+00  0.00000000000E+00  0.93800000000E+00  0.93800000000E+00 0.  1.
         11    1    1    2    0    0 -0.25464672741E+00 -0.22547231995E+00  0.71763567532E+00  0.79415612222E+00  0.51100000000E-03 0. -1.
    9000002    1    1    2    0    0  0.83943190447E+00  0.80105157743E+00  0.12304556028E+01  0.19339582576E+01  0.93800000000E+00 0.  1.
         22    1    1    2    0    0 -0.58478517707E+00 -0.57557925747E+00  0.20519086893E+01  0.22098856201E+01  0.00000000000E+00 0. -1.
</event>
<event>
 5    1  0.1160133E+000  0.1599675E+01  0.7818608E-02  0.3353716E+00
         11   -1    0    0    0    0  0.00000000000E+00  0.00000000000E+00  0.39999999674E+01  0.40000000000E+01  0.51100000000E-03 0.  1.
    9000002   -1    0    0    0    0 -0.00000000000E+00 -0.00000000000E+00  0.00000000000E+00  0.93800000000E+00  0.93800000000E+00 0.  1.
         11    1    1    2    0    0  0.12761994348E+00 -0.30385801012E+00  0.88824651478E+00  0.94741684196E+00  0.51100000000E-03 0.  1.
    9000002    1    1    2    0    0 -0.42703386366E+00  0.10097840634E+01  0.10319247884E+01  0.17739037585E+01  0.93800000000E+00 0.  1.
         22    1    1    2    0    0  0.29941392018E+00 -0.70592605326E+00  0.20798286641E+01  0.22166793996E+01  0.00000000000E+00 0.  1.
</event>
<event>
 5    1  0.1160133E+000  0.1599674E+01  0.7818608E-02  0.3353717E+00
         11   -1    0    0    0    0  0.00000000000E+00  0.00000000000E+00  0.39999999674E+01  0.40000000000E+01  0.51100000000E-03 0.  1.
    9000002   -1    0    0    0    0 -0.00000000000E+00 -0.00000000000E+00  0.00000000000E+00  0.93800000000E+00  0.93800000000E+00 0. -1.
         11    1    1    2    0    0 -0.97576682737E-01 -0.12425433246E-01  0.35143627053E+00  0.36494289110E+00  0.51100000000E-03 0.  1.
    9000002    1    1    2    0    0  0.91562143787E+00  0.11668407198E+00  0.65886500540E+00  0.14717081523E+01  0.93800000000E+00 0. -1.
         22    1    1    2    0    0 -0.81804475513E+00 -0.10425863873E+00  0.29896986914E+01  0.31013489566E+01  0.00000000000E+00 0.  1.
</event>
<event>
 5    1  0.1160133E+000  0.1599664E+01  0.7818608E-02  0.3353728E+00
         11   -1    0    0    0    0  0.00000000000E+00  0.00000000000E+00  0.39999999674E+01  0.40000000000E+01  0.51100000000E-03 0. -1.
    9000002   -1    0    0    0    0 -0.00000000000E+00 -0.00000000000E+00  0.00000000000E+00  0.93800000000E+00  0.93800000000E+00 0. -1.
         11    1    1    2    0    0  0.76326666331E-01  0.51719956197E+00  0.10663001242E+01  0.11875678350E+01  0.51100000000E-03 0. -1.
    9000002    1    1    2    0    0 -0.18732737553E+00 -0.12143512110E+01  0.15080791369E+01  0.21596034572E+01  0.93800000000E+00 0. -1.
         22    1    1    2    0    0  0.11100070920E+00  0.69715164902E+00  0.14256207063E+01  0.15908287078E+01  0.00000000000E+00 0. -1.
</event>
<event>
 5    1  0.1160133E+000  0.1599097E+01  0.7818608E-02  0.3354344E+00
         11   -1    0    0    0    0  0.00000000000E+00  0.00000000000E+00  0.39999999674E+01  0.40000000000E+01  0.51100000000E-03 0. -1.
    9000002   -1    0    0    0    0 -0.00000000000E+00 -0.00000000000E+00  0.00000000000E+00  0.93800000000E+00  0.93800000000E+00 0. -1.
         11    1    1    2    0    0 -0.43742119957E+00  0.14679100599E+00  0.13644903920E+01  0.14403885574E+01  0.51100000000E-03 0. -1.
    9000002    1    1    2    0    0  0.10067519290E+01 -0.26945503220E+00  0.89790336089E+00  0.16650014734E+01  0.93800000000E+00 0. -1.
         22    1    1    2    0    0 -0.56933072940E+00  0.12266402621E+00  0.17376062144E+01  0.18326099692E+01  0.00000000000E+00 0.  1.
</event>
<event>
 5    1  0.1160133E+000  0.1584341E+01  0.7818608E-02  0.3370537E+00
         11   -1    0    0    0    0  0.00000000000E+00  0.00000000000E+00  0.39999999674E+01  0.40000000000E+01  0.51100000000E-03 0.  1.
    9000002   -1    0    0    0    0 -0.00000000000E+00 -0.00000000000E+00  0.00000000000E+00  0.93800000000E+00  0.93800000000E+00 0.  1.
         11    1    1    2    0    0  0.46499357377E-02  0.45183863096E+00  0.81163882671E+00  0.92894435596E+00  0.51100000000E-03 0.  1.
    9000002    1    1    2    0    0  0.12465280791E+00 -0.11073226069E+01  0.11256011043E+01  0.18407942645E+01  0.93800000000E+00 0.  1.
         22    1    1    2    0    0 -0.12930274365E+00  0.65548397597E+00  0.20627600363E+01  0.21682613795E+01  0.00000000000E+00 0.  1.
</event>
<event>
 5    1  0.1160133E+000  0.1599657E+01  0.7818608E-02  0.3353735E+00
         11   -1    0    0    0    0  0.00000000000E+00  0.00000000000E+00  0.39999999674E+01  0.40000000000E+01  0.51100000000E-03 0.  1.
    9000002   -1    0    0    0    0 -0.00000000000E+00 -0.00000000000E+00  0.00000000000E+00  0.93800000000E+00  0.93800000000E+00 0. -1.
         11    1    1    2    0    0 -0.12177904166E-01 -0.68489162986E-02  0.40185192506E-01  0.42547853319E-01  0.51100000000E-03 0.  1.
    9000002    1    1    2    0    0  0.89033257028E+00  0.59579955983E+00  0.96667608638E+00  0.17210391794E+01  0.93800000000E+00 0. -1.
         22    1    1    2    0    0 -0.87815466611E+00 -0.58895064353E+00  0.29931386885E+01  0.31744129672E+01  0.00000000000E+00 0.  1.
</event>
<event>
 5    1  0.1194304E+000  0.1467166E+01  0.7818608E-02  0.3511487E+00
         11   -1    0    0    0    0  0.00000000000E+00  0.00000000000E+00  0.39999999674E+01  0.40000000000E+01  0.51100000000E-03 0.  1.
    9000002   -1    0    0    0    0 -0.00000000000E+00 -0.00000000000E+00  0.00000000000E+00  0.93800000000E+00  0.93800000000E+00 0. -1.
         11    1    1    2    0    0  0.20482087517E+00  0.18378902271E+00  0.10779527871E+01  0.11125252663E+01  0.51100000000E-03 0.  1.
    9000002    1    1    2    0    0  0.52792452999E+00 -0.38750560432E-01  0.32780322630E+00  0.11258351880E+01  0.93800000000E+00 0. -1.
         22    1    1    2    0    0 -0.73274540516E+00 -0.14503846228E+00  0.25942439540E+01  0.26996395458E+01  0.00000000000E+00 0.  1.
</event>
<event>
 5    1  0.1160133E+000  0.1599675E+01  0.7818608E-02  0.3353716E+00
         11   -1    0    0    0    0  0.00000000000E+00  0.00000000000E+00  0.39999999674E+01  0.40000000000E+01  0.51100000000E-03 0. -1.
    9000002   -1    0    0    0    0 -0.00000000000E+00 -0.00000000000E+00  0.00000000000E+00  0.93800000000E+00  0.93800000000E+00 0. -1.
         11    1    1    2    0    0  0.23701547231E+00  0.42293511846E-02  0.83966840081E+00  0.87248925837E+00  0.51100000000E-03 0. -1.
    9000002    1    1    2    0    0 -0.93340063039E+00 -0.13711173933E-01  0.67720436301E+00  0.14865646580E+01  0.93800000000E+00 0. -1.
         22    1    1    2    0    0  0.69638515808E+00  0.94818227482E-02  0.24831272035E+01  0.25789460836E+01  0.00000000000E+00 0. -1.
</event>
<event>
 5    1  0.1160133E+000  0.1732422E+01  0.7818608E-02  0.3221097E+00
         11   -1    0    0    0    0  0.00000000000E+00  0.00000000000E+00  0.39999999674E+01  0.40000000000E+01  0.51100000000E-03 0.  1.
    9000002   -1    0    0    0    0 -0.00000000000E+00 -0.00000000000E+00  0.00000000000E+00  0.93800000000E+00  0.93800000000E+00 0.  1.
         11    1    1    2    0    0 -0.40273700202E+00  0.30787587593E+00  0.34990931021E+00  0.61597194276E+00  0.51100000000E-03 0.  1.
    9000002    1    1    2    0    0 -0.23487372440E-01  0.57998594118E+00  0.97793947425E+00  0.14741590701E+01  0.93800000000E+00 0.  1.
         22    1    1    2    0    0  0.42622437446E+00 -0.88786181712E+00  0.26721511829E+01  0.28478689871E+01  0.00000000000E+00 0.  1.
</event>
<event>
 5    1  0.1160133E+000  0.1589354E+01  0.7818608E-02  0.3365000E+00
         11   -1    0    0    0    0  0.00000000000E+00  0.00000000000E+00  0.39999999674E+01  0.40000000000E+01  0.51100000000E-03 0.  1.
    9000002   -1    0    0    0    0 -0.00000000000E+00 -0.00000000000E+00  0.00000000000E+00  0.93800000000E+00  0.93800000000E+00 0. -1.
         11    1    1    2    0    0  0.10930859796E+00 -0.72574883432E-02  0.22208322698E+00  0.24763332076E+00  0.51100000000E-03 0.  1.
    9000002    1    1    2    0    0 -0.78184127389E+00  0.53913114757E+00  0.72435722788E+00  0.15187085189E+01  0.93800000000E+00 0. -1.
         22    1    1    2    0    0  0.67253267594E+00 -0.53187365923E+00  0.30535595125E+01  0.31716581603E+01  0.00000000000E+00 0.  1.
</event>
<event>
 5    1  0.1160133E+000  0.1599662E+01  0.7818608E-02  0.3353731E+00
         11   -1    0    0    0    0  0.00000000000E+00  0.00000000000E+00  0.39999999674E+01  0.40000000000E+01  0.51100000000E-03 0. -1.
    9000002   -1    0    0    0    0 -0.00000000000E+00 -0.00000000000E+00  0.00000000000E+00  0.93800000000E+00  0.93800000000E+00 0.  1.
         11    1    1    2    0    0 -0.17993906114E+00 -0.36568564356E+00  0.89980376730E+00  0.98780116238E+00  0.51100000000E-03 0. -1.
    9000002    1    1    2    0    0  0.52864389818E+00  0.10672719749E+01  0.13393742761E+01  0.20229437192E+01  0.93800000000E+00 0.  1.
         22    1    1    2    0    0 -0.34870483704E+00 -0.70158633133E+00  0.17608219240E+01  0.19272551185E+01  0.00000000000E+00 0. -1.
</event>
<event>
 5    1  0.1160133E+000  0.1545434E+01  0.7818608E-02  0.3414804E+00
         11   -1    0    0    0    0  0.00000000000E+00  0.00000000000E+00  0.39999999674E+01  0.40000000000E+01  0.51100000000E-03 0. -1.
    9000002   -1    0    0    0    0 -0.00000000000E+00 -0.00000000000E+00  0.00000000000E+00  0.93800000000E+00  0.93800000000E+00 0. -1.
         11    1    1    2    0    0  0.53203881030E-01 -0.31849762876E-01  0.10010351203E+01  0.10029539538E+01  0.51100000000E-03 0. -1.
    9000002    1    1    2    0    0 -0.89631421350E+00 -0.33218948168E+00  0.81969331898E+00  0.15701815686E+01  0.93800000000E+00 0. -1.
         22    1    1    2    0    0  0.84311033247E+00  0.36403924455E+00  0.21792715281E+01  0.23648644776E+01  0.00000000000E+00 0. -1.
</event>
<event>
 5    1  0.1160133E+000  0.1599676E+01  0.7818608E-02  0.3353715E+00
         11   -1    0    0    0    0  0.00000000000E+00  0.00000000000E+00  0.39999999674E+01  0.40000000000E+01  0.51100000000E-03 0. -1.
    9000002   -1    0    0    0    0 -0.00000000000E+00 -0.00000000000E+00  0.00000000000E+00  0.93800000000E+00  0.93800000000E+00 0. -1.
         11    1    1    2    0    0 -0.17481438636E+00 -0.11476611755E+00  0.74649999960E+00  0.77523792602E+00  0.51100000000E-03 0. -1.
    9000002    1    1    2    0    0  0.78120334989E+00  0.51374989122E+00  0.67985577370E+00  0.14887126982E+01  0.93800000000E+00 0. -1.
         22    1    1    2    0    0 -0.60638896353E+00 -0.39898377367E+00  0.25736441941E+01  0.26740493758E+01  0.00000000000E+00 0. -1.
</event>
<event>
 5    1  0.1160133E+000  0.1516557E+01  0.7818608E-02  0.3449227E+00
         11   -1    0    0    0    0  0.00000000000E+00  0.00000000000E+00  0.39999999674E+01  0.40000000000E+01  0.51100000000E-03 0. -1.
    9000002   -1    0    0    0    0 -0.00000000000E+00 -0.00000000000E+00  0.00000000000E+00  0.93800000000E+00  0.93800000000E+00 0. -1.
         11    1    1    2    0    0 -0.40122810740E+00  0.11699729502E+00  0.11847085288E+01  0.12562670578E+01  0.51100000000E-03 0. -1.
    9000002    1    1    2    0    0 -0.39498082255E+00 -0.38122833885E+00  0.45758614409E+00  0.11792260071E+01  0.93800000000E+00 0. -1.
         22    1    1    2    0    0  0.79620892995E+00  0.26423104383E+00  0.23577052945E+01  0.25025069351E+01  0.00000000000E+00 0. -1.
</event>
<event>
 5    1  0.1160133E+000  0.1599663E+01  0.7818608E-02  0.3353729E+00
         11   -1    0    0    0    0  0.00000000000E+00  0.00000000000E+00  0.39999999674E+01  0.40000000000E+01  0.51100000000E-03 0. -1.
    9000002   -1    0    0    0    0 -0.00000000000E+00 -0.00000000000E+00  0.00000000000E+00  0.93800000000E+00  0.93800000000E+00 0.  1.
         11    1    1    2    0    0 -0.26080385553E+00 -0.17694998844E+00  0.11072598106E+01  0.11512404175E+01  0.51100000000E-03 0. -1.
    9000002    1    1    2    0    0  0.78906860680E+00  0.52261350200E+00  0.70048548849E+00  0.15054162409E+01  0.93800000000E+00 0.  1.
         22    1    1    2    0    0 -0.52826475127E+00 -0.34566351356E+00  0.21922546682E+01  0.22813433416E+01  0.00000000000E+00 0. -1.
</event>
<event>
 5    1  0.1160133E+000  0.1599672E+01  0.7818608E-02  0.3353720E+00
         11   -1    0    0    0    0  0.00000000000E+00  0.00000000000E+00  0.39999999674E+01  0.40000000000E+01  0.51100000000E-03 0. -1.
    9000002   -1    0    0    0    0 -0.00000000000E+00 -0.00000000000E+00  0.00000000000E+00  0.93800000000E+00  0.93800000000E+00 0. -1.
         11    1    1    2    0    0 -0.17949943550E+00 -0.28607982135E-01  0.55510107517E+00  0.58410266971E+00  0.51100000000E-03 0. -1.
    9000002    1    1    2    0    0  0.10085504932E+01  0.16969950176E+00  0.85289081544E+00  0.16288765335E+01  0.93800000000E+00 0. -1.
         22    1    1    2    0    0 -0.82905105769E+00 -0.14109151962E+00  0.25920080767E+01  0.27250207968E+01  0.00000000000E+00 0. -1.
</event>
<event>
 5    1  0.1160133E+000  0.1599626E+01  0.7818608E-02  0.3353769E+00
         11   -1    0    0    0    0  0.00000000000E+00  0.00000000000E+00  0.39999999674E+01  0.40000000000E+01  0.51100000000E-03 0. -1.
    9000002   -1    0    0    0    0 -0.00000000000E+00 -0.00000000000E+00  0.00000000000E+00  0.93800000000E+00  0.93800000000E+00 0. -1.
         11    1    1    2    0    0 -0.43162883195E-01 -0.43401969243E+00  0.91244986509E+00  0.10113363166E+01  0.51100000000E-03 0. -1.
    9000002    1    1    2    0    0  0.13963288075E+00  0.12052594803E+01  0.14342558407E+01  0.20997813155E+01  0.93800000000E+00 0. -1.
         22    1    1    2    0    0 -0.96469997553E-01 -0.77123978787E+00  0.16532942615E+01  0.18268823679E+01  0.00000000000E+00 0. -1.
</event>
<event>
 5    1  0.1160133E+000  0.1599676E+01  0.7818608E-02  0.3353715E+00
         11   -1    0    0    0    0  0.00000000000E+00  0.00000000000E+00  0.39999999674E+01  0.40000000000E+01  0.51100000000E-03 0. -1.
    9000002   -1    0    0    0    0 -0.00000000000E+00 -0.00000000000E+00  0.00000000000E+00  0.93800000000E+00  0.93800000000E+00 0. -1.
         11    1    1    2    0    0 -0.20202141097E+00 -0.10956752003E+00  0.60259947705E+00  0.64493727044E+00  0.51100000000E-03 0. -1.
    9000002    1    1    2    0    0  0.97585672595E+00  0.53226340506E+00  0.10741321419E+01  0.18080941735E+01  0.93800000000E+00 0. -1.
         22    1    1    2    0    0 -0.77383531498E+00 -0.42269588503E+00  0.23232683484E+01  0.24849685561E+01  0.00000000000E+00 0. -1.
</event>
<event>
 5    1  0.1160133E+000  0.1597523E+01  0.7818608E-02  0.3356056E+00
         11   -1    0    0    0    0  0.00000000000E+00  0.00000000000E+00  0.39999999674E+01  0.40000000000E+01  0.51100000000E-03 0. -1.
    9000002   -1    0    0    0    0 -0.00000000000E+00 -0.00000000000E+00  0.00000000000E+00  0.93800000000E+00  0.93800000000E+00 0. -1.
         11    1    1    2    0    0 -0.11621504543E+00 -0.14090978152E+00  0.65376835562E+00  0.67880396820E+00  0.51100000000E-03 0. -1.
    9000002    1    1    2    0    0  0.73760828662E+00  0.54523731865E+00  0.65237976778E+00  0.14651938710E+01  0.93800000000E+00 0. -1.
         22    1    1    2    0    0 -0.62139324119E+00 -0.40432753713E+00  0.26938518440E+01  0.27940021608E+01  0.00000000000E+00 0. -1.
</event>
<event>
 5    1  0.1160133E+000  0.1519532E+01  0.7818608E-02  0.3445616E+00
         11   -1    0    0    0    0  0.00000000000E+00  0.00000000000E+00  0.39999999674E+01  0.40000000000E+01  0.51100000000E-03 0.  1.
    9000002   -1    0    0    0    0 -0.00000000000E+00 -0.00000000000E+00  0.00000000000E+00  0.93800000000E+00  0.93800000000E+00 0. -1.
         11    1    1    2    0    0 -0.10542734184E-02  0.15043116071E+00  0.10910650856E+01  0.11013872742E+01  0.51100000000E-03 0.  1.
    9000002    1    1    2    0    0  0.37929991967E+00  0.47372596344E+00  0.34264065434E+00  0.11685595130E+01  0.93800000000E+00 0. -1.
         22    1    1    2    0    0 -0.37824564626E+00 -0.62415712415E+00  0.25662942274E+01  0.26680532128E+01  0.00000000000E+00 0.  1.
</event>
<event>
 5    1  0.1160133E+000  0.1596723E+01  0.7818608E-02  0.3356928E+00
         11   -1    0    0    0    0  0.00000000000E+00  0.00000000000E+00  0.39999999674E+01  0.40000000000E+01  0.51100000000E-03 0. -1.
    9000002   -1    0    0    0    0 -0.00000000000E+00 -0.00000000000E+00  0.00000000000E+00  0.93800000000E+00  0.93800000000E+00 0.  1.
         11    1    1    2    0    0 -0.27201491124E-01  0.30805878110E+00  0.10457383590E+01  0.10905086475E+01  0.51100000000E-03 0. -1.
    9000002    1    1    2    0    0 -0.99827360977E-01 -0.92655408534E+00  0.67928626768E+00  0.14865200330E+01  0.93800000000E+00 0. -1.
         22    1    1    2    0    0  0.12702885210E+00  0.61849530424E+00  0.22749753407E+01  0.23609713195E+01  0.00000000000E+00 0. -1.
</event>
<event>
 5    1  0.1160133E+000  0.1599674E+01  0.7818608E-02  0.3353718E+00
         11   -1    0    0    0    0  0.00000000000E+00  0.00000000000E+00  0.39999999674E+01  0.40000000000E+01  0.51100000000E-03 0. -1.
    9000002   -1    0    0    0    0 -0.00000000000E+00 -0.00000000000E+00  0.00000000000E+00  0.93800000000E+00  0.93800000000E+00 0.  1.
         11    1    1    2    0    0 -0.12742382187E+00 -0.30077582732E+00  0.11628419779E+01  0.12078512555E+01  0.51100000000E-03 0. -1.
    9000002    1    1    2    0    0  0.36933607962E+00  0.86005459069E+00  0.68165214434E+00  0.14901666633E+01  0.93800000000E+00 0.  1.
         22    1    1    2    0    0 -0.24191225775E+00 -0.55927876337E+00  0.21555058451E+01  0.22399820811E+01  0.00000000000E+00 0. -1.
</event>
<event>
 5    1  0.1160133E+000  0.1594802E+01  0.7818608E-02  0.3359025E+00
         11   -1    0    0    0    0  0.00000000000E+00  0.00000000000E+00  0.39999999674E+01  0.40000000000E+01  0.51100000000E-03 0.  1.
    9000002   -1    0    0    0    0 -0.00000000000E+00 -0.00000000000E+00  0.00000000000E+00  0.93800000000E+00  0.93800000000E+00 0.  1.
         11    1    1    2    0    0  0.16910611407E+00  0.87886684649E-01  0.55851987243E+00  0.59014036989E+00  0.51100000000E-03 0.  1.
    9000002    1    1    2    0    0 -0.10959007911E+01 -0.51765934957E+00  0.14508790453E+01  0.21104179089E+01  0.93800000000E+00 0.  1.
         22    1    1    2    0    0  0.92679467707E+00  0.42977266492E+00  0.19906010496E+01  0.22374417212E+01  0.00000000000E+00 0.  1.
</event>
<event>
 5    1  0.1160133E+000  0.1599677E+01  0.7818608E-02  0.3353714E+00
         11   -1    0    0    0    0  0.00000000000E+00  0.00000000000E+00  0.39999999674E+01  0.40000000000E+01  0.51100000000E-03 0. -1.
    9000002   -1    0    0    0    0 -0.00000000000E+00 -0.00000000000E+00  0.00000000000E+00  0.93800000000E+00  0.93800000000E+00 0. -1.
         11    1    1    2    0    0  0.33981177726E+00 -0.53814128705E-01  0.12773170430E+01  0.13228405398E+01  0.51100000000E-03 0. -1.
    9000002    1    1    2    0    0 -0.89513207694E+00  0.14333172959E+00  0.63082489705E+00  0.14489960216E+01  0.93800000000E+00 0. -1.
         22    1    1    2    0    0  0.55532029968E+00 -0.89517600886E-01  0.20918580274E+01  0.21661634386E+01  0.00000000000E+00 0. -1.
</event>
<event>
 5    1  0.1160133E+000  0.1599476E+01  0.7818608E-02  0.3353932E+00
         11   -1    0    0    0    0  0.00000000000E+00  0.00000000000E+00  0.39999999674E+01  0.40000000000E+01  0.51100000000E-03 0. -1.
    9000002   -1    0    0    0    0 -0.00000000000E+00 -0.00000000000E+00  0.00000000000E+00  0.93800000000E+00  0.93800000000E+00 0.  1.
         11    1    1    2    0    0  0.43896716054E+00 -0.10597566090E+00  0.97666558513E+00  0.10760106575E+01  0.51100000000E-03 0. -1.
    9000002    1    1    2    0    0 -0.11572829808E+01  0.26794964816E+00  0.13277662124E+01  0.20134319026E+01  0.93800000000E+00 0.  1.
         22    1    1    2    0    0  0.71831582025E+00 -0.16197398725E+00  0.16955681698E+01  0.18485574399E+01  0.00000000000E+00 0. -1.
</event>
<event>
 5    1  0.1160133E+000  0.1599677E+01  0.7818608E-02  0.3353714E+00
         11   -1    0    0    0    0  0.00000000000E+00  0.00000000000E+00  0.39999999674E+01  0.40000000000E+01  0.51100000000E-03 0.  1.
    9000002   -1    0    0    0    0 -0.00000000000E+00 -0.00000000000E+00  0.00000000000E+00  0.93800000000E+00  0.93800000000E+00 0.  1.
         11    1    1    2    0    0  0.33932263759E+00 -0.28847080587E+00  0.13749754139E+01  0.14453072020E+01  0.51100000000E-03 0.  1.
    9000002    1    1    2    0    0 -0.77890502783E+00  0.66118282973E+00  0.85061521511E+00  0.16270359618E+01  0.93800000000E+00 0.  1.
         22    1    1    2    0    0  0.43958239023E+00 -0.37271202386E+00  0.17744093384E+01  0.18656568363E+01  0.00000000000E+00 0.  1.
</event>
<event>
 5    1  0.1160133E+000  0.1591028E+01  0.7818608E-02  0.3363159E+00
         11   -1    0    0    0    0  0.00000000000E+00  0.00000000000E+00  0.39999999674E+01  0.40000000000E+01  0.51100000000E-03 0. -1.
    9000002   -1    0    0    0    0 -0.00000000000E+00 -0.00000000000E+00  0.00000000000E+00  0.93800000000E+00  0.93800000000E+00 0.  1.
         11    1    1    2    0    0  0.12053363915E+00  0.19313745885E+00  0.49341921873E+00  0.54340889090E+00  0.51100000000E-03 0. -1.
    9000002    1    1    2    0    0 -0.38256320081E+00 -0.89010645336E+00  0.75802123204E+00  0.15469596922E+01  0.93800000000E+00 0.  1.
         22    1    1    2    0    0  0.26202956167E+00  0.69696899451E+00  0.27485595166E+01  0.28476314169E+01  0.00000000000E+00 0.  1.
</event>
<event>
 5    1  0.1160133E+000  0.1599665E+01  0.7818608E-02  0.3353727E+00
         11   -1    0    0    0    0  0.00000000000E+00  0.00000000000E+00  0.39999999674E+01  0.40000000000E+01  0.51100000000E-03 0. -1.
    9000002   -1    0    0    0    0 -0.00000000000E+00 -0.00000000000E+00  0.00000000000E+00  0.93800000000E+00  0.93800000000E+00 0.  1.
         11    1    1    2    0    0  0.32990387883E+00 -0.20658934834E+00  0.12360473387E+01  0.12958892749E+01  0.51100000000E-03 0. -1.
    9000002    1    1    2    0    0 -0.85482591586E+00  0.53826528018E+00  0.82583113410E+00  0.16069529926E+01  0.93800000000E+00 0.  1.
         22    1    1    2    0    0  0.52492203703E+00 -0.33167593184E+00  0.19381214945E+01  0.20351577325E+01  0.00000000000E+00 0. -1.
</event>
<event>
 5    1  0.1160133E+000  0.1599674E+01  0.7818608E-02  0.3353717E+00
         11   -1    0    0    0    0  0.00000000000E+00  0.00000000000E+00  0.39999999674E+01  0.40000000000E+01  0.51100000000E-03 0.  1.
    9000002   -1    0    0    0    0 -0.00000000000E+00 -0.00000000000E+00  0.00000000000E+00  0.93800000000E+00  0.93800000000E+00 0. -1.
         11    1    1    2    0    0  0.19054291358E+00 -0.31281046753E+00  0.11242053294E+01  0.11823683328E+01  0.51100000000E-03 0.  1.
    9000002    1    1    2    0    0 -0.52868239183E+00  0.87836685767E+00  0.85832158148E+00  0.16332768734E+01  0.93800000000E+00 0. -1.
         22    1    1    2    0    0  0.33813947825E+00 -0.56555639014E+00  0.20174730565E+01  0.21223547938E+01  0.00000000000E+00 0.  1.
</event>
<event>
 5    1  0.1160133E+000  0.1571221E+01  0.7818608E-02  0.3385204E+00
         11   -1    0    0    0    0  0.00000000000E+00  0.00000000000E+00  0.39999999674E+01  0.40000000000E+01  0.51100000000E-03 0.  1.
    9000002   -1    0    0    0    0 -0.00000000000E+00 -0.00000000000E+00  0.00000000000E+00  0.93800000000E+00  0.93800000000E+00 0.  1.
         11    1    1    2    0    0 -0.49719174250E-01  0.25394754825E-01  0.87109472830E-01  0.10346599073E+00  0.51100000000E-03 0.  1.
    9000002    1    1    2    0    0  0.45205366041E+00  0.11608650486E+01  0.24983163996E+01  0.29450617999E+01  0.93800000000E+00 0.  1.
         22    1    1    2    0    0 -0.40233448616E+00 -0.11862598034E+01  0.14145740950E+01  0.18894722094E+01  0.00000000000E+00 0.  1.
</event>
<event>
 5    1  0.1160133E+000  0.1449998E+01  0.7818608E-02  0.3534207E+00
         11   -1    0    0    0    0  0.00000000000E+00  0.00000000000E+00  0.39999999674E+01  0.40000000000E+01  0.51100000000E-03 0.  1.
    9000002   -1    0    0    0    0 -0.00000000000E+00 -0.00000000000E+00  0.00000000000E+00  0.93800000000E+00  0.93800000000E+00 0.  1.
         11    1    1    2    0    0 -0.31133561446E+00  0.23390768149E+00  0.65901760345E+00  0.76547183558E+00  0.51100000000E-03 0.  1.
    9000002    1    1    2    0    0  0.79563901055E+00  0.60492869390E+00  0.11965613774E+01  0.18195008353E+01  0.93800000000E+00 0.  1.
         22    1    1    2    0    0 -0.48430339609E+00 -0.83883637539E+00  0.21444209865E+01  0.23530273291E+01  0.00000000000E+00 0.  1.
</event>
<event>
 5    1  0.1160133E+000  0.1599634E+01  0.7818608E-02  0.3353761E+00
         11   -1    0    0    0    0  0.00000000000E+00  0.00000000000E+00  0.39999999674E+01  0.40000000000E+01  0.51100000000E-03 0. -1.
    9000002   -1    0    0    0    0 -0.00000000000E+00 -0.00000000000E+00  0.00000000000E+00  0.93800000000E+00  0.93800000000E+00 0.  1.
         11    1    1    2    0    0  0.61939715052E-01  0.36904239741E-01  0.16948439511E+00  0.18418380091E+00  0.51100000000E-03 0. -1.
    9000002    1    1    2    0    0 -0.97006883993E+00 -0.60358501112E+00  0.11673830542E+01  0.18836070755E+01  0.93800000000E+00 0.  1.
         22    1    1    2    0    0  0.90812912487E+00  0.56668077138E+00  0.26631325181E+01  0.28702091235E+01  0.00000000000E+00 0. -1.
</event>
<event>
 5    1  0.1160133E+000  0.1599674E+01  0.7818608E-02  0.3353717E+00
         11   -1    0    0    0    0  0.00000000000E+00  0.00000000000E+00  0.39999999674E+01  0.40000000000E+01  0.51100000000E-03 0.  1.
    9000002   -1    0    0    0    0 -0.00000000000E+00 -0.00000000000E+00  0.00000000000E+00  0.93800000000E+00  0.93800000000E+00 0. -1.
         11    1    1    2    0    0 -0.38153496855E+00  0.12592336677E+00  0.72968142373E+00  0.83298311374E+00  0.51100000000E-03 0.  1.
    9000002    1    1    2    0    0  0.12001385297E+01 -0.39415401730E+00  0.17173089947E+01  0.23290951168E+01  0.93800000000E+00 0. -1.
         22    1    1    2    0    0 -0.81860356115E+00  0.26823065053E+00  0.15530095489E+01  0.17759217694E+01  0.00000000000E+00 0.  1.
</event>
<event>
 5    1  0.1160133E+000  0.1475049E+01  0.7818608E-02  0.3501248E+00
         11   -1    0    0    0    0  0.00000000000E+00  0.00000000000E+00  0.39999999674E+01  0.40000000000E+01  0.51100000000E-03 0. -1.
    9000002   -1    0    0    0    0 -0.00000000000E+00 -0.00000000000E+00  0.00000000000E+00  0.93800000000E+00  0.93800000000E+00 0. -1.
         11    1    1    2    0    0  0.63944945396E-01  0.19393530489E+00  0.24899007972E+00  0.32201891162E+00  0.51100000000E-03 0. -1.
    9000002    1    1    2    0    0  0.80723066404E+00  0.78637265079E-02  0.66887658295E+00  0.14067420042E+01  0.93800000000E+00 0. -1.
         22    1    1    2    0    0 -0.87117560943E+00 -0.20179903140E+00  0.30821333047E+01  0.32092390842E+01  0.00000000000E+00 0. -1.
</event>
<event>
 5    1  0.1160133E+000  0.1595595E+01  0.7818608E-02  0.3358158E+00
         11   -1    0    0    0    0  0.00000000000E+00  0.00000000000E+00  0.39999999674E+01  0.40000000000E+01  0.51100000000E-03 0.  1.
    9000002   -1    0    0    0    0 -0.00000000000E+00 -0.00000000000E+00  0.00000000000E+00  0.93800000000E+00  0.93800000000E+00 0.  1.
         11    1    1    2    0    0  0.24737759658E+00 -0.88700645781E-01  0.85314707853E+00  0.89270581860E+00  0.51100000000E-03 0.  1.
    9000002    1    1    2    0    0 -0.98012958637E+00  0.82951632112E-01  0.77888389100E+00  0.15665372945E+01  0.93800000000E+00 0.  1.
         22    1    1    2    0    0  0.73275198980E+00  0.57490136685E-02  0.23679689978E+01  0.24787568869E+01  0.00000000000E+00 0.  1.
</event>
<event>
 5    1  0.1160133E+000  0.1570578E+01  0.7818608E-02  0.3385929E+00
         11   -1    0    0    0    0  0.00000000000E+00  0.00000000000E+00  0.39999999674E+01  0.40000000000E+01  0.51100000000E-03 0.  1.
    9000002   -1    0    0    0    0 -0.00000000000E+00 -0.00000000000E+00  0.00000000000E+00  0.93800000000E+00  0.93800000000E+00 0. -1.
         11    1    1    2    0    0 -0.76112703002E-01  0.22178325828E+00  0.13348290179E+01  0.13552673999E+01  0.51100000000E-03 0.  1.
    9000002    1    1    2    0    0  0.17104568174E+00 -0.10054961640E+01  0.90884721998E+00  0.16571440584E+01  0.93800000000E+00 0. -1.
         22    1    1    2    0    0 -0.94932978736E-01  0.78371290570E+00  0.17563237295E+01  0.19255885417E+01  0.00000000000E+00 0.  1.
</event>
<event>
 5    1  0.1160133E+000  0.1599677E+01  0.7818608E-02  0.3353714E+00
         11   -1    0    0    0    0  0.00000000000E+00  0.00000000000E+00  0.39999999674E+01  0.40000000000E+01  0.51100000000E-03 0. -1.
    9000002   -1    0    0    0    0 -0.00000000000E+00 -0.00000000000E+00  0.00000000000E+00  0.93800000000E+00  0.93800000000E+00 0. -1.
         11    1    1    2    0    0  0.39991960009E+00 -0.21940078815E+00  0.12703117677E+01  0.13497276172E+01  0.51100000000E-03 0. -1.
    9000002    1    1    2    0    0 -0.94653457636E+00  0.51995669306E+00  0.98859636031E+00  0.17388068986E+01  0.93800000000E+00 0. -1.
         22    1    1    2    0    0  0.54661497627E+00 -0.30055590491E+00  0.17410918393E+01  0.18494654842E+01  0.00000000000E+00 0. -1.
</event>
<event>
 5    1  0.1160133E+000  0.1599671E+01  0.7818608E-02  0.3353721E+00
         11   -1    0    0    0    0  0.00000000000E+00  0.00000000000E+00  0.39999999674E+01  0.40000000000E+01  0.51100000000E-03 0.  1.
    9000002   -1    0    0    0    0 -0.00000000000E+00 -0.00000000000E+00  0.00000000000E+00  0.93800000000E+00  0.93800000000E+00 0.  1.
         11    1    1    2    0    0  0.31492205544E-01 -0.92893061592E-01  0.29907332708E+00  0.31474751150E+00  0.51100000000E-03 0. -1.
    9000002    1    1    2    0    0 -0.31401493815E+00  0.98108167628E+00  0.86923185486E+00  0.16421128629E+01  0.93800000000E+00 0.  1.
         22    1    1    2    0    0  0.28252273261E+00 -0.88818861469E+00  0.28316947854E+01  0.29811396256E+01  0.00000000000E+00 0.  1.
</event>
<event>
 5    1  0.1160133E+000  0.1599676E+01  0.7818608E-02  0.3353715E+00
         11   -1    0    0    0    0  0.00000000000E+00  0.00000000000E+00  0.39999999674E+01  0.40000000000E+01  0.51100000000E-03 0.  1.
    9000002   -1    0    0    0    0 -0.00000000000E+00 -0.00000000000E+00  0.00000000000E+00  0.93800000000E+00  0.93800000000E+00 0. -1.
         11    1    1    2    0    0 -0.93771893475E-01 -0.25824915088E+00  0.97014253078E+00  0.10082968725E+01  0.51100000000E-03 0.  1.
    9000002    1    1    2    0    0  0.31633946015E+00  0.88359324303E+00  0.68613228667E+00  0.14937969032E+01  0.93800000000E+00 0. -1.
         22    1    1    2    0    0 -0.22256756668E+00 -0.62534409215E+00  0.23437251499E+01  0.24359062243E+01  0.00000000000E+00 0.  1.
</event>
<event>
 5    1  0.1160133E+000  0.1599615E+01  0.7818608E-02  0.3353781E+00
         11   -1    0    0    0    0  0.00000000000E+00  0.00000000000E+00  0.39999999674E+01  0.40000000000E+01  0.51100000000E-03 0. -1.
    9000002   -1    0    0    0    0 -0.00000000000E+00 -0.00000000000E+00  0.00000000000E+00  0.93800000000E+00  0.93800000000E+00 0. -1.
         11    1    1    2    0    0 -0.43568204159E-01 -0.13661280346E-02  0.14055780939E+00  0.14716254150E+00  0.51100000000E-03 0. -1.
    9000002    1    1    2    0    0  0.10177709474E+01  0.10767772856E+00  0.85459473202E+00  0.16302234051E+01  0.93800000000E+00 0. -1.
         22    1    1    2    0    0 -0.97420274321E+00 -0.10631160052E+00  0.30048474260E+01  0.31606140534E+01  0.00000000000E+00 0. -1.
</event>
<event>
 5    1  0.1160133E+000  0.1477196E+01  0.7818608E-02  0.3498479E+00
         11   -1    0    0    0    0  0.00000000000E+00  0.00000000000E+00  0.39999999674E+01  0.40000000000E+01  0.51100000000E-03 0.  1.
    9000002   -1    0    0    0    0 -0.00000000000E+00 -0.00000000000E+00  0.00000000000E+00  0.93800000000E+00  0.93800000000E+00 0.  1.
         11    1    1    2    0    0  0.30147187976E+00  0.45601556075E+00  0.96862858608E+00  0.11122396706E+01  0.51100000000E-03 0.  1.
    9000002    1    1    2    0    0  0.48318580704E+00 -0.91599641523E+00  0.15444153203E+01  0.20826859193E+01  0.93800000000E+00 0.  1.
         22    1    1    2    0    0 -0.78465768680E+00  0.45998085448E+00  0.14869560610E+01  0.17430744101E+01  0.00000000000E+00 0.  1.
</event>
<event>
 5    1  0.1160133E+000  0.1599541E+01  0.7818608E-02  0.3353862E+00
         11   -1    0    0    0    0  0.00000000000E+00  0.00000000000E+00  0.39999999674E+01  0.40000000000E+01  0.51100000000E-03 0. -1.
    9000002   -1    0    0    0    0 -0.00000000000E+00 -0.00000000000E+00  0.00000000000E+00  0.93800000000E+00  0.93800000000E+00 0. -1.
         11    1    1    2    0    0 -0.34100234074E+00 -0.20104450953E+00  0.13999505949E+01  0.14548413730E+01  0.51100000000E-03 0. -1.
    9000002    1    1    2    0    0  0.81702771151E+00  0.49912516607E+00  0.72097725087E+00  0.15219436287E+01  0.93800000000E+00 0. -1.
         22    1    1    2    0    0 -0.47602537077E+00 -0.29808065654E+00  0.18790721215E+01  0.19612149983E+01  0.00000000000E+00 0. -1.
</event>
<event>
 5    1  0.1160133E+000  0.1585339E+01  0.7818608E-02  0.3369431E+00
         11   -1    0    0    0    0  0.00000000000E+00  0.00000000000E+00  0.39999999674E+01  0.40000000000E+01  0.51100000000E-03 0. -1.
    9000002   -1    0    0    0    0 -0.00000000000E+00 -0.00000000000E+00  0.00000000000E+00  0.93800000000E+00  0.93800000000E+00 0. -1.
         11    1    1    2    0    0  0.69596488204E+00  0.31476378501E+00  0.92779438183E+00  0.12017678784E+01  0.51100000000E-03 0. -1.
    9000002    1    1    2    0    0 -0.11401285354E+01 -0.56838938389E+00  0.20153602054E+01  0.25621241825E+01  0.93800000000E+00 0. -1.
         22    1    1    2    0    0  0.44416365332E+00  0.25362559887E+00  0.10568453801E+01  0.11741079392E+01  0.00000000000E+00 0. -1.
</event>
<event>
 5    1  0.1160133E+000  0.1599676E+01  0.7818608E-02  0.3353715E+00
         11   -1    0    0    0    0  0.00000000000E+00  0.00000000000E+00  0.39999999674E+01  0.40000000000E+01  0.51100000000E-03 0.  1.
    9000002   -1    0    0    0    0 -0.00000000000E+00 -0.00000000000E+00  0.00000000000E+00  0.93800000000E+00  0.93800000000E+00 0.  1.
         11    1    1    2    0    0  0.36910942391E+00  0.10983700303E+00  0.13225415697E+01  0.13774695637E+01  0.51100000000E-03 0.  1.
    9000002    1    1    2    0    0 -0.91741170623E+00 -0.27464172123E+00  0.72114391346E+00  0.15221579608E+01  0.93800000000E+00 0.  1.
         22    1    1    2    0    0  0.54830228232E+00  0.16480471821E+00  0.19563144842E+01  0.20383724755E+01  0.00000000000E+00 0.  1.
</event>
<event>
 5    1  0.1160133E+000  0.1597228E+01  0.7818608E-02  0.3356378E+00
         11   -1    0    0    0    0  0.00000000000E+00  0.00000000000E+00  0.39999999674E+01  0.40000000000E+01  0.51100000000E-03 0. -1.
    9000002   -1    0    0    0    0 -0.00000000000E+00 -0.00000000000E+00  0.00000000000E+00  0.93800000000E+00  0.93800000000E+00 0. -1.
         11    1    1    2    0    0  0.96721807369E-01 -0.47593708911E+00  0.10423948683E+01  0.11499819752E+01  0.51100000000E-03 0. -1.
    9000002    1    1    2    0    0 -0.16674265486E+00  0.11395662733E+01  0.12049810540E+01  0.19126520187E+01  0.93800000000E+00 0. -1.
         22    1    1    2    0    0  0.70020847488E-01 -0.66362918421E+00  0.17526240451E+01  0.18753660060E+01  0.00000000000E+00 0.  1.
</event>
<event>
 5    1  0.1160133E+000  0.1544916E+01  0.7818608E-02  0.3415409E+00
         11   -1    0    0    0    0  0.00000000000E+00  0.00000000000E+00  0.39999999674E+01  0.40000000000E+01  0.51100000000E-03 0.  1.
    9000002   -1    0    0    0    0 -0.00000000000E+00 -0.00000000000E+00  0.00000000000E+00  0.93800000000E+00  0.93800000000E+00 0.  1.
         11    1    1    2    0    0  0.10172159690E+00  0.15105815180E-01  0.45445365087E+00  0.46594404261E+00  0.51100000000E-03 0.  1.
    9000002    1    1    2    0    0  0.63565729222E+00 -0.45068836322E+00  0.51657647171E+00  0.13243396260E+01  0.93800000000E+00 0.  1.
         22    1    1    2    0    0 -0.73737888913E+00  0.43558254804E+00  0.30289698448E+01  0.31477163314E+01  0.00000000000E+00 0.  1.
</event>
<event>
 5    1  0.1160133E+000  0.1595953E+01  0.7818608E-02  0.3357767E+00
         11   -1    0    0    0    0  0.00000000000E+00  0.00000000000E+00  0.39999999674E+01  0.40000000000E+01  0.51100000000E-03 0.  1.
    9000002   -1    0    0    0    0 -0.00000000000E+00 -0.00000000000E+00  0.00000000000E+00  0.93800000000E+00  0.93800000000E+00 0. -1.
         11    1    1    2    0    0  0.52080654135E+00  0.22999635179E+00  0.83589867109E+00  0.10113677001E+01  0.51100000000E-03 0.  1.
    9000002    1    1    2    0    0 -0.11994323384E+01 -0.43291753387E+00  0.18587235242E+01  0.24414652701E+01  0.93800000000E+00 0. -1.
         22    1    1    2    0    0  0.67862579709E+00  0.20292118208E+00  0.13053777721E+01  0.14851670298E+01  0.00000000000E+00 0.  1.
</event>
<event>
 5    1  0.1160133E+000  0.1583593E+01  0.7818608E-02  0.3371366E+00
         11   -1    0    0    0    0  0.00000000000E+00  0.00000000000E+00  0.39999999674E+01  0.40000000000E+01  0.51100000000E-03 0.  1.
    9000002   -1    0    0    0    0 -0.00000000000E+00 -0.00000000000E+00  0.00000000000E+00  0.93800000000E+00  0.93800000000E+00 0. -1.
         11    1    1    2    0    0  0.42327268444E+00 -0.95509092284E-01  0.14330592684E+01  0.14973112168E+01  0.51100000000E-03 0.  1.
    9000002    1    1    2    0    0 -0.83808534364E+00  0.53398176227E+00  0.82291597486E+00  0.15951671597E+01  0.93800000000E+00 0. -1.
         22    1    1    2    0    0  0.41481265920E+00 -0.43847266999E+00  0.17440247241E+01  0.18455216235E+01  0.00000000000E+00 0.  1.
</event>
<event>
 5    1  0.1160133E+000  0.1599676E+01  0.7818608E-02  0.3353715E+00
         11   -1    0    0    0    0  0.00000000000E+00  0.00000000000E+00  0.39999999674E+01  0.40000000000E+01  0.51100000000E-03 0. -1.
    9000002   -1    0    0    0    0 -0.00000000000E+00 -0.00000000000E+00  0.00000000000E+00  0.93800000000E+00  0.93800000000E+00 0.  1.
         11    1    1    2    0    0 -0.38994449032E+00  0.20406918079E+00  0.92535604365E+00  0.10246877596E+01  0.51100000000E-03 0. -1.
    9000002    1    1    2    0    0  0.10783354223E+01 -0.56041881304E+00  0.14429417547E+01  0.21068463248E+01  0.93800000000E+00 0.  1.
         22    1    1    2    0    0 -0.68839093199E+00  0.35634963225E+00  0.16317021690E+01  0.18064659155E+01  0.00000000000E+00 0. -1.
</event>
<event>
 5    1  0.1160133E+000  0.1599660E+01  0.7818608E-02  0.3353733E+00
         11   -1    0    0    0    0  0.00000000000E+00  0.00000000000E+00  0.39999999674E+01  0.40000000000E+01  0.51100000000E-03 0. -1.
    9000002   -1    0    0    0    0 -0.00000000000E+00 -0.00000000000E+00  0.00000000000E+00  0.93800000000E+00  0.93800000000E+00 0. -1.
         11    1    1    2    0    0 -0.24498627691E+00  0.70463457905E-02  0.70848693475E+00  0.74968121538E+00  0.51100000000E-03 0. -1.
    9000002    1    1    2    0    0  0.10693137107E+01 -0.29263092041E-01  0.96272166143E+00  0.17178373432E+01  0.93800000000E+00 0. -1.
         22    1    1    2    0    0 -0.82432743375E+00  0.22216746250E-01  0.23287913712E+01  0.24704814414E+01  0.00000000000E+00 0. -1.
</event>
<event>
 5    1  0.1160133E+000  0.1361152E+01  0.7818608E-02  0.3671241E+00
         11   -1    0    0    0    0  0.00000000000E+00  0.00000000000E+00  0.39999999674E+01  0.40000000000E+01  0.51100000000E-03 0.  1.
    9000002   -1    0    0    0    0 -0.00000000000E+00 -0.00000000000E+00  0.00000000000E+00  0.93800000000E+00  0.93800000000E+00 0.  1.
         11    1    1    2    0    0 -0.33366431296E-01  0.74098936797E+00  0.82878481026E+00  0.11122333771E+01  0.51100000000E-03 0.  1.
    9000002    1    1    2    0    0 -0.56126359309E+00 -0.71402016996E+00  0.12241845353E+01  0.17897802660E+01  0.93800000000E+00 0.  1.
         22    1    1    2    0    0  0.59463002439E+00 -0.26969198014E-01  0.19470306218E+01  0.20359863569E+01  0.00000000000E+00 0.  1.
</event>
<event>
 5    1  0.1160133E+000  0.1599666E+01  0.7818608E-02  0.3353726E+00
         11   -1    0    0    0    0  0.00000000000E+00  0.00000000000E+00  0.39999999674E+01  0.40000000000E+01  0.51100000000E-03 0.  1.
    9000002   -1    0    0    0    0 -0.00000000000E+00 -0.00000000000E+00  0.00000000000E+00  0.93800000000E+00  0.93800000000E+00 0.  1.
         11    1    1    2    0    0  0.62490871928E-01  0.13755039096E+00  0.46329505754E+00  0.48730666996E+00  0.51100000000E-03 0.  1.
    9000002    1    1    2    0    0 -0.40944783230E+00 -0.94394673431E+00  0.86659352123E+00  0.16399729558E+01  0.93800000000E+00 0.  1.
         22    1    1    2    0    0  0.34695696037E+00  0.80639634335E+00  0.26701113886E+01  0.28107203743E+01  0.00000000000E+00 0.  1.
</event>
<event>
 5    1  0.1160133E+000  0.1599629E+01  0.7818608E-02  0.3353767E+00
         11   -1    0    0    0    0  0.00000000000E+00  0.00000000000E+00  0.39999999674E+01  0.40000000000E+01  0.51100000000E-03 0. -1.
    9000002   -1    0    0    0    0 -0.00000000000E+00 -0.00000000000E+00  0.00000000000E+00  0.93800000000E+00  0.93800000000E+00 0. -1.
         11    1    1    2    0    0 -0.22871001801E+00 -0.21143447122E+00  0.11090389399E+01  0.11519463700E+01  0.51100000000E-03 0. -1.
    9000002    1    1    2    0    0  0.70451731132E+00  0.62134995218E+00  0.68775101800E+00  0.14950805556E+01  0.93800000000E+00 0. -1.
         22    1    1    2    0    0 -0.47580729331E+00 -0.40991548096E+00  0.22032100095E+01  0.22909730744E+01  0.00000000000E+00 0. -1.
</event>
<event>
 5    1  0.1160133E+000  0.1598843E+01  0.7818608E-02  0.3354620E+00
         11   -1    0    0    0    0  0.00000000000E+00  0.00000000000E+00  0.39999999674E+01  0.40000000000E+01  0.51100000000E-03 0. -1.
    9000002   -1    0    0    0    0 -0.00000000000E+00 -0.00000000000E+00  0.00000000000E+00  0.93800000000E+00  0.93800000000E+00 0. -1.
         11    1    1    2    0    0  0.18396662987E-01 -0.25206088684E-01  0.95575234405E-01  0.10054188514E+00  0.51100000000E-03 0. -1.
    9000002    1    1    2    0    0 -0.89950047182E+00  0.57765723751E+00  0.96289204061E+00  0.17174964526E+01  0.93800000000E+00 0.  1.
         22    1    1    2    0    0  0.88110380883E+00 -0.55245114882E+00  0.29415326923E+01  0.31199616623E+01  0.00000000000E+00 0. -1.
</event>
<event>
 5    1  0.1160133E+000  0.1516753E+01  0.7818608E-02  0.3448988E+00
         11   -1    0    0    0    0  0.00000000000E+00  0.00000000000E+00  0.39999999674E+01  0.40000000000E+01  0.51100000000E-03 0. -1.
    9000002   -1    0    0    0    0 -0.00000000000E+00 -0.00000000000E+00  0.00000000000E+00  0.93800000000E+00  0.93800000000E+00 0. -1.
         11    1    1    2    0    0 -0.86081880183E-01 -0.66567879934E-02  0.11011504584E+01  0.11045302151E+01  0.51100000000E-03 0. -1.
    9000002    1    1    2    0    0 -0.74711078927E+00 -0.10889707112E+00  0.52240795037E+00  0.13125498734E+01  0.93800000000E+00 0. -1.
         22    1    1    2    0    0  0.83319266946E+00  0.11555385911E+00  0.23764415586E+01  0.25209199115E+01  0.00000000000E+00 0. -1.
</event>
<event>
 5    1  0.1160133E+000  0.1592480E+01  0.7818608E-02  0.3361566E+00
         11   -1    0    0    0    0  0.00000000000E+00  0.00000000000E+00  0.39999999674E+01  0.40000000000E+01  0.51100000000E-03 0. -1.
    9000002   -1    0    0    0    0 -0.00000000000E+00 -0.00000000000E+00  0.00000000000E+00  0.93800000000E+00  0.93800000000E+00 0. -1.
         11    1    1    2    0    0  0.86563620906E-01  0.24561254706E-01  0.19302522810E+00  0.21296834389E+00  0.51100000000E-03 0. -1.
    9000002    1    1    2    0    0 -0.93541884826E+00  0.23640397879E+00  0.74758699622E+00  0.15393588210E+01  0.93800000000E+00 0. -1.
         22    1    1    2    0    0  0.84885522735E+00 -0.26096523350E+00  0.30593877430E+01  0.31856728351E+01  0.00000000000E+00 0. -1.
</event>
<event>
 5    1  0.1160133E+000  0.1599669E+01  0.7818608E-02  0.3353722E+00
         11   -1    0    0    0    0  0.00000000000E+00  0.00000000000E+00  0.39999999674E+01  0.40000000000E+01  0.51100000000E-03 0.  1.
    9000002   -1    0    0    0    0 -0.00000000000E+00 -0.00000000000E+00  0.00000000000E+00  0.93800000000E+00  0.93800000000E+00 0.  1.
         11    1    1    2    0    0 -0.78987414328E-02  0.25157313648E-01  0.83987321094E-01  0.88030743333E-01  0.51100000000E-03 0.  1.
    9000002    1    1    2    0    0  0.31207619465E+00 -0.93167864729E+00  0.76915242164E+00  0.15610432732E+01  0.93800000000E+00 0.  1.
         22    1    1    2    0    0 -0.30417745322E+00  0.90652133364E+00  0.31468602246E+01  0.32889259835E+01  0.00000000000E+00 0.  1.
</event>
<event>
 5    1  0.1160133E+000  0.1599675E+01  0.7818608E-02  0.3353716E+00
         11   -1    0    0    0    0  0.00000000000E+00  0.00000000000E+00  0.39999999674E+01  0.40000000000E+01  0.51100000000E-03 0. -1.
    9000002   -1    0    0    0    0 -0.00000000000E+00 -0.00000000000E+00  0.00000000000E+00  0.93800000000E+00  0.93800000000E+00 0. -1.
         11    1    1    2    0    0 -0.14479866458E+00 -0.61043193043E-01  0.56406652164E+00  0.58554609267E+00  0.51100000000E-03 0. -1.
    9000002    1    1    2    0    0  0.86032411308E+00  0.36046269232E+00  0.67593950868E+00  0.14855400202E+01  0.93800000000E+00 0. -1.
         22    1    1    2    0    0 -0.71552544849E+00 -0.29941949928E+00  0.27599939370E+01  0.28669138872E+01  0.00000000000E+00 0. -1.
</event>
<event>
 5    1  0.1160133E+000  0.1598669E+01  0.7818608E-02  0.3354809E+00
         11   -1    0    0    0    0  0.00000000000E+00  0.00000000000E+00  0.39999999674E+01  0.40000000000E+01  0.51100000000E-03 0.  1.
    9000002   -1    0    0    0    0 -0.00000000000E+00 -0.00000000000E+00  0.00000000000E+00  0.93800000000E+00  0.93800000000E+00 0.  1.
         11    1    1    2    0    0 -0.15563759939E+00 -0.23311544796E+00  0.73663758459E+00  0.78816309643E+00  0.51100000000E-03 0.  1.
    9000002    1    1    2    0    0  0.58922635675E+00  0.85548807727E+00  0.89096118121E+00  0.16591272936E+01  0.93800000000E+00 0.  1.
         22    1    1    2    0    0 -0.43358875736E+00 -0.62237262930E+00  0.23724012016E+01  0.24907096100E+01  0.00000000000E+00 0.  1.
</event>
<event>
 5    1  0.1297007E+000  0.1599664E+01  0.7818608E-02  0.3353728E+00
         11   -1    0    0    0    0  0.00000000000E+00  0.00000000000E+00  0.39999999674E+01  0.40000000000E+01  0.51100000000E-03 0.  1.
    9000002   -1    0    0    0    0 -0.00000000000E+00 -0.00000000000E+00  0.00000000000E+00  0.93800000000E+00  0.93800000000E+00 0.  1.
         11    1    1    2    0    0 -0.37596878283E+00  0.25287822654E-01  0.13679582839E+01  0.14189087804E+01  0.51100000000E-03 0.  1.
    9000002    1    1    2    0    0  0.92643939658E+00 -0.59850340635E-01  0.66818620261E+00  0.14792527912E+01  0.93800000000E+00 0.  1.
         22    1    1    2    0    0 -0.55047061374E+00  0.34562517981E-01  0.19638554809E+01  0.20398384284E+01  0.00000000000E+00 0.  1.
</event>
<event>
 5    1  0.1160133E+000  0.1599508E+01  0.7818608E-02  0.3353897E+00
         11   -1    0    0    0    0  0.00000000000E+00  0.00000000000E+00  0.39999999674E+01  0.40000000000E+01  0.51100000000E-03 0.  1.
    9000002   -1    0    0    0    0 -0.00000000000E+00 -0.00000000000E+00  0.00000000000E+00  0.93800000000E+00  0.93800000000E+00 0. -1.
         11    1    1    2    0    0 -0.35640483174E+00 -0.15174569206E+00  0.12318862941E+01  0.12913540421E+01  0.51100000000E-03 0.  1.
    9000002    1    1    2    0    0  0.93829043226E+00  0.41448819753E+00  0.85990819978E+00  0.16344649012E+01  0.93800000000E+00 0. -1.
         22    1    1    2    0    0 -0.58188560052E+00 -0.26274250547E+00  0.19082054734E+01  0.20121810567E+01  0.00000000000E+00 0.  1.
</event>
<event>
 5    1  0.1160133E+000  0.1599676E+01  0.7818608E-02  0.3353716E+00
         11   -1    0    0    0    0  0.00000000000E+00  0.00000000000E+00  0.39999999674E+01  0.40000000000E+01  0.51100000000E-03 0.  1.
    9000002   -1    0    0    0    0 -0.00000000000E+00 -0.00000000000E+00  0.00000000000E+00  0.93800000000E+00  0.93800000000E+00 0. -1.
         11    1    1    2    0    0 -0.12859108301E+00 -0.10851478886E+00  0.54129756326E+00  0.56684604536E+00  0.51100000000E-03 0.  1.
    9000002    1    1    2    0    0  0.76552398001E+00  0.63847697525E+00  0.79795662644E+00  0.15843795598E+01  0.93800000000E+00 0. -1.
         22    1    1    2    0    0 -0.63693289699E+00 -0.52996218639E+00  0.26607457777E+01  0.27867743948E+01  0.00000000000E+00 0.  1.
</event>
<event>
 5    1  0.1160133E+000  0.1599676E+01  0.7818608E-02  0.3353715E+00
         11   -1    0    0    0    0  0.00000000000E+00  0.00000000000E+00  0.39999999674E+01  0.40000000000E+01  0.51100000000E-03 0.  1.
    9000002   -1    0    0    0    0 -0.00000000000E+00 -0.00000000000E+00  0.00000000000E+00  0.93800000000E+00  0.93800000000E+00 0.  1.
         11    1    1    2    0    0 -0.91947232278E-01  0.43643959213E+00  0.11628827565E+01  0.12454839933E+01  0.51100000000E-03 0.  1.
    9000002    1    1    2    0    0  0.22813425213E+00 -0.10927345694E+01  0.10876724645E+01  0.18190627989E+01  0.93800000000E+00 0.  1.
         22    1    1    2    0    0 -0.13618701985E+00  0.65629497724E+00  0.17494447463E+01  0.18734532078E+01  0.00000000000E+00 0.  1.
</event>
<event>
 5    1  0.1160133E+000  0.1563964E+01  0.7818608E-02  0.3393429E+00
         11   -1    0    0    0    0  0.00000000000E+00  0.00000000000E+00  0.39999999674E+01  0.40000000000E+01  0.51100000000E-03 0. -1.
    9000002   -1    0    0    0    0 -0.00000000000E+00 -0.00000000000E+00  0.00000000000E+00  0.93800000000E+00  0.93800000000E+00 0. -1.
         11    1    1    2    0    0  0.15471068519E-01  0.78842931376E-01  0.29429685117E+00  0.30506795886E+00  0.51100000000E-03 0. -1.
    9000002    1    1    2    0    0  0.78932565222E+00  0.20504889278E+00  0.54170614631E+00  0.13558648836E+01  0.93800000000E+00 0. -1.
         22    1    1    2    0    0 -0.80479672074E+00 -0.28389182416E+00  0.31639969699E+01  0.32770671575E+01  0.00000000000E+00 0. -1.
</event>
<event>
 5    1  0.1160133E+000  0.1597897E+01  0.7818608E-02  0.3355649E+00
         11   -1    0    0    0    0  0.00000000000E+00  0.00000000000E+00  0.39999999674E+01  0.40000000000E+01  0.51100000000E-03 0. -1.
    9000002   -1    0    0    0    0 -0.00000000000E+00 -0.00000000000E+00  0.00000000000E+00  0.93800000000E+00  0.93800000000E+00 0.  1.
         11    1    1    2    0    0  0.16522041242E+00 -0.48384620061E+00  0.87734244921E+00  0.10154481596E+01  0.51100000000E-03 0. -1.
    9000002    1    1    2    0    0 -0.29603149961E+00  0.12421687848E+01  0.18545580556E+01  0.24392309280E+01  0.93800000000E+00 0.  1.
         22    1    1    2    0    0  0.13081108719E+00 -0.75832258416E+00  0.12680994625E+01  0.14833209124E+01  0.00000000000E+00 0.  1.
</event>
<event>
 5    1  0.1160133E+000  0.1450202E+01  0.7818608E-02  0.3533934E+00
         11   -1    0    0    0    0  0.00000000000E+00  0.00000000000E+00  0.39999999674E+01  0.40000000000E+01  0.51100000000E-03 0.  1.
    9000002   -1    0    0    0    0 -0.00000000000E+00 -0.00000000000E+00  0.00000000000E+00  0.93800000000E+00  0.93800000000E+00 0.  1.
         11    1    1    2    0    0  0.14611797645E+00  0.55642964487E-01  0.10122623121E+00  0.18626221717E+00  0.51100000000E-03 0.  1.
    9000002    1    1    2    0    0  0.77362067135E+00  0.23350449505E+00  0.72496621048E+00  0.14347241194E+01  0.93800000000E+00 0.  1.
         22    1    1    2    0    0 -0.91973864780E+00 -0.28914745953E+00  0.31738075257E+01  0.33170136635E+01  0.00000000000E+00 0.  1.
</event>
<event>
 5    1  0.1160133E+000  0.1599627E+01  0.7818608E-02  0.3353768E+00
         11   -1    0    0    0    0  0.00000000000E+00  0.00000000000E+00  0.39999999674E+01  0.40000000000E+01  0.51100000000E-03 0. -1.
    9000002   -1    0    0    0    0 -0.00000000000E+00 -0.00000000000E+00  0.00000000000E+00  0.93800000000E+00  0.93800000000E+00 0. -1.
         11    1    1    2    0    0  0.38723105080E+00 -0.10277009372E+00  0.11671509208E+01  0.12339980194E+01  0.51100000000E-03 0. -1.
    9000002    1    1    2    0    0 -0.10133032283E+01  0.25510643723E+00  0.90309176411E+00  0.16695153372E+01  0.93800000000E+00 0. -1.
         22    1    1    2    0    0  0.62607217747E+00 -0.15233634352E+00  0.19297572825E+01  0.20344866434E+01  0.00000000000E+00 0. -1.
</event>
<event>
 5    1  0.1160133E+000  0.1599495E+01  0.7818608E-02  0.3353912E+00
         11   -1    0    0    0    0  0.00000000000E+00  0.00000000000E+00  0.39999999674E+01  0.40000000000E+01  0.51100000000E-03 0.  1.
    9000002   -1    0    0    0    0 -0.00000000000E+00 -0.00000000000E+00  0.00000000000E+00  0.93800000000E+00  0.93800000000E+00 0.  1.
         11    1    1    2    0    0 -0.38590429966E+00  0.24413002178E-01  0.14140604177E+01  0.14659758692E+01  0.51100000000E-03 0.  1.
    9000002    1    1    2    0    0  0.94103838499E+00 -0.51980010636E-01  0.69356201925E+00  0.14997091178E+01  0.93800000000E+00 0.  1.
         22    1    1    2    0    0 -0.55513408533E+00  0.27567008458E-01  0.18923775304E+01  0.19723150130E+01  0.00000000000E+00 0.  1.
</event>
<event>
 5    1  0.1160133E+000  0.1599674E+01  0.7818608E-02  0.3353718E+00
         11   -1    0    0    0    0  0.00000000000E+00  0.00000000000E+00  0.39999999674E+01  0.40000000000E+01  0.51100000000E-03 0. -1.
    9000002   -1    0    0    0    0 -0.00000000000E+00 -0.00000000000E+00  0.00000000000E+00  0.93800000000E+00  0.93800000000E+00 0. -1.
         11    1    1    2    0    0  0.38429766440E-01 -0.20041719813E+00  0.24843867652E+00  0.32150573458E+00  0.51100000000E-03 0. -1.
    9000002    1    1    2    0    0 -0.23300084118E+00  0.12680441366E+01  0.24314992980E+01  0.29076207043E+01  0.93800000000E+00 0. -1.
         22    1    1    2    0    0  0.19457107474E+00 -0.10676269384E+01  0.13200619929E+01  0.17088735611E+01  0.00000000000E+00 0. -1.
</event>
<event>
 5    1  0.1160133E+000  0.1599672E+01  0.7818608E-02  0.3353720E+00
         11   -1    0    0    0    0  0.00000000000E+00  0.00000000000E+00  0.39999999674E+01  0.40000000000E+01  0.51100000000E-03 0.  1.
    9000002   -1    0    0    0    0 -0.00000000000E+00 -0.00000000000E+00  0.00000000000E+00  0.93800000000E+00  0.93800000000E+00 0.  1.
         11    1    1    2    0    0 -0.22503840913E+00  0.10485313749E+00  0.91547583252E+00  0.94854242239E+00  0.51100000000E-03 0.  1.
    9000002    1    1    2    0    0  0.83199202566E+00 -0.38719694020E+00  0.64966439216E+00  0.14642540844E+01  0.93800000000E+00 0.  1.
         22    1    1    2    0    0 -0.60695361653E+00  0.28234380271E+00  0.24348597427E+01  0.25252034932E+01  0.00000000000E+00 0. -1.
</event>
<event>
 5    1  0.1160133E+000  0.1598399E+01  0.7818608E-02  0.3355103E+00
         11   -1    0    0    0    0  0.00000000000E+00  0.00000000000E+00  0.39999999674E+01  0.40000000000E+01  0.51100000000E-03 0.  1.
    9000002   -1    0    0    0    0 -0.00000000000E+00 -0.00000000000E+00  0.00000000000E+00  0.93800000000E+00  0.93800000000E+00 0. -1.
         11    1    1    2    0    0 -0.29035854033E+00 -0.37155766252E+00  0.52949904497E+00  0.70903644354E+00  0.51100000000E-03 0.  1.
    9000002    1    1    2    0    0  0.87276416290E+00  0.93466884879E+00  0.25479772634E+01  0.30012256289E+01  0.93800000000E+00 0. -1.
         22    1    1    2    0    0 -0.58240562257E+00 -0.56311118628E+00  0.92252365900E+00  0.12277379275E+01  0.00000000000E+00 0.  1.
</event>
<event>
 5    1  0.1160133E+000  0.1599677E+01  0.7818608E-02  0.3353714E+00
         11   -1    0    0    0    0  0.00000000000E+00  0.00000000000E+00  0.39999999674E+01  0.40000000000E+01  0.51100000000E-03 0.  1.
    9000002   -1    0    0    0    0 -0.00000000000E+00 -0.00000000000E+00  0.00000000000E+00  0.93800000000E+00  0.93800000000E+00 0.  1.
         11    1    1    2    0    0 -0.35240840673E+00  0.18672863479E+00  0.12993398955E+01  0.13591702224E+01  0.51100000000E-03 0.  1.
    9000002    1    1    2    0    0  0.87296227738E+00 -0.46224501283E+00  0.77958988962E+00  0.15695024644E+01  0.93800000000E+00 0.  1.
         22    1    1    2    0    0 -0.52055387066E+00  0.27551637804E+00  0.19210701822E+01  0.20093273133E+01  0.00000000000E+00 0.  1.
</event>
<event>
 5    1  0.1160133E+000  0.1599656E+01  0.7818608E-02  0.3353737E+00
         11   -1    0    0    0    0  0.00000000000E+00  0.00000000000E+00  0.39999999674E+01  0.40000000000E+01  0.51100000000E-03 0. -1.
    9000002   -1    0    0    0    0 -0.00000000000E+00 -0.00000000000E+00  0.00000000000E+00  0.93800000000E+00  0.93800000000E+00 0. -1.
         11    1    1    2    0    0  0.16089368148E+00 -0.24302390768E-01  0.56136875998E+00  0.58447628587E+00  0.51100000000E-03 0. -1.
    9000002    1    1    2    0    0 -0.93534912241E+00  0.12154726851E+00  0.69462954611E+00  0.15006684929E+01  0.93800000000E+00 0. -1.
         22    1    1    2    0    0  0.77445544093E+00 -0.97244877743E-01  0.27440016613E+01  0.28528552212E+01  0.00000000000E+00 0. -1.
</event>
<event>
 5    1  0.1160133E+000  0.1599498E+01  0.7818608E-02  0.3353908E+00
         11   -1    0    0    0    0  0.00000000000E+00  0.00000000000E+00  0.39999999674E+01  0.40000000000E+01  0.51100000000E-03 0. -1.
    9000002   -1    0    0    0    0 -0.00000000000E+00 -0.00000000000E+00  0.00000000000E+00  0.93800000000E+00  0.93800000000E+00 0.  1.
         11    1    1    2    0    0  0.19295832069E-01 -0.30735404207E+00  0.10624937224E+01  0.11062242121E+01  0.51100000000E-03 0. -1.
    9000002    1    1    2    0    0 -0.58493850367E-01  0.91871391842E+00  0.65491525944E+00  0.14684055269E+01  0.93800000000E+00 0.  1.
         22    1    1    2    0    0  0.39198018297E-01 -0.61135987635E+00  0.22825909855E+01  0.23633702609E+01  0.00000000000E+00 0. -1.
</event>
<event>
 5    1  0.1160133E+000  0.1599677E+01  0.7818608E-02  0.3353714E+00
         11   -1    0    0    0    0  0.00000000000E+00  0.00000000000E+00  0.39999999674E+01  0.40000000000E+01  0.51100000000E-03 0. -1.
    9000002   -1    0    0    0    0 -0.00000000000E+00 -0.00000000000E+00  0.00000000000E+00  0.93800000000E+00  0.93800000000E+00 0. -1.
         11    1    1    2    0    0 -0.16050515540E+00 -0.30720781394E+00  0.12109542126E+01  0.12595828325E+01  0.51100000000E-03 0. -1.
    9000002    1    1    2    0    0  0.43812747744E+00  0.83824167499E+00  0.69935510319E+00  0.15045086748E+01  0.93800000000E+00 0. -1.
         22    1    1    2    0    0 -0.27762232204E+00 -0.53103386105E+00  0.20896906516E+01  0.21739084927E+01  0.00000000000E+00 0. -1.
</event>
<event>
 5    1  0.1160133E+000  0.1584276E+01  0.7818608E-02  0.3370609E+00
         11   -1    0    0    0    0  0.00000000000E+00  0.00000000000E+00  0.39999999674E+01  0.40000000000E+01  0.51100000000E-03 0.  1.
    9000002   -1    0    0    0    0 -0.00000000000E+00 -0.00000000000E+00  0.00000000000E+00  0.93800000000E+00  0.93800000000E+00 0.  1.
         11    1    1    2    0    0 -0.51119248684E+00 -0.58917895946E+00  0.10528353660E+01  0.13103099534E+01  0.51100000000E-03 0.  1.
    9000002    1    1    2    0    0  0.65223828375E+00  0.10960832567E+01  0.20910497064E+01  0.26228126428E+01  0.93800000000E+00 0.  1.
         22    1    1    2    0    0 -0.14104579691E+00 -0.50690429726E+00  0.85611489496E+00  0.10048774039E+01  0.00000000000E+00 0. -1.
</event>
<event>
 5    1  0.1160133E+000  0.1599287E+01  0.7818608E-02  0.3354137E+00
         11   -1    0    0    0    0  0.00000000000E+00  0.00000000000E+00  0.39999999674E+01  0.40000000000E+01  0.51100000000E-03 0.  1.
    9000002   -1    0    0    0    0 -0.00000000000E+00 -0.00000000000E+00  0.00000000000E+00  0.93800000000E+00  0.93800000000E+00 0. -1.
         11    1    1    2    0    0  0.99651702248E-01 -0.78499505032E-01  0.29078350612E+00  0.31725059906E+00  0.51100000000E-03 0.  1.
    9000002    1    1    2    0    0 -0.82917990528E+00  0.82307307383E+00  0.12554068808E+01  0.19547068927E+01  0.93800000000E+00 0.  1.
         22    1    1    2    0    0  0.72952820304E+00 -0.74457356880E+00  0.24538095805E+01  0.26660425082E+01  0.00000000000E+00 0.  1.
</event>
<event>
 5    1  0.1160133E+000  0.1599673E+01  0.7818608E-02  0.3353719E+00
         11   -1    0    0    0    0  0.00000000000E+00  0.00000000000E+00  0.39999999674E+01  0.40000000000E+01  0.51100000000E-03 0.  1.
    9000002   -1    0    0    0    0 -0.00000000000E+00 -0.00000000000E+00  0.00000000000E+00  0.93800000000E+00  0.93800000000E+00 0. -1.
         11    1    1    2    0    0 -0.13792487796E+00  0.68464988431E-01  0.53128883991E+00  0.55315352221E+00  0.51100000000E-03 0.  1.
    9000002    1    1    2    0    0  0.84525447313E+00 -0.42938018566E+00  0.70342831993E+00  0.15078056471E+01  0.93800000000E+00 0. -1.
         22    1    1    2    0    0 -0.70732959517E+00  0.36091519723E+00  0.27652828075E+01  0.28770408307E+01  0.00000000000E+00 0. -1.
</event>
<event>
 5    1  0.1160133E+000  0.1527847E+01  0.7818608E-02  0.3435603E+00
         11   -1    0    0    0    0  0.00000000000E+00  0.00000000000E+00  0.39999999674E+01  0.40000000000E+01  0.51100000000E-03 0.  1.
    9000002   -1    0    0    0    0 -0.00000000000E+00 -0.00000000000E+00  0.00000000000E+00  0.93800000000E+00  0.93800000000E+00 0. -1.
         11    1    1    2    0    0 -0.15931368209E+00  0.20720322114E+00  0.67348091747E+00  0.72242012117E+00  0.51100000000E-03 0.  1.
    9000002    1    1    2    0    0  0.84255413139E+00  0.25880603106E+00  0.70683105202E+00  0.14684454917E+01  0.93800000000E+00 0. -1.
         22    1    1    2    0    0 -0.68324044930E+00 -0.46600925220E+00  0.26196879979E+01  0.27471343871E+01  0.00000000000E+00 0.  1.
</event>
<event>
 5    1  0.1160133E+000  0.1595635E+01  0.7818608E-02  0.3358114E+00
         11   -1    0    0    0    0  0.00000000000E+00  0.00000000000E+00  0.39999999674E+01  0.40000000000E+01  0.51100000000E-03 0. -1.
    9000002   -1    0    0    0    0 -0.00000000000E+00 -0.00000000000E+00  0.00000000000E+00  0.93800000000E+00  0.93800000000E+00 0. -1.
         11    1    1    2    0    0 -0.14589536613E-01 -0.20665590844E-02  0.93560820892E-01  0.94715434709E-01  0.51100000000E-03 0. -1.
    9000002    1    1    2    0    0  0.19247991825E+00  0.91491563692E+00  0.68649979697E+00  0.14917255488E+01  0.93800000000E+00 0. -1.
         22    1    1    2    0    0 -0.17789038164E+00 -0.91284907784E+00  0.32199393495E+01  0.33515590165E+01  0.00000000000E+00 0. -1.
</event>
<event>
 5    1  0.1160133E+000  0.1599640E+01  0.7818608E-02  0.3353754E+00
         11   -1    0    0    0    0  0.00000000000E+00  0.00000000000E+00  0.39999999674E+01  0.40000000000E+01  0.51100000000E-03 0.  1.
    9000002   -1    0    0    0    0 -0.00000000000E+00 -0.00000000000E+00  0.00000000000E+00  0.93800000000E+00  0.93800000000E+00 0.  1.
         11    1    1    2    0    0 -0.48548539379E-01 -0.19705381046E-01  0.11920937519E+00  0.13021673845E+00  0.51100000000E-03 0.  1.
    9000002    1    1    2    0    0  0.11294641168E+01  0.39721823813E+00  0.13647847336E+01  0.20435148370E+01  0.93800000000E+00 0.  1.
         22    1    1    2    0    0 -0.10809155774E+01 -0.37751285709E+00  0.25160058586E+01  0.27642684246E+01  0.00000000000E+00 0.  1.
</event>
<event>
 5    1  0.1160133E+000  0.1599659E+01  0.7818608E-02  0.3353734E+00
         11   -1    0    0    0    0  0.00000000000E+00  0.00000000000E+00  0.39999999674E+01  0.40000000000E+01  0.51100000000E-03 0. -1.
    9000002   -1    0    0    0    0 -0.00000000000E+00 -0.00000000000E+00  0.00000000000E+00  0.93800000000E+00  0.93800000000E+00 0. -1.
         11    1    1    2    0    0 -0.14518712647E+00  0.10567917491E-01  0.52644191826E+00  0.54619807487E+00  0.51100000000E-03 0. -1.
    9000002    1    1    2    0    0  0.93100738925E+00 -0.85097066374E-01  0.67969254692E+00  0.14885705317E+01  0.93800000000E+00 0. -1.
         22    1    1    2    0    0 -0.78582026279E+00  0.74529148883E-01  0.27938655022E+01  0.29032313934E+01  0.00000000000E+00 0. -1.
</event>
<event>
 5    1  0.1160133E+000  0.1500366E+01  0.7818608E-02  0.3469149E+00
         11   -1    0    0    0    0  0.00000000000E+00  0.00000000000E+00  0.39999999674E+01  0.40000000000E+01  0.51100000000E-03 0. -1.
    9000002   -1    0    0    0    0 -0.00000000000E+00 -0.00000000000E+00  0.00000000000E+00  0.93800000000E+00  0.93800000000E+00 0.  1.
         11    1    1    2    0    0  0.32679659728E+00 -0.76411058767E+00  0.11298594829E+01  0.14025846564E+01  0.51100000000E-03 0. -1.
    9000002    1    1    2    0    0  0.63768698812E-01  0.11688647150E+01  0.20203087794E+01  0.25163073606E+01  0.93800000000E+00 0.  1.
         22    1    1    2    0    0 -0.39056529609E+00 -0.40475412731E+00  0.84983170501E+00  0.10191079830E+01  0.00000000000E+00 0.  1.
</event>
<event>
 5    1  0.1160133E+000  0.1480726E+01  0.7818608E-02  0.3493948E+00
         11   -1    0    0    0    0  0.00000000000E+00  0.00000000000E+00  0.39999999674E+01  0.40000000000E+01  0.51100000000E-03 0. -1.
    9000002   -1    0    0    0    0 -0.00000000000E+00 -0.00000000000E+00  0.00000000000E+00  0.93800000000E+00  0.93800000000E+00 0. -1.
         11    1    1    2    0    0 -0.32296731715E+00 -0.10372183773E-01  0.32497717168E+00  0.45828582061E+00  0.51100000000E-03 0. -1.
    9000002    1    1    2    0    0  0.20645147156E-01 -0.93016662664E+00  0.10914417847E+01  0.17136876451E+01  0.93800000000E+00 0. -1.
         22    1    1    2    0    0  0.30232216999E+00  0.94053881041E+00  0.25835810110E+01  0.27660265343E+01  0.00000000000E+00 0. -1.
</event>
<event>
 5    1  0.1160133E+000  0.1489857E+01  0.7818608E-02  0.3482331E+00
         11   -1    0    0    0    0  0.00000000000E+00  0.00000000000E+00  0.39999999674E+01  0.40000000000E+01  0.51100000000E-03 0. -1.
    9000002   -1    0    0    0    0 -0.00000000000E+00 -0.00000000000E+00  0.00000000000E+00  0.93800000000E+00  0.93800000000E+00 0.  1.
         11    1    1    2    0    0 -0.26176760356E+00 -0.16814164560E+00  0.55403488205E+00  0.63541230937E+00  0.51100000000E-03 0. -1.
    9000002    1    1    2    0    0 -0.59239606673E+00  0.57213557679E-01  0.47304111746E+00  0.12074015032E+01  0.93800000000E+00 0.  1.
         22    1    1    2    0    0  0.85416367029E+00  0.11092808792E+00  0.29729239679E+01  0.30951861875E+01  0.00000000000E+00 0. -1.
</event>
<event>
 5    1  0.1160133E+000  0.1597035E+01  0.7818608E-02  0.3356588E+00
         11   -1    0    0    0    0  0.00000000000E+00  0.00000000000E+00  0.39999999674E+01  0.40000000000E+01  0.51100000000E-03 0.  1.
    9000002   -1    0    0    0    0 -0.00000000000E+00 -0.00000000000E+00  0.00000000000E+00  0.93800000000E+00  0.93800000000E+00 0. -1.
         11    1    1    2    0    0 -0.44784281078E-01 -0.26989538551E+00  0.80636911360E+00  0.85151662311E+00  0.51100000000E-03 0.  1.
    9000002    1    1    2    0    0  0.36701765851E+00  0.96433200775E+00  0.87860339962E+00  0.16481584016E+01  0.93800000000E+00 0. -1.
         22    1    1    2    0    0 -0.32223337743E+00 -0.69443662224E+00  0.23150274541E+01  0.24383249753E+01  0.00000000000E+00 0.  1.
</event>
<event>
 5    1  0.1160133E+000  0.1591485E+01  0.7818608E-02  0.3362657E+00
         11   -1    0    0    0    0  0.00000000000E+00  0.00000000000E+00  0.39999999674E+01  0.40000000000E+01  0.51100000000E-03 0.  1.
    9000002   -1    0    0    0    0 -0.00000000000E+00 -0.00000000000E+00  0.00000000000E+00  0.93800000000E+00  0.93800000000E+00 0. -1.
         11    1    1    2    0    0  0.30487505185E-01  0.50662859523E+00  0.13186908238E+01  0.14129924881E+01  0.51100000000E-03 0.  1.
    9000002    1    1    2    0    0  0.16829836081E+00 -0.10808767095E+01  0.10464889017E+01  0.17808991608E+01  0.93800000000E+00 0. -1.
         22    1    1    2    0    0 -0.19878586600E+00  0.57424811432E+00  0.16348202418E+01  0.17441083511E+01  0.00000000000E+00 0.  1.
</event>
<event>
 5    1  0.1160133E+000  0.1598527E+01  0.7818608E-02  0.3354964E+00
         11   -1    0    0    0    0  0.00000000000E+00  0.00000000000E+00  0.39999999674E+01  0.40000000000E+01  0.51100000000E-03 0. -1.
    9000002   -1    0    0    0    0 -0.00000000000E+00 -0.00000000000E+00  0.00000000000E+00  0.93800000000E+00  0.93800000000E+00 0.  1.
         11    1    1    2    0    0 -0.10051568563E+00  0.70756178943E-01  0.50628182577E+00  0.52099077549E+00  0.51100000000E-03 0. -1.
    9000002    1    1    2    0    0  0.84010472604E+00 -0.48345347661E+00  0.74527876504E+00  0.15410346045E+01  0.93800000000E+00 0.  1.
         22    1    1    2    0    0 -0.73958904041E+00  0.41269729767E+00  0.27484393765E+01  0.28759746200E+01  0.00000000000E+00 0. -1.
</event>
<event>
 5    1  0.1160133E+000  0.1540557E+01  0.7818608E-02  0.3420520E+00
         11   -1    0    0    0    0  0.00000000000E+00  0.00000000000E+00  0.39999999674E+01  0.40000000000E+01  0.51100000000E-03 0.  1.
    9000002   -1    0    0    0    0 -0.00000000000E+00 -0.00000000000E+00  0.00000000000E+00  0.93800000000E+00  0.93800000000E+00 0. -1.
         11    1    1    2    0    0 -0.99203143493E-01 -0.34602140558E+00  0.12372291399E+01  0.12885295040E+01  0.51100000000E-03 0.  1.
    9000002    1    1    2    0    0  0.83625927741E+00  0.43704942906E+00  0.80376977342E+00  0.15544232471E+01  0.93800000000E+00 0. -1.
         22    1    1    2    0    0 -0.73705613391E+00 -0.91028023480E-01  0.19590010540E+01  0.20950472489E+01  0.00000000000E+00 0.  1.
</event>
<event>
 5    1  0.1160133E+000  0.1599665E+01  0.7818608E-02  0.3353727E+00
         11   -1    0    0    0    0  0.00000000000E+00  0.00000000000E+00  0.39999999674E+01  0.40000000000E+01  0.51100000000E-03 0. -1.
    9000002   -1    0    0    0    0 -0.00000000000E+00 -0.00000000000E+00  0.00000000000E+00  0.93800000000E+00  0.93800000000E+00 0.  1.
         11    1    1    2    0    0 -0.36832318885E+00 -0.43198378689E-01  0.12062416147E+01  0.12619616339E+01  0.51100000000E-03 0. -1.
    9000002    1    1    2    0    0  0.98804663247E+00  0.12071102604E+00  0.79502139200E+00  0.15819956743E+01  0.93800000000E+00 0.  1.
         22    1    1    2    0    0 -0.61972344362E+00 -0.77512647352E-01  0.19987369607E+01  0.20940426918E+01  0.00000000000E+00 0. -1.
</event>
<event>
 5    1  0.1160133E+000  0.1599677E+01  0.7818608E-02  0.3353714E+00
         11   -1    0    0    0    0  0.00000000000E+00  0.00000000000E+00  0.39999999674E+01  0.40000000000E+01  0.51100000000E-03 0. -1.
    9000002   -1    0    0    0    0 -0.00000000000E+00 -0.00000000000E+00  0.00000000000E+00  0.93800000000E+00  0.93800000000E+00 0.  1.
         11    1    1    2    0    0 -0.19686338832E-01  0.26637890181E+00  0.96376739941E+00  0.10000965616E+01  0.51100000000E-03 0.  1.
    9000002    1    1    2    0    0  0.66884856992E-01 -0.92388841283E+00  0.66455812642E+00  0.14763214036E+01  0.93800000000E+00 0.  1.
         22    1    1    2    0    0 -0.47198518160E-01  0.65750951102E+00  0.23716744415E+01  0.24615820347E+01  0.00000000000E+00 0. -1.
</event>
<event>
 5    1  0.1160133E+000  0.1466110E+01  0.7818608E-02  0.3512869E+00
         11   -1    0    0    0    0  0.00000000000E+00  0.00000000000E+00  0.39999999674E+01  0.40000000000E+01  0.51100000000E-03 0. -1.
    9000002   -1    0    0    0    0 -0.00000000000E+00 -0.00000000000E+00  0.00000000000E+00  0.93800000000E+00  0.93800000000E+00 0. -1.
         11    1    1    2    0    0 -0.46193568351E+00 -0.97927448887E-01  0.16173711072E+00  0.49913276294E+00  0.51100000000E-03 0. -1.
    9000002    1    1    2    0    0  0.10531223103E+01  0.39907720770E+00  0.19637701275E+01  0.24504216641E+01  0.93800000000E+00 0. -1.
         22    1    1    2    0    0 -0.59118662683E+00 -0.30114975881E+00  0.18744927291E+01  0.19884455730E+01  0.00000000000E+00 0. -1.
</event>
<event>
 5    1  0.1160133E+000  0.1599670E+01  0.7818608E-02  0.3353721E+00
         11   -1    0    0    0    0  0.00000000000E+00  0.00000000000E+00  0.39999999674E+01  0.40000000000E+01  0.51100000000E-03 0. -1.
    9000002   -1    0    0    0    0 -0.00000000000E+00 -0.00000000000E+00  0.00000000000E+00  0.93800000000E+00  0.93800000000E+00 0. -1.
         11    1    1    2    0    0  0.23157013491E+00 -0.51171351856E+00  0.63248864764E+00  0.84588273594E+00  0.51100000000E-03 0. -1.
    9000002    1    1    2    0    0 -0.53130175466E+00  0.11650278975E+01  0.25489502577E+01  0.30027592266E+01  0.93800000000E+00 0. -1.
         22    1    1    2    0    0  0.29973161974E+00 -0.65331437894E+00  0.81856106200E+00  0.10893580375E+01  0.00000000000E+00 0. -1.
</event>
<event>
 5    1  0.1160133E+000  0.1599653E+01  0.7818608E-02  0.3353740E+00
         11   -1    0    0    0    0  0.00000000000E+00  0.00000000000E+00  0.39999999674E+01  0.40000000000E+01  0.51100000000E-03 0. -1.
    9000002   -1    0    0    0    0 -0.00000000000E+00 -0.00000000000E+00  0.00000000000E+00  0.93800000000E+00  0.93800000000E+00 0. -1.
         11    1    1    2    0    0 -0.72301039898E-01  0.23488961534E+00  0.90595802338E+00  0.93870164217E+00  0.51100000000E-03 0. -1.
    9000002    1    1    2    0    0  0.28706676547E+00 -0.86910947071E+00  0.64562326045E+00  0.14609695392E+01  0.93800000000E+00 0. -1.
         22    1    1    2    0    0 -0.21476572557E+00  0.63421985537E+00  0.24484186835E+01  0.25383288187E+01  0.00000000000E+00 0. -1.
</event>
<event>
 5    1  0.1160133E+000  0.1598919E+01  0.7818608E-02  0.3354538E+00
         11   -1    0    0    0    0  0.00000000000E+00  0.00000000000E+00  0.39999999674E+01  0.40000000000E+01  0.51100000000E-03 0.  1.
    9000002   -1    0    0    0    0 -0.00000000000E+00 -0.00000000000E+00  0.00000000000E+00  0.93800000000E+00  0.93800000000E+00 0. -1.
         11    1    1    2    0    0 -0.38903493137E+00 -0.29064801902E-01  0.10523628904E+01  0.11223461385E+01  0.51100000000E-03 0.  1.
    9000002    1    1    2    0    0  0.11320568174E+01  0.12171586324E+00  0.11570995311E+01  0.18748575183E+01  0.93800000000E+00 0. -1.
         22    1    1    2    0    0 -0.74302188603E+00 -0.92651061333E-01  0.17905375459E+01  0.19407963431E+01  0.00000000000E+00 0.  1.
</event>
<event>
 5    1  0.1160133E+000  0.1599635E+01  0.7818608E-02  0.3353760E+00
         11   -1    0    0    0    0  0.00000000000E+00  0.00000000000E+00  0.39999999674E+01  0.40000000000E+01  0.51100000000E-03 0. -1.
    9000002   -1    0    0    0    0 -0.00000000000E+00 -0.00000000000E+00  0.00000000000E+00  0.93800000000E+00  0.93800000000E+00 0. -1.
         11    1    1    2    0    0 -0.24465676129E+00 -0.20704555719E+00  0.84232546270E+00  0.90124205396E+00  0.51100000000E-03 0. -1.
    9000002    1    1    2    0    0  0.84750110360E+00  0.70272681050E+00  0.10445168076E+01  0.17840802818E+01  0.93800000000E+00 0. -1.
         22    1    1    2    0    0 -0.60284434231E+00 -0.49568125330E+00  0.21131576971E+01  0.22526776642E+01  0.00000000000E+00 0. -1.
</event>
<event>
 5    1  0.1160133E+000  0.1599656E+01  0.7818608E-02  0.3353737E+00
         11   -1    0    0    0    0  0.00000000000E+00  0.00000000000E+00  0.39999999674E+01  0.40000000000E+01  0.51100000000E-03 0. -1.
    9000002   -1    0    0    0    0 -0.00000000000E+00 -0.00000000000E+00  0.00000000000E+00  0.93800000000E+00  0.93800000000E+00 0. -1.
         11    1    1    2    0    0 -0.37521024462E+00 -0.27615429644E+00  0.14074842529E+01  0.14825842662E+01  0.51100000000E-03 0. -1.
    9000002    1    1    2    0    0  0.82375774503E+00  0.62090302363E+00  0.87248998124E+00  0.16447431880E+01  0.93800000000E+00 0. -1.
         22    1    1    2    0    0 -0.44854750041E+00 -0.34474872719E+00  0.17200257332E+01  0.18106725458E+01  0.00000000000E+00 0. -1.
</event>
<event>
 5    1  0.1160133E+000  0.1599208E+01  0.7818608E-02  0.3354223E+00
         11   -1    0    0    0    0  0.00000000000E+00  0.00000000000E+00  0.39999999674E+01  0.40000000000E+01  0.51100000000E-03 0.  1.
    9000002   -1    0    0    0    0 -0.00000000000E+00 -0.00000000000E+00  0.00000000000E+00  0.93800000000E+00  0.93800000000E+00 0.  1.
         11    1    1    2    0    0  0.23730270028E+00  0.12068520918E+00  0.74820332009E+00  0.79415739031E+00  0.51100000000E-03 0.  1.
    9000002    1    1    2    0    0 -0.89540343649E+00 -0.51296708436E+00  0.87428452628E+00  0.16459343780E+01  0.93800000000E+00 0.  1.
         22    1    1    2    0    0  0.65810073620E+00  0.39228187518E+00  0.23775121210E+01  0.24979082317E+01  0.00000000000E+00 0.  1.
</event>
<event>
 5    1  0.1160133E+000  0.1574416E+01  0.7818608E-02  0.3381608E+00
         11   -1    0    0    0    0  0.00000000000E+00  0.00000000000E+00  0.39999999674E+01  0.40000000000E+01  0.51100000000E-03 0. -1.
    9000002   -1    0    0    0    0 -0.00000000000E+00 -0.00000000000E+00  0.00000000000E+00  0.93800000000E+00  0.93800000000E+00 0. -1.
         11    1    1    2    0    0 -0.32293033016E+00  0.21326817733E+00  0.13410539209E+01  0.13957769139E+01  0.51100000000E-03 0. -1.
    9000002    1    1    2    0    0  0.10691010782E+01 -0.42638594082E+00  0.12820334975E+01  0.19616921203E+01  0.93800000000E+00 0. -1.
         22    1    1    2    0    0 -0.74617074806E+00  0.21311776349E+00  0.13769125490E+01  0.15805309658E+01  0.00000000000E+00 0.  1.
</event>
<event>
 5    1  0.1160133E+000  0.1592659E+01  0.7818608E-02  0.3361370E+00
         11   -1    0    0    0    0  0.00000000000E+00  0.00000000000E+00  0.39999999674E+01  0.40000000000E+01  0.51100000000E-03 0. -1.
    9000002   -1    0    0    0    0 -0.00000000000E+00 -0.00000000000E+00  0.00000000000E+00  0.93800000000E+00  0.93800000000E+00 0. -1.
         11    1    1    2    0    0  0.26260346432E-01 -0.41618484364E+00  0.14321427178E+01  0.14916207478E+01  0.51100000000E-03 0. -1.
    9000002    1    1    2    0    0 -0.27945291509E+00  0.88831623699E+00  0.68485328260E+00  0.14886462600E+01  0.93800000000E+00 0. -1.
         22    1    1    2    0    0  0.25319256865E+00 -0.47213139335E+00  0.18830039670E+01  0.19577329923E+01  0.00000000000E+00 0. -1.
</event>
<event>
 5    1  0.1160133E+000  0.1578485E+01  0.7818608E-02  0.3377051E+00
         11   -1    0    0    0    0  0.00000000000E+00  0.00000000000E+00  0.39999999674E+01  0.40000000000E+01  0.51100000000E-03 0.  1.
    9000002   -1    0    0    0    0 -0.00000000000E+00 -0.00000000000E+00  0.00000000000E+00  0.93800000000E+00  0.93800000000E+00 0. -1.
         11    1    1    2    0    0 -0.32273391182E+00 -0.30078283960E+00  0.81926918026E+00  0.93049972880E+00  0.51100000000E-03 0.  1.
    9000002    1    1    2    0    0  0.52645533366E+00  0.11228265273E+01  0.17170774533E+01  0.23164830260E+01  0.93800000000E+00 0. -1.
         22    1    1    2    0    0 -0.20372142184E+00 -0.82204368774E+00  0.14636533338E+01  0.16910172452E+01  0.00000000000E+00 0.  1.
</event>
<event>
 5    1  0.1160133E+000  0.1599585E+01  0.7818608E-02  0.3353814E+00
         11   -1    0    0    0    0  0.00000000000E+00  0.00000000000E+00  0.39999999674E+01  0.40000000000E+01  0.51100000000E-03 0. -1.
    9000002   -1    0    0    0    0 -0.00000000000E+00 -0.00000000000E+00  0.00000000000E+00  0.93800000000E+00  0.93800000000E+00 0. -1.
         11    1    1    2    0    0  0.22534395399E-01  0.29762155473E+00  0.99281076033E+00  0.10367062534E+01  0.51100000000E-03 0. -1.
    9000002    1    1    2    0    0 -0.43835169834E-01 -0.98532348195E+00  0.77676564038E+00  0.15671607276E+01  0.93800000000E+00 0. -1.
         22    1    1    2    0    0  0.21300774435E-01  0.68770192721E+00  0.22304235666E+01  0.23341330190E+01  0.00000000000E+00 0. -1.
</event>
<event>
 5    1  0.1160133E+000  0.1599666E+01  0.7818608E-02  0.3353726E+00
         11   -1    0    0    0    0  0.00000000000E+00  0.00000000000E+00  0.39999999674E+01  0.40000000000E+01  0.51100000000E-03 0.  1.
    9000002   -1    0    0    0    0 -0.00000000000E+00 -0.00000000000E+00  0.00000000000E+00  0.93800000000E+00  0.93800000000E+00 0.  1.
         11    1    1    2    0    0  0.33519071145E+00  0.18469498826E+00  0.12132669445E+01  0.12721957363E+01  0.51100000000E-03 0.  1.
    9000002    1    1    2    0    0 -0.88759547609E+00 -0.48159621267E+00  0.82509868599E+00  0.16063600103E+01  0.93800000000E+00 0.  1.
         22    1    1    2    0    0  0.55240476464E+00  0.29690122441E+00  0.19616343369E+01  0.20594442533E+01  0.00000000000E+00 0. -1.
</event>
<event>
 5    1  0.1160133E+000  0.1599335E+01  0.7818608E-02  0.3354086E+00
         11   -1    0    0    0    0  0.00000000000E+00  0.00000000000E+00  0.39999999674E+01  0.40000000000E+01  0.51100000000E-03 0.  1.
    9000002   -1    0    0    0    0 -0.00000000000E+00 -0.00000000000E+00  0.00000000000E+00  0.93800000000E+00  0.93800000000E+00 0. -1.
         11    1    1    2    0    0  0.36568810631E+00 -0.36380819464E+00  0.96892200195E+00  0.10976767742E+01  0.51100000000E-03 0.  1.
    9000002    1    1    2    0    0 -0.85678587687E+00  0.89801639231E+00  0.15770047447E+01  0.22152434278E+01  0.93800000000E+00 0. -1.
         22    1    1    2    0    0  0.49109777056E+00 -0.53420819766E+00  0.14540732207E+01  0.16250797980E+01  0.00000000000E+00 0.  1.
</event>
<event>
 5    1  0.1160133E+000  0.1599650E+01  0.7818608E-02  0.3353743E+00
         11   -1    0    0    0    0  0.00000000000E+00  0.00000000000E+00  0.39999999674E+01  0.40000000000E+01  0.51100000000E-03 0. -1.
    9000002   -1    0    0    0    0 -0.00000000000E+00 -0.00000000000E+00  0.00000000000E+00  0.93800000000E+00  0.93800000000E+00 0. -1.
         11    1    1    2    0    0  0.20090924485E+00  0.94510303881E-01  0.69709822030E+00  0.73160297434E+00  0.51100000000E-03 0. -1.
    9000002    1    1    2    0    0 -0.91084417192E+00 -0.41142378307E+00  0.80339974400E+00  0.15887736728E+01  0.93800000000E+00 0. -1.
         22    1    1    2    0    0  0.70993492707E+00  0.31691347919E+00  0.24995020031E+01  0.26176233528E+01  0.00000000000E+00 0.  1.
</event>
<event>
 5    1  0.1160133E+000  0.1599670E+01  0.7818608E-02  0.3353721E+00
         11   -1    0    0    0    0  0.00000000000E+00  0.00000000000E+00  0.39999999674E+01  0.40000000000E+01  0.51100000000E-03 0. -1.
    9000002   -1    0    0    0    0 -0.00000000000E+00 -0.00000000000E+00  0.00000000000E+00  0.93800000000E+00  0.93800000000E+00 0.  1.
         11    1    1    2    0    0  0.37357670840E+00  0.28534088042E+00  0.70635737515E+00  0.84848098249E+00  0.51100000000E-03 0. -1.
    9000002    1    1    2    0    0 -0.10234433376E+01 -0.79025036941E+00  0.20654820869E+01  0.26111285229E+01  0.93800000000E+00 0.  1.
         22    1    1    2    0    0  0.64986662921E+00  0.50490948900E+00  0.12281605053E+01  0.14783904946E+01  0.00000000000E+00 0. -1.
</event>
<event>
 5    1  0.1160133E+000  0.1599464E+01  0.7818608E-02  0.3353945E+00
         11   -1    0    0    0    0  0.00000000000E+00  0.00000000000E+00  0.39999999674E+01  0.40000000000E+01  0.51100000000E-03 0. -1.
    9000002   -1    0    0    0    0 -0.00000000000E+00 -0.00000000000E+00  0.00000000000E+00  0.93800000000E+00  0.93800000000E+00 0. -1.
         11    1    1    2    0    0  0.25426337176E+00 -0.14658582829E-01  0.25507651155E+00  0.36045668829E+00  0.51100000000E-03 0. -1.
    9000002    1    1    2    0    0 -0.12649334042E+01  0.11398626357E+00  0.26457005551E+01  0.30810103558E+01  0.93800000000E+00 0. -1.
         22    1    1    2    0    0  0.10106700325E+01 -0.99327680740E-01  0.10992229007E+01  0.14965329559E+01  0.00000000000E+00 0. -1.
</event>
<event>
 5    1  0.1160133E+000  0.1594033E+01  0.7818608E-02  0.3359865E+00
         11   -1    0    0    0    0  0.00000000000E+00  0.00000000000E+00  0.39999999674E+01  0.40000000000E+01  0.51100000000E-03 0.  1.
    9000002   -1    0    0    0    0 -0.00000000000E+00 -0.00000000000E+00  0.00000000000E+00  0.93800000000E+00  0.93800000000E+00 0.  1.
         11    1    1    2    0    0  0.74525223617E-01  0.45891848445E+00  0.12137517271E+01  0.12997513995E+01  0.51100000000E-03 0.  1.
    9000002    1    1    2    0    0 -0.38601605946E+00 -0.10546244980E+01  0.11236885086E+01  0.18449284795E+01  0.93800000000E+00 0.  1.
         22    1    1    2    0    0  0.31149083584E+00  0.59570601351E+00  0.16625597316E+01  0.17933201210E+01  0.00000000000E+00 0.  1.
</event>
<event>
 5    1  0.1160133E+000  0.1599020E+01  0.7818608E-02  0.3354427E+00
         11   -1    0    0    0    0  0.00000000000E+00  0.00000000000E+00  0.39999999674E+01  0.40000000000E+01  0.51100000000E-03 0.  1.
    9000002   -1    0    0    0    0 -0.00000000000E+00 -0.00000000000E+00  0.00000000000E+00  0.93800000000E+00  0.93800000000E+00 0.  1.
         11    1    1    2    0    0 -0.40968446085E+00  0.60148754453E-01  0.12098308422E+01  0.12787299004E+01  0.51100000000E-03 0.  1.
    9000002    1    1    2    0    0  0.10205593510E+01 -0.89633403239E-01  0.85809949764E+00  0.16327137789E+01  0.93800000000E+00 0.  1.
         22    1    1    2    0    0 -0.61087489011E+00  0.29484648786E-01  0.19320696275E+01  0.20265563208E+01  0.00000000000E+00 0.  1.
</event>
<event>
 5    1  0.1160133E+000  0.1596797E+01  0.7818608E-02  0.3356848E+00
         11   -1    0    0    0    0  0.00000000000E+00  0.00000000000E+00  0.39999999674E+01  0.40000000000E+01  0.51100000000E-03 0. -1.
    9000002   -1    0    0    0    0 -0.00000000000E+00 -0.00000000000E+00  0.00000000000E+00  0.93800000000E+00  0.93800000000E+00 0. -1.
         11    1    1    2    0    0 -0.52342827447E-01  0.33639644193E+00  0.12907266952E+01  0.13348700313E+01  0.51100000000E-03 0. -1.
    9000002    1    1    2    0    0  0.50511206960E-01 -0.98191658120E+00  0.77579878990E+00  0.15647425721E+01  0.93800000000E+00 0. -1.
         22    1    1    2    0    0  0.18316204862E-02  0.64552013927E+00  0.19334744823E+01  0.20383873966E+01  0.00000000000E+00 0. -1.
</event>
<event>
 5    1  0.1160133E+000  0.1599336E+01  0.7818608E-02  0.3354085E+00
         11   -1    0    0    0    0  0.00000000000E+00  0.00000000000E+00  0.39999999674E+01  0.40000000000E+01  0.51100000000E-03 0.  1.
    9000002   -1    0    0    0    0 -0.00000000000E+00 -0.00000000000E+00  0.00000000000E+00  0.93800000000E+00  0.93800000000E+00 0. -1.
         11    1    1    2    0    0  0.30933880121E+00  0.16900052849E+00  0.13193013979E+01  0.13655797715E+01  0.51100000000E-03 0.  1.
    9000002    1    1    2    0    0 -0.82774692899E+00 -0.44701005936E+00  0.69069393117E+00  0.14972925827E+01  0.93800000000E+00 0. -1.
         22    1    1    2    0    0  0.51840812778E+00  0.27800953087E+00  0.19900046383E+01  0.20751276458E+01  0.00000000000E+00 0. -1.
</event>
<event>
 5    1  0.1160133E+000  0.1599668E+01  0.7818608E-02  0.3353724E+00
         11   -1    0    0    0    0  0.00000000000E+00  0.00000000000E+00  0.39999999674E+01  0.40000000000E+01  0.51100000000E-03 0.  1.
    9000002   -1    0    0    0    0 -0.00000000000E+00 -0.00000000000E+00  0.00000000000E+00  0.93800000000E+00  0.93800000000E+00 0.  1.
         11    1    1    2    0    0  0.69862607303E-01  0.77021489817E-01  0.22823746386E+00  0.25081007720E+00  0.51100000000E-03 0.  1.
    9000002    1    1    2    0    0 -0.79652511525E+00 -0.90347474006E+00  0.13948866859E+01  0.20679148270E+01  0.93800000000E+00 0.  1.
         22    1    1    2    0    0  0.72666250794E+00  0.82645325024E+00  0.23768758176E+01  0.26192750958E+01  0.00000000000E+00 0.  1.
</event>
<event>
 5    1  0.1160133E+000  0.1588291E+01  0.7818608E-02  0.3366171E+00
         11   -1    0    0    0    0  0.00000000000E+00  0.00000000000E+00  0.39999999674E+01  0.40000000000E+01  0.51100000000E-03 0. -1.
    9000002   -1    0    0    0    0 -0.00000000000E+00 -0.00000000000E+00  0.00000000000E+00  0.93800000000E+00  0.93800000000E+00 0.  1.
         11    1    1    2    0    0  0.26971280650E+00 -0.71145605702E-01  0.11688866736E+01  0.12017083723E+01  0.51100000000E-03 0. -1.
    9000002    1    1    2    0    0 -0.10033032586E+01 -0.17140159201E-01  0.83419366030E+00  0.16070576457E+01  0.93800000000E+00 0.  1.
         22    1    1    2    0    0  0.73359045206E+00  0.88285764903E-01  0.19969196335E+01  0.21292339820E+01  0.00000000000E+00 0. -1.
</event>
<event>
 5    1  0.1160133E+000  0.1578173E+01  0.7818608E-02  0.3377400E+00
         11   -1    0    0    0    0  0.00000000000E+00  0.00000000000E+00  0.39999999674E+01  0.40000000000E+01  0.51100000000E-03 0. -1.
    9000002   -1    0    0    0    0 -0.00000000000E+00 -0.00000000000E+00  0.00000000000E+00  0.93800000000E+00  0.93800000000E+00 0.  1.
         11    1    1    2    0    0 -0.29195619251E+00 -0.23480085902E+00  0.12787527023E+01  0.13325083852E+01  0.51100000000E-03 0. -1.
    9000002    1    1    2    0    0  0.94907975663E+00  0.21241710667E+00  0.78955351710E+00  0.15649639510E+01  0.93800000000E+00 0.  1.
         22    1    1    2    0    0 -0.65712356412E+00  0.22383752346E-01  0.19316937479E+01  0.20405276638E+01  0.00000000000E+00 0. -1.
</event>
<event>
 5    1  0.1160133E+000  0.1585973E+01  0.7818608E-02  0.3368730E+00
         11   -1    0    0    0    0  0.00000000000E+00  0.00000000000E+00  0.39999999674E+01  0.40000000000E+01  0.51100000000E-03 0. -1.
    9000002   -1    0    0    0    0 -0.00000000000E+00 -0.00000000000E+00  0.00000000000E+00  0.93800000000E+00  0.93800000000E+00 0.  1.
         11    1    1    2    0    0  0.47846806938E+00  0.24641558676E+00  0.13492130370E+01  0.14525936855E+01  0.51100000000E-03 0. -1.
    9000002    1    1    2    0    0 -0.10676978687E+01 -0.23179266328E+00  0.10574551398E+01  0.17865502932E+01  0.93800000000E+00 0.  1.
         22    1    1    2    0    0  0.58922979928E+00 -0.14622923486E-01  0.15933317906E+01  0.16988560213E+01  0.00000000000E+00 0. -1.
</event>
<event>
 5    1  0.1160133E+000  0.1449391E+01  0.7818608E-02  0.3535021E+00
         11   -1    0    0    0    0  0.00000000000E+00  0.00000000000E+00  0.39999999674E+01  0.40000000000E+01  0.51100000000E-03 0.  1.
    9000002   -1    0    0    0    0 -0.00000000000E+00 -0.00000000000E+00  0.00000000000E+00  0.93800000000E+00  0.93800000000E+00 0.  1.
         11    1    1    2    0    0 -0.24198748746E+00  0.11362576696E+00  0.11856432876E+01  0.12154089951E+01  0.51100000000E-03 0.  1.
    9000002    1    1    2    0    0 -0.29919023208E+00  0.51805419160E+00  0.42221973650E+00  0.11899615314E+01  0.93800000000E+00 0.  1.
         22    1    1    2    0    0  0.54117771954E+00 -0.63167995856E+00  0.23921369433E+01  0.25326294734E+01  0.00000000000E+00 0.  1.
</event>
<event>
 5    1  0.1160133E+000  0.1595797E+01  0.7818608E-02  0.3357938E+00
         11   -1    0    0    0    0  0.00000000000E+00  0.00000000000E+00  0.39999999674E+01  0.40000000000E+01  0.51100000000E-03 0. -1.
    9000002   -1    0    0    0    0 -0.00000000000E+00 -0.00000000000E+00  0.00000000000E+00  0.93800000000E+00  0.93800000000E+00 0. -1.
         11    1    1    2    0    0  0.16609517286E+00 -0.28298650315E+00  0.20739988961E+00  0.38818029670E+00  0.51100000000E-03 0. -1.
    9000002    1    1    2    0    0  0.64168828761E+00 -0.18686521976E+00  0.76843838961E+00  0.13845663680E+01  0.93800000000E+00 0. -1.
         22    1    1    2    0    0 -0.80778346047E+00  0.46985172291E+00  0.30241616881E+01  0.31652533353E+01  0.00000000000E+00 0. -1.
</event>
<event>
 5    1  0.1160133E+000  0.1572510E+01  0.7818608E-02  0.3383752E+00
         11   -1    0    0    0    0  0.00000000000E+00  0.00000000000E+00  0.39999999674E+01  0.40000000000E+01  0.51100000000E-03 0.  1.
    9000002   -1    0    0    0    0 -0.00000000000E+00 -0.00000000000E+00  0.00000000000E+00  0.93800000000E+00  0.93800000000E+00 0.  1.
         11    1    1    2    0    0  0.19924610529E+00 -0.90747190369E-01  0.31074414674E+00  0.38012662218E+00  0.51100000000E-03 0.  1.
    9000002    1    1    2    0    0 -0.71835617406E+00  0.70829094722E+00  0.87890643899E+00  0.16340233129E+01  0.93800000000E+00 0.  1.
         22    1    1    2    0    0  0.51911006876E+00 -0.61754375685E+00  0.28103493816E+01  0.29238500649E+01  0.00000000000E+00 0.  1.
</event>
<event>
 5    1  0.1160133E+000  0.1732539E+01  0.7818608E-02  0.3220989E+00
         11   -1    0    0    0    0  0.00000000000E+00  0.00000000000E+00  0.39999999674E+01  0.40000000000E+01  0.51100000000E-03 0.  1.
    9000002   -1    0    0    0    0 -0.00000000000E+00 -0.00000000000E+00  0.00000000000E+00  0.93800000000E+00  0.93800000000E+00 0.  1.
         11    1    1    2    0    0  0.50980501934E+00 -0.13421382080E+00  0.44311979070E+00  0.68867257639E+00  0.51100000000E-03 0.  1.
    9000002    1    1    2    0    0  0.37127486577E+00  0.82221313256E-01  0.62985755438E+00  0.11921283107E+01  0.93800000000E+00 0.  1.
         22    1    1    2    0    0 -0.88107988511E+00  0.51992507544E-01  0.29270226223E+01  0.30571991129E+01  0.00000000000E+00 0.  1.
</event>
<event>
 5    1  0.1160133E+000  0.1599638E+01  0.7818608E-02  0.3353756E+00
         11   -1    0    0    0    0  0.00000000000E+00  0.00000000000E+00  0.39999999674E+01  0.40000000000E+01  0.51100000000E-03 0. -1.
    9000002   -1    0    0    0    0 -0.00000000000E+00 -0.00000000000E+00  0.00000000000E+00  0.93800000000E+00  0.93800000000E+00 0.  1.
         11    1    1    2    0    0 -0.50557302081E-01  0.80762025161E-01  0.30480888609E+00  0.31935444832E+00  0.51100000000E-03 0. -1.
    9000002    1    1    2    0    0  0.51752076118E+00 -0.81975168722E+00  0.74360065536E+00  0.15403267516E+01  0.93800000000E+00 0.  1.
         22    1    1    2    0    0 -0.46696345910E+00  0.73898966206E+00  0.29515904259E+01  0.30783188001E+01  0.00000000000E+00 0. -1.
</event>
<event>
 5    1  0.1160133E+000  0.1593044E+01  0.7818608E-02  0.3360948E+00
         11   -1    0    0    0    0  0.00000000000E+00  0.00000000000E+00  0.39999999674E+01  0.40000000000E+01  0.51100000000E-03 0. -1.
    9000002   -1    0    0    0    0 -0.00000000000E+00 -0.00000000000E+00  0.00000000000E+00  0.93800000000E+00  0.93800000000E+00 0.  1.
         11    1    1    2    0    0  0.12618329931E-01 -0.50586327490E+00  0.12071312741E+01  0.13089014665E+01  0.51100000000E-03 0. -1.
    9000002    1    1    2    0    0 -0.73068023361E-01  0.10393163251E+01  0.91042903160E+00  0.16715987501E+01  0.93800000000E+00 0. -1.
         22    1    1    2    0    0  0.60449693430E-01 -0.53345305017E+00  0.18824396617E+01  0.19574997834E+01  0.00000000000E+00 0. -1.
</event>
<event>
 5    1  0.1160133E+000  0.1488761E+01  0.7818608E-02  0.3483716E+00
         11   -1    0    0    0    0  0.00000000000E+00  0.00000000000E+00  0.39999999674E+01  0.40000000000E+01  0.51100000000E-03 0. -1.
    9000002   -1    0    0    0    0 -0.00000000000E+00 -0.00000000000E+00  0.00000000000E+00  0.93800000000E+00  0.93800000000E+00 0. -1.
         11    1    1    2    0    0 -0.25478092575E+00  0.65505850800E-01  0.17592195803E+00  0.31646979801E+00  0.51100000000E-03 0. -1.
    9000002    1    1    2    0    0 -0.30306808080E+00 -0.76149852958E+00  0.82853491388E+00  0.14960094838E+01  0.93800000000E+00 0. -1.
         22    1    1    2    0    0  0.55784900655E+00  0.69599267878E+00  0.29955430954E+01  0.31255207182E+01  0.00000000000E+00 0. -1.
</event>
<event>
 5    1  0.1160133E+000  0.1589634E+01  0.7818608E-02  0.3364692E+00
         11   -1    0    0    0    0  0.00000000000E+00  0.00000000000E+00  0.39999999674E+01  0.40000000000E+01  0.51100000000E-03 0. -1.
    9000002   -1    0    0    0    0 -0.00000000000E+00 -0.00000000000E+00  0.00000000000E+00  0.93800000000E+00  0.93800000000E+00 0.  1.
         11    1    1    2    0    0  0.60142774148E-01 -0.10328282142E-02  0.29450043644E+00  0.30058108424E+00  0.51100000000E-03 0. -1.
    9000002    1    1    2    0    0 -0.12033603326E+01  0.15122615751E+00  0.14802581897E+01  0.21311859959E+01  0.93800000000E+00 0.  1.
         22    1    1    2    0    0  0.11432175585E+01 -0.15019332930E+00  0.22252413412E+01  0.25062329199E+01  0.00000000000E+00 0. -1.
</event>
<event>
 5    1  0.1160133E+000  0.1599242E+01  0.7818608E-02  0.3354187E+00
         11   -1    0    0    0    0  0.00000000000E+00  0.00000000000E+00  0.39999999674E+01  0.40000000000E+01  0.51100000000E-03 0. -1.
    9000002   -1    0    0    0    0 -0.00000000000E+00 -0.00000000000E+00  0.00000000000E+00  0.93800000000E+00  0.93800000000E+00 0.  1.
         11    1    1    2    0    0  0.32170784601E+00 -0.11092967303E+00  0.11548811406E+01  0.12039734385E+01  0.51100000000E-03 0. -1.
    9000002    1    1    2    0    0 -0.95709224043E+00  0.30072518743E+00  0.81202687061E+00  0.15955227462E+01  0.93800000000E+00 0.  1.
         22    1    1    2    0    0  0.63538439442E+00 -0.18979551440E+00  0.20330919561E+01  0.21385038153E+01  0.00000000000E+00 0. -1.
</event>
<event>
 5    1  0.1160133E+000  0.1599672E+01  0.7818608E-02  0.3353719E+00
         11   -1    0    0    0    0  0.00000000000E+00  0.00000000000E+00  0.39999999674E+01  0.40000000000E+01  0.51100000000E-03 0.  1.
    9000002   -1    0    0    0    0 -0.00000000000E+00 -0.00000000000E+00  0.00000000000E+00  0.93800000000E+00  0.93800000000E+00 0. -1.
         11    1    1    2    0    0  0.29413969667E+00  0.49245447939E+00  0.13456571277E+01  0.14628133654E+01  0.51100000000E-03 0.  1.
    9000002    1    1    2    0    0 -0.60399324528E+00 -0.10008411059E+01  0.12563510550E+01  0.19556975055E+01  0.93800000000E+00 0. -1.
         22    1    1    2    0    0  0.30985354861E+00  0.50838662652E+00  0.13979917846E+01  0.15194891291E+01  0.00000000000E+00 0.  1.
</event>
<event>
 5    1  0.1160133E+000  0.1599666E+01  0.7818608E-02  0.3353726E+00
         11   -1    0    0    0    0  0.00000000000E+00  0.00000000000E+00  0.39999999674E+01  0.40000000000E+01  0.51100000000E-03 0. -1.
    9000002   -1    0    0    0    0 -0.00000000000E+00 -0.00000000000E+00  0.00000000000E+00  0.93800000000E+00  0.93800000000E+00 0. -1.
         11    1    1    2    0    0  0.14060529299E+00  0.36832887638E-01  0.38163341063E+00  0.40837584559E+00  0.51100000000E-03 0. -1.
    9000002    1    1    2    0    0 -0.10829282763E+01 -0.29327130387E+00  0.11041857551E+01  0.18324333251E+01  0.93800000000E+00 0. -1.
         22    1    1    2    0    0  0.94232298332E+00  0.25643841623E+00  0.25141808017E+01  0.26971908293E+01  0.00000000000E+00 0. -1.
</event>
<event>
 5    1  0.1160133E+000  0.1599677E+01  0.7818608E-02  0.3353714E+00
         11   -1    0    0    0    0  0.00000000000E+00  0.00000000000E+00  0.39999999674E+01  0.40000000000E+01  0.51100000000E-03 0.  1.
    9000002   -1    0    0    0    0 -0.00000000000E+00 -0.00000000000E+00  0.00000000000E+00  0.93800000000E+00  0.93800000000E+00 0.  1.
         11    1    1    2    0    0 -0.32885484567E+00 -0.12236115029E+00  0.11044248021E+01  0.11588236126E+01  0.51100000000E-03 0.  1.
    9000002    1    1    2    0    0  0.94626055602E+00  0.35164880164E+00  0.82434705349E+00  0.16057577601E+01  0.93800000000E+00 0.  1.
         22    1    1    2    0    0 -0.61740571035E+00 -0.22928765135E+00  0.20712281118E+01  0.21734186272E+01  0.00000000000E+00 0.  1.
</event>
<event>
 5    1  0.1160133E+000  0.1547723E+01  0.7818608E-02  0.3412133E+00
         11   -1    0    0    0    0  0.00000000000E+00  0.00000000000E+00  0.39999999674E+01  0.40000000000E+01  0.51100000000E-03 0. -1.
    9000002   -1    0    0    0    0 -0.00000000000E+00 -0.00000000000E+00  0.00000000000E+00  0.93800000000E+00  0.93800000000E+00 0.  1.
         11    1    1    2    0    0 -0.13484209581E+00  0.26782167115E+00  0.41698871197E+00  0.51360557373E+00  0.51100000000E-03 0. -1.
    9000002    1    1    2    0    0 -0.26331305501E+00 -0.10766314257E+01  0.12242740797E+01  0.18992524883E+01  0.93800000000E+00 0.  1.
         22    1    1    2    0    0  0.39815515082E+00  0.80880975460E+00  0.23587371757E+01  0.25251419380E+01  0.00000000000E+00 0. -1.
</event>
<event>
 5    1  0.1160133E+000  0.1599667E+01  0.7818608E-02  0.3353725E+00
         11   -1    0    0    0    0  0.00000000000E+00  0.00000000000E+00  0.39999999674E+01  0.40000000000E+01  0.51100000000E-03 0.  1.
    9000002   -1    0    0    0    0 -0.00000000000E+00 -0.00000000000E+00  0.00000000000E+00  0.93800000000E+00  0.93800000000E+00 0. -1.
         11    1    1    2    0    0 -0.66256892130E-01  0.18166809888E-01  0.23417578299E+00  0.24404623987E+00  0.51100000000E-03 0.  1.
    9000002    1    1    2    0    0  0.92655684869E+00 -0.22782601457E+00  0.71466816202E+00  0.15169070072E+01  0.93800000000E+00 0. -1.
         22    1    1    2    0    0 -0.86029995656E+00  0.20965920468E+00  0.30511560223E+01  0.31770467529E+01  0.00000000000E+00 0.  1.
</event>
<event>
 5    1  0.1160133E+000  0.1599677E+01  0.7818608E-02  0.3353714E+00
         11   -1    0    0    0    0  0.00000000000E+00  0.00000000000E+00  0.39999999674E+01  0.40000000000E+01  0.51100000000E-03 0. -1.
    9000002   -1    0    0    0    0 -0.00000000000E+00 -0.00000000000E+00  0.00000000000E+00  0.93800000000E+00  0.93800000000E+00 0.  1.
         11    1    1    2    0    0  0.33280179693E+00  0.27076013891E-01  0.77394655704E+00  0.84290194023E+00  0.51100000000E-03 0. -1.
    9000002    1    1    2    0    0 -0.11703087762E+01 -0.95797118496E-01  0.12752953266E+01  0.19710458872E+01  0.93800000000E+00 0.  1.
         22    1    1    2    0    0  0.83750697924E+00  0.68721104605E-01  0.19507580837E+01  0.21240521726E+01  0.00000000000E+00 0. -1.
</event>
<event>
 5    1  0.1160133E+000  0.1584599E+01  0.7818608E-02  0.3370251E+00
         11   -1    0    0    0    0  0.00000000000E+00  0.00000000000E+00  0.39999999674E+01  0.40000000000E+01  0.51100000000E-03 0.  1.
    9000002   -1    0    0    0    0 -0.00000000000E+00 -0.00000000000E+00  0.00000000000E+00  0.93800000000E+00  0.93800000000E+00 0.  1.
         11    1    1    2    0    0 -0.27178345093E+00  0.14015762598E+00  0.97888757695E+00  0.10255396403E+01  0.51100000000E-03 0.  1.
    9000002    1    1    2    0    0  0.53940531450E+00 -0.72359552086E+00  0.64798497906E+00  0.14540553993E+01  0.93800000000E+00 0.  1.
         22    1    1    2    0    0 -0.26762186357E+00  0.58343789488E+00  0.23731274113E+01  0.24584049604E+01  0.00000000000E+00 0.  1.
</event>
<event>
 5    1  0.1160133E+000  0.1599677E+01  0.7818608E-02  0.3353714E+00
         11   -1    0    0    0    0  0.00000000000E+00  0.00000000000E+00  0.39999999674E+01  0.40000000000E+01  0.51100000000E-03 0.  1.
    9000002   -1    0    0    0    0 -0.00000000000E+00 -0.00000000000E+00  0.00000000000E+00  0.93800000000E+00  0.93800000000E+00 0.  1.
         11    1    1    2    0    0  0.42654869720E+00 -0.54506030390E-01  0.13744821025E+01  0.14401791589E+01  0.51100000000E-03 0.  1.
    9000002    1    1    2    0    0 -0.99086782830E+00  0.12758272817E+00  0.80251077711E+00  0.15880692532E+01  0.93800000000E+00 0.  1.
         22    1    1    2    0    0  0.56431913110E+00 -0.73076697779E-01  0.18230070877E+01  0.19097515879E+01  0.00000000000E+00 0.  1.
</event>
<event>
 5    1  0.1160133E+000  0.1598921E+01  0.7818608E-02  0.3354535E+00
         11   -1    0    0    0    0  0.00000000000E+00  0.00000000000E+00  0.39999999674E+01  0.40000000000E+01  0.51100000000E-03 0.  1.
    9000002   -1    0    0    0    0 -0.00000000000E+00 -0.00000000000E+00  0.00000000000E+00  0.93800000000E+00  0.93800000000E+00 0.  1.
         11    1    1    2    0    0 -0.87509583143E-01  0.20966384788E+00  0.81832710478E+00  0.84927991133E+00  0.51100000000E-03 0.  1.
    9000002    1    1    2    0    0  0.30888207558E+00 -0.93641914996E+00  0.77750201197E+00  0.15673679656E+01  0.93800000000E+00 0.  1.
         22    1    1    2    0    0 -0.22137249244E+00  0.72675530208E+00  0.24041708506E+01  0.25213521231E+01  0.00000000000E+00 0.  1.
</event>
<event>
 5    1  0.1160133E+000  0.1547137E+01  0.7818608E-02  0.3412816E+00
         11   -1    0    0    0    0  0.00000000000E+00  0.00000000000E+00  0.39999999674E+01  0.40000000000E+01  0.51100000000E-03 0. -1.
    9000002   -1    0    0    0    0 -0.00000000000E+00 -0.00000000000E+00  0.00000000000E+00  0.93800000000E+00  0.93800000000E+00 0. -1.
         11    1    1    2    0    0 -0.59377664004E-01 -0.12062459743E-01  0.57433655555E+00  0.57752398226E+00  0.51100000000E-03 0. -1.
    9000002    1    1    2    0    0 -0.70485890173E+00 -0.54214106149E+00  0.68715910330E+00  0.14638219274E+01  0.93800000000E+00 0. -1.
         22    1    1    2    0    0  0.76423656573E+00  0.55420352124E+00  0.27385043085E+01  0.28966540903E+01  0.00000000000E+00 0. -1.
</event>
<event>
 5    1  0.1160133E+000  0.1599119E+01  0.7818608E-02  0.3354320E+00
         11   -1    0    0    0    0  0.00000000000E+00  0.00000000000E+00  0.39999999674E+01  0.40000000000E+01  0.51100000000E-03 0.  1.
    9000002   -1    0    0    0    0 -0.00000000000E+00 -0.00000000000E+00  0.00000000000E+00  0.93800000000E+00  0.93800000000E+00 0.  1.
         11    1    1    2    0    0 -0.61799860934E-01 -0.19216260973E+00  0.70321896551E+00  0.73161661132E+00  0.51100000000E-03 0.  1.
    9000002    1    1    2    0    0  0.24769273173E+00  0.97494448206E+00  0.81790706693E+00  0.16002138615E+01  0.93800000000E+00 0.  1.
         22    1    1    2    0    0 -0.18589287079E+00 -0.78278187233E+00  0.24788739349E+01  0.26061695272E+01  0.00000000000E+00 0.  1.
</event>
<event>
 5    1  0.1160133E+000  0.1599659E+01  0.7818608E-02  0.3353733E+00
         11   -1    0    0    0    0  0.00000000000E+00  0.00000000000E+00  0.39999999674E+01  0.40000000000E+01  0.51100000000E-03 0. -1.
    9000002   -1    0    0    0    0 -0.00000000000E+00 -0.00000000000E+00  0.00000000000E+00  0.93800000000E+00  0.93800000000E+00 0. -1.
         11    1    1    2    0    0 -0.26077015176E-01  0.48247149424E-01  0.18672887949E+00  0.19461688956E+00  0.51100000000E-03 0. -1.
    9000002    1    1    2    0    0  0.46896947159E+00 -0.86931550839E+00  0.77952972327E+00  0.15694433433E+01  0.93800000000E+00 0. -1.
         22    1    1    2    0    0 -0.44289245641E+00  0.82106835896E+00  0.30337413646E+01  0.31739397671E+01  0.00000000000E+00 0. -1.
</event>
<event>
 5    1  0.1160133E+000  0.1520652E+01  0.7818608E-02  0.3444259E+00
         11   -1    0    0    0    0  0.00000000000E+00  0.00000000000E+00  0.39999999674E+01  0.40000000000E+01  0.51100000000E-03 0. -1.
    9000002   -1    0    0    0    0 -0.00000000000E+00 -0.00000000000E+00  0.00000000000E+00  0.93800000000E+00  0.93800000000E+00 0. -1.
         11    1    1    2    0    0 -0.12297724278E+00 -0.17474121526E+00  0.10872595340E+01  0.11080575121E+01  0.51100000000E-03 0. -1.
    9000002    1    1    2    0    0 -0.57401711396E+00  0.26196296163E+00  0.36620683285E+00  0.11883062252E+01  0.93800000000E+00 0. -1.
         22    1    1    2    0    0  0.69699435674E+00 -0.87221746368E-01  0.25465336005E+01  0.26416362628E+01  0.00000000000E+00 0. -1.
</event>
<event>
 5    1  0.1160133E+000  0.1599673E+01  0.7818608E-02  0.3353718E+00
         11   -1    0    0    0    0  0.00000000000E+00  0.00000000000E+00  0.39999999674E+01  0.40000000000E+01  0.51100000000E-03 0. -1.
    9000002   -1    0    0    0    0 -0.00000000000E+00 -0.00000000000E+00  0.00000000000E+00  0.93800000000E+00  0.93800000000E+00 0.  1.
         11    1    1    2    0    0  0.19153662870E+00 -0.69852863116E-01  0.74637956229E+00  0.77372373283E+00  0.51100000000E-03 0. -1.
    9000002    1    1    2    0    0 -0.85970256380E+00  0.32224942949E+00  0.65040920163E+00  0.14648581237E+01  0.93800000000E+00 0.  1.
         22    1    1    2    0    0  0.66816593511E+00 -0.25239656638E+00  0.26032112034E+01  0.26994181435E+01  0.00000000000E+00 0. -1.
</event>
<event>
 5    1  0.1160133E+000  0.1594828E+01  0.7818608E-02  0.3358996E+00
         11   -1    0    0    0    0  0.00000000000E+00  0.00000000000E+00  0.39999999674E+01  0.40000000000E+01  0.51100000000E-03 0. -1.
    9000002   -1    0    0    0    0 -0.00000000000E+00 -0.00000000000E+00  0.00000000000E+00  0.93800000000E+00  0.93800000000E+00 0. -1.
         11    1    1    2    0    0  0.23609387253E+00 -0.31623423323E+00  0.98006080191E+00  0.10565338818E+01  0.51100000000E-03 0. -1.
    9000002    1    1    2    0    0 -0.49596571405E+00  0.10436974368E+01  0.12259634421E+01  0.19282418651E+01  0.93800000000E+00 0. -1.
         22    1    1    2    0    0  0.25987184152E+00 -0.72746320359E+00  0.17939757233E+01  0.19532242530E+01  0.00000000000E+00 0. -1.
</event>
<event>
 5    1  0.1160133E+000  0.1480653E+01  0.7818608E-02  0.3494040E+00
         11   -1    0    0    0    0  0.00000000000E+00  0.00000000000E+00  0.39999999674E+01  0.40000000000E+01  0.51100000000E-03 0. -1.
    9000002   -1    0    0    0    0 -0.00000000000E+00 -0.00000000000E+00  0.00000000000E+00  0.93800000000E+00  0.93800000000E+00 0. -1.
         11    1    1    2    0    0 -0.11000148196E+00  0.59822742055E+00  0.13254433312E+01  0.14583472351E+01  0.51100000000E-03 0. -1.
    9000002    1    1    2    0    0  0.71257438577E+00 -0.55483157701E+00  0.84331132354E+00  0.15513279223E+01  0.93800000000E+00 0. -1.
         22    1    1    2    0    0 -0.60257290382E+00 -0.43395843545E-01  0.18312453126E+01  0.19283248426E+01  0.00000000000E+00 0. -1.
</event>
<event>
 5    1  0.1160133E+000  0.1599666E+01  0.7818608E-02  0.3353726E+00
         11   -1    0    0    0    0  0.00000000000E+00  0.00000000000E+00  0.39999999674E+01  0.40000000000E+01  0.51100000000E-03 0. -1.
    9000002   -1    0    0    0    0 -0.00000000000E+00 -0.00000000000E+00  0.00000000000E+00  0.93800000000E+00  0.93800000000E+00 0. -1.
         11    1    1    2    0    0 -0.74567505435E-01  0.45411650133E-01  0.14456637322E+00  0.16888525164E+00  0.51100000000E-03 0. -1.
    9000002    1    1    2    0    0  0.11068256179E+01 -0.64222880091E+00  0.18621785724E+01  0.24464410511E+01  0.93800000000E+00 0. -1.
         22    1    1    2    0    0 -0.10322581124E+01  0.59681715078E+00  0.19932550217E+01  0.23226736972E+01  0.00000000000E+00 0. -1.
</event>
<event>
 5    1  0.1160133E+000  0.1599649E+01  0.7818608E-02  0.3353745E+00
         11   -1    0    0    0    0  0.00000000000E+00  0.00000000000E+00  0.39999999674E+01  0.40000000000E+01  0.51100000000E-03 0. -1.
    9000002   -1    0    0    0    0 -0.00000000000E+00 -0.00000000000E+00  0.00000000000E+00  0.93800000000E+00  0.93800000000E+00 0. -1.
         11    1    1    2    0    0 -0.18854774509E+00  0.40501254027E+00  0.12331619921E+01  0.13115922269E+01  0.51100000000E-03 0. -1.
    9000002    1    1    2    0    0  0.45545477040E+00 -0.99371059524E+00  0.10232315844E+01  0.17668465327E+01  0.93800000000E+00 0. -1.
         22    1    1    2    0    0 -0.26690702531E+00  0.58869805497E+00  0.17436063909E+01  0.18595612403E+01  0.00000000000E+00 0. -1.
</event>
<event>
 5    1  0.1160133E+000  0.1571557E+01  0.7818608E-02  0.3384825E+00
         11   -1    0    0    0    0  0.00000000000E+00  0.00000000000E+00  0.39999999674E+01  0.40000000000E+01  0.51100000000E-03 0. -1.
    9000002   -1    0    0    0    0 -0.00000000000E+00 -0.00000000000E+00  0.00000000000E+00  0.93800000000E+00  0.93800000000E+00 0.  1.
         11    1    1    2    0    0  0.14632506451E+00 -0.48222742508E-01  0.12353997194E+01  0.12449695520E+01  0.51100000000E-03 0. -1.
    9000002    1    1    2    0    0 -0.78988895872E+00 -0.25880172999E+00  0.55400586209E+00  0.13702807733E+01  0.93800000000E+00 0.  1.
         22    1    1    2    0    0  0.64356389421E+00  0.30702447249E+00  0.22105943858E+01  0.23227496747E+01  0.00000000000E+00 0. -1.
</event>
<event>
 5    1  0.1160133E+000  0.1513582E+01  0.7818608E-02  0.3452853E+00
         11   -1    0    0    0    0  0.00000000000E+00  0.00000000000E+00  0.39999999674E+01  0.40000000000E+01  0.51100000000E-03 0. -1.
    9000002   -1    0    0    0    0 -0.00000000000E+00 -0.00000000000E+00  0.00000000000E+00  0.93800000000E+00  0.93800000000E+00 0.  1.
         11    1    1    2    0    0  0.86995707854E-01  0.29292571812E+00  0.78601148076E+00  0.84331965383E+00  0.51100000000E-03 0. -1.
    9000002    1    1    2    0    0  0.64761801113E+00 -0.48147509595E+00  0.60434735852E+00  0.13770646630E+01  0.93800000000E+00 0.  1.
         22    1    1    2    0    0 -0.73461371899E+00  0.18854937783E+00  0.26096411281E+01  0.27176156832E+01  0.00000000000E+00 0. -1.
</event>
<event>
 5    1  0.1160133E+000  0.1599643E+01  0.7818608E-02  0.3353751E+00
         11   -1    0    0    0    0  0.00000000000E+00  0.00000000000E+00  0.39999999674E+01  0.40000000000E+01  0.51100000000E-03 0. -1.
    9000002   -1    0    0    0    0 -0.00000000000E+00 -0.00000000000E+00  0.00000000000E+00  0.93800000000E+00  0.93800000000E+00 0. -1.
         11    1    1    2    0    0 -0.94754052336E-01  0.37017447098E+00  0.13747326505E+01  0.14268488326E+01  0.51100000000E-03 0. -1.
    9000002    1    1    2    0    0  0.24583752629E+00 -0.89262012988E+00  0.66382652576E+00  0.14757087931E+01  0.93800000000E+00 0. -1.
         22    1    1    2    0    0 -0.15108347395E+00  0.52244565890E+00  0.19614407911E+01  0.20354423744E+01  0.00000000000E+00 0. -1.
</event>
<event>
 5    1  0.1160133E+000  0.1576784E+01  0.7818608E-02  0.3378953E+00
         11   -1    0    0    0    0  0.00000000000E+00  0.00000000000E+00  0.39999999674E+01  0.40000000000E+01  0.51100000000E-03 0.  1.
    9000002   -1    0    0    0    0 -0.00000000000E+00 -0.00000000000E+00  0.00000000000E+00  0.93800000000E+00  0.93800000000E+00 0.  1.
         11    1    1    2    0    0 -0.54637420782E+00 -0.34139882763E-01  0.13563629316E+01  0.14626725436E+01  0.51100000000E-03 0.  1.
    9000002    1    1    2    0    0  0.10760663277E+01 -0.30337238752E+00  0.11600729411E+01  0.18642872031E+01  0.93800000000E+00 0.  1.
         22    1    1    2    0    0 -0.52969211991E+00  0.33751227028E+00  0.14835640947E+01  0.16110402533E+01  0.00000000000E+00 0.  1.
</event>
<event>
 5    1  0.1160133E+000  0.1567065E+01  0.7818608E-02  0.3389905E+00
         11   -1    0    0    0    0  0.00000000000E+00  0.00000000000E+00  0.39999999674E+01  0.40000000000E+01  0.51100000000E-03 0. -1.
    9000002   -1    0    0    0    0 -0.00000000000E+00 -0.00000000000E+00  0.00000000000E+00  0.93800000000E+00  0.93800000000E+00 0. -1.
         11    1    1    2    0    0 -0.25627559242E+00 -0.47428183721E+00  0.46714872397E+00  0.71333626839E+00  0.51100000000E-03 0. -1.
    9000002    1    1    2    0    0 -0.51905250771E+00  0.67248604418E+00  0.11461925203E+01  0.17074115728E+01  0.93800000000E+00 0. -1.
         22    1    1    2    0    0  0.77532810013E+00 -0.19820420698E+00  0.23866587231E+01  0.25172521588E+01  0.00000000000E+00 0. -1.
</event>
<event>
 5    1  0.1160133E+000  0.1591109E+01  0.7818608E-02  0.3363070E+00
         11   -1    0    0    0    0  0.00000000000E+00  0.00000000000E+00  0.39999999674E+01  0.40000000000E+01  0.51100000000E-03 0.  1.
    9000002   -1    0    0    0    0 -0.00000000000E+00 -0.00000000000E+00  0.00000000000E+00  0.93800000000E+00  0.93800000000E+00 0.  1.
         11    1    1    2    0    0 -0.10387702156E+00  0.83083613833E-03  0.43197330301E+00  0.44428855661E+00  0.51100000000E-03 0.  1.
    9000002    1    1    2    0    0  0.96375441062E+00 -0.49939095000E+00  0.10244492339E+01  0.17628256062E+01  0.93800000000E+00 0.  1.
         22    1    1    2    0    0 -0.85987738906E+00  0.49856011386E+00  0.25435774304E+01  0.27308858372E+01  0.00000000000E+00 0.  1.
</event>
<event>
 5    1  0.1160133E+000  0.1599335E+01  0.7818608E-02  0.3354086E+00
         11   -1    0    0    0    0  0.00000000000E+00  0.00000000000E+00  0.39999999674E+01  0.40000000000E+01  0.51100000000E-03 0.  1.
    9000002   -1    0    0    0    0 -0.00000000000E+00 -0.00000000000E+00  0.00000000000E+00  0.93800000000E+00  0.93800000000E+00 0.  1.
         11    1    1    2    0    0 -0.25073385386E+00  0.21113220642E+00  0.10487594138E+01  0.10987906275E+01  0.51100000000E-03 0.  1.
    9000002    1    1    2    0    0  0.81387807592E+00 -0.62819063607E+00  0.86548403494E+00  0.16388799872E+01  0.93800000000E+00 0.  1.
         22    1    1    2    0    0 -0.56314422206E+00  0.41705842965E+00  0.20857565186E+01  0.22003293853E+01  0.00000000000E+00 0.  1.
</event>
<event>
 5    1  0.1160133E+000  0.1599669E+01  0.7818608E-02  0.3353723E+00
         11   -1    0    0    0    0  0.00000000000E+00  0.00000000000E+00  0.39999999674E+01  0.40000000000E+01  0.51100000000E-03 0. -1.
    9000002   -1    0    0    0    0 -0.00000000000E+00 -0.00000000000E+00  0.00000000000E+00  0.93800000000E+00  0.93800000000E+00 0. -1.
         11    1    1    2    0    0  0.31190165550E-01  0.52112554939E+00  0.13030026037E+01  0.14036953769E+01  0.51100000000E-03 0. -1.
    9000002    1    1    2    0    0 -0.61909531342E-01 -0.11355121162E+01  0.11504941842E+01  0.18699469041E+01  0.93800000000E+00 0. -1.
         22    1    1    2    0    0  0.30719365792E-01  0.61438656683E+00  0.15465031795E+01  0.16643577191E+01  0.00000000000E+00 0. -1.
</event>
<event>
 5    1  0.1160133E+000  0.1599544E+01  0.7818608E-02  0.3353858E+00
         11   -1    0    0    0    0  0.00000000000E+00  0.00000000000E+00  0.39999999674E+01  0.40000000000E+01  0.51100000000E-03 0. -1.
    9000002   -1    0    0    0    0 -0.00000000000E+00 -0.00000000000E+00  0.00000000000E+00  0.93800000000E+00  0.93800000000E+00 0. -1.
         11    1    1    2    0    0  0.35100807765E+00  0.12503932902E-01  0.10982333794E+01  0.11530307176E+01  0.51100000000E-03 0. -1.
    9000002    1    1    2    0    0 -0.10024110424E+01 -0.71428400493E-01  0.81505069338E+00  0.15981494133E+01  0.93800000000E+00 0. -1.
         22    1    1    2    0    0  0.65140296479E+00  0.58924467591E-01  0.20867158946E+01  0.21868198691E+01  0.00000000000E+00 0. -1.
</event>
<event>
 5    1  0.1160133E+000  0.1568212E+01  0.7818608E-02  0.3388604E+00
         11   -1    0    0    0    0  0.00000000000E+00  0.00000000000E+00  0.39999999674E+01  0.40000000000E+01  0.51100000000E-03 0.  1.
    9000002   -1    0    0    0    0 -0.00000000000E+00 -0.00000000000E+00  0.00000000000E+00  0.93800000000E+00  0.93800000000E+00 0.  1.
         11    1    1    2    0    0  0.39868136294E+00 -0.22453603565E-01  0.31572020694E+00  0.50904862603E+00  0.51100000000E-03 0.  1.
    9000002    1    1    2    0    0 -0.26040080915E-01 -0.68152367724E+00  0.73274468495E+00  0.13718277522E+01  0.93800000000E+00 0.  1.
         22    1    1    2    0    0 -0.37264128202E+00  0.70397728081E+00  0.29515350755E+01  0.30571236217E+01  0.00000000000E+00 0.  1.
</event>
<event>
 5    1  0.1160133E+000  0.1599677E+01  0.7818608E-02  0.3353714E+00
         11   -1    0    0    0    0  0.00000000000E+00  0.00000000000E+00  0.39999999674E+01  0.40000000000E+01  0.51100000000E-03 0.  1.
    9000002   -1    0    0    0    0 -0.00000000000E+00 -0.00000000000E+00  0.00000000000E+00  0.93800000000E+00  0.93800000000E+00 0.  1.
         11    1    1    2    0    0  0.58132941369E-01  0.71218517487E-01  0.33177502701E+00  0.34427669943E+00  0.51100000000E-03 0. -1.
    9000002    1    1    2    0    0 -0.58675754536E+00 -0.71523897931E+00  0.66249663190E+00  0.14746514849E+01  0.93800000000E+00 0.  1.
         22    1    1    2    0    0  0.52862460399E+00  0.64402046183E+00  0.30057283085E+01  0.31190718157E+01  0.00000000000E+00 0.  1.
</event>
<event>
 5    1  0.1160133E+000  0.1595920E+01  0.7818608E-02  0.3357804E+00
         11   -1    0    0    0    0  0.00000000000E+00  0.00000000000E+00  0.39999999674E+01  0.40000000000E+01  0.51100000000E-03 0. -1.
    9000002   -1    0    0    0    0 -0.00000000000E+00 -0.00000000000E+00  0.00000000000E+00  0.93800000000E+00  0.93800000000E+00 0. -1.
         11    1    1    2    0    0 -0.13808367114E+00 -0.16184643503E+00  0.68836014995E+00  0.72048686729E+00  0.51100000000E-03 0. -1.
    9000002    1    1    2    0    0  0.38484158935E+00  0.84971529517E+00  0.68219814868E+00  0.14884076880E+01  0.93800000000E+00 0. -1.
         22    1    1    2    0    0 -0.24675791821E+00 -0.68786886014E+00  0.26294416687E+01  0.27291054447E+01  0.00000000000E+00 0. -1.
</event>
<event>
 5    1  0.1160133E+000  0.1516677E+01  0.7818608E-02  0.3449081E+00
         11   -1    0    0    0    0  0.00000000000E+00  0.00000000000E+00  0.39999999674E+01  0.40000000000E+01  0.51100000000E-03 0. -1.
    9000002   -1    0    0    0    0 -0.00000000000E+00 -0.00000000000E+00  0.00000000000E+00  0.93800000000E+00  0.93800000000E+00 0.  1.
         11    1    1    2    0    0  0.55593222401E-01  0.48770840697E+00  0.11784829266E+01  0.12766253820E+01  0.51100000000E-03 0. -1.
    9000002    1    1    2    0    0 -0.54134000620E+00  0.93423789044E-01  0.45818662314E+00  0.11796423137E+01  0.93800000000E+00 0.  1.
         22    1    1    2    0    0  0.48574678380E+00 -0.58113219601E+00  0.23633304176E+01  0.24817323042E+01  0.00000000000E+00 0. -1.
</event>
<event>
 5    1  0.1160133E+000  0.1599430E+01  0.7818608E-02  0.3353983E+00
         11   -1    0    0    0    0  0.00000000000E+00  0.00000000000E+00  0.39999999674E+01  0.40000000000E+01  0.51100000000E-03 0.  1.
    9000002   -1    0    0    0    0 -0.00000000000E+00 -0.00000000000E+00  0.00000000000E+00  0.93800000000E+00  0.93800000000E+00 0.  1.
         11    1    1    2    0    0 -0.29696254648E-01  0.97484690426E-01  0.24905229437E+00  0.26909559428E+00  0.51100000000E-03 0.  1.
    9000002    1    1    2    0    0  0.39505146147E+00 -0.11294051406E+01  0.13624725874E+01  0.20415183516E+01  0.93800000000E+00 0.  1.
         22    1    1    2    0    0 -0.36535520682E+00  0.10319204501E+01  0.23884750856E+01  0.26273860541E+01  0.00000000000E+00 0.  1.
</event>
<event>
 5    1  0.1160133E+000  0.1599578E+01  0.7818608E-02  0.3353821E+00
         11   -1    0    0    0    0  0.00000000000E+00  0.00000000000E+00  0.39999999674E+01  0.40000000000E+01  0.51100000000E-03 0. -1.
    9000002   -1    0    0    0    0 -0.00000000000E+00 -0.00000000000E+00  0.00000000000E+00  0.93800000000E+00  0.93800000000E+00 0. -1.
         11    1    1    2    0    0 -0.12507995664E+00  0.10298675796E+00  0.35329621510E+00  0.38867691543E+00  0.51100000000E-03 0. -1.
    9000002    1    1    2    0    0  0.96599032716E+00 -0.71731262217E+00  0.13898565406E+01  0.20637877589E+01  0.93800000000E+00 0. -1.
         22    1    1    2    0    0 -0.84091037052E+00  0.61432586422E+00  0.22568472116E+01  0.24855353257E+01  0.00000000000E+00 0. -1.
</event>
<event>
 5    1  0.1790771E+000  0.1557150E+01  0.7818608E-02  0.3401226E+00
         11   -1    0    0    0    0  0.00000000000E+00  0.00000000000E+00  0.39999999674E+01  0.40000000000E+01  0.51100000000E-03 0.  1.
    9000002   -1    0    0    0    0 -0.00000000000E+00 -0.00000000000E+00  0.00000000000E+00  0.93800000000E+00  0.93800000000E+00 0.  1.
         11    1    1    2    0    0  0.18952061689E+00 -0.42538956041E+00  0.94472533114E+00  0.10532713586E+01  0.51100000000E-03 0.  1.
    9000002    1    1    2    0    0  0.37484292784E+00 -0.13241842269E+00  0.36872251320E+00  0.10834399619E+01  0.93800000000E+00 0.  1.
         22    1    1    2    0    0 -0.56436354473E+00  0.55780798311E+00  0.26865521230E+01  0.28012886796E+01  0.00000000000E+00 0.  1.
</event>
<event>
 5    1  0.1160133E+000  0.1599023E+01  0.7818608E-02  0.3354424E+00
         11   -1    0    0    0    0  0.00000000000E+00  0.00000000000E+00  0.39999999674E+01  0.40000000000E+01  0.51100000000E-03 0.  1.
    9000002   -1    0    0    0    0 -0.00000000000E+00 -0.00000000000E+00  0.00000000000E+00  0.93800000000E+00  0.93800000000E+00 0.  1.
         11    1    1    2    0    0 -0.27721350431E+00  0.24972995022E+00  0.11587672086E+01  0.12173553631E+01  0.51100000000E-03 0.  1.
    9000002    1    1    2    0    0  0.71519989047E+00 -0.74681411025E+00  0.87943271521E+00  0.16499963937E+01  0.93800000000E+00 0.  1.
         22    1    1    2    0    0 -0.43798638616E+00  0.49708416002E+00  0.19618000435E+01  0.20706482433E+01  0.00000000000E+00 0.  1.
</event>
<event>
 5    1  0.1160133E+000  0.1599676E+01  0.7818608E-02  0.3353715E+00
         11   -1    0    0    0    0  0.00000000000E+00  0.00000000000E+00  0.39999999674E+01  0.40000000000E+01  0.51100000000E-03 0. -1.
    9000002   -1    0    0    0    0 -0.00000000000E+00 -0.00000000000E+00  0.00000000000E+00  0.93800000000E+00  0.93800000000E+00 0. -1.
         11    1    1    2    0    0  0.16316027819E+00 -0.79821580472E-01  0.63271628817E+00  0.65827268174E+00  0.51100000000E-03 0. -1.
    9000002    1    1    2    0    0 -0.84669779137E+00  0.41836153030E+00  0.69677791797E+00  0.15024203762E+01  0.93800000000E+00 0. -1.
         22    1    1    2    0    0  0.68353751318E+00 -0.33853994982E+00  0.26705057612E+01  0.27773069420E+01  0.00000000000E+00 0. -1.
</event>
<event>
 5    1  0.1160133E+000  0.1599667E+01  0.7818608E-02  0.3353724E+00
         11   -1    0    0    0    0  0.00000000000E+00  0.00000000000E+00  0.39999999674E+01  0.40000000000E+01  0.51100000000E-03 0.  1.
    9000002   -1    0    0    0    0 -0.00000000000E+00 -0.00000000000E+00  0.00000000000E+00  0.93800000000E+00  0.93800000000E+00 0.  1.
         11    1    1    2    0    0  0.10082228203E+00 -0.31727189803E+00  0.10562745487E+01  0.11074939156E+01  0.51100000000E-03 0.  1.
    9000002    1    1    2    0    0 -0.31407247686E+00  0.95356169772E+00  0.81271765248E+00  0.15963318623E+01  0.93800000000E+00 0.  1.
         22    1    1    2    0    0  0.21325019483E+00 -0.63628979969E+00  0.21310077662E+01  0.22341742220E+01  0.00000000000E+00 0.  1.
</event>
<event>
 5    1  0.1160133E+000  0.1599676E+01  0.7818608E-02  0.3353715E+00
         11   -1    0    0    0    0  0.00000000000E+00  0.00000000000E+00  0.39999999674E+01  0.40000000000E+01  0.51100000000E-03 0. -1.
    9000002   -1    0    0    0    0 -0.00000000000E+00 -0.00000000000E+00  0.00000000000E+00  0.93800000000E+00  0.93800000000E+00 0.  1.
         11    1    1    2    0    0  0.56651691612E-01  0.40866418864E-01  0.22926501719E+00  0.23967099863E+00  0.51100000000E-03 0.  1.
    9000002    1    1    2    0    0 -0.79283162796E+00 -0.57509106463E+00  0.76299180676E+00  0.15560566250E+01  0.93800000000E+00 0.  1.
         22    1    1    2    0    0  0.73617993635E+00  0.53422464576E+00  0.30077431434E+01  0.31422723764E+01  0.00000000000E+00 0. -1.
</event>
<event>
 5    1  0.1160133E+000  0.1562846E+01  0.7818608E-02  0.3394703E+00
         11   -1    0    0    0    0  0.00000000000E+00  0.00000000000E+00  0.39999999674E+01  0.40000000000E+01  0.51100000000E-03 0. -1.
    9000002   -1    0    0    0    0 -0.00000000000E+00 -0.00000000000E+00  0.00000000000E+00  0.93800000000E+00  0.93800000000E+00 0. -1.
         11    1    1    2    0    0 -0.23344367678E+00  0.99728085410E-02  0.26056006168E+00  0.34998173382E+00  0.51100000000E-03 0. -1.
    9000002    1    1    2    0    0  0.10201206843E+01  0.11923122493E+00  0.94375243066E+00  0.16808851674E+01  0.93800000000E+00 0. -1.
         22    1    1    2    0    0 -0.78667700748E+00 -0.12920403347E+00  0.27956874750E+01  0.29071330988E+01  0.00000000000E+00 0. -1.
</event>
<event>
 5    1  0.1160133E+000  0.1559845E+01  0.7818608E-02  0.3398134E+00
         11   -1    0    0    0    0  0.00000000000E+00  0.00000000000E+00  0.39999999674E+01  0.40000000000E+01  0.51100000000E-03 0.  1.
    9000002   -1    0    0    0    0 -0.00000000000E+00 -0.00000000000E+00  0.00000000000E+00  0.93800000000E+00  0.93800000000E+00 0. -1.
         11    1    1    2    0    0 -0.25192526353E-02 -0.58349708724E-01  0.25748504711E+00  0.26402622170E+00  0.51100000000E-03 0.  1.
    9000002    1    1    2    0    0  0.21160348173E+00 -0.89422176783E+00  0.71900765105E+00  0.14970720109E+01  0.93800000000E+00 0. -1.
         22    1    1    2    0    0 -0.20908422910E+00  0.95257147655E+00  0.30235072692E+01  0.31769017674E+01  0.00000000000E+00 0.  1.
</event>
<event>
 5    1  0.1160133E+000  0.1596797E+01  0.7818608E-02  0.3356847E+00
         11   -1    0    0    0    0  0.00000000000E+00  0.00000000000E+00  0.39999999674E+01  0.40000000000E+01  0.51100000000E-03 0.  1.
    9000002   -1    0    0    0    0 -0.00000000000E+00 -0.00000000000E+00  0.00000000000E+00  0.93800000000E+00  0.93800000000E+00 0.  1.
         11    1    1    2    0    0 -0.10250602404E+00  0.26781270857E+00  0.10678005108E+01  0.11056352581E+01  0.51100000000E-03 0.  1.
    9000002    1    1    2    0    0  0.49062835116E+00 -0.75558138608E+00  0.62594270065E+00  0.14433529279E+01  0.93800000000E+00 0.  1.
         22    1    1    2    0    0 -0.38812232712E+00  0.48776867752E+00  0.23062567559E+01  0.23890118140E+01  0.00000000000E+00 0.  1.
</event>
<event>
 5    1  0.1160133E+000  0.1551562E+01  0.7818608E-02  0.3407675E+00
         11   -1    0    0    0    0  0.00000000000E+00  0.00000000000E+00  0.39999999674E+01  0.40000000000E+01  0.51100000000E-03 0. -1.
    9000002   -1    0    0    0    0 -0.00000000000E+00 -0.00000000000E+00  0.00000000000E+00  0.93800000000E+00  0.93800000000E+00 0. -1.
         11    1    1    2    0    0 -0.20441633773E+00  0.86336664526E-01  0.52778265270E+00  0.57253370938E+00  0.51100000000E-03 0. -1.
    9000002    1    1    2    0    0  0.23786427356E+00 -0.11361816632E+01  0.14198513503E+01  0.20599296205E+01  0.93800000000E+00 0. -1.
         22    1    1    2    0    0 -0.33447935827E-01  0.10498449987E+01  0.20523659644E+01  0.23055366701E+01  0.00000000000E+00 0. -1.
</event>
<event>
 5    1  0.1160133E+000  0.1586438E+01  0.7818608E-02  0.3368216E+00
         11   -1    0    0    0    0  0.00000000000E+00  0.00000000000E+00  0.39999999674E+01  0.40000000000E+01  0.51100000000E-03 0. -1.
    9000002   -1    0    0    0    0 -0.00000000000E+00 -0.00000000000E+00  0.00000000000E+00  0.93800000000E+00  0.93800000000E+00 0. -1.
         11    1    1    2    0    0  0.99057599339E-01  0.16969006063E+00  0.29839209083E+00  0.35727472015E+00  0.51100000000E-03 0. -1.
    9000002    1    1    2    0    0 -0.91394630527E+00 -0.71193208162E+00  0.12656434319E+01  0.19554647618E+01  0.93800000000E+00 0. -1.
         22    1    1    2    0    0  0.81488870593E+00  0.54224202099E+00  0.24359644446E+01  0.26252605181E+01  0.00000000000E+00 0. -1.
</event>
<event>
 5    1  0.1160133E+000  0.1599673E+01  0.7818608E-02  0.3353718E+00
         11   -1    0    0    0    0  0.00000000000E+00  0.00000000000E+00  0.39999999674E+01  0.40000000000E+01  0.51100000000E-03 0.  1.
    9000002   -1    0    0    0    0 -0.00000000000E+00 -0.00000000000E+00  0.00000000000E+00  0.93800000000E+00  0.93800000000E+00 0.  1.
         11    1    1    2    0    0  0.13135433032E+00  0.68934115010E-01  0.48187281535E+00  0.50418998760E+00  0.51100000000E-03 0.  1.
    9000002    1    1    2    0    0 -0.88387167313E+00 -0.46141134597E+00  0.79842491698E+00  0.15847573672E+01  0.93800000000E+00 0.  1.
         22    1    1    2    0    0  0.75251734281E+00  0.39247723096E+00  0.27197022350E+01  0.28490526452E+01  0.00000000000E+00 0.  1.
</event>
<event>
 5    1  0.1160133E+000  0.1599677E+01  0.7818608E-02  0.3353714E+00
         11   -1    0    0    0    0  0.00000000000E+00  0.00000000000E+00  0.39999999674E+01  0.40000000000E+01  0.51100000000E-03 0.  1.
    9000002   -1    0    0    0    0 -0.00000000000E+00 -0.00000000000E+00  0.00000000000E+00  0.93800000000E+00  0.93800000000E+00 0.  1.
         11    1    1    2    0    0 -0.36998802264E+00  0.46452774637E-01  0.10426102934E+01  0.11072874433E+01  0.51100000000E-03 0.  1.
    9000002    1    1    2    0    0  0.10698460337E+01 -0.13534824518E+00  0.98456258361E+00  0.17355394448E+01  0.93800000000E+00 0.  1.
         22    1    1    2    0    0 -0.69985801107E+00  0.88895470542E-01  0.19728270904E+01  0.20951731119E+01  0.00000000000E+00 0.  1.
</event>
<event>
 5    1  0.1160133E+000  0.1599274E+01  0.7818608E-02  0.3354152E+00
         11   -1    0    0    0    0  0.00000000000E+00  0.00000000000E+00  0.39999999674E+01  0.40000000000E+01  0.51100000000E-03 0.  1.
    9000002   -1    0    0    0    0 -0.00000000000E+00 -0.00000000000E+00  0.00000000000E+00  0.93800000000E+00  0.93800000000E+00 0. -1.
         11    1    1    2    0    0  0.23797427436E+00 -0.67587608281E+00  0.12122374624E+01  0.14081761825E+01  0.51100000000E-03 0.  1.
    9000002    1    1    2    0    0 -0.39240513999E+00  0.12097485466E+01  0.17903473184E+01  0.23880244681E+01  0.93800000000E+00 0. -1.
         22    1    1    2    0    0  0.15443086563E+00 -0.53387246378E+00  0.99741518656E+00  0.11417993494E+01  0.00000000000E+00 0. -1.
</event>
<event>
 5    1  0.1160133E+000  0.1574205E+01  0.7818608E-02  0.3381845E+00
         11   -1    0    0    0    0  0.00000000000E+00  0.00000000000E+00  0.39999999674E+01  0.40000000000E+01  0.51100000000E-03 0. -1.
    9000002   -1    0    0    0    0 -0.00000000000E+00 -0.00000000000E+00  0.00000000000E+00  0.93800000000E+00  0.93800000000E+00 0. -1.
         11    1    1    2    0    0  0.14461561874E-01 -0.86156100487E-01  0.31773724531E+00  0.32952879783E+00  0.51100000000E-03 0. -1.
    9000002    1    1    2    0    0 -0.10616588941E+01  0.18912304264E+00  0.10494006467E+01  0.17731251648E+01  0.93800000000E+00 0. -1.
         22    1    1    2    0    0  0.10471973322E+01 -0.10296694216E+00  0.26328620754E+01  0.28353460374E+01  0.00000000000E+00 0. -1.
</event>
<event>
 5    1  0.1160133E+000  0.1599672E+01  0.7818608E-02  0.3353720E+00
         11   -1    0    0    0    0  0.00000000000E+00  0.00000000000E+00  0.39999999674E+01  0.40000000000E+01  0.51100000000E-03 0. -1.
    9000002   -1    0    0    0    0 -0.00000000000E+00 -0.00000000000E+00  0.00000000000E+00  0.93800000000E+00  0.93800000000E+00 0. -1.
         11    1    1    2    0    0  0.25587322163E+00 -0.94268479735E-01  0.39346329628E+00  0.47871837071E+00  0.51100000000E-03 0. -1.
    9000002    1    1    2    0    0 -0.12138659203E+01  0.45198752648E+00  0.21473812074E+01  0.26774714277E+01  0.93800000000E+00 0. -1.
         22    1    1    2    0    0  0.95799269866E+00 -0.35771904674E+00  0.14591554637E+01  0.17818102016E+01  0.00000000000E+00 0. -1.
</event>
<event>
 5    1  0.1160133E+000  0.1599657E+01  0.7818608E-02  0.3353736E+00
         11   -1    0    0    0    0  0.00000000000E+00  0.00000000000E+00  0.39999999674E+01  0.40000000000E+01  0.51100000000E-03 0. -1.
    9000002   -1    0    0    0    0 -0.00000000000E+00 -0.00000000000E+00  0.00000000000E+00  0.93800000000E+00  0.93800000000E+00 0.  1.
         11    1    1    2    0    0  0.21435349660E+00  0.31805402770E+00  0.13914297682E+01  0.14433235420E+01  0.51100000000E-03 0. -1.
    9000002    1    1    2    0    0 -0.50702747112E+00 -0.75920738135E+00  0.64163828950E+00  0.14577435985E+01  0.93800000000E+00 0.  1.
         22    1    1    2    0    0  0.29267397452E+00  0.44115335365E+00  0.19669319097E+01  0.20369328595E+01  0.00000000000E+00 0.  1.
</event>
<event>
 5    1  0.1160133E+000  0.1599673E+01  0.7818608E-02  0.3353719E+00
         11   -1    0    0    0    0  0.00000000000E+00  0.00000000000E+00  0.39999999674E+01  0.40000000000E+01  0.51100000000E-03 0.  1.
    9000002   -1    0    0    0    0 -0.00000000000E+00 -0.00000000000E+00  0.00000000000E+00  0.93800000000E+00  0.93800000000E+00 0.  1.
         11    1    1    2    0    0 -0.67144884190E-02 -0.18660711373E+00  0.55025843006E+00  0.58107822213E+00  0.51100000000E-03 0.  1.
    9000002    1    1    2    0    0  0.44210261522E-01  0.10425352590E+01  0.89962726642E+00  0.16667355915E+01  0.93800000000E+00 0.  1.
         22    1    1    2    0    0 -0.37495773103E-01 -0.85592814527E+00  0.25501142709E+01  0.26901861864E+01  0.00000000000E+00 0.  1.
</event>
<event>
 5    1  0.1160133E+000  0.1590460E+01  0.7818608E-02  0.3363783E+00
         11   -1    0    0    0    0  0.00000000000E+00  0.00000000000E+00  0.39999999674E+01  0.40000000000E+01  0.51100000000E-03 0. -1.
    9000002   -1    0    0    0    0 -0.00000000000E+00 -0.00000000000E+00  0.00000000000E+00  0.93800000000E+00  0.93800000000E+00 0. -1.
         11    1    1    2    0    0 -0.18836384273E+00  0.29061356569E+00  0.77401807941E+00  0.84796310661E+00  0.51100000000E-03 0. -1.
    9000002    1    1    2    0    0  0.45851959708E+00 -0.89432607427E+00  0.83318903401E+00  0.16075158831E+01  0.93800000000E+00 0. -1.
         22    1    1    2    0    0 -0.27015575435E+00  0.60371250859E+00  0.23927928539E+01  0.24825210103E+01  0.00000000000E+00 0. -1.
</event>
<event>
 5    1  0.1160133E+000  0.1599671E+01  0.7818608E-02  0.3353720E+00
         11   -1    0    0    0    0  0.00000000000E+00  0.00000000000E+00  0.39999999674E+01  0.40000000000E+01  0.51100000000E-03 0.  1.
    9000002   -1    0    0    0    0 -0.00000000000E+00 -0.00000000000E+00  0.00000000000E+00  0.93800000000E+00  0.93800000000E+00 0.  1.
         11    1    1    2    0    0  0.59554240744E-01 -0.15030093996E+00  0.34416155193E+00  0.38024270551E+00  0.51100000000E-03 0.  1.
    9000002    1    1    2    0    0 -0.45484784265E+00  0.11183170168E+01  0.14070977745E+01  0.20778083783E+01  0.93800000000E+00 0.  1.
         22    1    1    2    0    0  0.39529360190E+00 -0.96801607682E+00  0.22487406410E+01  0.24799489162E+01  0.00000000000E+00 0.  1.
</event>
<event>
 5    1  0.1160133E+000  0.1514728E+01  0.7818608E-02  0.3451454E+00
         11   -1    0    0    0    0  0.00000000000E+00  0.00000000000E+00  0.39999999674E+01  0.40000000000E+01  0.51100000000E-03 0. -1.
    9000002   -1    0    0    0    0 -0.00000000000E+00 -0.00000000000E+00  0.00000000000E+00  0.93800000000E+00  0.93800000000E+00 0. -1.
         11    1    1    2    0    0 -0.12309517268E+00  0.58139779089E-01  0.24483123751E+00  0.28013434533E+00  0.51100000000E-03 0. -1.
    9000002    1    1    2    0    0 -0.81557885802E+00 -0.40867694196E+00  0.79107975674E+00  0.15289986586E+01  0.93800000000E+00 0. -1.
         22    1    1    2    0    0  0.93867403070E+00  0.35053716287E+00  0.29640889731E+01  0.31288669961E+01  0.00000000000E+00 0. -1.
</event>
<event>
 5    1  0.1160133E+000  0.1599605E+01  0.7818608E-02  0.3353792E+00
         11   -1    0    0    0    0  0.00000000000E+00  0.00000000000E+00  0.39999999674E+01  0.40000000000E+01  0.51100000000E-03 0. -1.
    9000002   -1    0    0    0    0 -0.00000000000E+00 -0.00000000000E+00  0.00000000000E+00  0.93800000000E+00  0.93800000000E+00 0.  1.
         11    1    1    2    0    0  0.42030598143E-01 -0.26310585407E+00  0.86468478000E+00  0.90480455984E+00  0.51100000000E-03 0. -1.
    9000002    1    1    2    0    0 -0.18503166055E+00  0.96407852072E+00  0.76752373013E+00  0.15596861177E+01  0.93800000000E+00 0.  1.
         22    1    1    2    0    0  0.14300106241E+00 -0.70097266665E+00  0.23677914572E+01  0.24735093224E+01  0.00000000000E+00 0. -1.
</event>
<event>
 5    1  0.1160133E+000  0.1599657E+01  0.7818608E-02  0.3353735E+00
         11   -1    0    0    0    0  0.00000000000E+00  0.00000000000E+00  0.39999999674E+01  0.40000000000E+01  0.51100000000E-03 0.  1.
    9000002   -1    0    0    0    0 -0.00000000000E+00 -0.00000000000E+00  0.00000000000E+00  0.93800000000E+00  0.93800000000E+00 0.  1.
         11    1    1    2    0    0  0.47246694858E+00  0.46658956151E+00  0.11032911378E+01  0.12877043264E+01  0.51100000000E-03 0.  1.
    9000002    1    1    2    0    0 -0.90384915714E+00 -0.90665016497E+00  0.18683452218E+01  0.24514313550E+01  0.93800000000E+00 0.  1.
         22    1    1    2    0    0  0.43138220855E+00  0.44006060346E+00  0.10283636078E+01  0.11988643186E+01  0.00000000000E+00 0.  1.
</event>
<event>
 5    1  0.1160133E+000  0.1599620E+01  0.7818608E-02  0.3353776E+00
         11   -1    0    0    0    0  0.00000000000E+00  0.00000000000E+00  0.39999999674E+01  0.40000000000E+01  0.51100000000E-03 0.  1.
    9000002   -1    0    0    0    0 -0.00000000000E+00 -0.00000000000E+00  0.00000000000E+00  0.93800000000E+00  0.93800000000E+00 0.  1.
         11    1    1    2    0    0 -0.42972380838E+00  0.64793728061E-01  0.11192009955E+01  0.12006131384E+01  0.51100000000E-03 0.  1.
    9000002    1    1    2    0    0  0.11211070477E+01 -0.17181219187E+00  0.11413193929E+01  0.18624860800E+01  0.93800000000E+00 0.  1.
         22    1    1    2    0    0 -0.69138323930E+00  0.10701846381E+00  0.17394795789E+01  0.18749007816E+01  0.00000000000E+00 0.  1.
</event>
<event>
 5    1  0.1160133E+000  0.1599216E+01  0.7818608E-02  0.3354215E+00
         11   -1    0    0    0    0  0.00000000000E+00  0.00000000000E+00  0.39999999674E+01  0.40000000000E+01  0.51100000000E-03 0.  1.
    9000002   -1    0    0    0    0 -0.00000000000E+00 -0.00000000000E+00  0.00000000000E+00  0.93800000000E+00  0.93800000000E+00 0. -1.
         11    1    1    2    0    0  0.71140475757E-01  0.14524382725E+00  0.23785041328E+00  0.28762791392E+00  0.51100000000E-03 0.  1.
    9000002    1    1    2    0    0 -0.68807048533E+00 -0.10949053406E+01  0.20840715201E+01  0.26259201813E+01  0.93800000000E+00 0. -1.
         22    1    1    2    0    0  0.61693000957E+00  0.94966151336E+00  0.16780780339E+01  0.20244519047E+01  0.00000000000E+00 0.  1.
</event>
<event>
 5    1  0.1160133E+000  0.1597606E+01  0.7818608E-02  0.3355966E+00
         11   -1    0    0    0    0  0.00000000000E+00  0.00000000000E+00  0.39999999674E+01  0.40000000000E+01  0.51100000000E-03 0.  1.
    9000002   -1    0    0    0    0 -0.00000000000E+00 -0.00000000000E+00  0.00000000000E+00  0.93800000000E+00  0.93800000000E+00 0. -1.
         11    1    1    2    0    0 -0.81904105509E-01  0.26419319129E+00  0.11596267093E+01  0.11921579974E+01  0.51100000000E-03 0.  1.
    9000002    1    1    2    0    0  0.15871179428E+00 -0.89709264833E+00  0.64163504684E+00  0.14565384261E+01  0.93800000000E+00 0. -1.
         22    1    1    2    0    0 -0.76807688771E-01  0.63289945704E+00  0.21987382112E+01  0.22893035765E+01  0.00000000000E+00 0.  1.
</event>
<event>
 5    1  0.1160133E+000  0.1593444E+01  0.7818608E-02  0.3360510E+00
         11   -1    0    0    0    0  0.00000000000E+00  0.00000000000E+00  0.39999999674E+01  0.40000000000E+01  0.51100000000E-03 0. -1.
    9000002   -1    0    0    0    0 -0.00000000000E+00 -0.00000000000E+00  0.00000000000E+00  0.93800000000E+00  0.93800000000E+00 0. -1.
         11    1    1    2    0    0  0.82635585990E-01 -0.45064050961E-02  0.14923515811E+00  0.17064683207E+00  0.51100000000E-03 0. -1.
    9000002    1    1    2    0    0 -0.90548688260E+00  0.28821104141E+00  0.71821061251E+00  0.15161274956E+01  0.93800000000E+00 0. -1.
         22    1    1    2    0    0  0.82285129661E+00 -0.28370463631E+00  0.31325541967E+01  0.32512256723E+01  0.00000000000E+00 0. -1.
</event>
<event>
 5    1  0.1160133E+000  0.1599327E+01  0.7818608E-02  0.3354095E+00
         11   -1    0    0    0    0  0.00000000000E+00  0.00000000000E+00  0.39999999674E+01  0.40000000000E+01  0.51100000000E-03 0. -1.
    9000002   -1    0    0    0    0 -0.00000000000E+00 -0.00000000000E+00  0.00000000000E+00  0.93800000000E+00  0.93800000000E+00 0. -1.
         11    1    1    2    0    0 -0.12843536738E+00  0.13090963114E+00  0.51264185898E+00  0.54445836555E+00  0.51100000000E-03 0. -1.
    9000002    1    1    2    0    0  0.68762959325E+00 -0.84159331865E+00  0.10072562625E+01  0.17537168956E+01  0.93800000000E+00 0. -1.
         22    1    1    2    0    0 -0.55919422586E+00  0.71068368751E+00  0.24801018459E+01  0.26398247389E+01  0.00000000000E+00 0. -1.
</event>
<event>
 5    1  0.1160133E+000  0.1562197E+01  0.7818608E-02  0.3395444E+00
         11   -1    0    0    0    0  0.00000000000E+00  0.00000000000E+00  0.39999999674E+01  0.40000000000E+01  0.51100000000E-03 0.  1.
    9000002   -1    0    0    0    0 -0.00000000000E+00 -0.00000000000E+00  0.00000000000E+00  0.93800000000E+00  0.93800000000E+00 0.  1.
         11    1    1    2    0    0  0.45811817675E+00 -0.19268756299E+00  0.11689860343E+01  0.12702477595E+01  0.51100000000E-03 0.  1.
    9000002    1    1    2    0    0 -0.12293543815E+01  0.19282086810E+00  0.19703363402E+01  0.25120830751E+01  0.93800000000E+00 0.  1.
         22    1    1    2    0    0  0.77123620474E+00 -0.13330510638E-03  0.86067759279E+00  0.11556691655E+01  0.00000000000E+00 0.  1.
</event>
<event>
 5    1  0.1160133E+000  0.1509927E+01  0.7818608E-02  0.3457329E+00
         11   -1    0    0    0    0  0.00000000000E+00  0.00000000000E+00  0.39999999674E+01  0.40000000000E+01  0.51100000000E-03 0.  1.
    9000002   -1    0    0    0    0 -0.00000000000E+00 -0.00000000000E+00  0.00000000000E+00  0.93800000000E+00  0.93800000000E+00 0.  1.
         11    1    1    2    0    0  0.66915052119E-02  0.46594136345E-02 -0.95864694039E-01  0.96212198091E-01  0.51100000000E-03 0.  1.
    9000002    1    1    2    0    0  0.84844499922E+00 -0.56701253295E-01  0.95411656320E+00  0.15853253184E+01  0.93800000000E+00 0.  1.
         22    1    1    2    0    0 -0.85513650443E+00  0.52041839660E-01  0.31417480982E+01  0.32564624836E+01  0.00000000000E+00 0.  1.
</event>
<event>
 5    1  0.1160133E+000  0.1598848E+01  0.7818608E-02  0.3354615E+00
         11   -1    0    0    0    0  0.00000000000E+00  0.00000000000E+00  0.39999999674E+01  0.40000000000E+01  0.51100000000E-03 0. -1.
    9000002   -1    0    0    0    0 -0.00000000000E+00 -0.00000000000E+00  0.00000000000E+00  0.93800000000E+00  0.93800000000E+00 0.  1.
         11    1    1    2    0    0  0.53926781085E-01 -0.19292761979E+00  0.41639998780E+00  0.46208048559E+00  0.51100000000E-03 0. -1.
    9000002    1    1    2    0    0 -0.47656744273E+00  0.11292830524E+01  0.14972092393E+01  0.21503200334E+01  0.93800000000E+00 0.  1.
         22    1    1    2    0    0  0.42264066164E+00 -0.93635543260E+00  0.20863907402E+01  0.23255994810E+01  0.00000000000E+00 0. -1.
</event>
<event>
 5    1  0.1160133E+000  0.1471247E+01  0.7818608E-02  0.3506172E+00
         11   -1    0    0    0    0  0.00000000000E+00  0.00000000000E+00  0.39999999674E+01  0.40000000000E+01  0.51100000000E-03 0.  1.
    9000002   -1    0    0    0    0 -0.00000000000E+00 -0.00000000000E+00  0.00000000000E+00  0.93800000000E+00  0.93800000000E+00 0.  1.
         11    1    1    2    0    0  0.20578043137E+00  0.70518073886E-01  0.21921393636E+00  0.30882583391E+00  0.51100000000E-03 0.  1.
    9000002    1    1    2    0    0  0.30335689356E+00 -0.73636503824E+00  0.65703011091E+00  0.13949162846E+01  0.93800000000E+00 0.  1.
         22    1    1    2    0    0 -0.50913732493E+00  0.66584696436E+00  0.31237559201E+01  0.32342578815E+01  0.00000000000E+00 0.  1.
</event>
<event>
 5    1  0.1160133E+000  0.1599603E+01  0.7818608E-02  0.3353795E+00
         11   -1    0    0    0    0  0.00000000000E+00  0.00000000000E+00  0.39999999674E+01  0.40000000000E+01  0.51100000000E-03 0. -1.
    9000002   -1    0    0    0    0 -0.00000000000E+00 -0.00000000000E+00  0.00000000000E+00  0.93800000000E+00  0.93800000000E+00 0. -1.
         11    1    1    2    0    0 -0.38624853839E+00  0.31605050301E+00  0.12669787039E+01  0.13617309393E+01  0.51100000000E-03 0. -1.
    9000002    1    1    2    0    0  0.87680215757E+00 -0.72973090450E+00  0.11618321110E+01  0.18790920868E+01  0.93800000000E+00 0. -1.
         22    1    1    2    0    0 -0.49055361918E+00  0.41368040148E+00  0.15711891525E+01  0.16971769739E+01  0.00000000000E+00 0. -1.
</event>
<event>
 5    1  0.1160133E+000  0.1599620E+01  0.7818608E-02  0.3353776E+00
         11   -1    0    0    0    0  0.00000000000E+00  0.00000000000E+00  0.39999999674E+01  0.40000000000E+01  0.51100000000E-03 0.  1.
    9000002   -1    0    0    0    0 -0.00000000000E+00 -0.00000000000E+00  0.00000000000E+00  0.93800000000E+00  0.93800000000E+00 0.  1.
         11    1    1    2    0    0 -0.33191454638E+00  0.23178500537E+00  0.13156605817E+01  0.13765371706E+01  0.51100000000E-03 0.  1.
    9000002    1    1    2    0    0  0.82838315525E+00 -0.55920185756E+00  0.80347760905E+00  0.15888189443E+01  0.93800000000E+00 0.  1.
         22    1    1    2    0    0 -0.49646860886E+00  0.32741685218E+00  0.18808617766E+01  0.19726438851E+01  0.00000000000E+00 0.  1.
</event>
<event>
 5    1  0.1160133E+000  0.1592373E+01  0.7818608E-02  0.3361683E+00
         11   -1    0    0    0    0  0.00000000000E+00  0.00000000000E+00  0.39999999674E+01  0.40000000000E+01  0.51100000000E-03 0. -1.
    9000002   -1    0    0    0    0 -0.00000000000E+00 -0.00000000000E+00  0.00000000000E+00  0.93800000000E+00  0.93800000000E+00 0. -1.
         11    1    1    2    0    0 -0.46190859515E+00  0.77675064820E-01  0.74178819334E+00  0.87729296752E+00  0.51100000000E-03 0. -1.
    9000002    1    1    2    0    0  0.12310773254E+01 -0.36683865332E+00  0.23284125675E+01  0.28198352901E+01  0.93800000000E+00 0. -1.
         22    1    1    2    0    0 -0.76916873030E+00  0.28916358850E+00  0.92979920652E+00  0.12408717424E+01  0.00000000000E+00 0. -1.
</event>
<event>
 5    1  0.1160133E+000  0.1536254E+01  0.7818608E-02  0.3425597E+00
         11   -1    0    0    0    0  0.00000000000E+00  0.00000000000E+00  0.39999999674E+01  0.40000000000E+01  0.51100000000E-03 0.  1.
    9000002   -1    0    0    0    0 -0.00000000000E+00 -0.00000000000E+00  0.00000000000E+00  0.93800000000E+00  0.93800000000E+00 0. -1.
         11    1    1    2    0    0 -0.36018090472E+00  0.26223634150E+00  0.49271709167E+00  0.66428049533E+00  0.51100000000E-03 0.  1.
    9000002    1    1    2    0    0  0.77893287837E+00 -0.74159039705E+00  0.11522263466E+01  0.18341652869E+01  0.93800000000E+00 0. -1.
         22    1    1    2    0    0 -0.41875197365E+00  0.47935405555E+00  0.23550565291E+01  0.24395542178E+01  0.00000000000E+00 0.  1.
</event>
<event>
 5    1  0.1160133E+000  0.1596767E+01  0.7818608E-02  0.3356880E+00
         11   -1    0    0    0    0  0.00000000000E+00  0.00000000000E+00  0.39999999674E+01  0.40000000000E+01  0.51100000000E-03 0. -1.
    9000002   -1    0    0    0    0 -0.00000000000E+00 -0.00000000000E+00  0.00000000000E+00  0.93800000000E+00  0.93800000000E+00 0.  1.
         11    1    1    2    0    0 -0.98540073739E-01  0.13607122164E+00  0.37482534321E+00  0.41075518564E+00  0.51100000000E-03 0. -1.
    9000002    1    1    2    0    0  0.61022873624E+00 -0.82627460653E+00  0.86876624735E+00  0.16400328132E+01  0.93800000000E+00 0.  1.
         22    1    1    2    0    0 -0.51168866250E+00  0.69020338489E+00  0.27564083768E+01  0.28872120011E+01  0.00000000000E+00 0. -1.
</event>
<event>
 5    1  0.1160133E+000  0.1598980E+01  0.7818608E-02  0.3354472E+00
         11   -1    0    0    0    0  0.00000000000E+00  0.00000000000E+00  0.39999999674E+01  0.40000000000E+01  0.51100000000E-03 0.  1.
    9000002   -1    0    0    0    0 -0.00000000000E+00 -0.00000000000E+00  0.00000000000E+00  0.93800000000E+00  0.93800000000E+00 0.  1.
         11    1    1    2    0    0 -0.33082154200E+00 -0.66359153431E-02  0.10888364158E+01  0.11380034839E+01  0.51100000000E-03 0.  1.
    9000002    1    1    2    0    0  0.97347604126E+00  0.10843790557E+00  0.76437341301E+00  0.15567675153E+01  0.93800000000E+00 0.  1.
         22    1    1    2    0    0 -0.64265449926E+00 -0.10180199023E+00  0.21467901386E+01  0.22432290007E+01  0.00000000000E+00 0.  1.
</event>
<event>
 5    1  0.1160133E+000  0.1599637E+01  0.7818608E-02  0.3353757E+00
         11   -1    0    0    0    0  0.00000000000E+00  0.00000000000E+00  0.39999999674E+01  0.40000000000E+01  0.51100000000E-03 0.  1.
    9000002   -1    0    0    0    0 -0.00000000000E+00 -0.00000000000E+00  0.00000000000E+00  0.93800000000E+00  0.93800000000E+00 0.  1.
         11    1    1    2    0    0  0.37419057770E+00 -0.26932452034E-01  0.11643777976E+01  0.12233232860E+01  0.51100000000E-03 0.  1.
    9000002    1    1    2    0    0 -0.10251867789E+01  0.82621188053E-01  0.86573537992E+00  0.16392607908E+01  0.93800000000E+00 0.  1.
         22    1    1    2    0    0  0.65099620120E+00 -0.55688736019E-01  0.19698867898E+01  0.20754159232E+01  0.00000000000E+00 0.  1.
</event>
<event>
 5    1  0.1160133E+000  0.1599671E+01  0.7818608E-02  0.3353721E+00
         11   -1    0    0    0    0  0.00000000000E+00  0.00000000000E+00  0.39999999674E+01  0.40000000000E+01  0.51100000000E-03 0.  1.
    9000002   -1    0    0    0    0 -0.00000000000E+00 -0.00000000000E+00  0.00000000000E+00  0.93800000000E+00  0.93800000000E+00 0.  1.
         11    1    1    2    0    0 -0.11239068805E+00 -0.51851840582E+00  0.13716653070E+01  0.14707001664E+01  0.51100000000E-03 0.  1.
    9000002    1    1    2    0    0  0.24249575790E+00  0.10928321255E+01  0.10967603122E+01  0.18264209344E+01  0.93800000000E+00 0.  1.
         22    1    1    2    0    0 -0.13010506985E+00 -0.57431371972E+00  0.15315743482E+01  0.16408788992E+01  0.00000000000E+00 0.  1.
</event>
<event>
 5    1  0.1160133E+000  0.1599629E+01  0.7818608E-02  0.3353766E+00
         11   -1    0    0    0    0  0.00000000000E+00  0.00000000000E+00  0.39999999674E+01  0.40000000000E+01  0.51100000000E-03 0.  1.
    9000002   -1    0    0    0    0 -0.00000000000E+00 -0.00000000000E+00  0.00000000000E+00  0.93800000000E+00  0.93800000000E+00 0. -1.
         11    1    1    2    0    0  0.55205933102E-01 -0.26561544336E+00  0.88843771266E+00  0.92893546019E+00  0.51100000000E-03 0.  1.
    9000002    1    1    2    0    0 -0.20113094944E+00  0.98180360167E+00  0.80912275840E+00  0.15933975051E+01  0.93800000000E+00 0. -1.
         22    1    1    2    0    0  0.14592501633E+00 -0.71618815831E+00  0.23024394963E+01  0.24156670347E+01  0.00000000000E+00 0.  1.
</event>
<event>
 5    1  0.1160133E+000  0.1594344E+01  0.7818608E-02  0.3359525E+00
         11   -1    0    0    0    0  0.00000000000E+00  0.00000000000E+00  0.39999999674E+01  0.40000000000E+01  0.51100000000E-03 0. -1.
    9000002   -1    0    0    0    0 -0.00000000000E+00 -0.00000000000E+00  0.00000000000E+00  0.93800000000E+00  0.93800000000E+00 0. -1.
         11    1    1    2    0    0 -0.28283748892E+00 -0.21978623370E+00  0.33874537871E+00  0.49300276509E+00  0.51100000000E-03 0. -1.
    9000002    1    1    2    0    0 -0.46772615433E+00 -0.29085857174E+00  0.57985339152E+00  0.12326558400E+01  0.93800000000E+00 0. -1.
         22    1    1    2    0    0  0.75056364325E+00  0.51064480544E+00  0.30814011971E+01  0.32123413949E+01  0.00000000000E+00 0. -1.
</event>
<event>
 5    1  0.1160133E+000  0.1595946E+01  0.7818608E-02  0.3357776E+00
         11   -1    0    0    0    0  0.00000000000E+00  0.00000000000E+00  0.39999999674E+01  0.40000000000E+01  0.51100000000E-03 0.  1.
    9000002   -1    0    0    0    0 -0.00000000000E+00 -0.00000000000E+00  0.00000000000E+00  0.93800000000E+00  0.93800000000E+00 0. -1.
         11    1    1    2    0    0 -0.17577385216E+00  0.25314798440E+00  0.76480131861E+00  0.82456149993E+00  0.51100000000E-03 0.  1.
    9000002    1    1    2    0    0  0.44225138609E+00 -0.96917595837E+00  0.96047331248E+00  0.17138381810E+01  0.93800000000E+00 0. -1.
         22    1    1    2    0    0 -0.26647753393E+00  0.71602797398E+00  0.22747253363E+01  0.23996003190E+01  0.00000000000E+00 0.  1.
</event>
<event>
 5    1  0.1160133E+000  0.1109336E+01  0.7818608E-02  0.4227253E+00
         11   -1    0    0    0    0  0.00000000000E+00  0.00000000000E+00  0.39999999674E+01  0.40000000000E+01  0.51100000000E-03 0. -1.
    9000002   -1    0    0    0    0 -0.00000000000E+00 -0.00000000000E+00  0.00000000000E+00  0.93800000000E+00  0.93800000000E+00 0. -1.
         11    1    1    2    0    0  0.76178176584E+00  0.13656722440E-01  0.10307080808E+01  0.12817399790E+01  0.51100000000E-03 0. -1.
    9000002    1    1    2    0    0  0.71279536058E-01 -0.19947524075E+00  0.58925197131E+00  0.11278000841E+01  0.93800000000E+00 0.  1.
         22    1    1    2    0    0 -0.83306130190E+00  0.18581851831E+00  0.23800399152E+01  0.25284599369E+01  0.00000000000E+00 0. -1.
</event>
<event>
 5    1  0.1160133E+000  0.1599045E+01  0.7818608E-02  0.3354400E+00
         11   -1    0    0    0    0  0.00000000000E+00  0.00000000000E+00  0.39999999674E+01  0.40000000000E+01  0.51100000000E-03 0.  1.
    9000002   -1    0    0    0    0 -0.00000000000E+00 -0.00000000000E+00  0.00000000000E+00  0.93800000000E+00  0.93800000000E+00 0. -1.
         11    1    1    2    0    0 -0.13420042140E+00  0.11506964373E+00  0.40923290437E+00  0.44578313915E+00  0.51100000000E-03 0.  1.
    9000002    1    1    2    0    0  0.82833431268E+00 -0.73537663310E+00  0.10647558002E+01  0.18001292843E+01  0.93800000000E+00 0. -1.
         22    1    1    2    0    0 -0.69413389128E+00  0.62030698938E+00  0.25260112628E+01  0.26920875766E+01  0.00000000000E+00 0.  1.
</event>
<event>
 5    1  0.1160133E+000  0.1599676E+01  0.7818608E-02  0.3353715E+00
         11   -1    0    0    0    0  0.00000000000E+00  0.00000000000E+00  0.39999999674E+01  0.40000000000E+01  0.51100000000E-03 0. -1.
    9000002   -1    0    0    0    0 -0.00000000000E+00 -0.00000000000E+00  0.00000000000E+00  0.93800000000E+00  0.93800000000E+00 0.  1.
         11    1    1    2    0    0  0.18307540308E-01  0.13862009265E+00  0.40310988844E+00  0.42667146542E+00  0.51100000000E-03 0. -1.
    9000002    1    1    2    0    0 -0.13423137307E+00 -0.10522320521E+01  0.94063391475E+00  0.16999548566E+01  0.93800000000E+00 0.  1.
         22    1    1    2    0    0  0.11592383276E+00  0.91361195945E+00  0.26562561642E+01  0.28113736780E+01  0.00000000000E+00 0. -1.
</event>
<event>
 5    1  0.1160133E+000  0.1530229E+01  0.7818608E-02  0.3432755E+00
         11   -1    0    0    0    0  0.00000000000E+00  0.00000000000E+00  0.39999999674E+01  0.40000000000E+01  0.51100000000E-03 0. -1.
    9000002   -1    0    0    0    0 -0.00000000000E+00 -0.00000000000E+00  0.00000000000E+00  0.93800000000E+00  0.93800000000E+00 0. -1.
         11    1    1    2    0    0 -0.41886936502E-01 -0.11280854259E+00  0.13750187463E+00  0.18272194553E+00  0.51100000000E-03 0. -1.
    9000002    1    1    2    0    0  0.75754494907E+00 -0.46080590746E+00  0.71225028452E+00  0.14742323094E+01  0.93800000000E+00 0. -1.
         22    1    1    2    0    0 -0.71565801256E+00  0.57361445006E+00  0.31502478082E+01  0.32810457451E+01  0.00000000000E+00 0. -1.
</event>
<event>
 5    1  0.1160133E+000  0.1599593E+01  0.7818608E-02  0.3353806E+00
         11   -1    0    0    0    0  0.00000000000E+00  0.00000000000E+00  0.39999999674E+01  0.40000000000E+01  0.51100000000E-03 0.  1.
    9000002   -1    0    0    0    0 -0.00000000000E+00 -0.00000000000E+00  0.00000000000E+00  0.93800000000E+00  0.93800000000E+00 0.  1.
         11    1    1    2    0    0  0.12603568429E+00  0.92394761840E-01  0.53149939863E+00  0.55399788592E+00  0.51100000000E-03 0.  1.
    9000002    1    1    2    0    0 -0.73940143862E+00 -0.56335903433E+00  0.67039468673E+00  0.14809999747E+01  0.93800000000E+00 0.  1.
         22    1    1    2    0    0  0.61336575433E+00  0.47096427249E+00  0.27981058820E+01  0.29030021394E+01  0.00000000000E+00 0.  1.
</event>
<event>
 5    1  0.1160133E+000  0.1593505E+01  0.7818608E-02  0.3360443E+00
         11   -1    0    0    0    0  0.00000000000E+00  0.00000000000E+00  0.39999999674E+01  0.40000000000E+01  0.51100000000E-03 0.  1.
    9000002   -1    0    0    0    0 -0.00000000000E+00 -0.00000000000E+00  0.00000000000E+00  0.93800000000E+00  0.93800000000E+00 0. -1.
         11    1    1    2    0    0  0.54465431605E+00  0.26201583956E-01  0.13735140082E+01  0.14777942478E+01  0.51100000000E-03 0.  1.
    9000002    1    1    2    0    0 -0.10371754186E+01 -0.18068615107E+00  0.93540781291E+00  0.16921028664E+01  0.93800000000E+00 0. -1.
         22    1    1    2    0    0  0.49252110255E+00  0.15448456711E+00  0.16910781463E+01  0.17681028858E+01  0.00000000000E+00 0.  1.
</event>
<event>
 5    1  0.1160133E+000  0.1586907E+01  0.7818608E-02  0.3367697E+00
         11   -1    0    0    0    0  0.00000000000E+00  0.00000000000E+00  0.39999999674E+01  0.40000000000E+01  0.51100000000E-03 0.  1.
    9000002   -1    0    0    0    0 -0.00000000000E+00 -0.00000000000E+00  0.00000000000E+00  0.93800000000E+00  0.93800000000E+00 0.  1.
         11    1    1    2    0    0  0.47806519273E-01 -0.29195876113E+00  0.79837483403E+00  0.85142704809E+00  0.51100000000E-03 0.  1.
    9000002    1    1    2    0    0 -0.28107236805E-01  0.12446486981E+01  0.16849333676E+01  0.22953833780E+01  0.93800000000E+00 0.  1.
         22    1    1    2    0    0 -0.19699282468E-01 -0.95268993696E+00  0.15166917657E+01  0.17911895740E+01  0.00000000000E+00 0.  1.
</event>
<event>
 5    1  0.1160133E+000  0.1599643E+01  0.7818608E-02  0.3353751E+00
         11   -1    0    0    0    0  0.00000000000E+00  0.00000000000E+00  0.39999999674E+01  0.40000000000E+01  0.51100000000E-03 0.  1.
    9000002   -1    0    0    0    0 -0.00000000000E+00 -0.00000000000E+00  0.00000000000E+00  0.93800000000E+00  0.93800000000E+00 0. -1.
         11    1    1    2    0    0 -0.26662894597E-01  0.43827702392E+00  0.13348343344E+01  0.14051977160E+01  0.51100000000E-03 0.  1.
    9000002    1    1    2    0    0  0.63656771786E-01 -0.10377818851E+01  0.89107260755E+00  0.16597884858E+01  0.93800000000E+00 0. -1.
         22    1    1    2    0    0 -0.36993877189E-01  0.59950486116E+00  0.17740930254E+01  0.18730137982E+01  0.00000000000E+00 0.  1.
</event>
<event>
 5    1  0.1160133E+000  0.1599677E+01  0.7818608E-02  0.3353714E+00
         11   -1    0    0    0    0  0.00000000000E+00  0.00000000000E+00  0.39999999674E+01  0.40000000000E+01  0.51100000000E-03 0. -1.
    9000002   -1    0    0    0    0 -0.00000000000E+00 -0.00000000000E+00  0.00000000000E+00  0.93800000000E+00  0.93800000000E+00 0.  1.
         11    1    1    2    0    0  0.31226953663E-01 -0.39744501468E+00  0.14011846552E+01  0.14567966094E+01  0.51100000000E-03 0.  1.
    9000002    1    1    2    0    0 -0.73834314118E-01  0.93901233841E+00  0.69223889241E+00  0.14987442616E+01  0.93800000000E+00 0.  1.
         22    1    1    2    0    0  0.42607360455E-01 -0.54156732373E+00  0.19065764198E+01  0.19824591289E+01  0.00000000000E+00 0. -1.
</event>
<event>
 5    1  0.1160133E+000  0.1599673E+01  0.7818608E-02  0.3353719E+00
         11   -1    0    0    0    0  0.00000000000E+00  0.00000000000E+00  0.39999999674E+01  0.40000000000E+01  0.51100000000E-03 0. -1.
    9000002   -1    0    0    0    0 -0.00000000000E+00 -0.00000000000E+00  0.00000000000E+00  0.93800000000E+00  0.93800000000E+00 0. -1.
         11    1    1    2    0    0  0.98193989202E-01  0.47830525680E+00  0.10912070318E+01  0.11954710476E+01  0.51100000000E-03 0. -1.
    9000002    1    1    2    0    0 -0.23365496423E+00 -0.11681448162E+01  0.13403723542E+01  0.20237586323E+01  0.93800000000E+00 0. -1.
         22    1    1    2    0    0  0.13546097503E+00  0.68983955935E+00  0.15684205813E+01  0.17187703201E+01  0.00000000000E+00 0. -1.
</event>
<event>
 5    1  0.1160133E+000  0.1560239E+01  0.7818608E-02  0.3397682E+00
         11   -1    0    0    0    0  0.00000000000E+00  0.00000000000E+00  0.39999999674E+01  0.40000000000E+01  0.51100000000E-03 0. -1.
    9000002   -1    0    0    0    0 -0.00000000000E+00 -0.00000000000E+00  0.00000000000E+00  0.93800000000E+00  0.93800000000E+00 0. -1.
         11    1    1    2    0    0  0.15958364495E-01 -0.11256369330E+00  0.87613458006E+00  0.88348023065E+00  0.51100000000E-03 0. -1.
    9000002    1    1    2    0    0 -0.75911240707E+00 -0.11272987345E-01  0.46875273019E+00  0.12945855896E+01  0.93800000000E+00 0. -1.
         22    1    1    2    0    0  0.74315404257E+00  0.12383668064E+00  0.26551126571E+01  0.27599341797E+01  0.00000000000E+00 0. -1.
</event>
<event>
 5    1  0.1160133E+000  0.1599677E+01  0.7818608E-02  0.3353714E+00
         11   -1    0    0    0    0  0.00000000000E+00  0.00000000000E+00  0.39999999674E+01  0.40000000000E+01  0.51100000000E-03 0. -1.
    9000002   -1    0    0    0    0 -0.00000000000E+00 -0.00000000000E+00  0.00000000000E+00  0.93800000000E+00  0.93800000000E+00 0. -1.
         11    1    1    2    0    0  0.14241184259E+00 -0.27622485655E+00  0.97882339261E+00  0.10269745855E+01  0.51100000000E-03 0.  1.
    9000002    1    1    2    0    0 -0.46221072339E+00  0.89713522459E+00  0.82374314079E+00  0.16052685526E+01  0.93800000000E+00 0. -1.
         22    1    1    2    0    0  0.31979888079E+00 -0.62091036804E+00  0.21974334340E+01  0.23057568619E+01  0.00000000000E+00 0. -1.
</event>
<event>
 5    1  0.1160133E+000  0.1596430E+01  0.7818608E-02  0.3357248E+00
         11   -1    0    0    0    0  0.00000000000E+00  0.00000000000E+00  0.39999999674E+01  0.40000000000E+01  0.51100000000E-03 0.  1.
    9000002   -1    0    0    0    0 -0.00000000000E+00 -0.00000000000E+00  0.00000000000E+00  0.93800000000E+00  0.93800000000E+00 0. -1.
         11    1    1    2    0    0  0.94823945314E-01 -0.15089789189E+00  0.28125535005E+00  0.33296634580E+00  0.51100000000E-03 0.  1.
    9000002    1    1    2    0    0 -0.60982314814E+00  0.10365620912E+01  0.14011464157E+01  0.20710867967E+01  0.93800000000E+00 0. -1.
         22    1    1    2    0    0  0.51499920283E+00 -0.88566419934E+00  0.23175982016E+01  0.25339468575E+01  0.00000000000E+00 0.  1.
</event>
<event>
 5    1  0.1160133E+000  0.1598789E+01  0.7818608E-02  0.3354679E+00
         11   -1    0    0    0    0  0.00000000000E+00  0.00000000000E+00  0.39999999674E+01  0.40000000000E+01  0.51100000000E-03 0. -1.
    9000002   -1    0    0    0    0 -0.00000000000E+00 -0.00000000000E+00  0.00000000000E+00  0.93800000000E+00  0.93800000000E+00 0. -1.
         11    1    1    2    0    0 -0.35335198001E+00  0.12094665645E+00  0.66967308513E+00  0.76677768457E+00  0.51100000000E-03 0. -1.
    9000002    1    1    2    0    0  0.11943689562E+01 -0.33982649643E+00  0.15837226126E+01  0.22203649621E+01  0.93800000000E+00 0. -1.
         22    1    1    2    0    0 -0.84101697615E+00  0.21887983998E+00  0.17466042696E+01  0.19508573533E+01  0.00000000000E+00 0. -1.
</event>
<event>
 5    1  0.1160133E+000  0.1599468E+01  0.7818608E-02  0.3353941E+00
         11   -1    0    0    0    0  0.00000000000E+00  0.00000000000E+00  0.39999999674E+01  0.40000000000E+01  0.51100000000E-03 0.  1.
    9000002   -1    0    0    0    0 -0.00000000000E+00 -0.00000000000E+00  0.00000000000E+00  0.93800000000E+00  0.93800000000E+00 0.  1.
         11    1    1    2    0    0  0.18937113689E+00 -0.12422903132E+00  0.52390957637E+00  0.57076771549E+00  0.51100000000E-03 0.  1.
    9000002    1    1    2    0    0 -0.99306356065E+00  0.67778079274E+00  0.13865901445E+01  0.20610769678E+01  0.93800000000E+00 0.  1.
         22    1    1    2    0    0  0.80369242376E+00 -0.55355176141E+00  0.20895002465E+01  0.23061553167E+01  0.00000000000E+00 0.  1.
</event>
<event>
 5    1  0.1160133E+000  0.1599001E+01  0.7818608E-02  0.3354448E+00
         11   -1    0    0    0    0  0.00000000000E+00  0.00000000000E+00  0.39999999674E+01  0.40000000000E+01  0.51100000000E-03 0. -1.
    9000002   -1    0    0    0    0 -0.00000000000E+00 -0.00000000000E+00  0.00000000000E+00  0.93800000000E+00  0.93800000000E+00 0.  1.
         11    1    1    2    0    0  0.22343267240E-02 -0.27221551028E-02  0.95251636640E-02  0.10168195914E-01  0.51100000000E-03 0. -1.
    9000002    1    1    2    0    0 -0.90171602126E+00 -0.19995638042E+00  0.66098436550E+00  0.14730304371E+01  0.93800000000E+00 0.  1.
         22    1    1    2    0    0  0.89948169454E+00  0.20267853553E+00  0.33294904382E+01  0.34548013670E+01  0.00000000000E+00 0. -1.
</event>
<event>
 5    1  0.1160133E+000  0.1598190E+01  0.7818608E-02  0.3355330E+00
         11   -1    0    0    0    0  0.00000000000E+00  0.00000000000E+00  0.39999999674E+01  0.40000000000E+01  0.51100000000E-03 0.  1.
    9000002   -1    0    0    0    0 -0.00000000000E+00 -0.00000000000E+00  0.00000000000E+00  0.93800000000E+00  0.93800000000E+00 0.  1.
         11    1    1    2    0    0 -0.81597335694E-02 -0.25215927217E+00  0.78774737138E+00  0.82716205306E+00  0.51100000000E-03 0.  1.
    9000002    1    1    2    0    0  0.18162447242E+00  0.10385784330E+01  0.92850852576E+00  0.16892615822E+01  0.93800000000E+00 0.  1.
         22    1    1    2    0    0 -0.17346473885E+00 -0.78641916086E+00  0.22837440702E+01  0.24215763648E+01  0.00000000000E+00 0.  1.
</event>
<event>
 5    1  0.1160133E+000  0.1599633E+01  0.7818608E-02  0.3353762E+00
         11   -1    0    0    0    0  0.00000000000E+00  0.00000000000E+00  0.39999999674E+01  0.40000000000E+01  0.51100000000E-03 0.  1.
    9000002   -1    0    0    0    0 -0.00000000000E+00 -0.00000000000E+00  0.00000000000E+00  0.93800000000E+00  0.93800000000E+00 0. -1.
         11    1    1    2    0    0  0.17607616956E+00 -0.10457381735E+00  0.23926452422E+00  0.31493852484E+00  0.51100000000E-03 0.  1.
    9000002    1    1    2    0    0 -0.11229711174E+01  0.62739130179E+00  0.24756605017E+01  0.29433693101E+01  0.93800000000E+00 0. -1.
         22    1    1    2    0    0  0.94689494779E+00 -0.52281748445E+00  0.12850749414E+01  0.16796921650E+01  0.00000000000E+00 0.  1.
</event>
<event>
 5    1  0.1160133E+000  0.1599522E+01  0.7818608E-02  0.3353882E+00
         11   -1    0    0    0    0  0.00000000000E+00  0.00000000000E+00  0.39999999674E+01  0.40000000000E+01  0.51100000000E-03 0.  1.
    9000002   -1    0    0    0    0 -0.00000000000E+00 -0.00000000000E+00  0.00000000000E+00  0.93800000000E+00  0.93800000000E+00 0. -1.
         11    1    1    2    0    0  0.74993694289E-01  0.16590446252E+00  0.41259904563E+00  0.45098401130E+00  0.51100000000E-03 0.  1.
    9000002    1    1    2    0    0 -0.46706789219E+00 -0.10561005113E+01  0.12077891481E+01  0.19162722490E+01  0.93800000000E+00 0. -1.
         22    1    1    2    0    0  0.39207419790E+00  0.89019604883E+00  0.23796117737E+01  0.25707437397E+01  0.00000000000E+00 0.  1.
</event>
<event>
 5    1  0.1160133E+000  0.1516103E+01  0.7818608E-02  0.3449779E+00
         11   -1    0    0    0    0  0.00000000000E+00  0.00000000000E+00  0.39999999674E+01  0.40000000000E+01  0.51100000000E-03 0. -1.
    9000002   -1    0    0    0    0 -0.00000000000E+00 -0.00000000000E+00  0.00000000000E+00  0.93800000000E+00  0.93800000000E+00 0. -1.
         11    1    1    2    0    0  0.14702547195E-01 -0.14247399344E+00  0.96842712385E+00  0.97896187824E+00  0.51100000000E-03 0. -1.
    9000002    1    1    2    0    0  0.95768582237E+00  0.42993783559E+00  0.11346725719E+01  0.18081301176E+01  0.93800000000E+00 0. -1.
         22    1    1    2    0    0 -0.97238836957E+00 -0.28746384215E+00  0.18969002716E+01  0.21509080041E+01  0.00000000000E+00 0. -1.
</event>
<event>
 5    1  0.1160133E+000  0.1452795E+01  0.7818608E-02  0.3530466E+00
         11   -1    0    0    0    0  0.00000000000E+00  0.00000000000E+00  0.39999999674E+01  0.40000000000E+01  0.51100000000E-03 0. -1.
    9000002   -1    0    0    0    0 -0.00000000000E+00 -0.00000000000E+00  0.00000000000E+00  0.93800000000E+00  0.93800000000E+00 0.  1.
         11    1    1    2    0    0 -0.68616383482E-01 -0.51267051230E+00  0.12016073945E+01  0.13082048211E+01  0.51100000000E-03 0. -1.
    9000002    1    1    2    0    0 -0.54226368602E+00  0.44406230142E+00  0.54039525181E+00  0.12896170986E+01  0.93800000000E+00 0.  1.
         22    1    1    2    0    0  0.61088006950E+00  0.68608210889E-01  0.22579973210E+01  0.23401780803E+01  0.00000000000E+00 0. -1.
</event>
<event>
 5    1  0.1160133E+000  0.1594584E+01  0.7818608E-02  0.3359263E+00
         11   -1    0    0    0    0  0.00000000000E+00  0.00000000000E+00  0.39999999674E+01  0.40000000000E+01  0.51100000000E-03 0.  1.
    9000002   -1    0    0    0    0 -0.00000000000E+00 -0.00000000000E+00  0.00000000000E+00  0.93800000000E+00  0.93800000000E+00 0.  1.
         11    1    1    2    0    0 -0.24354062862E-01  0.20281208847E+00  0.87995490437E+00  0.90335306412E+00  0.51100000000E-03 0.  1.
    9000002    1    1    2    0    0 -0.16838351320E+00 -0.89829400075E+00  0.65142628628E+00  0.14626979612E+01  0.93800000000E+00 0.  1.
         22    1    1    2    0    0  0.19273757606E+00  0.69548191228E+00  0.24686187767E+01  0.25719489747E+01  0.00000000000E+00 0.  1.
</event>
<event>
 5    1  0.1160133E+000  0.1599481E+01  0.7818608E-02  0.3353927E+00
         11   -1    0    0    0    0  0.00000000000E+00  0.00000000000E+00  0.39999999674E+01  0.40000000000E+01  0.51100000000E-03 0.  1.
    9000002   -1    0    0    0    0 -0.00000000000E+00 -0.00000000000E+00  0.00000000000E+00  0.93800000000E+00  0.93800000000E+00 0.  1.
         11    1    1    2    0    0  0.31269225830E-01 -0.17680434649E+00  0.25123069769E+00  0.30879550840E+00  0.51100000000E-03 0.  1.
    9000002    1    1    2    0    0 -0.14813810177E+00  0.12869557150E+01  0.22388590758E+01  0.27514603161E+01  0.93800000000E+00 0.  1.
         22    1    1    2    0    0  0.11686887594E+00 -0.11101513685E+01  0.15099101938E+01  0.18777441755E+01  0.00000000000E+00 0.  1.
</event>
<event>
 5    1  0.1160133E+000  0.1528725E+01  0.7818608E-02  0.3434552E+00
         11   -1    0    0    0    0  0.00000000000E+00  0.00000000000E+00  0.39999999674E+01  0.40000000000E+01  0.51100000000E-03 0. -1.
    9000002   -1    0    0    0    0 -0.00000000000E+00 -0.00000000000E+00  0.00000000000E+00  0.93800000000E+00  0.93800000000E+00 0. -1.
         11    1    1    2    0    0 -0.21677655749E-01  0.10924772773E+00  0.21202517165E+00  0.23949931380E+00  0.51100000000E-03 0. -1.
    9000002    1    1    2    0    0 -0.98763763224E+00  0.39882364999E+00  0.11431317970E+01  0.18223837965E+01  0.93800000000E+00 0. -1.
         22    1    1    2    0    0  0.10093152880E+01 -0.50807137772E+00  0.26448429987E+01  0.28761168897E+01  0.00000000000E+00 0. -1.
</event>
<event>
 5    1  0.1160133E+000  0.1525895E+01  0.7818608E-02  0.3437942E+00
         11   -1    0    0    0    0  0.00000000000E+00  0.00000000000E+00  0.39999999674E+01  0.40000000000E+01  0.51100000000E-03 0. -1.
    9000002   -1    0    0    0    0 -0.00000000000E+00 -0.00000000000E+00  0.00000000000E+00  0.93800000000E+00  0.93800000000E+00 0.  1.
         11    1    1    2    0    0 -0.14512185936E+00 -0.65398626204E+00  0.10482500713E+01  0.12440204412E+01  0.51100000000E-03 0. -1.
    9000002    1    1    2    0    0  0.70754081300E+00  0.88342950411E+00  0.14100953010E+01  0.20369767914E+01  0.93800000000E+00 0. -1.
         22    1    1    2    0    0 -0.56241895364E+00 -0.22944324207E+00  0.15416545950E+01  0.16570027674E+01  0.00000000000E+00 0.  1.
</event>
<event>
 5    1  0.1160133E+000  0.1596841E+01  0.7818608E-02  0.3356799E+00
         11   -1    0    0    0    0  0.00000000000E+00  0.00000000000E+00  0.39999999674E+01  0.40000000000E+01  0.51100000000E-03 0.  1.
    9000002   -1    0    0    0    0 -0.00000000000E+00 -0.00000000000E+00  0.00000000000E+00  0.93800000000E+00  0.93800000000E+00 0.  1.
         11    1    1    2    0    0  0.54859378418E+00 -0.91812150750E-01  0.12574619573E+01  0.13749892531E+01  0.51100000000E-03 0.  1.
    9000002    1    1    2    0    0 -0.11014409536E+01  0.23610227036E+00  0.11258381127E+01  0.18483159666E+01  0.93800000000E+00 0.  1.
         22    1    1    2    0    0  0.55284716942E+00 -0.14429011961E+00  0.16166998974E+01  0.17146947803E+01  0.00000000000E+00 0. -1.
</event>
<event>
 5    1  0.1160133E+000  0.1599599E+01  0.7818608E-02  0.3353799E+00
         11   -1    0    0    0    0  0.00000000000E+00  0.00000000000E+00  0.39999999674E+01  0.40000000000E+01  0.51100000000E-03 0. -1.
    9000002   -1    0    0    0    0 -0.00000000000E+00 -0.00000000000E+00  0.00000000000E+00  0.93800000000E+00  0.93800000000E+00 0. -1.
         11    1    1    2    0    0  0.38437101763E-01  0.26363283484E+00  0.93234250223E+00  0.96966101551E+00  0.51100000000E-03 0. -1.
    9000002    1    1    2    0    0 -0.16322120414E+00 -0.91777722543E+00  0.67499030484E+00  0.14847262740E+01  0.93800000000E+00 0. -1.
         22    1    1    2    0    0  0.12478410238E+00  0.65414439059E+00  0.23926671603E+01  0.24836127105E+01  0.00000000000E+00 0. -1.
</event>
<event>
 5    1  0.1160133E+000  0.1214012E+01  0.7818608E-02  0.3960932E+00
         11   -1    0    0    0    0  0.00000000000E+00  0.00000000000E+00  0.39999999674E+01  0.40000000000E+01  0.51100000000E-03 0.  1.
    9000002   -1    0    0    0    0 -0.00000000000E+00 -0.00000000000E+00  0.00000000000E+00  0.93800000000E+00  0.93800000000E+00 0. -1.
         11    1    1    2    0    0  0.11731798750E+00 -0.61333138187E+00  0.98716089239E+00  0.11680863764E+01  0.51100000000E-03 0.  1.
    9000002    1    1    2    0    0  0.26018037146E+00 -0.12958256261E+00  0.45980380352E+00  0.10843196042E+01  0.93800000000E+00 0. -1.
         22    1    1    2    0    0 -0.37749835896E+00  0.74291394448E+00  0.25530352715E+01  0.26855940194E+01  0.00000000000E+00 0. -1.
</event>
<event>
 5    1  0.1160133E+000  0.1594564E+01  0.7818608E-02  0.3359285E+00
         11   -1    0    0    0    0  0.00000000000E+00  0.00000000000E+00  0.39999999674E+01  0.40000000000E+01  0.51100000000E-03 0. -1.
    9000002   -1    0    0    0    0 -0.00000000000E+00 -0.00000000000E+00  0.00000000000E+00  0.93800000000E+00  0.93800000000E+00 0. -1.
         11    1    1    2    0    0 -0.43029193017E-01  0.73529804685E-01  0.42352939859E+00  0.43201337504E+00  0.51100000000E-03 0. -1.
    9000002    1    1    2    0    0  0.63885366511E+00 -0.83599235958E+00  0.93143916968E+00  0.16895088510E+01  0.93800000000E+00 0. -1.
         22    1    1    2    0    0 -0.59582447209E+00  0.76246255489E+00  0.26450313991E+01  0.28164777740E+01  0.00000000000E+00 0. -1.
</event>
<event>
 5    1  0.1160133E+000  0.1574170E+01  0.7818608E-02  0.3381884E+00
         11   -1    0    0    0    0  0.00000000000E+00  0.00000000000E+00  0.39999999674E+01  0.40000000000E+01  0.51100000000E-03 0.  1.
    9000002   -1    0    0    0    0 -0.00000000000E+00 -0.00000000000E+00  0.00000000000E+00  0.93800000000E+00  0.93800000000E+00 0.  1.
         11    1    1    2    0    0 -0.11451875355E+00  0.16640268542E+00  0.75325349470E+00  0.77986889092E+00  0.51100000000E-03 0.  1.
    9000002    1    1    2    0    0  0.99466307708E+00 -0.24847485112E+00  0.91325442422E+00  0.16628205050E+01  0.93800000000E+00 0.  1.
         22    1    1    2    0    0 -0.88014432352E+00  0.82072165700E-01  0.23334920484E+01  0.24953106041E+01  0.00000000000E+00 0.  1.
</event>
<event>
 5    1  0.1160133E+000  0.1599670E+01  0.7818608E-02  0.3353722E+00
         11   -1    0    0    0    0  0.00000000000E+00  0.00000000000E+00  0.39999999674E+01  0.40000000000E+01  0.51100000000E-03 0. -1.
    9000002   -1    0    0    0    0 -0.00000000000E+00 -0.00000000000E+00  0.00000000000E+00  0.93800000000E+00  0.93800000000E+00 0. -1.
         11    1    1    2    0    0  0.16846572684E+00  0.24918545653E+00  0.85001936079E+00  0.90166915646E+00  0.51100000000E-03 0. -1.
    9000002    1    1    2    0    0 -0.60992066741E+00 -0.88492137921E+00  0.97535717130E+00  0.17280783198E+01  0.93800000000E+00 0. -1.
         22    1    1    2    0    0  0.44145494057E+00  0.63573592268E+00  0.21746234353E+01  0.23082525237E+01  0.00000000000E+00 0. -1.
</event>
<event>
 5    1  0.1160133E+000  0.1599546E+01  0.7818608E-02  0.3353856E+00
         11   -1    0    0    0    0  0.00000000000E+00  0.00000000000E+00  0.39999999674E+01  0.40000000000E+01  0.51100000000E-03 0.  1.
    9000002   -1    0    0    0    0 -0.00000000000E+00 -0.00000000000E+00  0.00000000000E+00  0.93800000000E+00  0.93800000000E+00 0.  1.
         11    1    1    2    0    0 -0.25672456243E+00 -0.32110362051E+00  0.12861053129E+01  0.13502156024E+01  0.51100000000E-03 0.  1.
    9000002    1    1    2    0    0  0.63828835320E+00  0.81161346222E+00  0.87493070927E+00  0.16466560600E+01  0.93800000000E+00 0.  1.
         22    1    1    2    0    0 -0.38156379077E+00 -0.49050984171E+00  0.18389639452E+01  0.19411283376E+01  0.00000000000E+00 0.  1.
</event>
<event>
 5    1  0.1160133E+000  0.1599672E+01  0.7818608E-02  0.3353719E+00
         11   -1    0    0    0    0  0.00000000000E+00  0.00000000000E+00  0.39999999674E+01  0.40000000000E+01  0.51100000000E-03 0. -1.
    9000002   -1    0    0    0    0 -0.00000000000E+00 -0.00000000000E+00  0.00000000000E+00  0.93800000000E+00  0.93800000000E+00 0. -1.
         11    1    1    2    0    0  0.28272622119E+00 -0.68077660755E-01  0.89513049654E+00  0.94118412173E+00  0.51100000000E-03 0. -1.
    9000002    1    1    2    0    0 -0.99912696958E+00  0.23967221982E+00  0.86335228743E+00  0.16373511067E+01  0.93800000000E+00 0. -1.
         22    1    1    2    0    0  0.71640074839E+00 -0.17159455906E+00  0.22415171834E+01  0.23594647716E+01  0.00000000000E+00 0. -1.
</event>
<event>
 5    1  0.1160133E+000  0.1522877E+01  0.7818608E-02  0.3441573E+00
         11   -1    0    0    0    0  0.00000000000E+00  0.00000000000E+00  0.39999999674E+01  0.40000000000E+01  0.51100000000E-03 0. -1.
    9000002   -1    0    0    0    0 -0.00000000000E+00 -0.00000000000E+00  0.00000000000E+00  0.93800000000E+00  0.93800000000E+00 0. -1.
         11    1    1    2    0    0  0.11455280944E+00 -0.50256964483E-01  0.37179285911E+00  0.39227324639E+00  0.51100000000E-03 0. -1.
    9000002    1    1    2    0    0  0.76049208499E+00 -0.13190537940E+00  0.53744539277E+00  0.13283217948E+01  0.93800000000E+00 0. -1.
         22    1    1    2    0    0 -0.87504489443E+00  0.18216234388E+00  0.30907617155E+01  0.32174049588E+01  0.00000000000E+00 0. -1.
</event>
<event>
 5    1  0.1160133E+000  0.1532185E+01  0.7818608E-02  0.3430424E+00
         11   -1    0    0    0    0  0.00000000000E+00  0.00000000000E+00  0.39999999674E+01  0.40000000000E+01  0.51100000000E-03 0.  1.
    9000002   -1    0    0    0    0 -0.00000000000E+00 -0.00000000000E+00  0.00000000000E+00  0.93800000000E+00  0.93800000000E+00 0. -1.
         11    1    1    2    0    0  0.29600365704E+00 -0.82742769658E-01  0.10336799927E+01  0.10784058231E+01  0.51100000000E-03 0.  1.
    9000002    1    1    2    0    0 -0.50959137980E+00 -0.55045733528E+00  0.49421384142E+00  0.12987601678E+01  0.93800000000E+00 0. -1.
         22    1    1    2    0    0  0.21358772275E+00  0.63320010494E+00  0.24721061333E+01  0.25608340091E+01  0.00000000000E+00 0.  1.
</event>
<event>
 5    1  0.1160133E+000  0.1595541E+01  0.7818608E-02  0.3358217E+00
         11   -1    0    0    0    0  0.00000000000E+00  0.00000000000E+00  0.39999999674E+01  0.40000000000E+01  0.51100000000E-03 0. -1.
    9000002   -1    0    0    0    0 -0.00000000000E+00 -0.00000000000E+00  0.00000000000E+00  0.93800000000E+00  0.93800000000E+00 0. -1.
         11    1    1    2    0    0  0.10248415843E-01  0.40992402246E-01  0.72431001044E-01  0.83856532855E-01  0.51100000000E-03 0. -1.
    9000002    1    1    2    0    0  0.27650269795E+00 -0.99358794926E+00  0.88070968010E+00  0.16489888706E+01  0.93800000000E+00 0. -1.
         22    1    1    2    0    0 -0.28675111379E+00  0.95259554702E+00  0.30468592862E+01  0.32051545965E+01  0.00000000000E+00 0. -1.
</event>
<event>
 5    1  0.1160133E+000  0.1558932E+01  0.7818608E-02  0.3399181E+00
         11   -1    0    0    0    0  0.00000000000E+00  0.00000000000E+00  0.39999999674E+01  0.40000000000E+01  0.51100000000E-03 0. -1.
    9000002   -1    0    0    0    0 -0.00000000000E+00 -0.00000000000E+00  0.00000000000E+00  0.93800000000E+00  0.93800000000E+00 0. -1.
         11    1    1    2    0    0 -0.36305491874E+00  0.10782576267E+00  0.75731788580E+00  0.84673839549E+00  0.51100000000E-03 0. -1.
    9000002    1    1    2    0    0 -0.58131091585E+00  0.18294678111E+00  0.59882808017E+00  0.12687911472E+01  0.93800000000E+00 0. -1.
         22    1    1    2    0    0  0.94436583459E+00 -0.29077254378E+00  0.26438540014E+01  0.28224704573E+01  0.00000000000E+00 0. -1.
</event>
<event>
 5    1  0.1160133E+000  0.1568322E+01  0.7818608E-02  0.3388480E+00
         11   -1    0    0    0    0  0.00000000000E+00  0.00000000000E+00  0.39999999674E+01  0.40000000000E+01  0.51100000000E-03 0. -1.
    9000002   -1    0    0    0    0 -0.00000000000E+00 -0.00000000000E+00  0.00000000000E+00  0.93800000000E+00  0.93800000000E+00 0.  1.
         11    1    1    2    0    0  0.23188526162E+00  0.20475513537E+00  0.54775045718E+00  0.62906777415E+00  0.51100000000E-03 0. -1.
    9000002    1    1    2    0    0 -0.35077028962E+00 -0.98789149631E+00  0.98402026620E+00  0.17167146789E+01  0.93800000000E+00 0.  1.
         22    1    1    2    0    0  0.11888502800E+00  0.78313636094E+00  0.24682292440E+01  0.25922175469E+01  0.00000000000E+00 0. -1.
</event>
<event>
 5    1  0.1160133E+000  0.1375224E+01  0.7818608E-02  0.3647427E+00
         11   -1    0    0    0    0  0.00000000000E+00  0.00000000000E+00  0.39999999674E+01  0.40000000000E+01  0.51100000000E-03 0. -1.
    9000002   -1    0    0    0    0 -0.00000000000E+00 -0.00000000000E+00  0.00000000000E+00  0.93800000000E+00  0.93800000000E+00 0. -1.
         11    1    1    2    0    0  0.52262404188E+00  0.35706377651E+00  0.11821057993E+01  0.13408970174E+01  0.51100000000E-03 0. -1.
    9000002    1    1    2    0    0 -0.64135299051E+00  0.30216721119E+00  0.68339167043E+00  0.13599657559E+01  0.93800000000E+00 0. -1.
         22    1    1    2    0    0  0.11872894864E+00 -0.65923098770E+00  0.21345024977E+01  0.22371372267E+01  0.00000000000E+00 0. -1.
</event>
<event>
 5    1  0.1160133E+000  0.1599668E+01  0.7818608E-02  0.3353724E+00
         11   -1    0    0    0    0  0.00000000000E+00  0.00000000000E+00  0.39999999674E+01  0.40000000000E+01  0.51100000000E-03 0.  1.
    9000002   -1    0    0    0    0 -0.00000000000E+00 -0.00000000000E+00  0.00000000000E+00  0.93800000000E+00  0.93800000000E+00 0.  1.
         11    1    1    2    0    0 -0.26627228229E+00 -0.79993371950E-01  0.98592211796E+00  0.10243742244E+01  0.51100000000E-03 0.  1.
    9000002    1    1    2    0    0  0.88831973518E+00  0.27120270830E+00  0.66892512384E+00  0.14798539395E+01  0.93800000000E+00 0.  1.
         22    1    1    2    0    0 -0.62204745289E+00 -0.19120933635E+00  0.23451527256E+01  0.24337718361E+01  0.00000000000E+00 0.  1.
</event>
<event>
 5    1  0.1160133E+000  0.1599110E+01  0.7818608E-02  0.3354330E+00
         11   -1    0    0    0    0  0.00000000000E+00  0.00000000000E+00  0.39999999674E+01  0.40000000000E+01  0.51100000000E-03 0.  1.
    9000002   -1    0    0    0    0 -0.00000000000E+00 -0.00000000000E+00  0.00000000000E+00  0.93800000000E+00  0.93800000000E+00 0.  1.
         11    1    1    2    0    0 -0.16577877805E-01  0.15586302493E+00  0.28051955419E+00  0.32134030245E+00  0.51100000000E-03 0.  1.
    9000002    1    1    2    0    0  0.26863151550E+00 -0.12207966394E+01  0.16312750300E+01  0.22590727189E+01  0.93800000000E+00 0.  1.
         22    1    1    2    0    0 -0.25205363770E+00  0.10649336145E+01  0.20882053832E+01  0.23575869786E+01  0.00000000000E+00 0.  1.
</event>
<event>
 5    1  0.1160133E+000  0.1598887E+01  0.7818608E-02  0.3354572E+00
         11   -1    0    0    0    0  0.00000000000E+00  0.00000000000E+00  0.39999999674E+01  0.40000000000E+01  0.51100000000E-03 0.  1.
    9000002   -1    0    0    0    0 -0.00000000000E+00 -0.00000000000E+00  0.00000000000E+00  0.93800000000E+00  0.93800000000E+00 0. -1.
         11    1    1    2    0    0 -0.23138440783E+00 -0.62808100195E+00  0.11226937489E+01  0.13070830135E+01  0.51100000000E-03 0.  1.
    9000002    1    1    2    0    0  0.41145900152E+00  0.11987816247E+01  0.17568770506E+01  0.23606856767E+01  0.93800000000E+00 0. -1.
         22    1    1    2    0    0 -0.18007459369E+00 -0.57070062271E+00  0.11204291679E+01  0.12702313098E+01  0.00000000000E+00 0.  1.
</event>
<event>
 5    1  0.1160133E+000  0.1580297E+01  0.7818608E-02  0.3375029E+00
         11   -1    0    0    0    0  0.00000000000E+00  0.00000000000E+00  0.39999999674E+01  0.40000000000E+01  0.51100000000E-03 0. -1.
    9000002   -1    0    0    0    0 -0.00000000000E+00 -0.00000000000E+00  0.00000000000E+00  0.93800000000E+00  0.93800000000E+00 0.  1.
         11    1    1    2    0    0  0.12777332082E+00  0.10829635592E+00  0.11702007951E+01  0.11821270170E+01  0.51100000000E-03 0. -1.
    9000002    1    1    2    0    0 -0.25830949044E+00 -0.78150504757E+00  0.52963970403E+00  0.13556681557E+01  0.93800000000E+00 0.  1.
         22    1    1    2    0    0  0.13053616962E+00  0.67320869165E+00  0.23001594682E+01  0.24002048274E+01  0.00000000000E+00 0. -1.
</event>
<event>
 5    1  0.1160133E+000  0.1599349E+01  0.7818608E-02  0.3354071E+00
         11   -1    0    0    0    0  0.00000000000E+00  0.00000000000E+00  0.39999999674E+01  0.40000000000E+01  0.51100000000E-03 0. -1.
    9000002   -1    0    0    0    0 -0.00000000000E+00 -0.00000000000E+00  0.00000000000E+00  0.93800000000E+00  0.93800000000E+00 0. -1.
         11    1    1    2    0    0  0.23212884593E+00  0.18171812204E+00  0.72878542989E+00  0.78615122014E+00  0.51100000000E-03 0. -1.
    9000002    1    1    2    0    0 -0.91171899154E+00 -0.74144640044E+00  0.12798728285E+01  0.19745614048E+01  0.93800000000E+00 0. -1.
         22    1    1    2    0    0  0.67959014562E+00  0.55972827841E+00  0.19913417089E+01  0.21772873750E+01  0.00000000000E+00 0.  1.
</event>
<event>
 5    1  0.1160133E+000  0.1599666E+01  0.7818608E-02  0.3353726E+00
         11   -1    0    0    0    0  0.00000000000E+00  0.00000000000E+00  0.39999999674E+01  0.40000000000E+01  0.51100000000E-03 0.  1.
    9000002   -1    0    0    0    0 -0.00000000000E+00 -0.00000000000E+00  0.00000000000E+00  0.93800000000E+00  0.93800000000E+00 0.  1.
         11    1    1    2    0    0 -0.12915614820E-02 -0.46767046149E-01  0.11579359649E+00  0.12488892203E+00  0.51100000000E-03 0.  1.
    9000002    1    1    2    0    0 -0.32273450584E-02  0.11483792928E+01  0.11861976580E+01  0.18988665829E+01  0.93800000000E+00 0.  1.
         22    1    1    2    0    0  0.45189065404E-02 -0.11016122466E+01  0.26980087129E+01  0.29142444951E+01  0.00000000000E+00 0.  1.
</event>
<event>
 5    1  0.1160133E+000  0.1540244E+01  0.7818608E-02  0.3420889E+00
         11   -1    0    0    0    0  0.00000000000E+00  0.00000000000E+00  0.39999999674E+01  0.40000000000E+01  0.51100000000E-03 0. -1.
    9000002   -1    0    0    0    0 -0.00000000000E+00 -0.00000000000E+00  0.00000000000E+00  0.93800000000E+00  0.93800000000E+00 0.  1.
         11    1    1    2    0    0  0.38852553831E-01 -0.58876741098E-01  0.13658064759E-01  0.71852595190E-01  0.51100000000E-03 0. -1.
    9000002    1    1    2    0    0  0.51528469494E+00  0.79660848893E+00  0.81516753081E+00  0.15634722590E+01  0.93800000000E+00 0.  1.
         22    1    1    2    0    0 -0.55413724877E+00 -0.73773174783E+00  0.31711743718E+01  0.33026751458E+01  0.00000000000E+00 0. -1.
</event>
<event>
 5    1  0.1160133E+000  0.1599495E+01  0.7818608E-02  0.3353912E+00
         11   -1    0    0    0    0  0.00000000000E+00  0.00000000000E+00  0.39999999674E+01  0.40000000000E+01  0.51100000000E-03 0. -1.
    9000002   -1    0    0    0    0 -0.00000000000E+00 -0.00000000000E+00  0.00000000000E+00  0.93800000000E+00  0.93800000000E+00 0. -1.
         11    1    1    2    0    0  0.46144831080E-03 -0.27248789897E-02  0.80831530662E-02  0.85578259239E-02  0.51100000000E-03 0. -1.
    9000002    1    1    2    0    0  0.36374674893E+00  0.83450034357E+00  0.63747589258E+00  0.14542771519E+01  0.93800000000E+00 0.  1.
         22    1    1    2    0    0 -0.36420819724E+00 -0.83177546458E+00  0.33544409217E+01  0.34751650222E+01  0.00000000000E+00 0. -1.
</event>
<event>
 5    1  0.1160133E+000  0.1599084E+01  0.7818608E-02  0.3354359E+00
         11   -1    0    0    0    0  0.00000000000E+00  0.00000000000E+00  0.39999999674E+01  0.40000000000E+01  0.51100000000E-03 0.  1.
    9000002   -1    0    0    0    0 -0.00000000000E+00 -0.00000000000E+00  0.00000000000E+00  0.93800000000E+00  0.93800000000E+00 0.  1.
         11    1    1    2    0    0 -0.16740578077E+00  0.43609970878E-01  0.50605650425E+00  0.53480835035E+00  0.51100000000E-03 0.  1.
    9000002    1    1    2    0    0  0.93129298898E+00 -0.29007364454E+00  0.75618794692E+00  0.15501979105E+01  0.93800000000E+00 0.  1.
         22    1    1    2    0    0 -0.76388720821E+00  0.24646367366E+00  0.27377555162E+01  0.28529937392E+01  0.00000000000E+00 0.  1.
</event>
<event>
 5    1  0.1160133E+000  0.1208475E+01  0.7818608E-02  0.3973551E+00
         11   -1    0    0    0    0  0.00000000000E+00  0.00000000000E+00  0.39999999674E+01  0.40000000000E+01  0.51100000000E-03 0.  1.
    9000002   -1    0    0    0    0 -0.00000000000E+00 -0.00000000000E+00  0.00000000000E+00  0.93800000000E+00  0.93800000000E+00 0. -1.
         11    1    1    2    0    0 -0.43032940749E+00 -0.55576609248E+00  0.13028764811E+01  0.14803873597E+01  0.51100000000E-03 0.  1.
    9000002    1    1    2    0    0 -0.72621674743E-01 -0.23025599542E-01  0.37653265490E+00  0.10136197147E+01  0.93800000000E+00 0. -1.
         22    1    1    2    0    0  0.50295108223E+00  0.57879169202E+00  0.23205908314E+01  0.24439929256E+01  0.00000000000E+00 0.  1.
</event>
<event>
 5    1  0.1160133E+000  0.1584847E+01  0.7818608E-02  0.3369976E+00
         11   -1    0    0    0    0  0.00000000000E+00  0.00000000000E+00  0.39999999674E+01  0.40000000000E+01  0.51100000000E-03 0. -1.
    9000002   -1    0    0    0    0 -0.00000000000E+00 -0.00000000000E+00  0.00000000000E+00  0.93800000000E+00  0.93800000000E+00 0. -1.
         11    1    1    2    0    0 -0.71355764592E-01  0.29918744595E-01  0.69095409744E+00  0.69527304156E+00  0.51100000000E-03 0. -1.
    9000002    1    1    2    0    0  0.79027003641E+00  0.25700207350E+00  0.53478423964E+00  0.13625032034E+01  0.93800000000E+00 0. -1.
         22    1    1    2    0    0 -0.71891427182E+00 -0.28692081810E+00  0.27742616303E+01  0.28802237551E+01  0.00000000000E+00 0. -1.
</event>
<event>
 5    1  0.1160133E+000  0.1495897E+01  0.7818608E-02  0.3474730E+00
         11   -1    0    0    0    0  0.00000000000E+00  0.00000000000E+00  0.39999999674E+01  0.40000000000E+01  0.51100000000E-03 0. -1.
    9000002   -1    0    0    0    0 -0.00000000000E+00 -0.00000000000E+00  0.00000000000E+00  0.93800000000E+00  0.93800000000E+00 0. -1.
         11    1    1    2    0    0 -0.13511124873E+00  0.34988237956E+00  0.70209130609E+00  0.79599321119E+00  0.51100000000E-03 0. -1.
    9000002    1    1    2    0    0  0.57017132588E+00  0.42966371991E+00  0.64670828785E+00  0.13445377877E+01  0.93800000000E+00 0. -1.
         22    1    1    2    0    0 -0.43506007716E+00 -0.77954609948E+00  0.26512003734E+01  0.27974690011E+01  0.00000000000E+00 0. -1.
</event>
<event>
 5    1  0.1160133E+000  0.1599038E+01  0.7818608E-02  0.3354408E+00
         11   -1    0    0    0    0  0.00000000000E+00  0.00000000000E+00  0.39999999674E+01  0.40000000000E+01  0.51100000000E-03 0. -1.
    9000002   -1    0    0    0    0 -0.00000000000E+00 -0.00000000000E+00  0.00000000000E+00  0.93800000000E+00  0.93800000000E+00 0. -1.
         11    1    1    2    0    0 -0.17532216384E-02  0.28798307573E+00  0.11238122778E+01  0.11601256925E+01  0.51100000000E-03 0. -1.
    9000002    1    1    2    0    0  0.35481152842E-01 -0.93344227118E+00  0.67935137296E+00  0.14879299963E+01  0.93800000000E+00 0. -1.
         22    1    1    2    0    0 -0.33727931203E-01  0.64545919546E+00  0.21968363166E+01  0.22899443112E+01  0.00000000000E+00 0. -1.
</event>
<event>
 5    1  0.1160133E+000  0.1596483E+01  0.7818608E-02  0.3357190E+00
         11   -1    0    0    0    0  0.00000000000E+00  0.00000000000E+00  0.39999999674E+01  0.40000000000E+01  0.51100000000E-03 0.  1.
    9000002   -1    0    0    0    0 -0.00000000000E+00 -0.00000000000E+00  0.00000000000E+00  0.93800000000E+00  0.93800000000E+00 0.  1.
         11    1    1    2    0    0 -0.57351849962E-01 -0.42801057163E+00  0.12445364955E+01  0.13173282180E+01  0.51100000000E-03 0.  1.
    9000002    1    1    2    0    0  0.17344601494E+00  0.11294510684E+01  0.11777347556E+01  0.18901445422E+01  0.93800000000E+00 0.  1.
         22    1    1    2    0    0 -0.11609416498E+00 -0.70144049674E+00  0.15777287162E+01  0.17305272398E+01  0.00000000000E+00 0.  1.
</event>
<event>
 5    1  0.1160133E+000  0.1599489E+01  0.7818608E-02  0.3353918E+00
         11   -1    0    0    0    0  0.00000000000E+00  0.00000000000E+00  0.39999999674E+01  0.40000000000E+01  0.51100000000E-03 0.  1.
    9000002   -1    0    0    0    0 -0.00000000000E+00 -0.00000000000E+00  0.00000000000E+00  0.93800000000E+00  0.93800000000E+00 0. -1.
         11    1    1    2    0    0  0.48028752755E+00  0.24200181464E+00  0.11506360420E+01  0.12701198958E+01  0.51100000000E-03 0.  1.
    9000002    1    1    2    0    0 -0.10601054842E+01 -0.57444408080E+00  0.14012018965E+01  0.20729255641E+01  0.93800000000E+00 0. -1.
         22    1    1    2    0    0  0.57981795664E+00  0.33244226616E+00  0.14481620289E+01  0.15949545401E+01  0.00000000000E+00 0.  1.
</event>
<event>
 5    1  0.1160133E+000  0.1599655E+01  0.7818608E-02  0.3353738E+00
         11   -1    0    0    0    0  0.00000000000E+00  0.00000000000E+00  0.39999999674E+01  0.40000000000E+01  0.51100000000E-03 0. -1.
    9000002   -1    0    0    0    0 -0.00000000000E+00 -0.00000000000E+00  0.00000000000E+00  0.93800000000E+00  0.93800000000E+00 0.  1.
         11    1    1    2    0    0 -0.11483571909E+00 -0.22421084138E+00  0.81224598010E+00  0.85041256874E+00  0.51100000000E-03 0. -1.
    9000002    1    1    2    0    0  0.46118082605E+00  0.87111162447E+00  0.77535573044E+00  0.15660599367E+01  0.93800000000E+00 0.  1.
         22    1    1    2    0    0 -0.34634510697E+00 -0.64690078310E+00  0.24123982568E+01  0.25215274946E+01  0.00000000000E+00 0. -1.
</event>
<event>
 5    1  0.1160133E+000  0.1142779E+01  0.7818608E-02  0.4135288E+00
         11   -1    0    0    0    0  0.00000000000E+00  0.00000000000E+00  0.39999999674E+01  0.40000000000E+01  0.51100000000E-03 0.  1.
    9000002   -1    0    0    0    0 -0.00000000000E+00 -0.00000000000E+00  0.00000000000E+00  0.93800000000E+00  0.93800000000E+00 0.  1.
         11    1    1    2    0    0 -0.14066851828E+00  0.64571757623E+00  0.85805066566E+00  0.10830466408E+01  0.51100000000E-03 0.  1.
    9000002    1    1    2    0    0  0.53224245346E+00  0.36344013022E+00  0.14020531594E+01  0.18058150014E+01  0.93800000000E+00 0.  1.
         22    1    1    2    0    0 -0.39157393518E+00 -0.10091577065E+01  0.17398961423E+01  0.20491383577E+01  0.00000000000E+00 0.  1.
</event>
<event>
 5    1  0.1160133E+000  0.1085909E+01  0.7818608E-02  0.4296170E+00
         11   -1    0    0    0    0  0.00000000000E+00  0.00000000000E+00  0.39999999674E+01  0.40000000000E+01  0.51100000000E-03 0. -1.
    9000002   -1    0    0    0    0 -0.00000000000E+00 -0.00000000000E+00  0.00000000000E+00  0.93800000000E+00  0.93800000000E+00 0. -1.
         11    1    1    2    0    0 -0.94357634183E+00 -0.10129760146E+00  0.10597705258E+01  0.14225720880E+01  0.51100000000E-03 0. -1.
    9000002    1    1    2    0    0  0.30609510561E+00  0.24444839339E+00  0.84871550251E+00  0.13242398706E+01  0.93800000000E+00 0. -1.
         22    1    1    2    0    0  0.63748123622E+00 -0.14315079193E+00  0.20915139390E+01  0.21911880414E+01  0.00000000000E+00 0. -1.
</event>
<event>
 5    1  0.1160133E+000  0.1599673E+01  0.7818608E-02  0.3353718E+00
         11   -1    0    0    0    0  0.00000000000E+00  0.00000000000E+00  0.39999999674E+01  0.40000000000E+01  0.51100000000E-03 0.  1.
    9000002   -1    0    0    0    0 -0.00000000000E+00 -0.00000000000E+00  0.00000000000E+00  0.93800000000E+00  0.93800000000E+00 0. -1.
         11    1    1    2    0    0  0.31537952925E+00  0.88571134318E-01  0.11367773811E+01  0.11830351510E+01  0.51100000000E-03 0.  1.
    9000002    1    1    2    0    0 -0.91763169248E+00 -0.25948635115E+00  0.71365472463E+00  0.15160897584E+01  0.93800000000E+00 0. -1.
         22    1    1    2    0    0  0.60225216323E+00  0.17091521683E+00  0.21495678617E+01  0.22388750906E+01  0.00000000000E+00 0.  1.
</event>
<event>
 5    1  0.1160133E+000  0.1595432E+01  0.7818608E-02  0.3358337E+00
         11   -1    0    0    0    0  0.00000000000E+00  0.00000000000E+00  0.39999999674E+01  0.40000000000E+01  0.51100000000E-03 0.  1.
    9000002   -1    0    0    0    0 -0.00000000000E+00 -0.00000000000E+00  0.00000000000E+00  0.93800000000E+00  0.93800000000E+00 0. -1.
         11    1    1    2    0    0 -0.27303886793E+00 -0.34284825642E-01  0.12825964580E+01  0.13117848939E+01  0.51100000000E-03 0.  1.
    9000002    1    1    2    0    0  0.84367043409E+00  0.25789556393E+00  0.59761338493E+00  0.14196040579E+01  0.93800000000E+00 0. -1.
         22    1    1    2    0    0 -0.57063156616E+00 -0.22361073829E+00  0.21197901244E+01  0.22066110482E+01  0.00000000000E+00 0.  1.
</event>
<event>
 5    1  0.1160133E+000  0.1599677E+01  0.7818608E-02  0.3353714E+00
         11   -1    0    0    0    0  0.00000000000E+00  0.00000000000E+00  0.39999999674E+01  0.40000000000E+01  0.51100000000E-03 0.  1.
    9000002   -1    0    0    0    0 -0.00000000000E+00 -0.00000000000E+00  0.00000000000E+00  0.93800000000E+00  0.93800000000E+00 0. -1.
         11    1    1    2    0    0  0.18017534850E+00 -0.44116247564E+00  0.85376474674E+00  0.97775354258E+00  0.51100000000E-03 0.  1.
    9000002    1    1    2    0    0 -0.47895423446E+00  0.11707326484E+01  0.17302190491E+01  0.23395542419E+01  0.93800000000E+00 0. -1.
         22    1    1    2    0    0  0.29877888595E+00 -0.72957017274E+00  0.14160161715E+01  0.16206922155E+01  0.00000000000E+00 0.  1.
</event>
<event>
 5    1  0.1160133E+000  0.1599634E+01  0.7818608E-02  0.3353760E+00
         11   -1    0    0    0    0  0.00000000000E+00  0.00000000000E+00  0.39999999674E+01  0.40000000000E+01  0.51100000000E-03 0. -1.
    9000002   -1    0    0    0    0 -0.00000000000E+00 -0.00000000000E+00  0.00000000000E+00  0.93800000000E+00  0.93800000000E+00 0. -1.
         11    1    1    2    0    0  0.33514266620E+00  0.17417481160E+00  0.11759796288E+01  0.12351460724E+01  0.51100000000E-03 0. -1.
    9000002    1    1    2    0    0 -0.89386705868E+00 -0.48717377892E+00  0.84267989932E+00  0.16205832352E+01  0.93800000000E+00 0. -1.
         22    1    1    2    0    0  0.55872439248E+00  0.31299896732E+00  0.19813404392E+01  0.20822706924E+01  0.00000000000E+00 0. -1.
</event>
<event>
 5    1  0.1160133E+000  0.1579184E+01  0.7818608E-02  0.3376271E+00
         11   -1    0    0    0    0  0.00000000000E+00  0.00000000000E+00  0.39999999674E+01  0.40000000000E+01  0.51100000000E-03 0.  1.
    9000002   -1    0    0    0    0 -0.00000000000E+00 -0.00000000000E+00  0.00000000000E+00  0.93800000000E+00  0.93800000000E+00 0.  1.
         11    1    1    2    0    0 -0.39230062887E+00  0.21451733663E+00  0.14311315686E+01  0.14993516262E+01  0.51100000000E-03 0.  1.
    9000002    1    1    2    0    0  0.97898336214E+00 -0.64178701724E+00  0.13397211801E+01  0.20112175017E+01  0.93800000000E+00 0.  1.
         22    1    1    2    0    0 -0.58668273327E+00  0.42726968061E+00  0.12291472187E+01  0.14274308721E+01  0.00000000000E+00 0.  1.
</event>
<event>
 5    1  0.1160133E+000  0.1599677E+01  0.7818608E-02  0.3353714E+00
         11   -1    0    0    0    0  0.00000000000E+00  0.00000000000E+00  0.39999999674E+01  0.40000000000E+01  0.51100000000E-03 0. -1.
    9000002   -1    0    0    0    0 -0.00000000000E+00 -0.00000000000E+00  0.00000000000E+00  0.93800000000E+00  0.93800000000E+00 0. -1.
         11    1    1    2    0    0  0.82889955800E-01  0.26275968171E+00  0.93292078310E+00  0.97275631263E+00  0.51100000000E-03 0.  1.
    9000002    1    1    2    0    0 -0.28921905037E+00 -0.91973009921E+00  0.73338173103E+00  0.15320717600E+01  0.93800000000E+00 0. -1.
         22    1    1    2    0    0  0.20632909457E+00  0.65697041750E+00  0.23336974532E+01  0.24331719273E+01  0.00000000000E+00 0. -1.
</event>
<event>
 5    1  0.1160133E+000  0.1599563E+01  0.7818608E-02  0.3353838E+00
         11   -1    0    0    0    0  0.00000000000E+00  0.00000000000E+00  0.39999999674E+01  0.40000000000E+01  0.51100000000E-03 0.  1.
    9000002   -1    0    0    0    0 -0.00000000000E+00 -0.00000000000E+00  0.00000000000E+00  0.93800000000E+00  0.93800000000E+00 0. -1.
         11    1    1    2    0    0  0.10491508351E-01  0.10065516572E-01  0.63504646786E-01  0.65149732584E-01  0.51100000000E-03 0.  1.
    9000002    1    1    2    0    0 -0.73302123348E+00 -0.56971691516E+00  0.66837580684E+00  0.14793470557E+01  0.93800000000E+00 0. -1.
         22    1    1    2    0    0  0.72252972513E+00  0.55965139859E+00  0.32681195137E+01  0.33935032117E+01  0.00000000000E+00 0.  1.
</event>
<event>
 5    1  0.1160133E+000  0.1595619E+01  0.7818608E-02  0.3358132E+00
         11   -1    0    0    0    0  0.00000000000E+00  0.00000000000E+00  0.39999999674E+01  0.40000000000E+01  0.51100000000E-03 0. -1.
    9000002   -1    0    0    0    0 -0.00000000000E+00 -0.00000000000E+00  0.00000000000E+00  0.93800000000E+00  0.93800000000E+00 0. -1.
         11    1    1    2    0    0  0.47672127994E-01  0.45053806726E+00  0.72725998717E+00  0.85683401654E+00  0.51100000000E-03 0. -1.
    9000002    1    1    2    0    0 -0.22539192674E+00 -0.12246460273E+01  0.16244511291E+01  0.22514983641E+01  0.93800000000E+00 0. -1.
         22    1    1    2    0    0  0.17771979874E+00  0.77410796004E+00  0.16482888511E+01  0.18296676193E+01  0.00000000000E+00 0. -1.
</event>
<event>
 5    1  0.1160133E+000  0.1459075E+01  0.7818608E-02  0.3522122E+00
         11   -1    0    0    0    0  0.00000000000E+00  0.00000000000E+00  0.39999999674E+01  0.40000000000E+01  0.51100000000E-03 0. -1.
    9000002   -1    0    0    0    0 -0.00000000000E+00 -0.00000000000E+00  0.00000000000E+00  0.93800000000E+00  0.93800000000E+00 0. -1.
         11    1    1    2    0    0  0.46761651889E+00 -0.14173137518E+00  0.87752137505E+00  0.10043888770E+01  0.51100000000E-03 0. -1.
    9000002    1    1    2    0    0 -0.28798419857E+00  0.10465611019E+01  0.15617710977E+01  0.21206598031E+01  0.93800000000E+00 0. -1.
         22    1    1    2    0    0 -0.17963232032E+00 -0.90482972671E+00  0.15607074946E+01  0.18129513199E+01  0.00000000000E+00 0. -1.
</event>
<event>
 5    1  0.1160133E+000  0.1599675E+01  0.7818608E-02  0.3353716E+00
         11   -1    0    0    0    0  0.00000000000E+00  0.00000000000E+00  0.39999999674E+01  0.40000000000E+01  0.51100000000E-03 0. -1.
    9000002   -1    0    0    0    0 -0.00000000000E+00 -0.00000000000E+00  0.00000000000E+00  0.93800000000E+00  0.93800000000E+00 0.  1.
         11    1    1    2    0    0  0.14418753969E+00  0.28699650663E+00  0.11066890716E+01  0.11523532461E+01  0.51100000000E-03 0. -1.
    9000002    1    1    2    0    0 -0.42945908073E+00 -0.85482477330E+00  0.71927846085E+00  0.15206465728E+01  0.93800000000E+00 0.  1.
         22    1    1    2    0    0  0.28527154104E+00  0.56782826667E+00  0.21740324349E+01  0.22650001811E+01  0.00000000000E+00 0. -1.
</event>
<event>
 5    1  0.1160133E+000  0.1599674E+01  0.7818608E-02  0.3353718E+00
         11   -1    0    0    0    0  0.00000000000E+00  0.00000000000E+00  0.39999999674E+01  0.40000000000E+01  0.51100000000E-03 0.  1.
    9000002   -1    0    0    0    0 -0.00000000000E+00 -0.00000000000E+00  0.00000000000E+00  0.93800000000E+00  0.93800000000E+00 0.  1.
         11    1    1    2    0    0  0.76620204447E-01 -0.36597831329E+00  0.13851640512E+01  0.14347440508E+01  0.51100000000E-03 0.  1.
    9000002    1    1    2    0    0 -0.18352901809E+00  0.89290232523E+00  0.63928091447E+00  0.14558439307E+01  0.93800000000E+00 0.  1.
         22    1    1    2    0    0  0.10690881365E+00 -0.52692401194E+00  0.19755550017E+01  0.20474120185E+01  0.00000000000E+00 0.  1.
</event>
<event>
 5    1  0.1160133E+000  0.1599582E+01  0.7818608E-02  0.3353817E+00
         11   -1    0    0    0    0  0.00000000000E+00  0.00000000000E+00  0.39999999674E+01  0.40000000000E+01  0.51100000000E-03 0.  1.
    9000002   -1    0    0    0    0 -0.00000000000E+00 -0.00000000000E+00  0.00000000000E+00  0.93800000000E+00  0.93800000000E+00 0.  1.
         11    1    1    2    0    0 -0.59832576238E-01  0.49160697675E-01  0.28184604313E+00  0.29229123238E+00  0.51100000000E-03 0.  1.
    9000002    1    1    2    0    0  0.77157455453E+00 -0.54461819787E+00  0.69694822582E+00  0.15025036120E+01  0.93800000000E+00 0.  1.
         22    1    1    2    0    0 -0.71174197829E+00  0.49545750019E+00  0.30212056984E+01  0.31432051556E+01  0.00000000000E+00 0.  1.
</event>
<event>
 5    1  0.1160133E+000  0.1599623E+01  0.7818608E-02  0.3353773E+00
         11   -1    0    0    0    0  0.00000000000E+00  0.00000000000E+00  0.39999999674E+01  0.40000000000E+01  0.51100000000E-03 0.  1.
    9000002   -1    0    0    0    0 -0.00000000000E+00 -0.00000000000E+00  0.00000000000E+00  0.93800000000E+00  0.93800000000E+00 0.  1.
         11    1    1    2    0    0  0.41521985038E+00  0.17440239005E+00  0.13410609119E+01  0.14146619202E+01  0.51100000000E-03 0.  1.
    9000002    1    1    2    0    0 -0.95389032651E+00 -0.39136479881E+00  0.87144617205E+00  0.16438782168E+01  0.93800000000E+00 0.  1.
         22    1    1    2    0    0  0.53867047613E+00  0.21696240877E+00  0.17874928834E+01  0.18794598631E+01  0.00000000000E+00 0.  1.
</event>
<event>
 5    1  0.1160133E+000  0.1599293E+01  0.7818608E-02  0.3354131E+00
         11   -1    0    0    0    0  0.00000000000E+00  0.00000000000E+00  0.39999999674E+01  0.40000000000E+01  0.51100000000E-03 0. -1.
    9000002   -1    0    0    0    0 -0.00000000000E+00 -0.00000000000E+00  0.00000000000E+00  0.93800000000E+00  0.93800000000E+00 0.  1.
         11    1    1    2    0    0 -0.41570423707E+00  0.55124281729E-01  0.14261835699E+01  0.14865559307E+01  0.51100000000E-03 0. -1.
    9000002    1    1    2    0    0  0.92691138181E+00 -0.16822390991E+00  0.69314354643E+00  0.14992518033E+01  0.93800000000E+00 0.  1.
         22    1    1    2    0    0 -0.51120714473E+00  0.11309962818E+00  0.18806728511E+01  0.19521922660E+01  0.00000000000E+00 0. -1.
</event>
<event>
 5    1  0.1160133E+000  0.1599661E+01  0.7818608E-02  0.3353732E+00
         11   -1    0    0    0    0  0.00000000000E+00  0.00000000000E+00  0.39999999674E+01  0.40000000000E+01  0.51100000000E-03 0. -1.
    9000002   -1    0    0    0    0 -0.00000000000E+00 -0.00000000000E+00  0.00000000000E+00  0.93800000000E+00  0.93800000000E+00 0.  1.
         11    1    1    2    0    0  0.12451051267E-01  0.20723326492E-01  0.86941597547E-01  0.90241827572E-01  0.51100000000E-03 0. -1.
    9000002    1    1    2    0    0 -0.52907954474E+00 -0.77537799577E+00  0.68647093908E+00  0.14940624322E+01  0.93800000000E+00 0.  1.
         22    1    1    2    0    0  0.51662849347E+00  0.75465466928E+00  0.32265874307E+01  0.33536957403E+01  0.00000000000E+00 0. -1.
</event>
<event>
 5    1  0.1160133E+000  0.1597159E+01  0.7818608E-02  0.3356453E+00
         11   -1    0    0    0    0  0.00000000000E+00  0.00000000000E+00  0.39999999674E+01  0.40000000000E+01  0.51100000000E-03 0. -1.
    9000002   -1    0    0    0    0 -0.00000000000E+00 -0.00000000000E+00  0.00000000000E+00  0.93800000000E+00  0.93800000000E+00 0. -1.
         11    1    1    2    0    0 -0.52403997762E+00 -0.76688031941E-01  0.95106973738E+00  0.10885921453E+01  0.51100000000E-03 0. -1.
    9000002    1    1    2    0    0  0.12149487924E+01  0.14957216868E+00  0.14978945795E+01  0.21498847814E+01  0.93800000000E+00 0. -1.
         22    1    1    2    0    0 -0.69090881477E+00 -0.72884136738E-01  0.15510356504E+01  0.16995230733E+01  0.00000000000E+00 0. -1.
</event>
<event>
 5    1  0.1160133E+000  0.1599664E+01  0.7818608E-02  0.3353729E+00
         11   -1    0    0    0    0  0.00000000000E+00  0.00000000000E+00  0.39999999674E+01  0.40000000000E+01  0.51100000000E-03 0. -1.
    9000002   -1    0    0    0    0 -0.00000000000E+00 -0.00000000000E+00  0.00000000000E+00  0.93800000000E+00  0.93800000000E+00 0. -1.
         11    1    1    2    0    0 -0.96329909629E-01 -0.18318002688E-01  0.24909556819E+00  0.26770107195E+00  0.51100000000E-03 0. -1.
    9000002    1    1    2    0    0  0.11154474129E+01  0.18336855897E+00  0.11296135228E+01  0.18530293225E+01  0.93800000000E+00 0. -1.
         22    1    1    2    0    0 -0.10191175032E+01 -0.16505055628E+00  0.26212908764E+01  0.28172696055E+01  0.00000000000E+00 0. -1.
</event>
<event>
 5    1  0.1160133E+000  0.1599672E+01  0.7818608E-02  0.3353720E+00
         11   -1    0    0    0    0  0.00000000000E+00  0.00000000000E+00  0.39999999674E+01  0.40000000000E+01  0.51100000000E-03 0.  1.
    9000002   -1    0    0    0    0 -0.00000000000E+00 -0.00000000000E+00  0.00000000000E+00  0.93800000000E+00  0.93800000000E+00 0. -1.
         11    1    1    2    0    0  0.11028264406E+00 -0.86314913325E-02  0.31275037300E+00  0.33173757875E+00  0.51100000000E-03 0.  1.
    9000002    1    1    2    0    0 -0.10643600259E+01  0.70586382220E-01  0.95520352529E+00  0.17117542104E+01  0.93800000000E+00 0. -1.
         22    1    1    2    0    0  0.95407738186E+00 -0.61954890887E-01  0.27320460691E+01  0.28945082108E+01  0.00000000000E+00 0.  1.
</event>
<event>
 5    1  0.1160133E+000  0.1592825E+01  0.7818608E-02  0.3361187E+00
         11   -1    0    0    0    0  0.00000000000E+00  0.00000000000E+00  0.39999999674E+01  0.40000000000E+01  0.51100000000E-03 0. -1.
    9000002   -1    0    0    0    0 -0.00000000000E+00 -0.00000000000E+00  0.00000000000E+00  0.93800000000E+00  0.93800000000E+00 0. -1.
         11    1    1    2    0    0 -0.13073603779E+00 -0.20784568114E+00  0.36880797272E+00  0.44307033370E+00  0.51100000000E-03 0. -1.
    9000002    1    1    2    0    0  0.83188050501E+00  0.89007081609E+00  0.14910929418E+01  0.21418341190E+01  0.93800000000E+00 0. -1.
         22    1    1    2    0    0 -0.70114446722E+00 -0.68222513496E+00  0.21400990529E+01  0.23530955473E+01  0.00000000000E+00 0. -1.
</event>
<event>
 5    1  0.1160133E+000  0.1257281E+01  0.7818608E-02  0.3867078E+00
         11   -1    0    0    0    0  0.00000000000E+00  0.00000000000E+00  0.39999999674E+01  0.40000000000E+01  0.51100000000E-03 0.  1.
    9000002   -1    0    0    0    0 -0.00000000000E+00 -0.00000000000E+00  0.00000000000E+00  0.93800000000E+00  0.93800000000E+00 0. -1.
         11    1    1    2    0    0 -0.83957259953E+00 -0.61126822620E-02  0.91308813760E+00  0.12404232031E+01  0.51100000000E-03 0.  1.
    9000002    1    1    2    0    0  0.54529800709E+00 -0.56071461669E+00  0.12276492015E+01  0.17316805017E+01  0.93800000000E+00 0.  1.
         22    1    1    2    0    0  0.29427459243E+00  0.56682729896E+00  0.18592626282E+01  0.19658962952E+01  0.00000000000E+00 0. -1.
</event>
<event>
 5    1  0.1160133E+000  0.1586648E+01  0.7818608E-02  0.3367984E+00
         11   -1    0    0    0    0  0.00000000000E+00  0.00000000000E+00  0.39999999674E+01  0.40000000000E+01  0.51100000000E-03 0.  1.
    9000002   -1    0    0    0    0 -0.00000000000E+00 -0.00000000000E+00  0.00000000000E+00  0.93800000000E+00  0.93800000000E+00 0.  1.
         11    1    1    2    0    0  0.11537594962E+00  0.25922323206E-01  0.39836910791E+00  0.41554997756E+00  0.51100000000E-03 0.  1.
    9000002    1    1    2    0    0 -0.60220270829E+00 -0.85275813958E+00  0.92969829495E+00  0.16834569986E+01  0.93800000000E+00 0.  1.
         22    1    1    2    0    0  0.48682675867E+00  0.82683581638E+00  0.26719325645E+01  0.28389930238E+01  0.00000000000E+00 0.  1.
</event>
<event>
 5    1  0.1160133E+000  0.1597248E+01  0.7818608E-02  0.3356356E+00
         11   -1    0    0    0    0  0.00000000000E+00  0.00000000000E+00  0.39999999674E+01  0.40000000000E+01  0.51100000000E-03 0. -1.
    9000002   -1    0    0    0    0 -0.00000000000E+00 -0.00000000000E+00  0.00000000000E+00  0.93800000000E+00  0.93800000000E+00 0. -1.
         11    1    1    2    0    0 -0.34808453161E-01 -0.33853246301E+00  0.10629885953E+01  0.11161365829E+01  0.51100000000E-03 0. -1.
    9000002    1    1    2    0    0  0.21492428346E+00  0.10671331558E+01  0.10171501080E+01  0.17605124146E+01  0.93800000000E+00 0. -1.
         22    1    1    2    0    0 -0.18011583030E+00 -0.72860069282E+00  0.19198612641E+01  0.20613510024E+01  0.00000000000E+00 0. -1.
</event>
<event>
 5    1  0.1160133E+000  0.1597889E+01  0.7818608E-02  0.3355657E+00
         11   -1    0    0    0    0  0.00000000000E+00  0.00000000000E+00  0.39999999674E+01  0.40000000000E+01  0.51100000000E-03 0. -1.
    9000002   -1    0    0    0    0 -0.00000000000E+00 -0.00000000000E+00  0.00000000000E+00  0.93800000000E+00  0.93800000000E+00 0. -1.
         11    1    1    2    0    0 -0.20896398894E+00  0.76819179454E-01  0.61918327394E+00  0.65799340639E+00  0.51100000000E-03 0. -1.
    9000002    1    1    2    0    0  0.88259117229E+00 -0.48750323724E+00  0.82532079361E+00  0.16054983638E+01  0.93800000000E+00 0. -1.
         22    1    1    2    0    0 -0.67362718336E+00  0.41068405779E+00  0.25554958998E+01  0.26745082298E+01  0.00000000000E+00 0. -1.
</event>
<event>
 5    1  0.1160133E+000  0.1599653E+01  0.7818608E-02  0.3353740E+00
         11   -1    0    0    0    0  0.00000000000E+00  0.00000000000E+00  0.39999999674E+01  0.40000000000E+01  0.51100000000E-03 0.  1.
    9000002   -1    0    0    0    0 -0.00000000000E+00 -0.00000000000E+00  0.00000000000E+00  0.93800000000E+00  0.93800000000E+00 0. -1.
         11    1    1    2    0    0 -0.32368591986E+00 -0.29453440320E+00  0.13803206874E+01  0.14480361013E+01  0.51100000000E-03 0.  1.
    9000002    1    1    2    0    0  0.75506383657E+00  0.66880520752E+00  0.82267042327E+00  0.16043853740E+01  0.93800000000E+00 0. -1.
         22    1    1    2    0    0 -0.43137791671E+00 -0.37427080432E+00  0.17970088567E+01  0.18855785248E+01  0.00000000000E+00 0.  1.
</event>
<event>
 5    1  0.1160133E+000  0.1572476E+01  0.7818608E-02  0.3383790E+00
         11   -1    0    0    0    0  0.00000000000E+00  0.00000000000E+00  0.39999999674E+01  0.40000000000E+01  0.51100000000E-03 0. -1.
    9000002   -1    0    0    0    0 -0.00000000000E+00 -0.00000000000E+00  0.00000000000E+00  0.93800000000E+00  0.93800000000E+00 0. -1.
         11    1    1    2    0    0  0.32755528388E+00 -0.18694390613E+00  0.11067089353E+01  0.11692071744E+01  0.51100000000E-03 0. -1.
    9000002    1    1    2    0    0 -0.10077187751E+01 -0.16879572926E-02  0.87649559193E+00  0.16320503980E+01  0.93800000000E+00 0. -1.
         22    1    1    2    0    0  0.68016349123E+00  0.18863186342E+00  0.20167954401E+01  0.21367424276E+01  0.00000000000E+00 0. -1.
</event>
<event>
 5    1  0.1160133E+000  0.1599674E+01  0.7818608E-02  0.3353717E+00
         11   -1    0    0    0    0  0.00000000000E+00  0.00000000000E+00  0.39999999674E+01  0.40000000000E+01  0.51100000000E-03 0. -1.
    9000002   -1    0    0    0    0 -0.00000000000E+00 -0.00000000000E+00  0.00000000000E+00  0.93800000000E+00  0.93800000000E+00 0. -1.
         11    1    1    2    0    0 -0.27891183653E-01 -0.43504061564E-01  0.17477634323E+00  0.18225683189E+00  0.51100000000E-03 0. -1.
    9000002    1    1    2    0    0  0.52770685796E+00  0.81901053923E+00  0.75291964620E+00  0.15478968909E+01  0.93800000000E+00 0. -1.
         22    1    1    2    0    0 -0.49981567431E+00 -0.77550647767E+00  0.30723039779E+01  0.32078462772E+01  0.00000000000E+00 0. -1.
</event>
<event>
 5    1  0.1160133E+000  0.1533514E+01  0.7818608E-02  0.3428845E+00
         11   -1    0    0    0    0  0.00000000000E+00  0.00000000000E+00  0.39999999674E+01  0.40000000000E+01  0.51100000000E-03 0. -1.
    9000002   -1    0    0    0    0 -0.00000000000E+00 -0.00000000000E+00  0.00000000000E+00  0.93800000000E+00  0.93800000000E+00 0. -1.
         11    1    1    2    0    0 -0.87484142457E-01  0.93085163940E-01  0.55265962536E+00  0.56723120996E+00  0.51100000000E-03 0. -1.
    9000002    1    1    2    0    0 -0.83037902155E+00 -0.26496110476E+00  0.67937207100E+00  0.14495254801E+01  0.93800000000E+00 0. -1.
         22    1    1    2    0    0  0.91786316401E+00  0.17187594082E+00  0.27679682710E+01  0.29212433100E+01  0.00000000000E+00 0. -1.
</event>
<event>
 5    1  0.1160133E+000  0.1599666E+01  0.7818608E-02  0.3353726E+00
         11   -1    0    0    0    0  0.00000000000E+00  0.00000000000E+00  0.39999999674E+01  0.40000000000E+01  0.51100000000E-03 0.  1.
    9000002   -1    0    0    0    0 -0.00000000000E+00 -0.00000000000E+00  0.00000000000E+00  0.93800000000E+00  0.93800000000E+00 0.  1.
         11    1    1    2    0    0  0.38785208387E+00  0.72632419959E-02  0.12921091795E+01  0.13490842771E+01  0.51100000000E-03 0.  1.
    9000002    1    1    2    0    0 -0.98083510417E+00 -0.19404509068E-01  0.76613120232E+00  0.15585939355E+01  0.93800000000E+00 0.  1.
         22    1    1    2    0    0  0.59298302030E+00  0.12141267072E-01  0.19417595855E+01  0.20303217875E+01  0.00000000000E+00 0.  1.
</event>
<event>
 5    1  0.1160133E+000  0.1599673E+01  0.7818608E-02  0.3353718E+00
         11   -1    0    0    0    0  0.00000000000E+00  0.00000000000E+00  0.39999999674E+01  0.40000000000E+01  0.51100000000E-03 0.  1.
    9000002   -1    0    0    0    0 -0.00000000000E+00 -0.00000000000E+00  0.00000000000E+00  0.93800000000E+00  0.93800000000E+00 0.  1.
         11    1    1    2    0    0 -0.12449277531E+00  0.39408829262E+00  0.12469267656E+01  0.13136326174E+01  0.51100000000E-03 0.  1.
    9000002    1    1    2    0    0  0.31599500297E+00 -0.98758014489E+00  0.88454403971E+00  0.16545179185E+01  0.93800000000E+00 0.  1.
         22    1    1    2    0    0 -0.19150222765E+00  0.59349185228E+00  0.18685291621E+01  0.19698494641E+01  0.00000000000E+00 0.  1.
</event>
<event>
 5    1  0.1160133E+000  0.1598303E+01  0.7818608E-02  0.3355207E+00
         11   -1    0    0    0    0  0.00000000000E+00  0.00000000000E+00  0.39999999674E+01  0.40000000000E+01  0.51100000000E-03 0.  1.
    9000002   -1    0    0    0    0 -0.00000000000E+00 -0.00000000000E+00  0.00000000000E+00  0.93800000000E+00  0.93800000000E+00 0. -1.
         11    1    1    2    0    0 -0.76637406920E-02  0.86187823823E-01  0.30718501991E+00  0.31913942326E+00  0.51100000000E-03 0.  1.
    9000002    1    1    2    0    0  0.10137132508E+00 -0.10996212876E+01  0.10572675938E+01  0.17936281349E+01  0.93800000000E+00 0. -1.
         22    1    1    2    0    0 -0.93707584383E-01  0.10134334637E+01  0.26355473537E+01  0.28252324418E+01  0.00000000000E+00 0.  1.
</event>
<event>
 5    1  0.1160133E+000  0.1566721E+01  0.7818608E-02  0.3390295E+00
         11   -1    0    0    0    0  0.00000000000E+00  0.00000000000E+00  0.39999999674E+01  0.40000000000E+01  0.51100000000E-03 0.  1.
    9000002   -1    0    0    0    0 -0.00000000000E+00 -0.00000000000E+00  0.00000000000E+00  0.93800000000E+00  0.93800000000E+00 0.  1.
         11    1    1    2    0    0  0.14528260930E+00 -0.27423066094E+00  0.38226563842E+00  0.49237868699E+00  0.51100000000E-03 0.  1.
    9000002    1    1    2    0    0 -0.70732315986E+00  0.84863614167E+00  0.11492757370E+01  0.18496399847E+01  0.93800000000E+00 0.  1.
         22    1    1    2    0    0  0.56204055057E+00 -0.57440548073E+00  0.24684585919E+01  0.25959813283E+01  0.00000000000E+00 0.  1.
</event>
<event>
 5    1  0.1160133E+000  0.1599492E+01  0.7818608E-02  0.3353915E+00
         11   -1    0    0    0    0  0.00000000000E+00  0.00000000000E+00  0.39999999674E+01  0.40000000000E+01  0.51100000000E-03 0. -1.
    9000002   -1    0    0    0    0 -0.00000000000E+00 -0.00000000000E+00  0.00000000000E+00  0.93800000000E+00  0.93800000000E+00 0.  1.
         11    1    1    2    0    0  0.14850070381E+00  0.25874697009E+00  0.81409534928E+00  0.86703745733E+00  0.51100000000E-03 0. -1.
    9000002    1    1    2    0    0 -0.58418750388E+00 -0.91405870149E+00  0.10016156491E+01  0.17492444821E+01  0.93800000000E+00 0.  1.
         22    1    1    2    0    0  0.43568680006E+00  0.65531173140E+00  0.21842889690E+01  0.23217180606E+01  0.00000000000E+00 0. -1.
</event>
<event>
 5    1  0.1160133E+000  0.1599338E+01  0.7818608E-02  0.3354082E+00
         11   -1    0    0    0    0  0.00000000000E+00  0.00000000000E+00  0.39999999674E+01  0.40000000000E+01  0.51100000000E-03 0. -1.
    9000002   -1    0    0    0    0 -0.00000000000E+00 -0.00000000000E+00  0.00000000000E+00  0.93800000000E+00  0.93800000000E+00 0. -1.
         11    1    1    2    0    0  0.79280504875E-02 -0.76865170980E-02  0.37778441288E-01  0.39362523761E-01  0.51100000000E-03 0. -1.
    9000002    1    1    2    0    0 -0.34769754426E+00  0.89200010164E+00  0.72122999235E+00  0.15220297190E+01  0.93800000000E+00 0. -1.
         22    1    1    2    0    0  0.33976949377E+00 -0.88431358454E+00  0.32409915337E+01  0.33766077573E+01  0.00000000000E+00 0. -1.
</event>
<event>
 5    1  0.1160133E+000  0.1503048E+01  0.7818608E-02  0.3465817E+00
         11   -1    0    0    0    0  0.00000000000E+00  0.00000000000E+00  0.39999999674E+01  0.40000000000E+01  0.51100000000E-03 0.  1.
    9000002   -1    0    0    0    0 -0.00000000000E+00 -0.00000000000E+00  0.00000000000E+00  0.93800000000E+00  0.93800000000E+00 0.  1.
         11    1    1    2    0    0  0.36961267710E-01  0.60367649937E-01 -0.56690762424E-01  0.90688985742E-01  0.51100000000E-03 0.  1.
    9000002    1    1    2    0    0  0.21270187928E+00 -0.11524492865E+01  0.19450972508E+01  0.24569551812E+01  0.93800000000E+00 0.  1.
         22    1    1    2    0    0 -0.24966314699E+00  0.10920816366E+01  0.21115934790E+01  0.23903558330E+01  0.00000000000E+00 0.  1.
</event>
<event>
 5    1  0.1160133E+000  0.1599652E+01  0.7818608E-02  0.3353741E+00
         11   -1    0    0    0    0  0.00000000000E+00  0.00000000000E+00  0.39999999674E+01  0.40000000000E+01  0.51100000000E-03 0.  1.
    9000002   -1    0    0    0    0 -0.00000000000E+00 -0.00000000000E+00  0.00000000000E+00  0.93800000000E+00  0.93800000000E+00 0. -1.
         11    1    1    2    0    0  0.34895575181E+00  0.17302422446E+00  0.14228083077E+01  0.14751580391E+01  0.51100000000E-03 0.  1.
    9000002    1    1    2    0    0 -0.82655704987E+00 -0.39440034636E+00  0.64654518170E+00  0.14617157254E+01  0.93800000000E+00 0. -1.
         22    1    1    2    0    0  0.47760129806E+00  0.22137612189E+00  0.19306464780E+01  0.20011262355E+01  0.00000000000E+00 0. -1.
</event>
<event>
 5    1  0.1160133E+000  0.1599300E+01  0.7818608E-02  0.3354123E+00
         11   -1    0    0    0    0  0.00000000000E+00  0.00000000000E+00  0.39999999674E+01  0.40000000000E+01  0.51100000000E-03 0.  1.
    9000002   -1    0    0    0    0 -0.00000000000E+00 -0.00000000000E+00  0.00000000000E+00  0.93800000000E+00  0.93800000000E+00 0.  1.
         11    1    1    2    0    0  0.85990915447E-01 -0.22326941082E+00  0.73943839500E+00  0.77718277675E+00  0.51100000000E-03 0.  1.
    9000002    1    1    2    0    0 -0.36817904012E+00  0.89487335523E+00  0.74076958098E+00  0.15378353942E+01  0.93800000000E+00 0.  1.
         22    1    1    2    0    0  0.28218812467E+00 -0.67160394441E+00  0.25197919914E+01  0.26229818291E+01  0.00000000000E+00 0.  1.
</event>
<event>
 5    1  0.1160133E+000  0.1508764E+01  0.7818608E-02  0.3458758E+00
         11   -1    0    0    0    0  0.00000000000E+00  0.00000000000E+00  0.39999999674E+01  0.40000000000E+01  0.51100000000E-03 0. -1.
    9000002   -1    0    0    0    0 -0.00000000000E+00 -0.00000000000E+00  0.00000000000E+00  0.93800000000E+00  0.93800000000E+00 0.  1.
         11    1    1    2    0    0 -0.99284171276E-02  0.10665158813E+00  0.98198557708E-01  0.14531466745E+00  0.51100000000E-03 0. -1.
    9000002    1    1    2    0    0  0.36293736957E+00  0.79555661442E+00  0.72863770966E+00  0.14749205989E+01  0.93800000000E+00 0.  1.
         22    1    1    2    0    0 -0.35300895244E+00 -0.90220820255E+00  0.31731637000E+01  0.33177647337E+01  0.00000000000E+00 0. -1.
</event>
<event>
 5    1  0.1160133E+000  0.1599659E+01  0.7818608E-02  0.3353734E+00
         11   -1    0    0    0    0  0.00000000000E+00  0.00000000000E+00  0.39999999674E+01  0.40000000000E+01  0.51100000000E-03 0. -1.
    9000002   -1    0    0    0    0 -0.00000000000E+00 -0.00000000000E+00  0.00000000000E+00  0.93800000000E+00  0.93800000000E+00 0. -1.
         11    1    1    2    0    0 -0.22609226422E+00  0.52476456515E+00  0.11410881215E+01  0.12761574836E+01  0.51100000000E-03 0. -1.
    9000002    1    1    2    0    0  0.49836470672E+00 -0.11298505273E+01  0.15403191976E+01  0.21857165474E+01  0.93800000000E+00 0. -1.
         22    1    1    2    0    0 -0.27227244250E+00  0.60508596212E+00  0.13185926482E+01  0.14761259690E+01  0.00000000000E+00 0. -1.
</event>
<event>
 5    1  0.1160133E+000  0.1599677E+01  0.7818608E-02  0.3353715E+00
         11   -1    0    0    0    0  0.00000000000E+00  0.00000000000E+00  0.39999999674E+01  0.40000000000E+01  0.51100000000E-03 0. -1.
    9000002   -1    0    0    0    0 -0.00000000000E+00 -0.00000000000E+00  0.00000000000E+00  0.93800000000E+00  0.93800000000E+00 0.  1.
         11    1    1    2    0    0 -0.15589923008E+00  0.32554734879E+00  0.11151210221E+01  0.11720839566E+01  0.51100000000E-03 0. -1.
    9000002    1    1    2    0    0  0.43874126658E+00 -0.92128006112E+00  0.84783141552E+00  0.16247808957E+01  0.93800000000E+00 0.  1.
         22    1    1    2    0    0 -0.28284203651E+00  0.59573271233E+00  0.20370475297E+01  0.21411351477E+01  0.00000000000E+00 0. -1.
</event>
<event>
 5    1  0.1160133E+000  0.1591438E+01  0.7818608E-02  0.3362709E+00
         11   -1    0    0    0    0  0.00000000000E+00  0.00000000000E+00  0.39999999674E+01  0.40000000000E+01  0.51100000000E-03 0.  1.
    9000002   -1    0    0    0    0 -0.00000000000E+00 -0.00000000000E+00  0.00000000000E+00  0.93800000000E+00  0.93800000000E+00 0. -1.
         11    1    1    2    0    0  0.25711239811E+00 -0.27147010125E+00  0.13634763692E+01  0.14138142988E+01  0.51100000000E-03 0.  1.
    9000002    1    1    2    0    0 -0.41962307593E+00  0.82256051952E+00  0.67300655871E+00  0.14783339143E+01  0.93800000000E+00 0. -1.
         22    1    1    2    0    0  0.16251067782E+00 -0.55109041827E+00  0.19635170395E+01  0.20458517869E+01  0.00000000000E+00 0.  1.
</event>
<event>
 5    1  0.1160133E+000  0.1598927E+01  0.7818608E-02  0.3354529E+00
         11   -1    0    0    0    0  0.00000000000E+00  0.00000000000E+00  0.39999999674E+01  0.40000000000E+01  0.51100000000E-03 0.  1.
    9000002   -1    0    0    0    0 -0.00000000000E+00 -0.00000000000E+00  0.00000000000E+00  0.93800000000E+00  0.93800000000E+00 0. -1.
         11    1    1    2    0    0 -0.41431421495E+00 -0.15261086865E-01  0.11280093873E+01  0.12017880880E+01  0.51100000000E-03 0.  1.
    9000002    1    1    2    0    0  0.11303763307E+01 -0.79503476229E-03  0.11316425226E+01  0.18542411062E+01  0.93800000000E+00 0. -1.
         22    1    1    2    0    0 -0.71606211577E+00  0.16056121627E-01  0.17403480575E+01  0.18819708058E+01  0.00000000000E+00 0.  1.
</event>
<event>
 5    1  0.1166467E+000  0.1467395E+01  0.7818608E-02  0.3511188E+00
         11   -1    0    0    0    0  0.00000000000E+00  0.00000000000E+00  0.39999999674E+01  0.40000000000E+01  0.51100000000E-03 0.  1.
    9000002   -1    0    0    0    0 -0.00000000000E+00 -0.00000000000E+00  0.00000000000E+00  0.93800000000E+00  0.93800000000E+00 0. -1.
         11    1    1    2    0    0  0.30484437859E+00 -0.25132860023E-01  0.81025038836E+00  0.86606449458E+00  0.51100000000E-03 0.  1.
    9000002    1    1    2    0    0  0.42023631198E+00 -0.41829777998E+00  0.43984817127E+00  0.11936842147E+01  0.93800000000E+00 0. -1.
         22    1    1    2    0    0 -0.72508069058E+00  0.44343064000E+00  0.27499014077E+01  0.28782512907E+01  0.00000000000E+00 0.  1.
</event>
<event>
 5    1  0.1160133E+000  0.1598158E+01  0.7818608E-02  0.3355365E+00
         11   -1    0    0    0    0  0.00000000000E+00  0.00000000000E+00  0.39999999674E+01  0.40000000000E+01  0.51100000000E-03 0. -1.
    9000002   -1    0    0    0    0 -0.00000000000E+00 -0.00000000000E+00  0.00000000000E+00  0.93800000000E+00  0.93800000000E+00 0. -1.
         11    1    1    2    0    0 -0.33776302934E+00 -0.15155990955E-01  0.10196773856E+01  0.10742698915E+01  0.51100000000E-03 0. -1.
    9000002    1    1    2    0    0  0.99995013573E+00 -0.78477829987E-01  0.81372062717E+00  0.15962594723E+01  0.93800000000E+00 0. -1.
         22    1    1    2    0    0 -0.66218710639E+00  0.93633820941E-01  0.21666019546E+01  0.22674706362E+01  0.00000000000E+00 0. -1.
</event>
<event>
 5    1  0.1160133E+000  0.1599398E+01  0.7818608E-02  0.3354017E+00
         11   -1    0    0    0    0  0.00000000000E+00  0.00000000000E+00  0.39999999674E+01  0.40000000000E+01  0.51100000000E-03 0. -1.
    9000002   -1    0    0    0    0 -0.00000000000E+00 -0.00000000000E+00  0.00000000000E+00  0.93800000000E+00  0.93800000000E+00 0. -1.
         11    1    1    2    0    0 -0.22403587152E+00  0.12340268029E+00  0.65290918176E+00  0.70122104502E+00  0.51100000000E-03 0. -1.
    9000002    1    1    2    0    0  0.10330206117E+01 -0.49618017178E+00  0.11793128230E+01  0.18931320824E+01  0.93800000000E+00 0. -1.
         22    1    1    2    0    0 -0.80898474018E+00  0.37277749149E+00  0.21677779626E+01  0.23436468725E+01  0.00000000000E+00 0. -1.
</event>
<event>
 5    1  0.1160133E+000  0.1284173E+01  0.7818608E-02  0.3812670E+00
         11   -1    0    0    0    0  0.00000000000E+00  0.00000000000E+00  0.39999999674E+01  0.40000000000E+01  0.51100000000E-03 0.  1.
    9000002   -1    0    0    0    0 -0.00000000000E+00 -0.00000000000E+00  0.00000000000E+00  0.93800000000E+00  0.93800000000E+00 0. -1.
         11    1    1    2    0    0 -0.14671892321E+00  0.83542508442E+00  0.12227330860E+01  0.14881323782E+01  0.51100000000E-03 0.  1.
    9000002    1    1    2    0    0  0.74642550179E+00 -0.40461299743E+00  0.13988640715E+01  0.18861408744E+01  0.93800000000E+00 0. -1.
         22    1    1    2    0    0 -0.59970657857E+00 -0.43081208699E+00  0.13784028098E+01  0.15637267475E+01  0.00000000000E+00 0.  1.
</event>
<event>
 5    1  0.1160133E+000  0.1588549E+01  0.7818608E-02  0.3365887E+00
         11   -1    0    0    0    0  0.00000000000E+00  0.00000000000E+00  0.39999999674E+01  0.40000000000E+01  0.51100000000E-03 0.  1.
    9000002   -1    0    0    0    0 -0.00000000000E+00 -0.00000000000E+00  0.00000000000E+00  0.93800000000E+00  0.93800000000E+00 0.  1.
         11    1    1    2    0    0  0.61420301141E-01  0.17786748180E+00  0.10676978934E+01  0.10841532858E+01  0.51100000000E-03 0.  1.
    9000002    1    1    2    0    0 -0.19323352634E+00 -0.92426042673E+00  0.71557252997E+00  0.15111203055E+01  0.93800000000E+00 0.  1.
         22    1    1    2    0    0  0.13181322520E+00  0.74639294493E+00  0.22167295440E+01  0.23427264086E+01  0.00000000000E+00 0.  1.
</event>
<event>
 5    1  0.1160133E+000  0.1599675E+01  0.7818608E-02  0.3353716E+00
         11   -1    0    0    0    0  0.00000000000E+00  0.00000000000E+00  0.39999999674E+01  0.40000000000E+01  0.51100000000E-03 0.  1.
    9000002   -1    0    0    0    0 -0.00000000000E+00 -0.00000000000E+00  0.00000000000E+00  0.93800000000E+00  0.93800000000E+00 0.  1.
         11    1    1    2    0    0 -0.27212503176E+00  0.32808196052E-02  0.94021942955E+00  0.97881338033E+00  0.51100000000E-03 0.  1.
    9000002    1    1    2    0    0  0.95551929757E+00 -0.10090009484E-01  0.71728872404E+00  0.15190345783E+01  0.93800000000E+00 0.  1.
         22    1    1    2    0    0 -0.68339426581E+00  0.68091898785E-02  0.23424918138E+01  0.24401520414E+01  0.00000000000E+00 0.  1.
</event>
<event>
 5    1  0.1160133E+000  0.1599634E+01  0.7818608E-02  0.3353761E+00
         11   -1    0    0    0    0  0.00000000000E+00  0.00000000000E+00  0.39999999674E+01  0.40000000000E+01  0.51100000000E-03 0.  1.
    9000002   -1    0    0    0    0 -0.00000000000E+00 -0.00000000000E+00  0.00000000000E+00  0.93800000000E+00  0.93800000000E+00 0.  1.
         11    1    1    2    0    0 -0.26330564642E+00  0.30727447367E+00  0.13288881932E+01  0.13891333834E+01  0.51100000000E-03 0.  1.
    9000002    1    1    2    0    0  0.62742363589E+00 -0.76054496458E+00  0.77596916319E+00  0.15665443512E+01  0.93800000000E+00 0.  1.
         22    1    1    2    0    0 -0.36411798948E+00  0.45327049092E+00  0.18951426109E+01  0.19823222654E+01  0.00000000000E+00 0.  1.
</event>
<event>
 5    1  0.1160133E+000  0.1599676E+01  0.7818608E-02  0.3353715E+00
         11   -1    0    0    0    0  0.00000000000E+00  0.00000000000E+00  0.39999999674E+01  0.40000000000E+01  0.51100000000E-03 0.  1.
    9000002   -1    0    0    0    0 -0.00000000000E+00 -0.00000000000E+00  0.00000000000E+00  0.93800000000E+00  0.93800000000E+00 0.  1.
         11    1    1    2    0    0 -0.35653788702E+00 -0.41485614261E+00  0.84874846232E+00  0.10097519979E+01  0.51100000000E-03 0.  1.
    9000002    1    1    2    0    0  0.84015852502E+00  0.97842093058E+00  0.19945324491E+01  0.25536596396E+01  0.93800000000E+00 0.  1.
         22    1    1    2    0    0 -0.48362063800E+00 -0.56356478797E+00  0.11567190560E+01  0.13745883624E+01  0.00000000000E+00 0.  1.
</event>
<event>
 5    1  0.1160133E+000  0.1599676E+01  0.7818608E-02  0.3353715E+00
         11   -1    0    0    0    0  0.00000000000E+00  0.00000000000E+00  0.39999999674E+01  0.40000000000E+01  0.51100000000E-03 0.  1.
    9000002   -1    0    0    0    0 -0.00000000000E+00 -0.00000000000E+00  0.00000000000E+00  0.93800000000E+00  0.93800000000E+00 0. -1.
         11    1    1    2    0    0  0.33441951735E+00  0.57008866324E-01  0.78072830939E+00  0.85124812988E+00  0.51100000000E-03 0.  1.
    9000002    1    1    2    0    0 -0.11605640491E+01 -0.20119731919E+00  0.12887598778E+01  0.19819523950E+01  0.93800000000E+00 0. -1.
         22    1    1    2    0    0  0.82614453174E+00  0.14418845286E+00  0.19305117801E+01  0.21047994751E+01  0.00000000000E+00 0.  1.
</event>
<event>
 5    1  0.1160133E+000  0.1599676E+01  0.7818608E-02  0.3353716E+00
         11   -1    0    0    0    0  0.00000000000E+00  0.00000000000E+00  0.39999999674E+01  0.40000000000E+01  0.51100000000E-03 0. -1.
    9000002   -1    0    0    0    0 -0.00000000000E+00 -0.00000000000E+00  0.00000000000E+00  0.93800000000E+00  0.93800000000E+00 0. -1.
         11    1    1    2    0    0 -0.94574551010E-01  0.40804284930E+00  0.99343114880E+00  0.10781229156E+01  0.51100000000E-03 0. -1.
    9000002    1    1    2    0    0  0.26468706628E+00 -0.11351486805E+01  0.12444133732E+01  0.19460293968E+01  0.93800000000E+00 0. -1.
         22    1    1    2    0    0 -0.17011251527E+00  0.72710583123E+00  0.17621554454E+01  0.19138476876E+01  0.00000000000E+00 0. -1.
</event>
<event>
 5    1  0.1160133E+000  0.1599604E+01  0.7818608E-02  0.3353794E+00
         11   -1    0    0    0    0  0.00000000000E+00  0.00000000000E+00  0.39999999674E+01  0.40000000000E+01  0.51100000000E-03 0. -1.
    9000002   -1    0    0    0    0 -0.00000000000E+00 -0.00000000000E+00  0.00000000000E+00  0.93800000000E+00  0.93800000000E+00 0.  1.
         11    1    1    2    0    0 -0.12539821182E+00  0.55133515440E+00  0.12213464783E+01  0.13458761626E+01  0.51100000000E-03 0. -1.
    9000002    1    1    2    0    0  0.25416046444E+00 -0.11838211901E+01  0.14229711589E+01  0.20906269564E+01  0.93800000000E+00 0.  1.
         22    1    1    2    0    0 -0.12876225261E+00  0.63248603573E+00  0.13556823303E+01  0.15014968810E+01  0.00000000000E+00 0.  1.
</event>
<event>
 5    1  0.1160133E+000  0.1599576E+01  0.7818608E-02  0.3353824E+00
         11   -1    0    0    0    0  0.00000000000E+00  0.00000000000E+00  0.39999999674E+01  0.40000000000E+01  0.51100000000E-03 0. -1.
    9000002   -1    0    0    0    0 -0.00000000000E+00 -0.00000000000E+00  0.00000000000E+00  0.93800000000E+00  0.93800000000E+00 0.  1.
         11    1    1    2    0    0 -0.37957365739E+00 -0.83153679099E-01  0.13183880704E+01  0.13744591885E+01  0.51100000000E-03 0. -1.
    9000002    1    1    2    0    0  0.94076439307E+00  0.17742605838E+00  0.72077608533E+00  0.15218015030E+01  0.93800000000E+00 0.  1.
         22    1    1    2    0    0 -0.56119073568E+00 -0.94272379277E-01  0.19608358117E+01  0.20417393084E+01  0.00000000000E+00 0. -1.
</event>
<event>
 5    1  0.1160133E+000  0.1597940E+01  0.7818608E-02  0.3355602E+00
         11   -1    0    0    0    0  0.00000000000E+00  0.00000000000E+00  0.39999999674E+01  0.40000000000E+01  0.51100000000E-03 0.  1.
    9000002   -1    0    0    0    0 -0.00000000000E+00 -0.00000000000E+00  0.00000000000E+00  0.93800000000E+00  0.93800000000E+00 0. -1.
         11    1    1    2    0    0  0.52117807736E+00 -0.87634606620E-01  0.13584446951E+01  0.14576277520E+01  0.51100000000E-03 0.  1.
    9000002    1    1    2    0    0 -0.10534078849E+01  0.25258728936E+00  0.10014606754E+01  0.17482093682E+01  0.93800000000E+00 0. -1.
         22    1    1    2    0    0  0.53222980751E+00 -0.16495268274E+00  0.16400945969E+01  0.17321628798E+01  0.00000000000E+00 0.  1.
</event>
<event>
 5    1  0.1160133E+000  0.1599167E+01  0.7818608E-02  0.3354268E+00
         11   -1    0    0    0    0  0.00000000000E+00  0.00000000000E+00  0.39999999674E+01  0.40000000000E+01  0.51100000000E-03 0. -1.
    9000002   -1    0    0    0    0 -0.00000000000E+00 -0.00000000000E+00  0.00000000000E+00  0.93800000000E+00  0.93800000000E+00 0. -1.
         11    1    1    2    0    0  0.12737742011E+00  0.27402936947E+00  0.60033807980E+00  0.67210354386E+00  0.51100000000E-03 0. -1.
    9000002    1    1    2    0    0 -0.60476521232E+00 -0.10879636752E+01  0.15988356888E+01  0.22328290307E+01  0.93800000000E+00 0. -1.
         22    1    1    2    0    0  0.47738779221E+00  0.81393430574E+00  0.18008261987E+01  0.20330674254E+01  0.00000000000E+00 0. -1.
</event>
<event>
 5    1  0.1160133E+000  0.1599677E+01  0.7818608E-02  0.3353715E+00
         11   -1    0    0    0    0  0.00000000000E+00  0.00000000000E+00  0.39999999674E+01  0.40000000000E+01  0.51100000000E-03 0. -1.
    9000002   -1    0    0    0    0 -0.00000000000E+00 -0.00000000000E+00  0.00000000000E+00  0.93800000000E+00  0.93800000000E+00 0. -1.
         11    1    1    2    0    0  0.12409702375E+00 -0.25872565521E+00  0.10030281006E+01  0.10432663455E+01  0.51100000000E-03 0. -1.
    9000002    1    1    2    0    0 -0.41057479922E+00  0.85229275649E+00  0.69971176959E+00  0.15047973847E+01  0.93800000000E+00 0. -1.
         22    1    1    2    0    0  0.28647777547E+00 -0.59356710129E+00  0.22972600972E+01  0.23899362698E+01  0.00000000000E+00 0. -1.
</event>
<event>
 5    1  0.1160133E+000  0.1592610E+01  0.7818608E-02  0.3361424E+00
         11   -1    0    0    0    0  0.00000000000E+00  0.00000000000E+00  0.39999999674E+01  0.40000000000E+01  0.51100000000E-03 0. -1.
    9000002   -1    0    0    0    0 -0.00000000000E+00 -0.00000000000E+00  0.00000000000E+00  0.93800000000E+00  0.93800000000E+00 0. -1.
         11    1    1    2    0    0 -0.18644768054E+00  0.20288044786E+00  0.12591510416E+01  0.12889471752E+01  0.51100000000E-03 0. -1.
    9000002    1    1    2    0    0  0.42635624749E+00 -0.79731653565E+00  0.63795720685E+00  0.14506297617E+01  0.93800000000E+00 0. -1.
         22    1    1    2    0    0 -0.23990856695E+00  0.59443608779E+00  0.21028917189E+01  0.21984230631E+01  0.00000000000E+00 0. -1.
</event>
<event>
 5    1  0.1160133E+000  0.1599677E+01  0.7818608E-02  0.3353715E+00
         11   -1    0    0    0    0  0.00000000000E+00  0.00000000000E+00  0.39999999674E+01  0.40000000000E+01  0.51100000000E-03 0.  1.
    9000002   -1    0    0    0    0 -0.00000000000E+00 -0.00000000000E+00  0.00000000000E+00  0.93800000000E+00  0.93800000000E+00 0. -1.
         11    1    1    2    0    0 -0.29285246270E+00 -0.10041433969E+00  0.10838638422E+01  0.11272119118E+01  0.51100000000E-03 0.  1.
    9000002    1    1    2    0    0  0.89120500279E+00  0.30712973058E+00  0.69356182540E+00  0.14998156667E+01  0.93800000000E+00 0. -1.
         22    1    1    2    0    0 -0.59835254009E+00 -0.20671539088E+00  0.22225742997E+01  0.23109724215E+01  0.00000000000E+00 0.  1.
</event>
<event>
 5    1  0.1160133E+000  0.1597194E+01  0.7818608E-02  0.3356415E+00
         11   -1    0    0    0    0  0.00000000000E+00  0.00000000000E+00  0.39999999674E+01  0.40000000000E+01  0.51100000000E-03 0.  1.
    9000002   -1    0    0    0    0 -0.00000000000E+00 -0.00000000000E+00  0.00000000000E+00  0.93800000000E+00  0.93800000000E+00 0.  1.
         11    1    1    2    0    0 -0.20490263416E+00 -0.10721501789E+00  0.67333345968E+00  0.71193985602E+00  0.51100000000E-03 0.  1.
    9000002    1    1    2    0    0  0.94990339358E+00  0.27787121367E+00  0.78813974256E+00  0.15749721021E+01  0.93800000000E+00 0.  1.
         22    1    1    2    0    0 -0.74500075942E+00 -0.17065619577E+00  0.25385267651E+01  0.26510880419E+01  0.00000000000E+00 0.  1.
</event>
<event>
 5    1  0.1160133E+000  0.1591256E+01  0.7818608E-02  0.3362909E+00
         11   -1    0    0    0    0  0.00000000000E+00  0.00000000000E+00  0.39999999674E+01  0.40000000000E+01  0.51100000000E-03 0. -1.
    9000002   -1    0    0    0    0 -0.00000000000E+00 -0.00000000000E+00  0.00000000000E+00  0.93800000000E+00  0.93800000000E+00 0. -1.
         11    1    1    2    0    0 -0.31567913674E+00 -0.99472861634E-01  0.12867523888E+01  0.13286384530E+01  0.51100000000E-03 0. -1.
    9000002    1    1    2    0    0  0.71091761752E+00  0.51776177601E+00  0.59955643584E+00  0.14187293735E+01  0.93800000000E+00 0. -1.
         22    1    1    2    0    0 -0.39523848078E+00 -0.41828891438E+00  0.21136911427E+01  0.21906321735E+01  0.00000000000E+00 0. -1.
</event>
<event>
 5    1  0.1160133E+000  0.1599677E+01  0.7818608E-02  0.3353714E+00
         11   -1    0    0    0    0  0.00000000000E+00  0.00000000000E+00  0.39999999674E+01  0.40000000000E+01  0.51100000000E-03 0. -1.
    9000002   -1    0    0    0    0 -0.00000000000E+00 -0.00000000000E+00  0.00000000000E+00  0.93800000000E+00  0.93800000000E+00 0. -1.
         11    1    1    2    0    0  0.56289764542E+00 -0.36885073999E+00  0.89587313330E+00  0.11204880899E+01  0.51100000000E-03 0. -1.
    9000002    1    1    2    0    0 -0.10842012266E+01  0.70863733858E+00  0.22750977208E+01  0.27809302071E+01  0.93800000000E+00 0. -1.
         22    1    1    2    0    0  0.52130358119E+00 -0.33978659859E+00  0.82902911322E+00  0.10365817030E+01  0.00000000000E+00 0. -1.
</event>
<event>
 5    1  0.1160133E+000  0.1579634E+01  0.7818608E-02  0.3375769E+00
         11   -1    0    0    0    0  0.00000000000E+00  0.00000000000E+00  0.39999999674E+01  0.40000000000E+01  0.51100000000E-03 0. -1.
    9000002   -1    0    0    0    0 -0.00000000000E+00 -0.00000000000E+00  0.00000000000E+00  0.93800000000E+00  0.93800000000E+00 0.  1.
         11    1    1    2    0    0  0.33479298614E-01  0.11095936849E-01  0.14163413720E+00  0.14596051929E+00  0.51100000000E-03 0. -1.
    9000002    1    1    2    0    0  0.81011527526E+00 -0.49848706705E+00  0.74456427162E+00  0.15293776740E+01  0.93800000000E+00 0.  1.
         22    1    1    2    0    0 -0.84359457387E+00  0.48739113020E+00  0.31138015585E+01  0.32626618067E+01  0.00000000000E+00 0. -1.
</event>
<event>
 5    1  0.1366609E+000  0.1516674E+01  0.7818608E-02  0.3449084E+00
         11   -1    0    0    0    0  0.00000000000E+00  0.00000000000E+00  0.39999999674E+01  0.40000000000E+01  0.51100000000E-03 0. -1.
    9000002   -1    0    0    0    0 -0.00000000000E+00 -0.00000000000E+00  0.00000000000E+00  0.93800000000E+00  0.93800000000E+00 0.  1.
         11    1    1    2    0    0  0.93295651313E-01 -0.87093770550E-02  0.13927231315E+01  0.13958717398E+01  0.51100000000E-03 0. -1.
    9000002    1    1    2    0    0  0.64068519243E+00  0.49932140613E-01  0.38344077037E+00  0.11999339810E+01  0.93800000000E+00 0.  1.
         22    1    1    2    0    0 -0.73398084374E+00 -0.41222763558E-01  0.22238360655E+01  0.23421942791E+01  0.00000000000E+00 0. -1.
</event>
<event>
 5    1  0.1160133E+000  0.1599676E+01  0.7818608E-02  0.3353715E+00
         11   -1    0    0    0    0  0.00000000000E+00  0.00000000000E+00  0.39999999674E+01  0.40000000000E+01  0.51100000000E-03 0. -1.
    9000002   -1    0    0    0    0 -0.00000000000E+00 -0.00000000000E+00  0.00000000000E+00  0.93800000000E+00  0.93800000000E+00 0. -1.
         11    1    1    2    0    0  0.33147468887E+00 -0.19857696124E+00  0.12254583863E+01  0.12849345496E+01  0.51100000000E-03 0. -1.
    9000002    1    1    2    0    0 -0.85971150294E+00  0.51576493195E+00  0.80978578747E+00  0.15939618424E+01  0.93800000000E+00 0. -1.
         22    1    1    2    0    0  0.52823681407E+00 -0.31718797071E+00  0.19647557935E+01  0.20591036081E+01  0.00000000000E+00 0. -1.
</event>
<event>
 5    1  0.1160133E+000  0.1599650E+01  0.7818608E-02  0.3353744E+00
         11   -1    0    0    0    0  0.00000000000E+00  0.00000000000E+00  0.39999999674E+01  0.40000000000E+01  0.51100000000E-03 0.  1.
    9000002   -1    0    0    0    0 -0.00000000000E+00 -0.00000000000E+00  0.00000000000E+00  0.93800000000E+00  0.93800000000E+00 0.  1.
         11    1    1    2    0    0  0.32416394782E+00  0.22895486992E+00  0.14129397201E+01  0.14676176311E+01  0.51100000000E-03 0.  1.
    9000002    1    1    2    0    0 -0.77405092494E+00 -0.53582516209E+00  0.69139195092E+00  0.14980421451E+01  0.93800000000E+00 0.  1.
         22    1    1    2    0    0  0.44988697712E+00  0.30687029218E+00  0.18956682964E+01  0.19723402237E+01  0.00000000000E+00 0. -1.
</event>
<event>
 5    1  0.1160133E+000  0.1599675E+01  0.7818608E-02  0.3353716E+00
         11   -1    0    0    0    0  0.00000000000E+00  0.00000000000E+00  0.39999999674E+01  0.40000000000E+01  0.51100000000E-03 0. -1.
    9000002   -1    0    0    0    0 -0.00000000000E+00 -0.00000000000E+00  0.00000000000E+00  0.93800000000E+00  0.93800000000E+00 0.  1.
         11    1    1    2    0    0  0.23786301613E-01 -0.18435656974E+00  0.63847670980E+00  0.66498564122E+00  0.51100000000E-03 0. -1.
    9000002    1    1    2    0    0 -0.12196105893E+00  0.95203032710E+00  0.72521779428E+00  0.15254576667E+01  0.93800000000E+00 0.  1.
         22    1    1    2    0    0  0.98174757312E-01 -0.76767375736E+00  0.26363054633E+01  0.27475566921E+01  0.00000000000E+00 0. -1.
</event>
<event>
 5    1  0.1160133E+000  0.1593549E+01  0.7818608E-02  0.3360395E+00
         11   -1    0    0    0    0  0.00000000000E+00  0.00000000000E+00  0.39999999674E+01  0.40000000000E+01  0.51100000000E-03 0.  1.
    9000002   -1    0    0    0    0 -0.00000000000E+00 -0.00000000000E+00  0.00000000000E+00  0.93800000000E+00  0.93800000000E+00 0. -1.
         11    1    1    2    0    0 -0.16280795153E+00  0.22185240727E+00  0.10563551826E+01  0.10916095696E+01  0.51100000000E-03 0.  1.
    9000002    1    1    2    0    0  0.34588577444E+00 -0.90744676318E+00  0.75789812898E+00  0.15483378736E+01  0.93800000000E+00 0. -1.
         22    1    1    2    0    0 -0.18307782291E+00  0.68559435592E+00  0.21857466558E+01  0.22980525567E+01  0.00000000000E+00 0.  1.
</event>
<event>
 5    1  0.1160133E+000  0.1125001E+01  0.7818608E-02  0.4183285E+00
         11   -1    0    0    0    0  0.00000000000E+00  0.00000000000E+00  0.39999999674E+01  0.40000000000E+01  0.51100000000E-03 0. -1.
    9000002   -1    0    0    0    0 -0.00000000000E+00 -0.00000000000E+00  0.00000000000E+00  0.93800000000E+00  0.93800000000E+00 0. -1.
         11    1    1    2    0    0  0.39082362030E+00 -0.39636328863E+00  0.16684134252E+00  0.58110519999E+00  0.51100000000E-03 0. -1.
    9000002    1    1    2    0    0  0.25313983812E+00 -0.10954779125E+00  0.96353318915E+00  0.13727056140E+01  0.93800000000E+00 0. -1.
         22    1    1    2    0    0 -0.64396345842E+00  0.50591107988E+00  0.28696254357E+01  0.29841891860E+01  0.00000000000E+00 0. -1.
</event>
<event>
 5    1  0.1160133E+000  0.1599677E+01  0.7818608E-02  0.3353714E+00
         11   -1    0    0    0    0  0.00000000000E+00  0.00000000000E+00  0.39999999674E+01  0.40000000000E+01  0.51100000000E-03 0. -1.
    9000002   -1    0    0    0    0 -0.00000000000E+00 -0.00000000000E+00  0.00000000000E+00  0.93800000000E+00  0.93800000000E+00 0. -1.
         11    1    1    2    0    0  0.20860754822E+00 -0.36894216328E+00  0.12476938965E+01  0.13177161111E+01  0.51100000000E-03 0. -1.
    9000002    1    1    2    0    0 -0.51523472571E+00  0.91347313645E+00  0.91195766658E+00  0.16767262088E+01  0.93800000000E+00 0. -1.
         22    1    1    2    0    0  0.30662717749E+00 -0.54453097316E+00  0.18403484043E+01  0.19435576801E+01  0.00000000000E+00 0.  1.
</event>
<event>
 5    1  0.1160133E+000  0.1584705E+01  0.7818608E-02  0.3370133E+00
         11   -1    0    0    0    0  0.00000000000E+00  0.00000000000E+00  0.39999999674E+01  0.40000000000E+01  0.51100000000E-03 0. -1.
    9000002   -1    0    0    0    0 -0.00000000000E+00 -0.00000000000E+00  0.00000000000E+00  0.93800000000E+00  0.93800000000E+00 0.  1.
         11    1    1    2    0    0  0.40560881226E+00  0.71651121368E-01  0.97135627760E+00  0.10550761446E+01  0.51100000000E-03 0. -1.
    9000002    1    1    2    0    0 -0.99047103794E+00  0.74027129164E-01  0.81962837387E+00  0.15931564782E+01  0.93800000000E+00 0.  1.
         22    1    1    2    0    0  0.58486222568E+00 -0.14567825053E+00  0.22090153159E+01  0.22897673772E+01  0.00000000000E+00 0. -1.
</event>
<event>
 5    1  0.1160133E+000  0.1570027E+01  0.7818608E-02  0.3386552E+00
         11   -1    0    0    0    0  0.00000000000E+00  0.00000000000E+00  0.39999999674E+01  0.40000000000E+01  0.51100000000E-03 0.  1.
    9000002   -1    0    0    0    0 -0.00000000000E+00 -0.00000000000E+00  0.00000000000E+00  0.93800000000E+00  0.93800000000E+00 0.  1.
         11    1    1    2    0    0  0.27151442172E-01 -0.26948056147E-01  0.10093905265E+00  0.10794606066E+00  0.51100000000E-03 0.  1.
    9000002    1    1    2    0    0  0.10570450079E+01 -0.39916443157E+00  0.12217524770E+01  0.19102878074E+01  0.93800000000E+00 0.  1.
         22    1    1    2    0    0 -0.10841964500E+01  0.42611248771E+00  0.26773084377E+01  0.29197661319E+01  0.00000000000E+00 0.  1.
</event>
<event>
 5    1  0.1160133E+000  0.1599675E+01  0.7818608E-02  0.3353716E+00
         11   -1    0    0    0    0  0.00000000000E+00  0.00000000000E+00  0.39999999674E+01  0.40000000000E+01  0.51100000000E-03 0. -1.
    9000002   -1    0    0    0    0 -0.00000000000E+00 -0.00000000000E+00  0.00000000000E+00  0.93800000000E+00  0.93800000000E+00 0. -1.
         11    1    1    2    0    0  0.18472753733E+00 -0.27703555132E+00  0.11795244325E+01  0.12256227428E+01  0.51100000000E-03 0. -1.
    9000002    1    1    2    0    0 -0.52109971863E+00  0.77558857362E+00  0.67877847969E+00  0.14878396341E+01  0.93800000000E+00 0. -1.
         22    1    1    2    0    0  0.33637218130E+00 -0.49855302230E+00  0.21416970552E+01  0.22245376231E+01  0.00000000000E+00 0. -1.
</event>
<event>
 5    1  0.1160133E+000  0.1599672E+01  0.7818608E-02  0.3353720E+00
         11   -1    0    0    0    0  0.00000000000E+00  0.00000000000E+00  0.39999999674E+01  0.40000000000E+01  0.51100000000E-03 0.  1.
    9000002   -1    0    0    0    0 -0.00000000000E+00 -0.00000000000E+00  0.00000000000E+00  0.93800000000E+00  0.93800000000E+00 0.  1.
         11    1    1    2    0    0 -0.21499169212E-01 -0.26306388617E-01  0.13013102009E+00  0.13449380606E+00  0.51100000000E-03 0.  1.
    9000002    1    1    2    0    0  0.57616786206E+00  0.69858885195E+00  0.62916707535E+00  0.14476501643E+01  0.93800000000E+00 0.  1.
         22    1    1    2    0    0 -0.55466869285E+00 -0.67228246334E+00  0.32407018719E+01  0.33558560297E+01  0.00000000000E+00 0.  1.
</event>
<event>
 5    1  0.1160133E+000  0.1475558E+01  0.7818608E-02  0.3500591E+00
         11   -1    0    0    0    0  0.00000000000E+00  0.00000000000E+00  0.39999999674E+01  0.40000000000E+01  0.51100000000E-03 0.  1.
    9000002   -1    0    0    0    0 -0.00000000000E+00 -0.00000000000E+00  0.00000000000E+00  0.93800000000E+00  0.93800000000E+00 0.  1.
         11    1    1    2    0    0 -0.76110312006E-01  0.32449364229E+00  0.68945334317E+00  0.76579049159E+00  0.51100000000E-03 0.  1.
    9000002    1    1    2    0    0  0.71808880225E+00  0.40929268315E+00  0.81351128404E+00  0.14915819246E+01  0.93800000000E+00 0.  1.
         22    1    1    2    0    0 -0.64197849025E+00 -0.73378632544E+00  0.24970353402E+01  0.26806275839E+01  0.00000000000E+00 0.  1.
</event>
<event>
 5    1  0.1160133E+000  0.1599343E+01  0.7818608E-02  0.3354077E+00
         11   -1    0    0    0    0  0.00000000000E+00  0.00000000000E+00  0.39999999674E+01  0.40000000000E+01  0.51100000000E-03 0. -1.
    9000002   -1    0    0    0    0 -0.00000000000E+00 -0.00000000000E+00  0.00000000000E+00  0.93800000000E+00  0.93800000000E+00 0.  1.
         11    1    1    2    0    0 -0.61975626172E-01  0.11463386260E+00  0.42692939014E+00  0.44637525243E+00  0.51100000000E-03 0. -1.
    9000002    1    1    2    0    0  0.37975383753E+00 -0.84275877891E+00  0.66172690016E+00  0.14738323605E+01  0.93800000000E+00 0.  1.
         22    1    1    2    0    0 -0.31777821136E+00  0.72812491631E+00  0.29113436771E+01  0.30177923870E+01  0.00000000000E+00 0. -1.
</event>
<event>
 5    1  0.1160133E+000  0.1599397E+01  0.7818608E-02  0.3354018E+00
         11   -1    0    0    0    0  0.00000000000E+00  0.00000000000E+00  0.39999999674E+01  0.40000000000E+01  0.51100000000E-03 0. -1.
    9000002   -1    0    0    0    0 -0.00000000000E+00 -0.00000000000E+00  0.00000000000E+00  0.93800000000E+00  0.93800000000E+00 0.  1.
         11    1    1    2    0    0 -0.36605230852E+00 -0.35889853746E-02  0.12993504428E+01  0.13499329642E+01  0.51100000000E-03 0. -1.
    9000002    1    1    2    0    0  0.92444156152E+00 -0.38861413507E-01  0.66318705068E+00  0.14750469397E+01  0.93800000000E+00 0.  1.
         22    1    1    2    0    0 -0.55838925301E+00  0.42450398882E-01  0.20374624739E+01  0.21130200961E+01  0.00000000000E+00 0. -1.
</event>
<event>
 5    1  0.1160133E+000  0.1552300E+01  0.7818608E-02  0.3406821E+00
         11   -1    0    0    0    0  0.00000000000E+00  0.00000000000E+00  0.39999999674E+01  0.40000000000E+01  0.51100000000E-03 0.  1.
    9000002   -1    0    0    0    0 -0.00000000000E+00 -0.00000000000E+00  0.00000000000E+00  0.93800000000E+00  0.93800000000E+00 0.  1.
         11    1    1    2    0    0 -0.51228841999E-01 -0.38830804064E-01  0.36544013279E-02  0.64388208291E-01  0.51100000000E-03 0.  1.
    9000002    1    1    2    0    0  0.52969770395E+00  0.87458429682E+00  0.95759939542E+00  0.16859175401E+01  0.93800000000E+00 0.  1.
         22    1    1    2    0    0 -0.47846886195E+00 -0.83575349276E+00  0.30387461706E+01  0.31876942516E+01  0.00000000000E+00 0.  1.
</event>
<event>
 5    1  0.1160133E+000  0.1570819E+01  0.7818608E-02  0.3385658E+00
         11   -1    0    0    0    0  0.00000000000E+00  0.00000000000E+00  0.39999999674E+01  0.40000000000E+01  0.51100000000E-03 0.  1.
    9000002   -1    0    0    0    0 -0.00000000000E+00 -0.00000000000E+00  0.00000000000E+00  0.93800000000E+00  0.93800000000E+00 0. -1.
         11    1    1    2    0    0 -0.97953094971E-01  0.30906716082E-01  0.84616045017E-01  0.13307956308E+00  0.51100000000E-03 0.  1.
    9000002    1    1    2    0    0  0.98838475572E+00  0.13385530724E+00  0.85696044369E+00  0.16152544291E+01  0.93800000000E+00 0. -1.
         22    1    1    2    0    0 -0.89043166075E+00 -0.16476202332E+00  0.30584234787E+01  0.31896660078E+01  0.00000000000E+00 0.  1.
</event>
<event>
 5    1  0.1160133E+000  0.1599674E+01  0.7818608E-02  0.3353717E+00
         11   -1    0    0    0    0  0.00000000000E+00  0.00000000000E+00  0.39999999674E+01  0.40000000000E+01  0.51100000000E-03 0.  1.
    9000002   -1    0    0    0    0 -0.00000000000E+00 -0.00000000000E+00  0.00000000000E+00  0.93800000000E+00  0.93800000000E+00 0. -1.
         11    1    1    2    0    0 -0.96540862236E-01  0.14211956359E+00  0.54868705570E+00  0.57495726332E+00  0.51100000000E-03 0. -1.
    9000002    1    1    2    0    0  0.56575391066E+00 -0.82063789682E+00  0.79779927092E+00  0.15842511549E+01  0.93800000000E+00 0. -1.
         22    1    1    2    0    0 -0.46921304842E+00  0.67851833323E+00  0.26535136407E+01  0.27787915818E+01  0.00000000000E+00 0.  1.
</event>
<event>
 5    1  0.1160133E+000  0.1563907E+01  0.7818608E-02  0.3393494E+00
         11   -1    0    0    0    0  0.00000000000E+00  0.00000000000E+00  0.39999999674E+01  0.40000000000E+01  0.51100000000E-03 0.  1.
    9000002   -1    0    0    0    0 -0.00000000000E+00 -0.00000000000E+00  0.00000000000E+00  0.93800000000E+00  0.93800000000E+00 0. -1.
         11    1    1    2    0    0  0.91647030510E-01  0.19289242179E+00  0.47545581095E+00  0.52121507448E+00  0.51100000000E-03 0.  1.
    9000002    1    1    2    0    0 -0.87371127981E+00 -0.24412667231E+00  0.69046111129E+00  0.14763298340E+01  0.93800000000E+00 0. -1.
         22    1    1    2    0    0  0.78206424930E+00  0.51234250527E-01  0.28340830451E+01  0.29404550915E+01  0.00000000000E+00 0.  1.
</event>
<event>
 5    1  0.1160133E+000  0.1599677E+01  0.7818608E-02  0.3353714E+00
         11   -1    0    0    0    0  0.00000000000E+00  0.00000000000E+00  0.39999999674E+01  0.40000000000E+01  0.51100000000E-03 0.  1.
    9000002   -1    0    0    0    0 -0.00000000000E+00 -0.00000000000E+00  0.00000000000E+00  0.93800000000E+00  0.93800000000E+00 0. -1.
         11    1    1    2    0    0 -0.73235734017E-01 -0.20437149364E+00  0.60793483395E+00  0.64553559437E+00  0.51100000000E-03 0. -1.
    9000002    1    1    2    0    0  0.36332558721E+00  0.10151104602E+01  0.98404662601E+00  0.17351214629E+01  0.93800000000E+00 0. -1.
         22    1    1    2    0    0 -0.29008985319E+00 -0.81073896658E+00  0.24080185074E+01  0.25573429428E+01  0.00000000000E+00 0.  1.
</event>
<event>
 5    1  0.1160133E+000  0.1597286E+01  0.7818608E-02  0.3356314E+00
         11   -1    0    0    0    0  0.00000000000E+00  0.00000000000E+00  0.39999999674E+01  0.40000000000E+01  0.51100000000E-03 0.  1.
    9000002   -1    0    0    0    0 -0.00000000000E+00 -0.00000000000E+00  0.00000000000E+00  0.93800000000E+00  0.93800000000E+00 0.  1.
         11    1    1    2    0    0  0.93383762114E-01  0.98954073796E-01  0.35909504163E+00  0.38400774184E+00  0.51100000000E-03 0.  1.
    9000002    1    1    2    0    0 -0.53568833122E+00 -0.77552358049E+00  0.69743607098E+00  0.15015524917E+01  0.93800000000E+00 0.  1.
         22    1    1    2    0    0  0.44230456911E+00  0.67656950669E+00  0.29434688548E+01  0.30524397665E+01  0.00000000000E+00 0.  1.
</event>
<event>
 5    1  0.1160133E+000  0.1599672E+01  0.7818608E-02  0.3353719E+00
         11   -1    0    0    0    0  0.00000000000E+00  0.00000000000E+00  0.39999999674E+01  0.40000000000E+01  0.51100000000E-03 0. -1.
    9000002   -1    0    0    0    0 -0.00000000000E+00 -0.00000000000E+00  0.00000000000E+00  0.93800000000E+00  0.93800000000E+00 0. -1.
         11    1    1    2    0    0 -0.99565583213E-01 -0.16549520270E-01  0.31524819753E+00  0.33101190182E+00  0.51100000000E-03 0.  1.
    9000002    1    1    2    0    0  0.99787694104E+00  0.18169918892E+00  0.83458288210E+00  0.16140463351E+01  0.93800000000E+00 0. -1.
         22    1    1    2    0    0 -0.89831135783E+00 -0.16514966865E+00  0.28501688877E+01  0.29929417631E+01  0.00000000000E+00 0. -1.
</event>
<event>
 5    1  0.1160133E+000  0.1598954E+01  0.7818608E-02  0.3354499E+00
         11   -1    0    0    0    0  0.00000000000E+00  0.00000000000E+00  0.39999999674E+01  0.40000000000E+01  0.51100000000E-03 0. -1.
    9000002   -1    0    0    0    0 -0.00000000000E+00 -0.00000000000E+00  0.00000000000E+00  0.93800000000E+00  0.93800000000E+00 0.  1.
         11    1    1    2    0    0 -0.24280058327E+00  0.72039434115E-01  0.84921998836E+00  0.88618093697E+00  0.51100000000E-03 0. -1.
    9000002    1    1    2    0    0  0.10021969836E+01 -0.24890888166E+00  0.87642398705E+00  0.16475185676E+01  0.93800000000E+00 0.  1.
         22    1    1    2    0    0 -0.75939640037E+00  0.17686944754E+00  0.22743559919E+01  0.24043004955E+01  0.00000000000E+00 0. -1.
</event>
<event>
 5    1  0.1160133E+000  0.1599279E+01  0.7818608E-02  0.3354146E+00
         11   -1    0    0    0    0  0.00000000000E+00  0.00000000000E+00  0.39999999674E+01  0.40000000000E+01  0.51100000000E-03 0. -1.
    9000002   -1    0    0    0    0 -0.00000000000E+00 -0.00000000000E+00  0.00000000000E+00  0.93800000000E+00  0.93800000000E+00 0. -1.
         11    1    1    2    0    0  0.30652099838E-01  0.18936327713E-01  0.13040667233E+00  0.13529337397E+00  0.51100000000E-03 0. -1.
    9000002    1    1    2    0    0 -0.90034774904E+00 -0.27793215656E+00  0.69355847718E+00  0.14995798459E+01  0.93800000000E+00 0. -1.
         22    1    1    2    0    0  0.86969564921E+00  0.25899582885E+00  0.31760348179E+01  0.33031267802E+01  0.00000000000E+00 0. -1.
</event>
<event>
 5    1  0.1160133E+000  0.1550093E+01  0.7818608E-02  0.3409378E+00
         11   -1    0    0    0    0  0.00000000000E+00  0.00000000000E+00  0.39999999674E+01  0.40000000000E+01  0.51100000000E-03 0. -1.
    9000002   -1    0    0    0    0 -0.00000000000E+00 -0.00000000000E+00  0.00000000000E+00  0.93800000000E+00  0.93800000000E+00 0. -1.
         11    1    1    2    0    0 -0.17887438914E+00  0.21616408028E+00  0.71718727438E+00  0.77011739647E+00  0.51100000000E-03 0. -1.
    9000002    1    1    2    0    0 -0.18877437986E+00 -0.87167640254E+00  0.68679537130E+00  0.14652601814E+01  0.93800000000E+00 0. -1.
         22    1    1    2    0    0  0.36764876900E+00  0.65551232226E+00  0.25960173217E+01  0.27026224221E+01  0.00000000000E+00 0. -1.
</event>
<event>
 5    1  0.1160133E+000  0.1599662E+01  0.7818608E-02  0.3353730E+00
         11   -1    0    0    0    0  0.00000000000E+00  0.00000000000E+00  0.39999999674E+01  0.40000000000E+01  0.51100000000E-03 0.  1.
    9000002   -1    0    0    0    0 -0.00000000000E+00 -0.00000000000E+00  0.00000000000E+00  0.93800000000E+00  0.93800000000E+00 0. -1.
         11    1    1    2    0    0 -0.56895062258E-01 -0.47607226921E-01  0.25858114129E+00  0.26901294377E+00  0.51100000000E-03 0.  1.
    9000002    1    1    2    0    0  0.72403106182E+00  0.63359850427E+00  0.72958806307E+00  0.15289901193E+01  0.93800000000E+00 0. -1.
         22    1    1    2    0    0 -0.66713599957E+00 -0.58599127735E+00  0.30118307630E+01  0.31399969369E+01  0.00000000000E+00 0.  1.
</event>
<event>
 5    1  0.1160133E+000  0.1599672E+01  0.7818608E-02  0.3353719E+00
         11   -1    0    0    0    0  0.00000000000E+00  0.00000000000E+00  0.39999999674E+01  0.40000000000E+01  0.51100000000E-03 0. -1.
    9000002   -1    0    0    0    0 -0.00000000000E+00 -0.00000000000E+00  0.00000000000E+00  0.93800000000E+00  0.93800000000E+00 0.  1.
         11    1    1    2    0    0  0.10764264784E+00 -0.19298763405E+00  0.65528603813E+00  0.69154263746E+00  0.51100000000E-03 0. -1.
    9000002    1    1    2    0    0 -0.49978674045E+00  0.91536145294E+00  0.89834000954E+00  0.16656926932E+01  0.93800000000E+00 0.  1.
         22    1    1    2    0    0  0.39214409261E+00 -0.72237381888E+00  0.24463739197E+01  0.25807646693E+01  0.00000000000E+00 0. -1.
</event>
<event>
 5    1  0.1160133E+000  0.1599668E+01  0.7818608E-02  0.3353724E+00
         11   -1    0    0    0    0  0.00000000000E+00  0.00000000000E+00  0.39999999674E+01  0.40000000000E+01  0.51100000000E-03 0. -1.
    9000002   -1    0    0    0    0 -0.00000000000E+00 -0.00000000000E+00  0.00000000000E+00  0.93800000000E+00  0.93800000000E+00 0. -1.
         11    1    1    2    0    0 -0.11125611095E+00  0.40975646296E+00  0.14206991348E+01  0.14827894570E+01  0.51100000000E-03 0. -1.
    9000002    1    1    2    0    0  0.26239224881E+00 -0.93834445493E+00  0.75301854356E+00  0.15479731701E+01  0.93800000000E+00 0. -1.
         22    1    1    2    0    0 -0.15113613786E+00  0.52858799196E+00  0.18262822890E+01  0.19072373729E+01  0.00000000000E+00 0. -1.
</event>
<event>
 5    1  0.1160133E+000  0.1599669E+01  0.7818608E-02  0.3353722E+00
         11   -1    0    0    0    0  0.00000000000E+00  0.00000000000E+00  0.39999999674E+01  0.40000000000E+01  0.51100000000E-03 0.  1.
    9000002   -1    0    0    0    0 -0.00000000000E+00 -0.00000000000E+00  0.00000000000E+00  0.93800000000E+00  0.93800000000E+00 0.  1.
         11    1    1    2    0    0  0.27046889833E+00  0.22545802424E-01  0.86758773045E+00  0.90904921172E+00  0.51100000000E-03 0.  1.
    9000002    1    1    2    0    0 -0.10031930669E+01 -0.81271649056E-01  0.81801131920E+00  0.16006211072E+01  0.93800000000E+00 0.  1.
         22    1    1    2    0    0  0.73272416856E+00  0.58725846632E-01  0.23144009177E+01  0.24283296811E+01  0.00000000000E+00 0. -1.
</event>
<event>
 5    1  0.1160133E+000  0.1599664E+01  0.7818608E-02  0.3353728E+00
         11   -1    0    0    0    0  0.00000000000E+00  0.00000000000E+00  0.39999999674E+01  0.40000000000E+01  0.51100000000E-03 0.  1.
    9000002   -1    0    0    0    0 -0.00000000000E+00 -0.00000000000E+00  0.00000000000E+00  0.93800000000E+00  0.93800000000E+00 0.  1.
         11    1    1    2    0    0  0.62098486246E+00 -0.37744492023E+00  0.10755520155E+01  0.12980366969E+01  0.51100000000E-03 0.  1.
    9000002    1    1    2    0    0 -0.11023618493E+01  0.67655509120E+00  0.20761066646E+01  0.26197311543E+01  0.93800000000E+00 0.  1.
         22    1    1    2    0    0  0.48137698681E+00 -0.29911017096E+00  0.84834128730E+00  0.10202321488E+01  0.00000000000E+00 0. -1.
</event>
<event>
 5    1  0.1160133E+000  0.1597521E+01  0.7818608E-02  0.3356058E+00
         11   -1    0    0    0    0  0.00000000000E+00  0.00000000000E+00  0.39999999674E+01  0.40000000000E+01  0.51100000000E-03 0. -1.
    9000002   -1    0    0    0    0 -0.00000000000E+00 -0.00000000000E+00  0.00000000000E+00  0.93800000000E+00  0.93800000000E+00 0. -1.
         11    1    1    2    0    0 -0.11003475692E+00  0.18227841786E+00  0.87224274805E+00  0.89785340786E+00  0.51100000000E-03 0. -1.
    9000002    1    1    2    0    0  0.34007309444E+00 -0.86718521084E+00  0.67719349912E+00  0.14852928784E+01  0.93800000000E+00 0. -1.
         22    1    1    2    0    0 -0.23003833752E+00  0.68490679298E+00  0.24505637202E+01  0.25548537137E+01  0.00000000000E+00 0. -1.
</event>
<event>
 5    1  0.1160133E+000  0.1596027E+01  0.7818608E-02  0.3357687E+00
         11   -1    0    0    0    0  0.00000000000E+00  0.00000000000E+00  0.39999999674E+01  0.40000000000E+01  0.51100000000E-03 0. -1.
    9000002   -1    0    0    0    0 -0.00000000000E+00 -0.00000000000E+00  0.00000000000E+00  0.93800000000E+00  0.93800000000E+00 0. -1.
         11    1    1    2    0    0  0.18507260892E+00 -0.13832297966E+00  0.11207848420E+01  0.11443531100E+01  0.51100000000E-03 0. -1.
    9000002    1    1    2    0    0 -0.68106017988E+00  0.58861009747E+00  0.62593293024E+00  0.14428932215E+01  0.93800000000E+00 0. -1.
         22    1    1    2    0    0  0.49598757096E+00 -0.45028711781E+00  0.22532821951E+01  0.23507536685E+01  0.00000000000E+00 0. -1.
</event>
<event>
 5    1  0.1160133E+000  0.1572015E+01  0.7818608E-02  0.3384309E+00
         11   -1    0    0    0    0  0.00000000000E+00  0.00000000000E+00  0.39999999674E+01  0.40000000000E+01  0.51100000000E-03 0.  1.
    9000002   -1    0    0    0    0 -0.00000000000E+00 -0.00000000000E+00  0.00000000000E+00  0.93800000000E+00  0.93800000000E+00 0. -1.
         11    1    1    2    0    0  0.41194352509E-01  0.16212610780E-01  0.80201650932E-01  0.91609985046E-01  0.51100000000E-03 0.  1.
    9000002    1    1    2    0    0  0.86496702618E+00 -0.46884046892E+00  0.82514748903E+00  0.15901860647E+01  0.93800000000E+00 0. -1.
         22    1    1    2    0    0 -0.90616137869E+00  0.45262785814E+00  0.30946508274E+01  0.32562039503E+01  0.00000000000E+00 0.  1.
</event>
<event>
 5    1  0.1160133E+000  0.1596454E+01  0.7818608E-02  0.3357221E+00
         11   -1    0    0    0    0  0.00000000000E+00  0.00000000000E+00  0.39999999674E+01  0.40000000000E+01  0.51100000000E-03 0.  1.
    9000002   -1    0    0    0    0 -0.00000000000E+00 -0.00000000000E+00  0.00000000000E+00  0.93800000000E+00  0.93800000000E+00 0.  1.
         11    1    1    2    0    0  0.55286304577E-01  0.13076257502E+00  0.42005776793E+00  0.44340073976E+00  0.51100000000E-03 0.  1.
    9000002    1    1    2    0    0 -0.67853816509E-01 -0.10135469711E+01  0.84437346903E+00  0.16200901698E+01  0.93800000000E+00 0.  1.
         22    1    1    2    0    0  0.12567511932E-01  0.88278439608E+00  0.27355687304E+01  0.28745090905E+01  0.00000000000E+00 0.  1.
</event>
<event>
 5    1  0.1280478E+000  0.1482499E+01  0.7818608E-02  0.3491680E+00
         11   -1    0    0    0    0  0.00000000000E+00  0.00000000000E+00  0.39999999674E+01  0.40000000000E+01  0.51100000000E-03 0.  1.
    9000002   -1    0    0    0    0 -0.00000000000E+00 -0.00000000000E+00  0.00000000000E+00  0.93800000000E+00  0.93800000000E+00 0. -1.
         11    1    1    2    0    0 -0.63384098998E-01 -0.22047575133E+00  0.68633649353E+00  0.72366093193E+00  0.51100000000E-03 0.  1.
    9000002    1    1    2    0    0 -0.58307556453E+00 -0.27433479007E+00  0.42767200608E+00  0.12157236675E+01  0.93800000000E+00 0. -1.
         22    1    1    2    0    0  0.64645966353E+00  0.49481054140E+00  0.28859914678E+01  0.29986154005E+01  0.00000000000E+00 0.  1.
</event>
<event>
 5    1  0.1160133E+000  0.1151288E+01  0.7818608E-02  0.4112997E+00
         11   -1    0    0    0    0  0.00000000000E+00  0.00000000000E+00  0.39999999674E+01  0.40000000000E+01  0.51100000000E-03 0.  1.
    9000002   -1    0    0    0    0 -0.00000000000E+00 -0.00000000000E+00  0.00000000000E+00  0.93800000000E+00  0.93800000000E+00 0.  1.
         11    1    1    2    0    0 -0.57417463143E+00  0.41722165923E+00  0.10139085310E+01  0.12376434020E+01  0.51100000000E-03 0.  1.
    9000002    1    1    2    0    0 -0.19242473818E+00 -0.91886123843E-01  0.51165851870E+00  0.10895452168E+01  0.93800000000E+00 0.  1.
         22    1    1    2    0    0  0.76659936960E+00 -0.32533553538E+00  0.24744329177E+01  0.26108113812E+01  0.00000000000E+00 0.  1.
</event>
<event>
 5    1  0.1160133E+000  0.1587134E+01  0.7818608E-02  0.3367448E+00
         11   -1    0    0    0    0  0.00000000000E+00  0.00000000000E+00  0.39999999674E+01  0.40000000000E+01  0.51100000000E-03 0.  1.
    9000002   -1    0    0    0    0 -0.00000000000E+00 -0.00000000000E+00  0.00000000000E+00  0.93800000000E+00  0.93800000000E+00 0.  1.
         11    1    1    2    0    0  0.13301404720E+00 -0.23395212564E-01  0.32204465252E+00  0.34921782896E+00  0.51100000000E-03 0.  1.
    9000002    1    1    2    0    0 -0.98526397373E+00 -0.52274179201E+00  0.11205301704E+01  0.18383242211E+01  0.93800000000E+00 0.  1.
         22    1    1    2    0    0  0.85224992652E+00  0.54613700458E+00  0.25574251445E+01  0.27504579500E+01  0.00000000000E+00 0.  1.
</event>
<event>
 5    1  0.1160133E+000  0.1598584E+01  0.7818608E-02  0.3354902E+00
         11   -1    0    0    0    0  0.00000000000E+00  0.00000000000E+00  0.39999999674E+01  0.40000000000E+01  0.51100000000E-03 0. -1.
    9000002   -1    0    0    0    0 -0.00000000000E+00 -0.00000000000E+00  0.00000000000E+00  0.93800000000E+00  0.93800000000E+00 0. -1.
         11    1    1    2    0    0 -0.48280621768E-02  0.12986737144E-03  0.11159076046E-01  0.12170174572E-01  0.51100000000E-03 0. -1.
    9000002    1    1    2    0    0  0.38453778728E+00  0.84024774487E+00  0.66242521647E+00  0.14739527638E+01  0.93800000000E+00 0. -1.
         22    1    1    2    0    0 -0.37970972511E+00 -0.84037761224E+00  0.33264156748E+01  0.34518770616E+01  0.00000000000E+00 0. -1.
</event>
<event>
 5    1  0.1160133E+000  0.1573506E+01  0.7818608E-02  0.3382631E+00
         11   -1    0    0    0    0  0.00000000000E+00  0.00000000000E+00  0.39999999674E+01  0.40000000000E+01  0.51100000000E-03 0. -1.
    9000002   -1    0    0    0    0 -0.00000000000E+00 -0.00000000000E+00  0.00000000000E+00  0.93800000000E+00  0.93800000000E+00 0.  1.
         11    1    1    2    0    0  0.43560383754E-03 -0.32083277834E+00  0.13533952245E+01  0.13909035754E+01  0.51100000000E-03 0. -1.
    9000002    1    1    2    0    0 -0.43152713067E+00  0.89990969981E+00  0.85270277223E+00  0.16133812786E+01  0.93800000000E+00 0.  1.
         22    1    1    2    0    0  0.43109152683E+00 -0.57907692147E+00  0.17939019706E+01  0.19337151460E+01  0.00000000000E+00 0. -1.
</event>
<event>
 5    1  0.1160133E+000  0.1575367E+01  0.7818608E-02  0.3380541E+00
         11   -1    0    0    0    0  0.00000000000E+00  0.00000000000E+00  0.39999999674E+01  0.40000000000E+01  0.51100000000E-03 0.  1.
    9000002   -1    0    0    0    0 -0.00000000000E+00 -0.00000000000E+00  0.00000000000E+00  0.93800000000E+00  0.93800000000E+00 0.  1.
         11    1    1    2    0    0  0.25719705937E+00  0.40360972832E+00  0.12674739455E+01  0.13548216133E+01  0.51100000000E-03 0.  1.
    9000002    1    1    2    0    0  0.30868337967E+00  0.23169681916E+00  0.38274193157E+00  0.10841144917E+01  0.93800000000E+00 0.  1.
         22    1    1    2    0    0 -0.56588043903E+00 -0.63530654748E+00  0.23497840903E+01  0.24990638951E+01  0.00000000000E+00 0.  1.
</event>
<event>
 5    1  0.1160133E+000  0.1594738E+01  0.7818608E-02  0.3359094E+00
         11   -1    0    0    0    0  0.00000000000E+00  0.00000000000E+00  0.39999999674E+01  0.40000000000E+01  0.51100000000E-03 0.  1.
    9000002   -1    0    0    0    0 -0.00000000000E+00 -0.00000000000E+00  0.00000000000E+00  0.93800000000E+00  0.93800000000E+00 0.  1.
         11    1    1    2    0    0 -0.52759331371E-01 -0.41519278863E+00  0.12132142233E+01  0.12833774236E+01  0.51100000000E-03 0.  1.
    9000002    1    1    2    0    0  0.28721353335E+00  0.93865314039E+00  0.77643582006E+00  0.15640517620E+01  0.93800000000E+00 0.  1.
         22    1    1    2    0    0 -0.23445420198E+00 -0.52346035176E+00  0.20103499241E+01  0.20905708144E+01  0.00000000000E+00 0.  1.
</event>
<event>
 5    1  0.1160133E+000  0.1599675E+01  0.7818608E-02  0.3353716E+00
         11   -1    0    0    0    0  0.00000000000E+00  0.00000000000E+00  0.39999999674E+01  0.40000000000E+01  0.51100000000E-03 0. -1.
    9000002   -1    0    0    0    0 -0.00000000000E+00 -0.00000000000E+00  0.00000000000E+00  0.93800000000E+00  0.93800000000E+00 0. -1.
         11    1    1    2    0    0  0.44886950668E-01 -0.48892446180E-02  0.10164444335E+00  0.11122318571E+00  0.51100000000E-03 0.  1.
    9000002    1    1    2    0    0 -0.11785543097E+01  0.13711139815E+00  0.13215537309E+01  0.20085163828E+01  0.93800000000E+00 0. -1.
         22    1    1    2    0    0  0.11336673590E+01 -0.13222215353E+00  0.25768017931E+01  0.28182604315E+01  0.00000000000E+00 0. -1.
</event>
<event>
 5    1  0.1160133E+000  0.1599667E+01  0.7818608E-02  0.3353725E+00
         11   -1    0    0    0    0  0.00000000000E+00  0.00000000000E+00  0.39999999674E+01  0.40000000000E+01  0.51100000000E-03 0.  1.
    9000002   -1    0    0    0    0 -0.00000000000E+00 -0.00000000000E+00  0.00000000000E+00  0.93800000000E+00  0.93800000000E+00 0. -1.
         11    1    1    2    0    0  0.17255540122E+00 -0.32140716135E+00  0.13199911182E+01  0.13694724324E+01  0.51100000000E-03 0.  1.
    9000002    1    1    2    0    0 -0.44293175832E+00  0.81710468495E+00  0.67004712228E+00  0.14807618832E+01  0.93800000000E+00 0. -1.
         22    1    1    2    0    0  0.27037635710E+00 -0.49569752360E+00  0.20099617269E+01  0.20877656844E+01  0.00000000000E+00 0.  1.
</event>
<event>
 5    1  0.1160133E+000  0.1599157E+01  0.7818608E-02  0.3354279E+00
         11   -1    0    0    0    0  0.00000000000E+00  0.00000000000E+00  0.39999999674E+01  0.40000000000E+01  0.51100000000E-03 0.  1.
    9000002   -1    0    0    0    0 -0.00000000000E+00 -0.00000000000E+00  0.00000000000E+00  0.93800000000E+00  0.93800000000E+00 0.  1.
         11    1    1    2    0    0 -0.98174906627E-01 -0.13732247569E+00  0.60652875008E+00  0.62958173450E+00  0.51100000000E-03 0.  1.
    9000002    1    1    2    0    0  0.48502248338E+00  0.84416928576E+00  0.75247602513E+00  0.15472339063E+01  0.93800000000E+00 0.  1.
         22    1    1    2    0    0 -0.38684757675E+00 -0.70684681008E+00  0.26409951921E+01  0.27611843592E+01  0.00000000000E+00 0.  1.
</event>
<event>
 5    1  0.1160133E+000  0.1599677E+01  0.7818608E-02  0.3353714E+00
         11   -1    0    0    0    0  0.00000000000E+00  0.00000000000E+00  0.39999999674E+01  0.40000000000E+01  0.51100000000E-03 0. -1.
    9000002   -1    0    0    0    0 -0.00000000000E+00 -0.00000000000E+00  0.00000000000E+00  0.93800000000E+00  0.93800000000E+00 0. -1.
         11    1    1    2    0    0  0.72140754386E-01 -0.29265795797E+00  0.10869484838E+01  0.11279673029E+01  0.51100000000E-03 0. -1.
    9000002    1    1    2    0    0 -0.22080852872E+00  0.89891171067E+00  0.66338671000E+00  0.14753726976E+01  0.93800000000E+00 0. -1.
         22    1    1    2    0    0  0.14866777433E+00 -0.60625375270E+00  0.22496647735E+01  0.23346599994E+01  0.00000000000E+00 0. -1.
</event>
<event>
 5    1  0.1160133E+000  0.1599665E+01  0.7818608E-02  0.3353727E+00
         11   -1    0    0    0    0  0.00000000000E+00  0.00000000000E+00  0.39999999674E+01  0.40000000000E+01  0.51100000000E-03 0. -1.
    9000002   -1    0    0    0    0 -0.00000000000E+00 -0.00000000000E+00  0.00000000000E+00  0.93800000000E+00  0.93800000000E+00 0. -1.
         11    1    1    2    0    0 -0.15505805479E+00 -0.51033445910E+00  0.11822711671E+01  0.12970156646E+01  0.51100000000E-03 0. -1.
    9000002    1    1    2    0    0  0.33876918528E+00  0.11461774809E+01  0.13561507257E+01  0.20365353347E+01  0.93800000000E+00 0. -1.
         22    1    1    2    0    0 -0.18371113049E+00 -0.63584302181E+00  0.14615780746E+01  0.16044490008E+01  0.00000000000E+00 0. -1.
</event>
<event>
 5    1  0.1160133E+000  0.1460582E+01  0.7818608E-02  0.3520132E+00
         11   -1    0    0    0    0  0.00000000000E+00  0.00000000000E+00  0.39999999674E+01  0.40000000000E+01  0.51100000000E-03 0.  1.
    9000002   -1    0    0    0    0 -0.00000000000E+00 -0.00000000000E+00  0.00000000000E+00  0.93800000000E+00  0.93800000000E+00 0.  1.
         11    1    1    2    0    0  0.33130166859E+00  0.89584940730E-01  0.81782614609E+00  0.88691945720E+00  0.51100000000E-03 0.  1.
    9000002    1    1    2    0    0  0.41246399291E-01  0.61880901466E+00  0.46216664644E+00  0.12157581467E+01  0.93800000000E+00 0.  1.
         22    1    1    2    0    0 -0.37254806788E+00 -0.70839395539E+00  0.27200071748E+01  0.28353223961E+01  0.00000000000E+00 0.  1.
</event>
<event>
 5    1  0.1160133E+000  0.1598970E+01  0.7818608E-02  0.3354482E+00
         11   -1    0    0    0    0  0.00000000000E+00  0.00000000000E+00  0.39999999674E+01  0.40000000000E+01  0.51100000000E-03 0.  1.
    9000002   -1    0    0    0    0 -0.00000000000E+00 -0.00000000000E+00  0.00000000000E+00  0.93800000000E+00  0.93800000000E+00 0.  1.
         11    1    1    2    0    0 -0.21512443856E+00 -0.82815337990E-01  0.82526926920E+00  0.85685852512E+00  0.51100000000E-03 0.  1.
    9000002    1    1    2    0    0  0.88349900402E+00  0.42797930048E+00  0.76874932197E+00  0.15603064737E+01  0.93800000000E+00 0.  1.
         22    1    1    2    0    0 -0.66837456546E+00 -0.34516396249E+00  0.24059813762E+01  0.25208350012E+01  0.00000000000E+00 0.  1.
</event>
<event>
 5    1  0.1160133E+000  0.1544498E+01  0.7818608E-02  0.3415898E+00
         11   -1    0    0    0    0  0.00000000000E+00  0.00000000000E+00  0.39999999674E+01  0.40000000000E+01  0.51100000000E-03 0. -1.
    9000002   -1    0    0    0    0 -0.00000000000E+00 -0.00000000000E+00  0.00000000000E+00  0.93800000000E+00  0.93800000000E+00 0. -1.
         11    1    1    2    0    0  0.44612952424E+00 -0.18454553332E+00  0.80980157890E+00  0.94279767956E+00  0.51100000000E-03 0. -1.
    9000002    1    1    2    0    0  0.27126933578E+00  0.51635014281E+00  0.53970356680E+00  0.12293609976E+01  0.93800000000E+00 0. -1.
         22    1    1    2    0    0 -0.71739886002E+00 -0.33180460948E+00  0.26504948217E+01  0.27658413228E+01  0.00000000000E+00 0. -1.
</event>
<event>
 5    1  0.1160133E+000  0.1599677E+01  0.7818608E-02  0.3353714E+00
         11   -1    0    0    0    0  0.00000000000E+00  0.00000000000E+00  0.39999999674E+01  0.40000000000E+01  0.51100000000E-03 0. -1.
    9000002   -1    0    0    0    0 -0.00000000000E+00 -0.00000000000E+00  0.00000000000E+00  0.93800000000E+00  0.93800000000E+00 0. -1.
         11    1    1    2    0    0  0.32089644110E+00 -0.10474484907E+00  0.11324160557E+01  0.11816566310E+01  0.51100000000E-03 0.  1.
    9000002    1    1    2    0    0 -0.92213940465E+00  0.30059437995E+00  0.74440138995E+00  0.15409982129E+01  0.93800000000E+00 0. -1.
         22    1    1    2    0    0  0.60124296355E+00 -0.19584953088E+00  0.21231825217E+01  0.22153451560E+01  0.00000000000E+00 0. -1.
</event>
<event>
 5    1  0.1160133E+000  0.1578862E+01  0.7818608E-02  0.3376631E+00
         11   -1    0    0    0    0  0.00000000000E+00  0.00000000000E+00  0.39999999674E+01  0.40000000000E+01  0.51100000000E-03 0.  1.
    9000002   -1    0    0    0    0 -0.00000000000E+00 -0.00000000000E+00  0.00000000000E+00  0.93800000000E+00  0.93800000000E+00 0. -1.
         11    1    1    2    0    0 -0.18347940024E+00 -0.10824517598E+00  0.13743161930E+01  0.13907289340E+01  0.51100000000E-03 0.  1.
    9000002    1    1    2    0    0  0.70457104421E+00  0.59438505908E+00  0.69121836872E+00  0.14857122158E+01  0.93800000000E+00 0. -1.
         22    1    1    2    0    0 -0.52109164396E+00 -0.48613988310E+00  0.19344654057E+01  0.20615588502E+01  0.00000000000E+00 0.  1.
</event>
<event>
 5    1  0.1160133E+000  0.1599635E+01  0.7818608E-02  0.3353760E+00
         11   -1    0    0    0    0  0.00000000000E+00  0.00000000000E+00  0.39999999674E+01  0.40000000000E+01  0.51100000000E-03 0.  1.
    9000002   -1    0    0    0    0 -0.00000000000E+00 -0.00000000000E+00  0.00000000000E+00  0.93800000000E+00  0.93800000000E+00 0.  1.
         11    1    1    2    0    0 -0.24763666980E+00  0.48702305283E-01  0.95830470442E+00  0.99098133303E+00  0.51100000000E-03 0.  1.
    9000002    1    1    2    0    0  0.89309574367E+00 -0.17886147141E+00  0.63809631219E+00  0.14548616212E+01  0.93800000000E+00 0.  1.
         22    1    1    2    0    0 -0.64545907387E+00  0.13015916612E+00  0.24035989508E+01  0.24921570457E+01  0.00000000000E+00 0.  1.
</event>
<event>
 5    1  0.1160133E+000  0.1493588E+01  0.7818608E-02  0.3477627E+00
         11   -1    0    0    0    0  0.00000000000E+00  0.00000000000E+00  0.39999999674E+01  0.40000000000E+01  0.51100000000E-03 0. -1.
    9000002   -1    0    0    0    0 -0.00000000000E+00 -0.00000000000E+00  0.00000000000E+00  0.93800000000E+00  0.93800000000E+00 0. -1.
         11    1    1    2    0    0  0.19680982797E+00  0.17509657172E+00  0.11459604768E+01  0.11758480316E+01  0.51100000000E-03 0. -1.
    9000002    1    1    2    0    0 -0.35972097443E+00  0.56655111201E+00  0.44491251412E+00  0.12361919298E+01  0.93800000000E+00 0. -1.
         22    1    1    2    0    0  0.16291114646E+00 -0.74164768373E+00  0.24091269764E+01  0.25259600387E+01  0.00000000000E+00 0. -1.
</event>
<event>
 5    1  0.1160133E+000  0.1598922E+01  0.7818608E-02  0.3354534E+00
         11   -1    0    0    0    0  0.00000000000E+00  0.00000000000E+00  0.39999999674E+01  0.40000000000E+01  0.51100000000E-03 0.  1.
    9000002   -1    0    0    0    0 -0.00000000000E+00 -0.00000000000E+00  0.00000000000E+00  0.93800000000E+00  0.93800000000E+00 0.  1.
         11    1    1    2    0    0 -0.21809853819E-01 -0.13643649018E-01  0.14991494730E+00  0.15210710512E+00  0.51100000000E-03 0.  1.
    9000002    1    1    2    0    0  0.75784159999E+00  0.47692818823E+00  0.61364929669E+00  0.14346406682E+01  0.93800000000E+00 0.  1.
         22    1    1    2    0    0 -0.73603174617E+00 -0.46328453921E+00  0.32364357234E+01  0.33512522267E+01  0.00000000000E+00 0.  1.
</event>
<event>
 5    1  0.1160133E+000  0.1448255E+01  0.7818608E-02  0.3536547E+00
         11   -1    0    0    0    0  0.00000000000E+00  0.00000000000E+00  0.39999999674E+01  0.40000000000E+01  0.51100000000E-03 0. -1.
    9000002   -1    0    0    0    0 -0.00000000000E+00 -0.00000000000E+00  0.00000000000E+00  0.93800000000E+00  0.93800000000E+00 0. -1.
         11    1    1    2    0    0  0.44062803071E+00  0.19895586752E+00  0.10559969384E+01  0.11614070319E+01  0.51100000000E-03 0. -1.
    9000002    1    1    2    0    0 -0.53857318805E+00  0.44424945239E+00  0.54342237745E+00  0.12894070479E+01  0.93800000000E+00 0. -1.
         22    1    1    2    0    0  0.97945157345E-01 -0.64320531991E+00  0.24005806515E+01  0.24871859202E+01  0.00000000000E+00 0. -1.
</event>
<event>
 5    1  0.1160133E+000  0.1599492E+01  0.7818608E-02  0.3353915E+00
         11   -1    0    0    0    0  0.00000000000E+00  0.00000000000E+00  0.39999999674E+01  0.40000000000E+01  0.51100000000E-03 0. -1.
    9000002   -1    0    0    0    0 -0.00000000000E+00 -0.00000000000E+00  0.00000000000E+00  0.93800000000E+00  0.93800000000E+00 0. -1.
         11    1    1    2    0    0 -0.41634352696E+00  0.19067750660E+00  0.10739282558E+01  0.11674853334E+01  0.51100000000E-03 0. -1.
    9000002    1    1    2    0    0  0.10397457669E+01 -0.51502437890E+00  0.12266753349E+01  0.19315531957E+01  0.93800000000E+00 0. -1.
         22    1    1    2    0    0 -0.62340223995E+00  0.32434687230E+00  0.16993963767E+01  0.18389614709E+01  0.00000000000E+00 0. -1.
</event>
<event>
 5    1  0.1160133E+000  0.1599677E+01  0.7818608E-02  0.3353714E+00
         11   -1    0    0    0    0  0.00000000000E+00  0.00000000000E+00  0.39999999674E+01  0.40000000000E+01  0.51100000000E-03 0.  1.
    9000002   -1    0    0    0    0 -0.00000000000E+00 -0.00000000000E+00  0.00000000000E+00  0.93800000000E+00  0.93800000000E+00 0. -1.
         11    1    1    2    0    0 -0.25974297285E-02  0.26628648554E+00  0.90620446979E+00  0.94452212320E+00  0.51100000000E-03 0.  1.
    9000002    1    1    2    0    0  0.10426553638E-01 -0.96049045082E+00  0.72660119578E+00  0.15265791551E+01  0.93800000000E+00 0. -1.
         22    1    1    2    0    0 -0.78291239095E-02  0.69420396528E+00  0.23671943018E+01  0.24668987217E+01  0.00000000000E+00 0.  1.
</event>
<event>
 5    1  0.1160133E+000  0.1599181E+01  0.7818608E-02  0.3354253E+00
         11   -1    0    0    0    0  0.00000000000E+00  0.00000000000E+00  0.39999999674E+01  0.40000000000E+01  0.51100000000E-03 0. -1.
    9000002   -1    0    0    0    0 -0.00000000000E+00 -0.00000000000E+00  0.00000000000E+00  0.93800000000E+00  0.93800000000E+00 0.  1.
         11    1    1    2    0    0  0.30028755777E-01 -0.27010229414E+00  0.83393575711E+00  0.87710095404E+00  0.51100000000E-03 0. -1.
    9000002    1    1    2    0    0 -0.11582844553E+00  0.96027353362E+00  0.74017808182E+00  0.15372862716E+01  0.93800000000E+00 0.  1.
         22    1    1    2    0    0  0.85799689753E-01 -0.69017123949E+00  0.24258861284E+01  0.25236127743E+01  0.00000000000E+00 0. -1.
</event>
<event>
 5    1  0.1160133E+000  0.1599618E+01  0.7818608E-02  0.3353778E+00
         11   -1    0    0    0    0  0.00000000000E+00  0.00000000000E+00  0.39999999674E+01  0.40000000000E+01  0.51100000000E-03 0. -1.
    9000002   -1    0    0    0    0 -0.00000000000E+00 -0.00000000000E+00  0.00000000000E+00  0.93800000000E+00  0.93800000000E+00 0.  1.
         11    1    1    2    0    0  0.36066326027E+00  0.62423132659E+00  0.11114522760E+01  0.13247902322E+01  0.51100000000E-03 0. -1.
    9000002    1    1    2    0    0 -0.65527989752E+00 -0.11104426646E+01  0.19910175071E+01  0.25507781889E+01  0.93800000000E+00 0.  1.
         22    1    1    2    0    0  0.29461663726E+00  0.48621133801E+00  0.89753018421E+00  0.10624315788E+01  0.00000000000E+00 0. -1.
</event>
<event>
 5    1  0.1160133E+000  0.1586897E+01  0.7818608E-02  0.3367708E+00
         11   -1    0    0    0    0  0.00000000000E+00  0.00000000000E+00  0.39999999674E+01  0.40000000000E+01  0.51100000000E-03 0.  1.
    9000002   -1    0    0    0    0 -0.00000000000E+00 -0.00000000000E+00  0.00000000000E+00  0.93800000000E+00  0.93800000000E+00 0.  1.
         11    1    1    2    0    0 -0.10993900188E+00  0.61138531792E-01  0.11118570743E+01  0.11189508117E+01  0.51100000000E-03 0.  1.
    9000002    1    1    2    0    0  0.75466277159E+00 -0.23209984714E+00  0.47406887731E+00  0.13145233122E+01  0.93800000000E+00 0.  1.
         22    1    1    2    0    0 -0.64472376971E+00  0.17096131535E+00  0.24140740158E+01  0.25045258761E+01  0.00000000000E+00 0.  1.
</event>
<event>
 5    1  0.1160133E+000  0.1573374E+01  0.7818608E-02  0.3382779E+00
         11   -1    0    0    0    0  0.00000000000E+00  0.00000000000E+00  0.39999999674E+01  0.40000000000E+01  0.51100000000E-03 0. -1.
    9000002   -1    0    0    0    0 -0.00000000000E+00 -0.00000000000E+00  0.00000000000E+00  0.93800000000E+00  0.93800000000E+00 0.  1.
         11    1    1    2    0    0 -0.84978590844E-01  0.14053541630E+00  0.13179985362E+01  0.13281912387E+01  0.51100000000E-03 0. -1.
    9000002    1    1    2    0    0  0.31195731703E+00 -0.84341985934E+00  0.66064265711E+00  0.14577267052E+01  0.93800000000E+00 0.  1.
         22    1    1    2    0    0 -0.22697872618E+00  0.70288444304E+00  0.20213587740E+01  0.21520820560E+01  0.00000000000E+00 0. -1.
</event>
<event>
 5    1  0.1160133E+000  0.1595973E+01  0.7818608E-02  0.3357746E+00
         11   -1    0    0    0    0  0.00000000000E+00  0.00000000000E+00  0.39999999674E+01  0.40000000000E+01  0.51100000000E-03 0. -1.
    9000002   -1    0    0    0    0 -0.00000000000E+00 -0.00000000000E+00  0.00000000000E+00  0.93800000000E+00  0.93800000000E+00 0.  1.
         11    1    1    2    0    0 -0.48838974136E+00 -0.24434904665E+00  0.99469239632E+00  0.11347441211E+01  0.51100000000E-03 0. -1.
    9000002    1    1    2    0    0  0.10324020719E+01  0.68906271529E+00  0.15979167799E+01  0.22302115369E+01  0.93800000000E+00 0.  1.
         22    1    1    2    0    0 -0.54401233056E+00 -0.44471366864E+00  0.14073907911E+01  0.15730443420E+01  0.00000000000E+00 0.  1.
</event>
<event>
 5    1  0.1160133E+000  0.1599659E+01  0.7818608E-02  0.3353733E+00
         11   -1    0    0    0    0  0.00000000000E+00  0.00000000000E+00  0.39999999674E+01  0.40000000000E+01  0.51100000000E-03 0. -1.
    9000002   -1    0    0    0    0 -0.00000000000E+00 -0.00000000000E+00  0.00000000000E+00  0.93800000000E+00  0.93800000000E+00 0.  1.
         11    1    1    2    0    0  0.45321064648E+00  0.60247215969E-01  0.13237439486E+01  0.14004741768E+01  0.51100000000E-03 0. -1.
    9000002    1    1    2    0    0 -0.10499114308E+01 -0.12795786306E+00  0.93322022981E+00  0.16939395575E+01  0.93800000000E+00 0.  1.
         22    1    1    2    0    0  0.59670078430E+00  0.67710647090E-01  0.17430357889E+01  0.18435862657E+01  0.00000000000E+00 0. -1.
</event>
<event>
 5    1  0.1160133E+000  0.1572444E+01  0.7818608E-02  0.3383826E+00
         11   -1    0    0    0    0  0.00000000000E+00  0.00000000000E+00  0.39999999674E+01  0.40000000000E+01  0.51100000000E-03 0. -1.
    9000002   -1    0    0    0    0 -0.00000000000E+00 -0.00000000000E+00  0.00000000000E+00  0.93800000000E+00  0.93800000000E+00 0. -1.
         11    1    1    2    0    0 -0.45929150637E-01  0.13199986508E+00  0.49459665096E+00  0.51396455084E+00  0.51100000000E-03 0. -1.
    9000002    1    1    2    0    0 -0.62380480029E+00 -0.82187206626E+00  0.93290253489E+00  0.16777238336E+01  0.93800000000E+00 0. -1.
         22    1    1    2    0    0  0.66973395093E+00  0.68987220118E+00  0.25725007815E+01  0.27463116156E+01  0.00000000000E+00 0. -1.
</event>
<event>
 5    1  0.1160133E+000  0.1599675E+01  0.7818608E-02  0.3353717E+00
         11   -1    0    0    0    0  0.00000000000E+00  0.00000000000E+00  0.39999999674E+01  0.40000000000E+01  0.51100000000E-03 0.  1.
    9000002   -1    0    0    0    0 -0.00000000000E+00 -0.00000000000E+00  0.00000000000E+00  0.93800000000E+00  0.93800000000E+00 0. -1.
         11    1    1    2    0    0 -0.11024494438E+00  0.18134477879E+00  0.72751651538E+00  0.75783930871E+00  0.51100000000E-03 0.  1.
    9000002    1    1    2    0    0  0.50183120278E+00 -0.81282216090E+00  0.71670067020E+00  0.15185579581E+01  0.93800000000E+00 0. -1.
         22    1    1    2    0    0 -0.39158625840E+00  0.63147738211E+00  0.25557827818E+01  0.26616027332E+01  0.00000000000E+00 0. -1.
</event>
<event>
 5    1  0.1160133E+000  0.1594369E+01  0.7818608E-02  0.3359498E+00
         11   -1    0    0    0    0  0.00000000000E+00  0.00000000000E+00  0.39999999674E+01  0.40000000000E+01  0.51100000000E-03 0.  1.
    9000002   -1    0    0    0    0 -0.00000000000E+00 -0.00000000000E+00  0.00000000000E+00  0.93800000000E+00  0.93800000000E+00 0.  1.
         11    1    1    2    0    0  0.23194507930E+00 -0.15345760348E+00  0.10058008350E+01  0.10435436439E+01  0.51100000000E-03 0.  1.
    9000002    1    1    2    0    0 -0.96169645613E+00  0.44594166736E+00  0.95114574399E+00  0.17053581063E+01  0.93800000000E+00 0.  1.
         22    1    1    2    0    0  0.72975137683E+00 -0.29248406388E+00  0.20430533883E+01  0.21890982498E+01  0.00000000000E+00 0.  1.
</event>
<event>
 5    1  0.1160133E+000  0.1527157E+01  0.7818608E-02  0.3436429E+00
         11   -1    0    0    0    0  0.00000000000E+00  0.00000000000E+00  0.39999999674E+01  0.40000000000E+01  0.51100000000E-03 0. -1.
    9000002   -1    0    0    0    0 -0.00000000000E+00 -0.00000000000E+00  0.00000000000E+00  0.93800000000E+00  0.93800000000E+00 0. -1.
         11    1    1    2    0    0 -0.66871413239E-01 -0.59702172408E-01 -0.14398778972E+00  0.16961391455E+00  0.51100000000E-03 0. -1.
    9000002    1    1    2    0    0  0.74166091292E+00  0.66454365405E+00  0.18419165538E+01  0.22943800403E+01  0.93800000000E+00 0. -1.
         22    1    1    2    0    0 -0.67478949968E+00 -0.60484148164E+00  0.23020712033E+01  0.24740060452E+01  0.00000000000E+00 0. -1.
</event>
<event>
 5    1  0.1160133E+000  0.1599630E+01  0.7818608E-02  0.3353765E+00
         11   -1    0    0    0    0  0.00000000000E+00  0.00000000000E+00  0.39999999674E+01  0.40000000000E+01  0.51100000000E-03 0. -1.
    9000002   -1    0    0    0    0 -0.00000000000E+00 -0.00000000000E+00  0.00000000000E+00  0.93800000000E+00  0.93800000000E+00 0. -1.
         11    1    1    2    0    0 -0.82579910645E-02 -0.43089619360E-01  0.17181388485E+00  0.17732789364E+00  0.51100000000E-03 0. -1.
    9000002    1    1    2    0    0  0.15679169529E+00  0.91002954885E+00  0.65964811042E+00  0.14723168970E+01  0.93800000000E+00 0. -1.
         22    1    1    2    0    0 -0.14853370422E+00 -0.86693992949E+00  0.31685379721E+01  0.32883552094E+01  0.00000000000E+00 0. -1.
</event>
<event>
 5    1  0.1160133E+000  0.1599677E+01  0.7818608E-02  0.3353714E+00
         11   -1    0    0    0    0  0.00000000000E+00  0.00000000000E+00  0.39999999674E+01  0.40000000000E+01  0.51100000000E-03 0.  1.
    9000002   -1    0    0    0    0 -0.00000000000E+00 -0.00000000000E+00  0.00000000000E+00  0.93800000000E+00  0.93800000000E+00 0. -1.
         11    1    1    2    0    0 -0.27723969618E+00 -0.17846290996E+00  0.65981795002E+00  0.73761158319E+00  0.51100000000E-03 0.  1.
    9000002    1    1    2    0    0  0.10379580823E+01  0.66657070411E+00  0.15331860849E+01  0.21799488653E+01  0.93800000000E+00 0. -1.
         22    1    1    2    0    0 -0.76071838611E+00 -0.48810779416E+00  0.18069959324E+01  0.20204395515E+01  0.00000000000E+00 0. -1.
</event>
<event>
 5    1  0.1160133E+000  0.1599657E+01  0.7818608E-02  0.3353735E+00
         11   -1    0    0    0    0  0.00000000000E+00  0.00000000000E+00  0.39999999674E+01  0.40000000000E+01  0.51100000000E-03 0. -1.
    9000002   -1    0    0    0    0 -0.00000000000E+00 -0.00000000000E+00  0.00000000000E+00  0.93800000000E+00  0.93800000000E+00 0. -1.
         11    1    1    2    0    0  0.20099412541E+00  0.33592525598E+00  0.12283467925E+01  0.12892170181E+01  0.51100000000E-03 0. -1.
    9000002    1    1    2    0    0 -0.51184772511E+00 -0.86239364264E+00  0.81043842834E+00  0.15944796439E+01  0.93800000000E+00 0. -1.
         22    1    1    2    0    0  0.31085359970E+00  0.52646838666E+00  0.19612147465E+01  0.20543033380E+01  0.00000000000E+00 0.  1.
</event>
<event>
 5    1  0.1160133E+000  0.1577642E+01  0.7818608E-02  0.3377993E+00
         11   -1    0    0    0    0  0.00000000000E+00  0.00000000000E+00  0.39999999674E+01  0.40000000000E+01  0.51100000000E-03 0. -1.
    9000002   -1    0    0    0    0 -0.00000000000E+00 -0.00000000000E+00  0.00000000000E+00  0.93800000000E+00  0.93800000000E+00 0. -1.
         11    1    1    2    0    0 -0.14250720065E+00  0.20163532190E+00  0.11923992981E+01  0.12176951394E+01  0.51100000000E-03 0. -1.
    9000002    1    1    2    0    0  0.32069128791E+00 -0.98289990842E+00  0.92602821920E+00  0.16752036876E+01  0.93800000000E+00 0. -1.
         22    1    1    2    0    0 -0.17818408726E+00  0.78126458652E+00  0.18815724500E+01  0.20451011730E+01  0.00000000000E+00 0. -1.
</event>
<event>
 5    1  0.1160133E+000  0.1598645E+01  0.7818608E-02  0.3354836E+00
         11   -1    0    0    0    0  0.00000000000E+00  0.00000000000E+00  0.39999999674E+01  0.40000000000E+01  0.51100000000E-03 0. -1.
    9000002   -1    0    0    0    0 -0.00000000000E+00 -0.00000000000E+00  0.00000000000E+00  0.93800000000E+00  0.93800000000E+00 0. -1.
         11    1    1    2    0    0 -0.26931485485E-01 -0.67025114383E-01  0.22136035879E+00  0.23284832066E+00  0.51100000000E-03 0. -1.
    9000002    1    1    2    0    0  0.43605586152E+00  0.10865028402E+01  0.12663292066E+01  0.19631777290E+01  0.93800000000E+00 0. -1.
         22    1    1    2    0    0 -0.40912437603E+00 -0.10194777258E+01  0.25123104020E+01  0.27419739503E+01  0.00000000000E+00 0. -1.
</event>
<event>
 5    1  0.1160133E+000  0.1582892E+01  0.7818608E-02  0.3372143E+00
         11   -1    0    0    0    0  0.00000000000E+00  0.00000000000E+00  0.39999999674E+01  0.40000000000E+01  0.51100000000E-03 0. -1.
    9000002   -1    0    0    0    0 -0.00000000000E+00 -0.00000000000E+00  0.00000000000E+00  0.93800000000E+00  0.93800000000E+00 0. -1.
         11    1    1    2    0    0 -0.51937240448E-02  0.66394808438E-01  0.95915754858E-01  0.11677045220E+00  0.51100000000E-03 0. -1.
    9000002    1    1    2    0    0 -0.72694810832E+00 -0.61334148207E+00  0.73854472270E+00  0.15264120129E+01  0.93800000000E+00 0. -1.
         22    1    1    2    0    0  0.73214183236E+00  0.54694667363E+00  0.31655394898E+01  0.32948175349E+01  0.00000000000E+00 0. -1.
</event>
<event>
 5    1  0.1160133E+000  0.1599677E+01  0.7818608E-02  0.3353714E+00
         11   -1    0    0    0    0  0.00000000000E+00  0.00000000000E+00  0.39999999674E+01  0.40000000000E+01  0.51100000000E-03 0.  1.
    9000002   -1    0    0    0    0 -0.00000000000E+00 -0.00000000000E+00  0.00000000000E+00  0.93800000000E+00  0.93800000000E+00 0.  1.
         11    1    1    2    0    0  0.60605615745E-01 -0.29970198473E+00  0.84255899889E+00  0.89632597198E+00  0.51100000000E-03 0. -1.
    9000002    1    1    2    0    0 -0.21395460688E+00  0.10654816028E+01  0.10062813455E+01  0.17531325580E+01  0.93800000000E+00 0.  1.
         22    1    1    2    0    0  0.15334899113E+00 -0.76577961805E+00  0.21511596229E+01  0.22885414700E+01  0.00000000000E+00 0.  1.
</event>
<event>
 5    1  0.1160133E+000  0.1599677E+01  0.7818608E-02  0.3353714E+00
         11   -1    0    0    0    0  0.00000000000E+00  0.00000000000E+00  0.39999999674E+01  0.40000000000E+01  0.51100000000E-03 0.  1.
    9000002   -1    0    0    0    0 -0.00000000000E+00 -0.00000000000E+00  0.00000000000E+00  0.93800000000E+00  0.93800000000E+00 0.  1.
         11    1    1    2    0    0  0.35134233484E+00 -0.36946404472E+00  0.13215214761E+01  0.14164619266E+01  0.51100000000E-03 0.  1.
    9000002    1    1    2    0    0 -0.77182584696E+00  0.81117968856E+00  0.10975807035E+01  0.18270892222E+01  0.93800000000E+00 0.  1.
         22    1    1    2    0    0  0.42048351213E+00 -0.44171564383E+00  0.15808977878E+01  0.16944488512E+01  0.00000000000E+00 0. -1.
</event>
<event>
 5    1  0.1160133E+000  0.1594754E+01  0.7818608E-02  0.3359077E+00
         11   -1    0    0    0    0  0.00000000000E+00  0.00000000000E+00  0.39999999674E+01  0.40000000000E+01  0.51100000000E-03 0.  1.
    9000002   -1    0    0    0    0 -0.00000000000E+00 -0.00000000000E+00  0.00000000000E+00  0.93800000000E+00  0.93800000000E+00 0. -1.
         11    1    1    2    0    0 -0.25939178696E+00  0.62919579660E-01  0.10656650194E+01  0.10985832546E+01  0.51100000000E-03 0.  1.
    9000002    1    1    2    0    0  0.99821044320E+00 -0.87084043717E-01  0.81824789000E+00  0.15979303267E+01  0.93800000000E+00 0. -1.
         22    1    1    2    0    0 -0.73881865624E+00  0.24164464056E-01  0.21160870579E+01  0.22414864186E+01  0.00000000000E+00 0.  1.
</event>
<event>
 5    1  0.1160133E+000  0.1599236E+01  0.7818608E-02  0.3354193E+00
         11   -1    0    0    0    0  0.00000000000E+00  0.00000000000E+00  0.39999999674E+01  0.40000000000E+01  0.51100000000E-03 0.  1.
    9000002   -1    0    0    0    0 -0.00000000000E+00 -0.00000000000E+00  0.00000000000E+00  0.93800000000E+00  0.93800000000E+00 0.  1.
         11    1    1    2    0    0  0.50240893305E+00 -0.34810791863E+00  0.13046616527E+01  0.14407415272E+01  0.51100000000E-03 0.  1.
    9000002    1    1    2    0    0 -0.10013785051E+01  0.65302097481E+00  0.13591097383E+01  0.20386805990E+01  0.93800000000E+00 0.  1.
         22    1    1    2    0    0  0.49896957206E+00 -0.30491305617E+00  0.13362285763E+01  0.14585778738E+01  0.00000000000E+00 0.  1.
</event>
<event>
 5    1  0.1160133E+000  0.1599655E+01  0.7818608E-02  0.3353738E+00
         11   -1    0    0    0    0  0.00000000000E+00  0.00000000000E+00  0.39999999674E+01  0.40000000000E+01  0.51100000000E-03 0.  1.
    9000002   -1    0    0    0    0 -0.00000000000E+00 -0.00000000000E+00  0.00000000000E+00  0.93800000000E+00  0.93800000000E+00 0.  1.
         11    1    1    2    0    0 -0.13172841870E+00  0.10064156495E+00  0.42304842136E+00  0.45436915479E+00  0.51100000000E-03 0.  1.
    9000002    1    1    2    0    0  0.90637187730E+00 -0.69311486033E+00  0.11625459760E+01  0.18797008634E+01  0.93800000000E+00 0.  1.
         22    1    1    2    0    0 -0.77464345860E+00  0.59247329538E+00  0.24144055700E+01  0.26039299818E+01  0.00000000000E+00 0.  1.
</event>
<event>
 5    1  0.1160133E+000  0.1599639E+01  0.7818608E-02  0.3353756E+00
         11   -1    0    0    0    0  0.00000000000E+00  0.00000000000E+00  0.39999999674E+01  0.40000000000E+01  0.51100000000E-03 0.  1.
    9000002   -1    0    0    0    0 -0.00000000000E+00 -0.00000000000E+00  0.00000000000E+00  0.93800000000E+00  0.93800000000E+00 0.  1.
         11    1    1    2    0    0 -0.21735721415E+00  0.42526565448E+00  0.13638133429E+01  0.14450197683E+01  0.51100000000E-03 0.  1.
    9000002    1    1    2    0    0  0.49056305048E+00 -0.95733894875E+00  0.97786094199E+00  0.17300884345E+01  0.93800000000E+00 0.  1.
         22    1    1    2    0    0 -0.27320583632E+00  0.53207329427E+00  0.16583256825E+01  0.17628917972E+01  0.00000000000E+00 0. -1.
</event>
<event>
 5    1  0.1160133E+000  0.1599665E+01  0.7818608E-02  0.3353727E+00
         11   -1    0    0    0    0  0.00000000000E+00  0.00000000000E+00  0.39999999674E+01  0.40000000000E+01  0.51100000000E-03 0.  1.
    9000002   -1    0    0    0    0 -0.00000000000E+00 -0.00000000000E+00  0.00000000000E+00  0.93800000000E+00  0.93800000000E+00 0. -1.
         11    1    1    2    0    0  0.11337989317E+00 -0.11894458266E+00  0.51462819935E+00  0.54022704357E+00  0.51100000000E-03 0.  1.
    9000002    1    1    2    0    0 -0.68992098677E+00  0.74810097337E+00  0.84188404024E+00  0.16199564104E+01  0.93800000000E+00 0.  1.
         22    1    1    2    0    0  0.57654109360E+00 -0.62915639071E+00  0.26434877278E+01  0.27778165460E+01  0.00000000000E+00 0.  1.
</event>
<event>
 5    1  0.1160133E+000  0.1598222E+01  0.7818608E-02  0.3355295E+00
         11   -1    0    0    0    0  0.00000000000E+00  0.00000000000E+00  0.39999999674E+01  0.40000000000E+01  0.51100000000E-03 0. -1.
    9000002   -1    0    0    0    0 -0.00000000000E+00 -0.00000000000E+00  0.00000000000E+00  0.93800000000E+00  0.93800000000E+00 0. -1.
         11    1    1    2    0    0 -0.10837500249E+00 -0.20423834974E+00  0.45465113550E+00  0.51006505546E+00  0.51100000000E-03 0. -1.
    9000002    1    1    2    0    0  0.40893311218E+00  0.11755237195E+01  0.16039898498E+01  0.22364502551E+01  0.93800000000E+00 0. -1.
         22    1    1    2    0    0 -0.30055810969E+00 -0.97128536975E+00  0.19413589821E+01  0.21914846894E+01  0.00000000000E+00 0. -1.
</event>
<event>
 5    1  0.1160133E+000  0.1599676E+01  0.7818608E-02  0.3353715E+00
         11   -1    0    0    0    0  0.00000000000E+00  0.00000000000E+00  0.39999999674E+01  0.40000000000E+01  0.51100000000E-03 0.  1.
    9000002   -1    0    0    0    0 -0.00000000000E+00 -0.00000000000E+00  0.00000000000E+00  0.93800000000E+00  0.93800000000E+00 0.  1.
         11    1    1    2    0    0  0.38122128280E+00 -0.58871372463E-02  0.84733868676E+00  0.92916491326E+00  0.51100000000E-03 0.  1.
    9000002    1    1    2    0    0 -0.11940144673E+01  0.18908035324E-01  0.13519247839E+01  0.20331189545E+01  0.93800000000E+00 0.  1.
         22    1    1    2    0    0  0.81279318448E+00 -0.13020898078E-01  0.18007364967E+01  0.19757161323E+01  0.00000000000E+00 0.  1.
</event>
<event>
 5    1  0.1160133E+000  0.1599677E+01  0.7818608E-02  0.3353714E+00
         11   -1    0    0    0    0  0.00000000000E+00  0.00000000000E+00  0.39999999674E+01  0.40000000000E+01  0.51100000000E-03 0. -1.
    9000002   -1    0    0    0    0 -0.00000000000E+00 -0.00000000000E+00  0.00000000000E+00  0.93800000000E+00  0.93800000000E+00 0. -1.
         11    1    1    2    0    0 -0.53767922276E+00 -0.63854428082E-01  0.12741358645E+01  0.13844127986E+01  0.51100000000E-03 0. -1.
    9000002    1    1    2    0    0  0.11595348390E+01  0.13791002834E+00  0.12518453384E+01  0.19520504527E+01  0.93800000000E+00 0. -1.
         22    1    1    2    0    0 -0.62185561623E+00 -0.74055600260E-01  0.14740187645E+01  0.16015367487E+01  0.00000000000E+00 0. -1.
</event>
<event>
 5    1  0.1160133E+000  0.1599674E+01  0.7818608E-02  0.3353717E+00
         11   -1    0    0    0    0  0.00000000000E+00  0.00000000000E+00  0.39999999674E+01  0.40000000000E+01  0.51100000000E-03 0. -1.
    9000002   -1    0    0    0    0 -0.00000000000E+00 -0.00000000000E+00  0.00000000000E+00  0.93800000000E+00  0.93800000000E+00 0.  1.
         11    1    1    2    0    0  0.15136053380E+00  0.29689013853E+00  0.12115029066E+01  0.12565004255E+01  0.51100000000E-03 0. -1.
    9000002    1    1    2    0    0 -0.41319222098E+00 -0.82052377095E+00  0.65139021913E+00  0.14656535361E+01  0.93800000000E+00 0.  1.
         22    1    1    2    0    0  0.26183168718E+00  0.52363363242E+00  0.21371068417E+01  0.22158460384E+01  0.00000000000E+00 0. -1.
</event>
<event>
 5    1  0.1160133E+000  0.1599648E+01  0.7818608E-02  0.3353746E+00
         11   -1    0    0    0    0  0.00000000000E+00  0.00000000000E+00  0.39999999674E+01  0.40000000000E+01  0.51100000000E-03 0.  1.
    9000002   -1    0    0    0    0 -0.00000000000E+00 -0.00000000000E+00  0.00000000000E+00  0.93800000000E+00  0.93800000000E+00 0.  1.
         11    1    1    2    0    0 -0.64260091228E-01 -0.36941518497E+00  0.11726047435E+01  0.12310966996E+01  0.51100000000E-03 0.  1.
    9000002    1    1    2    0    0  0.16083633488E+00  0.10062984335E+01  0.84496145807E+00  0.16224391297E+01  0.93800000000E+00 0.  1.
         22    1    1    2    0    0 -0.96576243653E-01 -0.63688324857E+00  0.19824337658E+01  0.20844641707E+01  0.00000000000E+00 0.  1.
</event>
<event>
 5    1  0.1160133E+000  0.1599671E+01  0.7818608E-02  0.3353721E+00
         11   -1    0    0    0    0  0.00000000000E+00  0.00000000000E+00  0.39999999674E+01  0.40000000000E+01  0.51100000000E-03 0.  1.
    9000002   -1    0    0    0    0 -0.00000000000E+00 -0.00000000000E+00  0.00000000000E+00  0.93800000000E+00  0.93800000000E+00 0.  1.
         11    1    1    2    0    0  0.33928337946E+00 -0.30747563819E+00  0.85451333252E+00  0.96945746489E+00  0.51100000000E-03 0.  1.
    9000002    1    1    2    0    0 -0.93470069968E+00  0.83899669676E+00  0.16664933242E+01  0.22879302556E+01  0.93800000000E+00 0.  1.
         22    1    1    2    0    0  0.59541732021E+00 -0.53152105856E+00  0.14789933107E+01  0.16806122795E+01  0.00000000000E+00 0.  1.
</event>
<event>
 5    1  0.1443106E+000  0.1556011E+01  0.7818608E-02  0.3402536E+00
         11   -1    0    0    0    0  0.00000000000E+00  0.00000000000E+00  0.39999999674E+01  0.40000000000E+01  0.51100000000E-03 0. -1.
    9000002   -1    0    0    0    0 -0.00000000000E+00 -0.00000000000E+00  0.00000000000E+00  0.93800000000E+00  0.93800000000E+00 0.  1.
         11    1    1    2    0    0  0.33155163553E-01  0.33723643610E-01  0.11097376176E+01  0.11107449707E+01  0.51100000000E-03 0. -1.
    9000002    1    1    2    0    0 -0.92781645590E-01  0.65420320464E+00  0.35706885418E+00  0.12016373968E+01  0.93800000000E+00 0.  1.
         22    1    1    2    0    0  0.59626482037E-01 -0.68792684825E+00  0.25331934956E+01  0.26256176325E+01  0.00000000000E+00 0. -1.
</event>
<event>
 5    1  0.1160133E+000  0.1594183E+01  0.7818608E-02  0.3359701E+00
         11   -1    0    0    0    0  0.00000000000E+00  0.00000000000E+00  0.39999999674E+01  0.40000000000E+01  0.51100000000E-03 0.  1.
    9000002   -1    0    0    0    0 -0.00000000000E+00 -0.00000000000E+00  0.00000000000E+00  0.93800000000E+00  0.93800000000E+00 0.  1.
         11    1    1    2    0    0 -0.30186443378E+00  0.21614107100E+00  0.74004553665E+00  0.82795335399E+00  0.51100000000E-03 0.  1.
    9000002    1    1    2    0    0  0.11181757206E+01 -0.47478971392E+00  0.14671257817E+01  0.21232155505E+01  0.93800000000E+00 0.  1.
         22    1    1    2    0    0 -0.81631128679E+00  0.25864864292E+00  0.17928286490E+01  0.19868310955E+01  0.00000000000E+00 0.  1.
</event>
<event>
 5    1  0.1160133E+000  0.1576973E+01  0.7818608E-02  0.3378742E+00
         11   -1    0    0    0    0  0.00000000000E+00  0.00000000000E+00  0.39999999674E+01  0.40000000000E+01  0.51100000000E-03 0.  1.
    9000002   -1    0    0    0    0 -0.00000000000E+00 -0.00000000000E+00  0.00000000000E+00  0.93800000000E+00  0.93800000000E+00 0.  1.
         11    1    1    2    0    0  0.66077350427E-01  0.20406949262E+00  0.14391962771E+01  0.14550933851E+01  0.51100000000E-03 0.  1.
    9000002    1    1    2    0    0 -0.35654888266E+00 -0.84523550429E+00  0.68646104890E+00  0.14807508011E+01  0.93800000000E+00 0.  1.
         22    1    1    2    0    0  0.29047153223E+00  0.64116601167E+00  0.18743426413E+01  0.20021558138E+01  0.00000000000E+00 0. -1.
</event>
<event>
 5    1  0.1160133E+000  0.1599361E+01  0.7818608E-02  0.3354057E+00
         11   -1    0    0    0    0  0.00000000000E+00  0.00000000000E+00  0.39999999674E+01  0.40000000000E+01  0.51100000000E-03 0. -1.
    9000002   -1    0    0    0    0 -0.00000000000E+00 -0.00000000000E+00  0.00000000000E+00  0.93800000000E+00  0.93800000000E+00 0. -1.
         11    1    1    2    0    0 -0.18612291364E-01 -0.10073070446E+00  0.43297610800E+00  0.44492882963E+00  0.51100000000E-03 0. -1.
    9000002    1    1    2    0    0  0.99662640316E-01  0.89176214395E+00  0.61606534734E+00  0.14368552034E+01  0.93800000000E+00 0. -1.
         22    1    1    2    0    0 -0.81050348953E-01 -0.79103143948E+00  0.29509585120E+01  0.30562159670E+01  0.00000000000E+00 0. -1.
</event>
<event>
 5    1  0.1160133E+000  0.1502836E+01  0.7818608E-02  0.3466081E+00
         11   -1    0    0    0    0  0.00000000000E+00  0.00000000000E+00  0.39999999674E+01  0.40000000000E+01  0.51100000000E-03 0. -1.
    9000002   -1    0    0    0    0 -0.00000000000E+00 -0.00000000000E+00  0.00000000000E+00  0.93800000000E+00  0.93800000000E+00 0.  1.
         11    1    1    2    0    0  0.50062615723E-01  0.54641325057E+00  0.97614267857E+00  0.11197894873E+01  0.51100000000E-03 0. -1.
    9000002    1    1    2    0    0  0.72932495988E+00 -0.37980013512E+00  0.86781540093E+00  0.15195757993E+01  0.93800000000E+00 0.  1.
         22    1    1    2    0    0 -0.77938757561E+00 -0.16661311546E+00  0.21560418879E+01  0.22986347134E+01  0.00000000000E+00 0.  1.
</event>
<event>
 5    1  0.1160133E+000  0.1599674E+01  0.7818608E-02  0.3353717E+00
         11   -1    0    0    0    0  0.00000000000E+00  0.00000000000E+00  0.39999999674E+01  0.40000000000E+01  0.51100000000E-03 0.  1.
    9000002   -1    0    0    0    0 -0.00000000000E+00 -0.00000000000E+00  0.00000000000E+00  0.93800000000E+00  0.93800000000E+00 0.  1.
         11    1    1    2    0    0  0.23229252747E+00 -0.39575783916E+00  0.13697659070E+01  0.14445909409E+01  0.51100000000E-03 0.  1.
    9000002    1    1    2    0    0 -0.53061763525E+00  0.89516133410E+00  0.89301966288E+00  0.16613840637E+01  0.93800000000E+00 0.  1.
         22    1    1    2    0    0  0.29832510779E+00 -0.49940349494E+00  0.17372143975E+01  0.18320249954E+01  0.00000000000E+00 0.  1.
</event>
<event>
 5    1  0.1160133E+000  0.1599562E+01  0.7818608E-02  0.3353839E+00
         11   -1    0    0    0    0  0.00000000000E+00  0.00000000000E+00  0.39999999674E+01  0.40000000000E+01  0.51100000000E-03 0.  1.
    9000002   -1    0    0    0    0 -0.00000000000E+00 -0.00000000000E+00  0.00000000000E+00  0.93800000000E+00  0.93800000000E+00 0.  1.
         11    1    1    2    0    0  0.30247151662E-01  0.71966780955E-01  0.21852367149E+00  0.23204948582E+00  0.51100000000E-03 0.  1.
    9000002    1    1    2    0    0 -0.41276564216E+00 -0.93797747311E+00  0.85763165219E+00  0.16326522184E+01  0.93800000000E+00 0.  1.
         22    1    1    2    0    0  0.38251849050E+00  0.86601069215E+00  0.29238446437E+01  0.30732982958E+01  0.00000000000E+00 0.  1.
</event>
<event>
 5    1  0.1160133E+000  0.1599616E+01  0.7818608E-02  0.3353780E+00
         11   -1    0    0    0    0  0.00000000000E+00  0.00000000000E+00  0.39999999674E+01  0.40000000000E+01  0.51100000000E-03 0. -1.
    9000002   -1    0    0    0    0 -0.00000000000E+00 -0.00000000000E+00  0.00000000000E+00  0.93800000000E+00  0.93800000000E+00 0. -1.
         11    1    1    2    0    0  0.24420325733E+00  0.27906479019E+00  0.70972629399E+00  0.80076467299E+00  0.51100000000E-03 0. -1.
    9000002    1    1    2    0    0 -0.80611691369E+00 -0.94283633386E+00  0.15713265836E+01  0.22108089161E+01  0.93800000000E+00 0. -1.
         22    1    1    2    0    0  0.56191365636E+00  0.66377154367E+00  0.17189470898E+01  0.19264264110E+01  0.00000000000E+00 0. -1.
</event>
<event>
 5    1  0.1160133E+000  0.1599512E+01  0.7818608E-02  0.3353893E+00
         11   -1    0    0    0    0  0.00000000000E+00  0.00000000000E+00  0.39999999674E+01  0.40000000000E+01  0.51100000000E-03 0. -1.
    9000002   -1    0    0    0    0 -0.00000000000E+00 -0.00000000000E+00  0.00000000000E+00  0.93800000000E+00  0.93800000000E+00 0.  1.
         11    1    1    2    0    0 -0.18588461321E-02  0.40676302840E-02  0.13534175119E-01  0.14263097217E-01  0.51100000000E-03 0. -1.
    9000002    1    1    2    0    0  0.75258220372E+00 -0.62797740779E+00  0.76472467538E+00  0.15573642564E+01  0.93800000000E+00 0.  1.
         22    1    1    2    0    0 -0.75072335758E+00  0.62390977751E+00  0.32217411169E+01  0.33663726464E+01  0.00000000000E+00 0. -1.
</event>
<event>
 5    1  0.1160133E+000  0.1599666E+01  0.7818608E-02  0.3353726E+00
         11   -1    0    0    0    0  0.00000000000E+00  0.00000000000E+00  0.39999999674E+01  0.40000000000E+01  0.51100000000E-03 0.  1.
    9000002   -1    0    0    0    0 -0.00000000000E+00 -0.00000000000E+00  0.00000000000E+00  0.93800000000E+00  0.93800000000E+00 0. -1.
         11    1    1    2    0    0  0.10749485698E-01  0.52957746535E-01  0.19662783844E+00  0.20391871501E+00  0.51100000000E-03 0.  1.
    9000002    1    1    2    0    0 -0.21112721188E+00 -0.88952419802E+00  0.64380902734E+00  0.14595074725E+01  0.93800000000E+00 0. -1.
         22    1    1    2    0    0  0.20037772618E+00  0.83656645149E+00  0.31595631016E+01  0.32745738125E+01  0.00000000000E+00 0.  1.
</event>
<event>
 5    1  0.1160133E+000  0.1599674E+01  0.7818608E-02  0.3353718E+00
         11   -1    0    0    0    0  0.00000000000E+00  0.00000000000E+00  0.39999999674E+01  0.40000000000E+01  0.51100000000E-03 0. -1.
    9000002   -1    0    0    0    0 -0.00000000000E+00 -0.00000000000E+00  0.00000000000E+00  0.93800000000E+00  0.93800000000E+00 0. -1.
         11    1    1    2    0    0  0.14610575333E+00  0.21294457835E+00  0.90873460195E+00  0.94471748291E+00  0.51100000000E-03 0. -1.
    9000002    1    1    2    0    0 -0.53726574363E+00 -0.77077844305E+00  0.68799425501E+00  0.14953039766E+01  0.93800000000E+00 0. -1.
         22    1    1    2    0    0  0.39115999029E+00  0.55783386471E+00  0.24032711104E+01  0.24979785405E+01  0.00000000000E+00 0. -1.
</event>
<event>
 5    1  0.1160133E+000  0.1599673E+01  0.7818608E-02  0.3353718E+00
         11   -1    0    0    0    0  0.00000000000E+00  0.00000000000E+00  0.39999999674E+01  0.40000000000E+01  0.51100000000E-03 0.  1.
    9000002   -1    0    0    0    0 -0.00000000000E+00 -0.00000000000E+00  0.00000000000E+00  0.93800000000E+00  0.93800000000E+00 0.  1.
         11    1    1    2    0    0  0.25031803866E-01 -0.92979517753E-01  0.33823797178E+00  0.35167736436E+00  0.51100000000E-03 0.  1.
    9000002    1    1    2    0    0 -0.24158833121E+00  0.90085665852E+00  0.67576894314E+00  0.14854007222E+01  0.93800000000E+00 0.  1.
         22    1    1    2    0    0  0.21655652734E+00 -0.80787714076E+00  0.29859930524E+01  0.31009219135E+01  0.00000000000E+00 0.  1.
</event>
<event>
 5    1  0.1160133E+000  0.1502666E+01  0.7818608E-02  0.3466291E+00
         11   -1    0    0    0    0  0.00000000000E+00  0.00000000000E+00  0.39999999674E+01  0.40000000000E+01  0.51100000000E-03 0. -1.
    9000002   -1    0    0    0    0 -0.00000000000E+00 -0.00000000000E+00  0.00000000000E+00  0.93800000000E+00  0.93800000000E+00 0. -1.
         11    1    1    2    0    0  0.47812861640E-01 -0.13385872465E+00  0.48822152123E+00  0.50849261826E+00  0.51100000000E-03 0. -1.
    9000002    1    1    2    0    0  0.22763050372E+00 -0.80886350426E+00  0.67776141504E+00  0.14301329835E+01  0.93800000000E+00 0. -1.
         22    1    1    2    0    0 -0.27544336536E+00  0.94272222892E+00  0.28340170311E+01  0.29993743983E+01  0.00000000000E+00 0. -1.
</event>
<event>
 5    1  0.1160133E+000  0.1597767E+01  0.7818608E-02  0.3355790E+00
         11   -1    0    0    0    0  0.00000000000E+00  0.00000000000E+00  0.39999999674E+01  0.40000000000E+01  0.51100000000E-03 0. -1.
    9000002   -1    0    0    0    0 -0.00000000000E+00 -0.00000000000E+00  0.00000000000E+00  0.93800000000E+00  0.93800000000E+00 0. -1.
         11    1    1    2    0    0 -0.23375369583E-01 -0.22911604877E+00  0.68058706147E+00  0.71849814270E+00  0.51100000000E-03 0. -1.
    9000002    1    1    2    0    0  0.27567482031E+00  0.95821229205E+00  0.80212316445E+00  0.15866357408E+01  0.93800000000E+00 0. -1.
         22    1    1    2    0    0 -0.25229945073E+00 -0.72909624328E+00  0.25172897414E+01  0.26328661165E+01  0.00000000000E+00 0. -1.
</event>
<event>
 5    1  0.1231764E+000  0.1516698E+01  0.7818608E-02  0.3449055E+00
         11   -1    0    0    0    0  0.00000000000E+00  0.00000000000E+00  0.39999999674E+01  0.40000000000E+01  0.51100000000E-03 0. -1.
    9000002   -1    0    0    0    0 -0.00000000000E+00 -0.00000000000E+00  0.00000000000E+00  0.93800000000E+00  0.93800000000E+00 0.  1.
         11    1    1    2    0    0  0.11616143354E+00  0.44118612456E-01  0.12800605097E+01  0.12860774084E+01  0.51100000000E-03 0. -1.
    9000002    1    1    2    0    0  0.28915904674E+00  0.58588526079E+00  0.39526477991E+00  0.12095258324E+01  0.93800000000E+00 0.  1.
         22    1    1    2    0    0 -0.40532048028E+00 -0.63000387325E+00  0.23246746777E+01  0.24423967592E+01  0.00000000000E+00 0. -1.
</event>
<event>
 5    1  0.1160133E+000  0.1599670E+01  0.7818608E-02  0.3353722E+00
         11   -1    0    0    0    0  0.00000000000E+00  0.00000000000E+00  0.39999999674E+01  0.40000000000E+01  0.51100000000E-03 0. -1.
    9000002   -1    0    0    0    0 -0.00000000000E+00 -0.00000000000E+00  0.00000000000E+00  0.93800000000E+00  0.93800000000E+00 0. -1.
         11    1    1    2    0    0  0.15753855231E+00  0.19746169958E-01  0.59707796311E+00  0.61782737221E+00  0.51100000000E-03 0. -1.
    9000002    1    1    2    0    0 -0.89726916421E+00 -0.12307018627E+00  0.62939307394E+00  0.14478321261E+01  0.93800000000E+00 0. -1.
         22    1    1    2    0    0  0.73973061190E+00  0.10332401631E+00  0.27735289303E+01  0.28723405017E+01  0.00000000000E+00 0. -1.
</event>
