<event>
 5    1  0.1166492E+001  0.1352446E+01  0.7818608E-02  0.3686268E+00
         11   -1    0    0    0    0  0.00000000000E+00  0.00000000000E+00  0.39999999674E+01  0.40000000000E+01  0.51100000000E-03 0.  1.
    9000002   -1    0    0    0    0 -0.00000000000E+00 -0.00000000000E+00  0.00000000000E+00  0.93800000000E+00  0.93800000000E+00 0.  1.
         11    1    1    2    0    0 -0.10343167083E+01 -0.35027406308E+00  0.95249409850E+00  0.14490508069E+01  0.51100000000E-03 0.  1.
    9000002    1    1    2    0    0  0.85515684533E+00  0.46386303300E+00  0.19586728508E+01  0.23796439818E+01  0.93800000000E+00 0.  1.
         22    1    1    2    0    0  0.17915986295E+00 -0.11358896992E+00  0.10888330180E+01  0.11093052113E+01  0.00000000000E+00 0. -1.
</event>
<event>
 5    1  0.1166492E+001  0.1509733E+01  0.7818608E-02  0.3457567E+00
         11   -1    0    0    0    0  0.00000000000E+00  0.00000000000E+00  0.39999999674E+01  0.40000000000E+01  0.51100000000E-03 0. -1.
    9000002   -1    0    0    0    0 -0.00000000000E+00 -0.00000000000E+00  0.00000000000E+00  0.93800000000E+00  0.93800000000E+00 0. -1.
         11    1    1    2    0    0 -0.18647567037E+00 -0.16981138098E+00  0.64359255084E+00  0.69124576915E+00  0.51100000000E-03 0. -1.
    9000002    1    1    2    0    0  0.84673766056E-01 -0.23368969739E+00  0.11319587178E+00  0.97695333906E+00  0.93800000000E+00 0. -1.
         22    1    1    2    0    0  0.10180190431E+00  0.40350107837E+00  0.32432115447E+01  0.32698008918E+01  0.00000000000E+00 0.  1.
</event>
<event>
 5    1  0.1166492E+001  0.1531144E+01  0.7818608E-02  0.3431664E+00
         11   -1    0    0    0    0  0.00000000000E+00  0.00000000000E+00  0.39999999674E+01  0.40000000000E+01  0.51100000000E-03 0.  1.
    9000002   -1    0    0    0    0 -0.00000000000E+00 -0.00000000000E+00  0.00000000000E+00  0.93800000000E+00  0.93800000000E+00 0. -1.
         11    1    1    2    0    0 -0.94638139614E-01  0.28375491010E+00  0.14556779823E+01  0.14860928221E+01  0.51100000000E-03 0.  1.
    9000002    1    1    2    0    0  0.21176195541E-01  0.21043666254E-01  0.51970360375E-01  0.93991286059E+00  0.93800000000E+00 0. -1.
         22    1    1    2    0    0  0.73461944073E-01 -0.30479857636E+00  0.24923516246E+01  0.25119943173E+01  0.00000000000E+00 0.  1.
</event>
<event>
 5    1  0.1166492E+001  0.1561890E+01  0.7818608E-02  0.3395795E+00
         11   -1    0    0    0    0  0.00000000000E+00  0.00000000000E+00  0.39999999674E+01  0.40000000000E+01  0.51100000000E-03 0.  1.
    9000002   -1    0    0    0    0 -0.00000000000E+00 -0.00000000000E+00  0.00000000000E+00  0.93800000000E+00  0.93800000000E+00 0. -1.
         11    1    1    2    0    0 -0.17825424528E+00 -0.12388034737E+00  0.14563134957E+01  0.14724028576E+01  0.51100000000E-03 0.  1.
    9000002    1    1    2    0    0  0.22573570543E-01 -0.66388598876E-01  0.31223921840E-01  0.94113545542E+00  0.93800000000E+00 0. -1.
         22    1    1    2    0    0  0.15568067474E+00  0.19026894624E+00  0.25124625499E+01  0.25244616869E+01  0.00000000000E+00 0.  1.
</event>
<event>
 5    1  0.1166492E+001  0.1545589E+01  0.7818608E-02  0.3414622E+00
         11   -1    0    0    0    0  0.00000000000E+00  0.00000000000E+00  0.39999999674E+01  0.40000000000E+01  0.51100000000E-03 0. -1.
    9000002   -1    0    0    0    0 -0.00000000000E+00 -0.00000000000E+00  0.00000000000E+00  0.93800000000E+00  0.93800000000E+00 0. -1.
         11    1    1    2    0    0  0.25590945400E+00 -0.63071399412E-01  0.14700841247E+01  0.14935244374E+01  0.51100000000E-03 0. -1.
    9000002    1    1    2    0    0  0.31606973683E-01  0.62952645504E-01  0.43663794550E-01  0.94165416333E+00  0.93800000000E+00 0. -1.
         22    1    1    2    0    0 -0.28751642769E+00  0.11875390756E-03  0.24862520481E+01  0.25028213993E+01  0.00000000000E+00 0. -1.
</event>
<event>
 5    1  0.1166492E+001  0.1537196E+01  0.7818608E-02  0.3424483E+00
         11   -1    0    0    0    0  0.00000000000E+00  0.00000000000E+00  0.39999999674E+01  0.40000000000E+01  0.51100000000E-03 0.  1.
    9000002   -1    0    0    0    0 -0.00000000000E+00 -0.00000000000E+00  0.00000000000E+00  0.93800000000E+00  0.93800000000E+00 0.  1.
         11    1    1    2    0    0 -0.22875268032E+00 -0.11224310476E+00  0.97515445045E+00  0.10078952161E+01  0.51100000000E-03 0.  1.
    9000002    1    1    2    0    0 -0.65492724315E-01  0.97018185817E-01  0.56275995996E-01  0.94694921355E+00  0.93800000000E+00 0.  1.
         22    1    1    2    0    0  0.29424540464E+00  0.15224918944E-01  0.29685695209E+01  0.29831555703E+01  0.00000000000E+00 0. -1.
</event>
<event>
 5    1  0.1166492E+001  0.1507255E+01  0.7818608E-02  0.3460616E+00
         11   -1    0    0    0    0  0.00000000000E+00  0.00000000000E+00  0.39999999674E+01  0.40000000000E+01  0.51100000000E-03 0. -1.
    9000002   -1    0    0    0    0 -0.00000000000E+00 -0.00000000000E+00  0.00000000000E+00  0.93800000000E+00  0.93800000000E+00 0.  1.
         11    1    1    2    0    0 -0.29403667671E+00  0.33913369778E+00  0.57874502360E+00  0.73240377913E+00  0.51100000000E-03 0. -1.
    9000002    1    1    2    0    0  0.28967299021E+00 -0.13221356120E-01  0.24399742830E+00  0.10116639712E+01  0.93800000000E+00 0.  1.
         22    1    1    2    0    0  0.43636864998E-02 -0.32591234166E+00  0.31772575155E+01  0.31939322497E+01  0.00000000000E+00 0. -1.
</event>
<event>
 5    1  0.1166492E+001  0.1577050E+01  0.7818608E-02  0.3378656E+00
         11   -1    0    0    0    0  0.00000000000E+00  0.00000000000E+00  0.39999999674E+01  0.40000000000E+01  0.51100000000E-03 0. -1.
    9000002   -1    0    0    0    0 -0.00000000000E+00 -0.00000000000E+00  0.00000000000E+00  0.93800000000E+00  0.93800000000E+00 0.  1.
         11    1    1    2    0    0 -0.11627148034E+00  0.17835482473E+00  0.12499641996E+01  0.12679669799E+01  0.51100000000E-03 0. -1.
    9000002    1    1    2    0    0  0.37622217250E+00 -0.28574933243E-01  0.11453116852E+00  0.10175072670E+01  0.93800000000E+00 0.  1.
         22    1    1    2    0    0 -0.25995069217E+00 -0.14977989149E+00  0.26355045993E+01  0.26525257531E+01  0.00000000000E+00 0. -1.
</event>
<event>
 5    1  0.1166492E+001  0.1412600E+01  0.7818608E-02  0.3586890E+00
         11   -1    0    0    0    0  0.00000000000E+00  0.00000000000E+00  0.39999999674E+01  0.40000000000E+01  0.51100000000E-03 0. -1.
    9000002   -1    0    0    0    0 -0.00000000000E+00 -0.00000000000E+00  0.00000000000E+00  0.93800000000E+00  0.93800000000E+00 0. -1.
         11    1    1    2    0    0  0.25484606529E+00 -0.56775653717E+00  0.13553034869E+01  0.14913556938E+01  0.51100000000E-03 0. -1.
    9000002    1    1    2    0    0  0.24157777404E+00  0.51300439395E+00  0.43175536425E+00  0.11780450007E+01  0.93800000000E+00 0. -1.
         22    1    1    2    0    0 -0.49642383933E+00  0.54752143222E-01  0.22129411162E+01  0.22685993055E+01  0.00000000000E+00 0. -1.
</event>
<event>
 5    1  0.1166492E+001  0.1472036E+01  0.7818608E-02  0.3505148E+00
         11   -1    0    0    0    0  0.00000000000E+00  0.00000000000E+00  0.39999999674E+01  0.40000000000E+01  0.51100000000E-03 0.  1.
    9000002   -1    0    0    0    0 -0.00000000000E+00 -0.00000000000E+00  0.00000000000E+00  0.93800000000E+00  0.93800000000E+00 0.  1.
         11    1    1    2    0    0  0.49877754870E+00 -0.15136630376E+00  0.13834836234E+01  0.14784173965E+01  0.51100000000E-03 0.  1.
    9000002    1    1    2    0    0 -0.53061827767E-01  0.17899565340E+00  0.16845234976E+00  0.97112058759E+00  0.93800000000E+00 0.  1.
         22    1    1    2    0    0 -0.44571572093E+00 -0.27629349639E-01  0.24480639942E+01  0.24884620159E+01  0.00000000000E+00 0.  1.
</event>
<event>
 5    1  0.1166492E+001  0.1499864E+01  0.7818608E-02  0.3469775E+00
         11   -1    0    0    0    0  0.00000000000E+00  0.00000000000E+00  0.39999999674E+01  0.40000000000E+01  0.51100000000E-03 0.  1.
    9000002   -1    0    0    0    0 -0.00000000000E+00 -0.00000000000E+00  0.00000000000E+00  0.93800000000E+00  0.93800000000E+00 0. -1.
         11    1    1    2    0    0 -0.14302387314E+00 -0.34050605067E+00  0.11588773272E+01  0.12163046984E+01  0.51100000000E-03 0.  1.
    9000002    1    1    2    0    0  0.12254015174E+00  0.28107964368E-01  0.87601461927E-01  0.95043367079E+00  0.93800000000E+00 0. -1.
         22    1    1    2    0    0  0.20483721409E-01  0.31239808630E+00  0.27535211782E+01  0.27712616308E+01  0.00000000000E+00 0.  1.
</event>
<event>
 5    1  0.1166492E+001  0.1568061E+01  0.7818608E-02  0.3388776E+00
         11   -1    0    0    0    0  0.00000000000E+00  0.00000000000E+00  0.39999999674E+01  0.40000000000E+01  0.51100000000E-03 0. -1.
    9000002   -1    0    0    0    0 -0.00000000000E+00 -0.00000000000E+00  0.00000000000E+00  0.93800000000E+00  0.93800000000E+00 0.  1.
         11    1    1    2    0    0 -0.17331098928E+00  0.10990264637E+00  0.97791529634E+00  0.99921663248E+00  0.51100000000E-03 0. -1.
    9000002    1    1    2    0    0  0.38073664401E+00  0.23733681125E+00  0.16449122606E+00  0.10527062826E+01  0.93800000000E+00 0.  1.
         22    1    1    2    0    0 -0.20742565473E+00 -0.34723945762E+00  0.28575934450E+01  0.28860770849E+01  0.00000000000E+00 0.  1.
</event>
<event>
 5    1  0.1166492E+001  0.1573038E+01  0.7818608E-02  0.3383157E+00
         11   -1    0    0    0    0  0.00000000000E+00  0.00000000000E+00  0.39999999674E+01  0.40000000000E+01  0.51100000000E-03 0.  1.
    9000002   -1    0    0    0    0 -0.00000000000E+00 -0.00000000000E+00  0.00000000000E+00  0.93800000000E+00  0.93800000000E+00 0. -1.
         11    1    1    2    0    0 -0.21937670947E+00 -0.17118182170E+00  0.14290677536E+01  0.14559066804E+01  0.51100000000E-03 0.  1.
    9000002    1    1    2    0    0  0.91723686232E-01  0.35762926462E+00  0.11363655322E+00  0.10144304766E+01  0.93800000000E+00 0. -1.
         22    1    1    2    0    0  0.12765302324E+00 -0.18644744292E+00  0.24572956606E+01  0.24676628430E+01  0.00000000000E+00 0.  1.
</event>
<event>
 5    1  0.1166492E+001  0.1540196E+01  0.7818608E-02  0.3420946E+00
         11   -1    0    0    0    0  0.00000000000E+00  0.00000000000E+00  0.39999999674E+01  0.40000000000E+01  0.51100000000E-03 0. -1.
    9000002   -1    0    0    0    0 -0.00000000000E+00 -0.00000000000E+00  0.00000000000E+00  0.93800000000E+00  0.93800000000E+00 0.  1.
         11    1    1    2    0    0  0.90319395513E-01 -0.16107919686E+00  0.48312081749E+00  0.51721377232E+00  0.51100000000E-03 0. -1.
    9000002    1    1    2    0    0  0.31592226273E+00  0.11632915553E+00  0.12502472607E+00  0.10043975959E+01  0.93800000000E+00 0.  1.
         22    1    1    2    0    0 -0.40624165824E+00  0.44750041335E-01  0.33918544238E+01  0.34163886318E+01  0.00000000000E+00 0. -1.
</event>
<event>
 5    1  0.1166492E+001  0.1501264E+01  0.7818608E-02  0.3468033E+00
         11   -1    0    0    0    0  0.00000000000E+00  0.00000000000E+00  0.39999999674E+01  0.40000000000E+01  0.51100000000E-03 0. -1.
    9000002   -1    0    0    0    0 -0.00000000000E+00 -0.00000000000E+00  0.00000000000E+00  0.93800000000E+00  0.93800000000E+00 0. -1.
         11    1    1    2    0    0 -0.22306513987E+00 -0.33858788772E+00  0.12775199862E+01  0.13403198837E+01  0.51100000000E-03 0. -1.
    9000002    1    1    2    0    0  0.13333617801E-01  0.17519311330E+00  0.97512068963E-01  0.95928255269E+00  0.93800000000E+00 0. -1.
         22    1    1    2    0    0  0.20973152207E+00  0.16339477442E+00  0.26249679122E+01  0.26383975636E+01  0.00000000000E+00 0. -1.
</event>
<event>
 5    1  0.1166492E+001  0.1537297E+01  0.7818608E-02  0.3424364E+00
         11   -1    0    0    0    0  0.00000000000E+00  0.00000000000E+00  0.39999999674E+01  0.40000000000E+01  0.51100000000E-03 0.  1.
    9000002   -1    0    0    0    0 -0.00000000000E+00 -0.00000000000E+00  0.00000000000E+00  0.93800000000E+00  0.93800000000E+00 0.  1.
         11    1    1    2    0    0 -0.11206832204E+00  0.32585110667E+00  0.12882029906E+01  0.13334937040E+01  0.51100000000E-03 0.  1.
    9000002    1    1    2    0    0 -0.17590236895E+00 -0.29554833515E+00  0.13111887603E+00  0.10076341705E+01  0.93800000000E+00 0.  1.
         22    1    1    2    0    0  0.28797069099E+00 -0.30302771518E-01  0.25806781007E+01  0.25968721255E+01  0.00000000000E+00 0.  1.
</event>
<event>
 5    1  0.1166492E+001  0.1583953E+01  0.7818608E-02  0.3370967E+00
         11   -1    0    0    0    0  0.00000000000E+00  0.00000000000E+00  0.39999999674E+01  0.40000000000E+01  0.51100000000E-03 0. -1.
    9000002   -1    0    0    0    0 -0.00000000000E+00 -0.00000000000E+00  0.00000000000E+00  0.93800000000E+00  0.93800000000E+00 0. -1.
         11    1    1    2    0    0  0.56079780238E-01 -0.59021604290E-01  0.14187137964E+01  0.14210480600E+01  0.51100000000E-03 0. -1.
    9000002    1    1    2    0    0 -0.50766639778E+00 -0.71617741837E-02  0.19109701633E+00  0.10835767311E+01  0.93800000000E+00 0. -1.
         22    1    1    2    0    0  0.45158661754E+00  0.66183378473E-01  0.23901891546E+01  0.24333752090E+01  0.00000000000E+00 0. -1.
</event>
<event>
 5    1  0.1166492E+001  0.1504131E+01  0.7818608E-02  0.3464475E+00
         11   -1    0    0    0    0  0.00000000000E+00  0.00000000000E+00  0.39999999674E+01  0.40000000000E+01  0.51100000000E-03 0.  1.
    9000002   -1    0    0    0    0 -0.00000000000E+00 -0.00000000000E+00  0.00000000000E+00  0.93800000000E+00  0.93800000000E+00 0. -1.
         11    1    1    2    0    0 -0.13349015512E-01 -0.33730376292E+00  0.97296016862E+00  0.10298561917E+01  0.51100000000E-03 0.  1.
    9000002    1    1    2    0    0  0.83795050719E-01  0.55148326772E-01  0.79939767804E-01  0.94672980039E+00  0.93800000000E+00 0. -1.
         22    1    1    2    0    0 -0.70446035207E-01  0.28215543615E+00  0.29471000309E+01  0.29614140079E+01  0.00000000000E+00 0.  1.
</event>
<event>
 5    1  0.1166492E+001  0.1535428E+01  0.7818608E-02  0.3426574E+00
         11   -1    0    0    0    0  0.00000000000E+00  0.00000000000E+00  0.39999999674E+01  0.40000000000E+01  0.51100000000E-03 0. -1.
    9000002   -1    0    0    0    0 -0.00000000000E+00 -0.00000000000E+00  0.00000000000E+00  0.93800000000E+00  0.93800000000E+00 0. -1.
         11    1    1    2    0    0  0.41386442542E+00  0.54109371362E+00  0.93159399505E+00  0.11540943645E+01  0.51100000000E-03 0. -1.
    9000002    1    1    2    0    0 -0.75794388877E+00 -0.79419170251E+00  0.12309204568E+01  0.18974268286E+01  0.93800000000E+00 0. -1.
         22    1    1    2    0    0  0.34407946336E+00  0.25309798889E+00  0.18374855155E+01  0.18864788068E+01  0.00000000000E+00 0. -1.
</event>
<event>
 5    1  0.1166492E+001  0.1521449E+01  0.7818608E-02  0.3443297E+00
         11   -1    0    0    0    0  0.00000000000E+00  0.00000000000E+00  0.39999999674E+01  0.40000000000E+01  0.51100000000E-03 0. -1.
    9000002   -1    0    0    0    0 -0.00000000000E+00 -0.00000000000E+00  0.00000000000E+00  0.93800000000E+00  0.93800000000E+00 0. -1.
         11    1    1    2    0    0  0.24199285202E+00 -0.17149477399E+00  0.10672225085E+01  0.11076710440E+01  0.51100000000E-03 0. -1.
    9000002    1    1    2    0    0  0.41850062256E-01  0.38638528606E-01  0.61219474790E-01  0.94171980318E+00  0.93800000000E+00 0. -1.
         22    1    1    2    0    0 -0.28384291428E+00  0.13285624538E+00  0.28715579841E+01  0.28886091528E+01  0.00000000000E+00 0.  1.
</event>
<event>
 5    1  0.1166492E+001  0.1573281E+01  0.7818608E-02  0.3382884E+00
         11   -1    0    0    0    0  0.00000000000E+00  0.00000000000E+00  0.39999999674E+01  0.40000000000E+01  0.51100000000E-03 0. -1.
    9000002   -1    0    0    0    0 -0.00000000000E+00 -0.00000000000E+00  0.00000000000E+00  0.93800000000E+00  0.93800000000E+00 0. -1.
         11    1    1    2    0    0 -0.52621465133E-01 -0.14544771435E+00  0.11468224650E+01  0.11572061543E+01  0.51100000000E-03 0. -1.
    9000002    1    1    2    0    0  0.99766612913E-01 -0.10461377190E+00  0.33508135820E-01  0.94966531657E+00  0.93800000000E+00 0. -1.
         22    1    1    2    0    0 -0.47145147780E-01  0.25006148625E+00  0.28196693665E+01  0.28311285291E+01  0.00000000000E+00 0. -1.
</event>
<event>
 5    1  0.1166492E+001  0.1480414E+01  0.7818608E-02  0.3494347E+00
         11   -1    0    0    0    0  0.00000000000E+00  0.00000000000E+00  0.39999999674E+01  0.40000000000E+01  0.51100000000E-03 0.  1.
    9000002   -1    0    0    0    0 -0.00000000000E+00 -0.00000000000E+00  0.00000000000E+00  0.93800000000E+00  0.93800000000E+00 0. -1.
         11    1    1    2    0    0  0.44755936118E+00 -0.88550033447E-01  0.12661550619E+01  0.13458452333E+01  0.51100000000E-03 0.  1.
    9000002    1    1    2    0    0 -0.16759994985E+00  0.20106816477E+00  0.14356871743E+00  0.98436483414E+00  0.93800000000E+00 0. -1.
         22    1    1    2    0    0 -0.27995941134E+00 -0.11251813132E+00  0.25902761880E+01  0.26077899325E+01  0.00000000000E+00 0.  1.
</event>
<event>
 5    1  0.1166492E+001  0.1554323E+01  0.7818608E-02  0.3404482E+00
         11   -1    0    0    0    0  0.00000000000E+00  0.00000000000E+00  0.39999999674E+01  0.40000000000E+01  0.51100000000E-03 0.  1.
    9000002   -1    0    0    0    0 -0.00000000000E+00 -0.00000000000E+00  0.00000000000E+00  0.93800000000E+00  0.93800000000E+00 0.  1.
         11    1    1    2    0    0  0.13605383426E+00  0.19617854541E+00  0.86530327133E+00  0.89763393430E+00  0.51100000000E-03 0.  1.
    9000002    1    1    2    0    0  0.18399352446E+00 -0.33545945372E+00  0.13680798005E+00  0.10222265334E+01  0.93800000000E+00 0.  1.
         22    1    1    2    0    0 -0.32004735872E+00  0.13928090831E+00  0.29978887160E+01  0.30181395323E+01  0.00000000000E+00 0.  1.
</event>
<event>
 5    1  0.1166492E+001  0.1575810E+01  0.7818608E-02  0.3380044E+00
         11   -1    0    0    0    0  0.00000000000E+00  0.00000000000E+00  0.39999999674E+01  0.40000000000E+01  0.51100000000E-03 0. -1.
    9000002   -1    0    0    0    0 -0.00000000000E+00 -0.00000000000E+00  0.00000000000E+00  0.93800000000E+00  0.93800000000E+00 0.  1.
         11    1    1    2    0    0  0.13843056094E+00 -0.65641035021E-01  0.12024031002E+01  0.12121242685E+01  0.51100000000E-03 0. -1.
    9000002    1    1    2    0    0  0.10506225321E+00  0.16663838510E+00  0.43770677062E-01  0.95946146385E+00  0.93800000000E+00 0.  1.
         22    1    1    2    0    0 -0.24349281415E+00 -0.10099735008E+00  0.27538261901E+01  0.27664142677E+01  0.00000000000E+00 0. -1.
</event>
<event>
 5    1  0.1166492E+001  0.1485098E+01  0.7818608E-02  0.3488365E+00
         11   -1    0    0    0    0  0.00000000000E+00  0.00000000000E+00  0.39999999674E+01  0.40000000000E+01  0.51100000000E-03 0.  1.
    9000002   -1    0    0    0    0 -0.00000000000E+00 -0.00000000000E+00  0.00000000000E+00  0.93800000000E+00  0.93800000000E+00 0. -1.
         11    1    1    2    0    0 -0.82146078448E-01  0.27784621882E+00  0.57296361240E+00  0.64205456293E+00  0.51100000000E-03 0.  1.
    9000002    1    1    2    0    0 -0.17139706070E+00 -0.27566688254E-01  0.11047597869E+00  0.96030506433E+00  0.93800000000E+00 0. -1.
         22    1    1    2    0    0  0.25354313915E+00 -0.25027953056E+00  0.33165603763E+01  0.33356403727E+01  0.00000000000E+00 0.  1.
</event>
<event>
 5    1  0.1166492E+001  0.1449487E+01  0.7818608E-02  0.3534892E+00
         11   -1    0    0    0    0  0.00000000000E+00  0.00000000000E+00  0.39999999674E+01  0.40000000000E+01  0.51100000000E-03 0.  1.
    9000002   -1    0    0    0    0 -0.00000000000E+00 -0.00000000000E+00  0.00000000000E+00  0.93800000000E+00  0.93800000000E+00 0. -1.
         11    1    1    2    0    0  0.32443480450E+00  0.60008379092E-01  0.75764511482E+00  0.82636876094E+00  0.51100000000E-03 0.  1.
    9000002    1    1    2    0    0  0.21848967423E+00  0.15232205949E+00  0.17660383713E+00  0.99094533797E+00  0.93800000000E+00 0. -1.
         22    1    1    2    0    0 -0.54292447874E+00 -0.21233043859E+00  0.30657510154E+01  0.31206859011E+01  0.00000000000E+00 0.  1.
</event>
<event>
 5    1  0.1166492E+001  0.1533987E+01  0.7818608E-02  0.3428283E+00
         11   -1    0    0    0    0  0.00000000000E+00  0.00000000000E+00  0.39999999674E+01  0.40000000000E+01  0.51100000000E-03 0. -1.
    9000002   -1    0    0    0    0 -0.00000000000E+00 -0.00000000000E+00  0.00000000000E+00  0.93800000000E+00  0.93800000000E+00 0.  1.
         11    1    1    2    0    0  0.46077676433E+00  0.13185492682E+00  0.11511703682E+01  0.12469540593E+01  0.51100000000E-03 0. -1.
    9000002    1    1    2    0    0 -0.65806776592E+00  0.62369819071E-01  0.38302806954E+00  0.12097510822E+01  0.93800000000E+00 0.  1.
         22    1    1    2    0    0  0.19729100158E+00 -0.19422474590E+00  0.24658015296E+01  0.24812948585E+01  0.00000000000E+00 0. -1.
</event>
<event>
 5    1  0.1166492E+001  0.1550312E+01  0.7818608E-02  0.3409125E+00
         11   -1    0    0    0    0  0.00000000000E+00  0.00000000000E+00  0.39999999674E+01  0.40000000000E+01  0.51100000000E-03 0.  1.
    9000002   -1    0    0    0    0 -0.00000000000E+00 -0.00000000000E+00  0.00000000000E+00  0.93800000000E+00  0.93800000000E+00 0.  1.
         11    1    1    2    0    0 -0.16478588621E+00 -0.10279699651E+00  0.57786295997E+00  0.60962896290E+00  0.51100000000E-03 0.  1.
    9000002    1    1    2    0    0  0.17984987029E+00 -0.19981186063E+00  0.87148401468E-01  0.97964769145E+00  0.93800000000E+00 0.  1.
         22    1    1    2    0    0 -0.15063984079E-01  0.30260885714E+00  0.33349886059E+01  0.33487233456E+01  0.00000000000E+00 0.  1.
</event>
<event>
 5    1  0.1166492E+001  0.1489622E+01  0.7818608E-02  0.3482627E+00
         11   -1    0    0    0    0  0.00000000000E+00  0.00000000000E+00  0.39999999674E+01  0.40000000000E+01  0.51100000000E-03 0. -1.
    9000002   -1    0    0    0    0 -0.00000000000E+00 -0.00000000000E+00  0.00000000000E+00  0.93800000000E+00  0.93800000000E+00 0.  1.
         11    1    1    2    0    0 -0.13930864685E+00 -0.45994991976E+00  0.93560053094E+00  0.10518124559E+01  0.51100000000E-03 0. -1.
    9000002    1    1    2    0    0  0.15611570849E+00  0.35365167377E-01  0.17723875020E+00  0.96792581538E+00  0.93800000000E+00 0.  1.
         22    1    1    2    0    0 -0.16807061639E-01  0.42458475238E+00  0.28871606862E+01  0.29182617287E+01  0.00000000000E+00 0. -1.
</event>
<event>
 5    1  0.1166492E+001  0.1583571E+01  0.7818608E-02  0.3371391E+00
         11   -1    0    0    0    0  0.00000000000E+00  0.00000000000E+00  0.39999999674E+01  0.40000000000E+01  0.51100000000E-03 0. -1.
    9000002   -1    0    0    0    0 -0.00000000000E+00 -0.00000000000E+00  0.00000000000E+00  0.93800000000E+00  0.93800000000E+00 0. -1.
         11    1    1    2    0    0  0.26624231119E+00  0.31855937200E-01  0.14105027840E+01  0.14357639548E+01  0.51100000000E-03 0. -1.
    9000002    1    1    2    0    0 -0.36111385069E+00 -0.25561646263E+00  0.14675972131E+00  0.10474375423E+01  0.93800000000E+00 0. -1.
         22    1    1    2    0    0  0.94871539494E-01  0.22376052543E+00  0.24427374620E+01  0.24547985030E+01  0.00000000000E+00 0. -1.
</event>
<event>
 5    1  0.1166492E+001  0.1561984E+01  0.7818608E-02  0.3395687E+00
         11   -1    0    0    0    0  0.00000000000E+00  0.00000000000E+00  0.39999999674E+01  0.40000000000E+01  0.51100000000E-03 0. -1.
    9000002   -1    0    0    0    0 -0.00000000000E+00 -0.00000000000E+00  0.00000000000E+00  0.93800000000E+00  0.93800000000E+00 0. -1.
         11    1    1    2    0    0  0.19057070087E+00  0.15122565818E+00  0.14294515329E+01  0.14500063234E+01  0.51100000000E-03 0. -1.
    9000002    1    1    2    0    0  0.41771702978E-01 -0.16806923751E+00  0.48368692799E-01  0.95507888376E+00  0.93800000000E+00 0. -1.
         22    1    1    2    0    0 -0.23234240385E+00  0.16843579333E-01  0.25221797416E+01  0.25329147929E+01  0.00000000000E+00 0. -1.
</event>
<event>
 5    1  0.1166492E+001  0.1491908E+01  0.7818608E-02  0.3479742E+00
         11   -1    0    0    0    0  0.00000000000E+00  0.00000000000E+00  0.39999999674E+01  0.40000000000E+01  0.51100000000E-03 0.  1.
    9000002   -1    0    0    0    0 -0.00000000000E+00 -0.00000000000E+00  0.00000000000E+00  0.93800000000E+00  0.93800000000E+00 0. -1.
         11    1    1    2    0    0 -0.42774438866E+00  0.42721855753E-01  0.12909670391E+01  0.13606566709E+01  0.51100000000E-03 0.  1.
    9000002    1    1    2    0    0  0.20584123296E+00 -0.48279607372E+00  0.29652086314E+00  0.11150028181E+01  0.93800000000E+00 0. -1.
         22    1    1    2    0    0  0.22190315570E+00  0.44007421797E+00  0.24125120652E+01  0.24623405111E+01  0.00000000000E+00 0.  1.
</event>
<event>
 5    1  0.1166492E+001  0.1586551E+01  0.7818608E-02  0.3368091E+00
         11   -1    0    0    0    0  0.00000000000E+00  0.00000000000E+00  0.39999999674E+01  0.40000000000E+01  0.51100000000E-03 0. -1.
    9000002   -1    0    0    0    0 -0.00000000000E+00 -0.00000000000E+00  0.00000000000E+00  0.93800000000E+00  0.93800000000E+00 0. -1.
         11    1    1    2    0    0 -0.61378945447E-01 -0.14803822324E-01  0.12926120417E+01  0.12941532674E+01  0.51100000000E-03 0. -1.
    9000002    1    1    2    0    0  0.40543639829E-01  0.40772440171E+00  0.12446412543E+00  0.10311247708E+01  0.93800000000E+00 0. -1.
         22    1    1    2    0    0  0.20835305618E-01 -0.39292057939E+00  0.25829238002E+01  0.26127219618E+01  0.00000000000E+00 0. -1.
</event>
<event>
 5    1  0.1166492E+001  0.1598753E+01  0.7818608E-02  0.3354718E+00
         11   -1    0    0    0    0  0.00000000000E+00  0.00000000000E+00  0.39999999674E+01  0.40000000000E+01  0.51100000000E-03 0.  1.
    9000002   -1    0    0    0    0 -0.00000000000E+00 -0.00000000000E+00  0.00000000000E+00  0.93800000000E+00  0.93800000000E+00 0. -1.
         11    1    1    2    0    0  0.68362010803E-01  0.14383517460E+00  0.10505145696E+01  0.10625173147E+01  0.51100000000E-03 0.  1.
    9000002    1    1    2    0    0 -0.26117493631E+00 -0.40636750224E+00  0.16011578128E+00  0.10671588249E+01  0.93800000000E+00 0. -1.
         22    1    1    2    0    0  0.19281292551E+00  0.26253232764E+00  0.27893696165E+01  0.28083238604E+01  0.00000000000E+00 0.  1.
</event>
<event>
 5    1  0.1166492E+001  0.1532014E+01  0.7818608E-02  0.3430629E+00
         11   -1    0    0    0    0  0.00000000000E+00  0.00000000000E+00  0.39999999674E+01  0.40000000000E+01  0.51100000000E-03 0.  1.
    9000002   -1    0    0    0    0 -0.00000000000E+00 -0.00000000000E+00  0.00000000000E+00  0.93800000000E+00  0.93800000000E+00 0. -1.
         11    1    1    2    0    0  0.21164258669E+00  0.16656309663E+00  0.11122732846E+01  0.11444159953E+01  0.51100000000E-03 0.  1.
    9000002    1    1    2    0    0  0.65002899348E-01 -0.10607385002E-01  0.53723837226E-01  0.94184295094E+00  0.93800000000E+00 0. -1.
         22    1    1    2    0    0 -0.27664548604E+00 -0.15595571163E+00  0.28340028455E+01  0.28517410537E+01  0.00000000000E+00 0.  1.
</event>
<event>
 5    1  0.1166492E+001  0.1577139E+01  0.7818608E-02  0.3378555E+00
         11   -1    0    0    0    0  0.00000000000E+00  0.00000000000E+00  0.39999999674E+01  0.40000000000E+01  0.51100000000E-03 0.  1.
    9000002   -1    0    0    0    0 -0.00000000000E+00 -0.00000000000E+00  0.00000000000E+00  0.93800000000E+00  0.93800000000E+00 0.  1.
         11    1    1    2    0    0 -0.39273559928E-01  0.16808307474E+00  0.66491777333E+00  0.68695723225E+00  0.51100000000E-03 0.  1.
    9000002    1    1    2    0    0 -0.24184645123E+00 -0.33292953717E+00  0.13354464305E+00  0.10329617391E+01  0.93800000000E+00 0.  1.
         22    1    1    2    0    0  0.28112001116E+00  0.16484646243E+00  0.32015375510E+01  0.32180810287E+01  0.00000000000E+00 0.  1.
</event>
<event>
 5    1  0.1166492E+001  0.1477031E+01  0.7818608E-02  0.3498692E+00
         11   -1    0    0    0    0  0.00000000000E+00  0.00000000000E+00  0.39999999674E+01  0.40000000000E+01  0.51100000000E-03 0.  1.
    9000002   -1    0    0    0    0 -0.00000000000E+00 -0.00000000000E+00  0.00000000000E+00  0.93800000000E+00  0.93800000000E+00 0.  1.
         11    1    1    2    0    0  0.37896080573E+00 -0.25021424824E+00  0.13603505439E+01  0.14341451550E+01  0.51100000000E-03 0.  1.
    9000002    1    1    2    0    0 -0.11534707763E+00  0.85346352380E-01  0.11011051963E+00  0.95527863721E+00  0.93800000000E+00 0.  1.
         22    1    1    2    0    0 -0.26361372810E+00  0.16486789586E+00  0.25295389038E+01  0.25485762077E+01  0.00000000000E+00 0.  1.
</event>
<event>
 5    1  0.1166492E+001  0.1522079E+01  0.7818608E-02  0.3442536E+00
         11   -1    0    0    0    0  0.00000000000E+00  0.00000000000E+00  0.39999999674E+01  0.40000000000E+01  0.51100000000E-03 0. -1.
    9000002   -1    0    0    0    0 -0.00000000000E+00 -0.00000000000E+00  0.00000000000E+00  0.93800000000E+00  0.93800000000E+00 0.  1.
         11    1    1    2    0    0  0.22052548744E+00  0.22127069955E+00  0.14166113944E+01  0.14506482403E+01  0.51100000000E-03 0. -1.
    9000002    1    1    2    0    0 -0.39740097255E-01  0.72371218576E-01  0.63269227695E-01  0.94374989472E+00  0.93800000000E+00 0.  1.
         22    1    1    2    0    0 -0.18078539019E+00 -0.29364191813E+00  0.25201193452E+01  0.25436018650E+01  0.00000000000E+00 0. -1.
</event>
<event>
 5    1  0.1166492E+001  0.1485835E+01  0.7818608E-02  0.3487428E+00
         11   -1    0    0    0    0  0.00000000000E+00  0.00000000000E+00  0.39999999674E+01  0.40000000000E+01  0.51100000000E-03 0.  1.
    9000002   -1    0    0    0    0 -0.00000000000E+00 -0.00000000000E+00  0.00000000000E+00  0.93800000000E+00  0.93800000000E+00 0.  1.
         11    1    1    2    0    0 -0.16306086964E+00 -0.37303412078E+00  0.13566334981E+01  0.14164031953E+01  0.51100000000E-03 0.  1.
    9000002    1    1    2    0    0  0.65089463182E-01  0.33547868774E-01  0.91397751769E-01  0.94528283955E+00  0.93800000000E+00 0.  1.
         22    1    1    2    0    0  0.97971406459E-01  0.33948625201E+00  0.25519687175E+01  0.25763139651E+01  0.00000000000E+00 0. -1.
</event>
<event>
 5    1  0.1166492E+001  0.1575167E+01  0.7818608E-02  0.3380766E+00
         11   -1    0    0    0    0  0.00000000000E+00  0.00000000000E+00  0.39999999674E+01  0.40000000000E+01  0.51100000000E-03 0. -1.
    9000002   -1    0    0    0    0 -0.00000000000E+00 -0.00000000000E+00  0.00000000000E+00  0.93800000000E+00  0.93800000000E+00 0.  1.
         11    1    1    2    0    0  0.22739605022E-01  0.14881719400E+00  0.13675490617E+01  0.13758104318E+01  0.51100000000E-03 0. -1.
    9000002    1    1    2    0    0 -0.12254303940E+00  0.84650164496E-01  0.32954219463E-01  0.95032227556E+00  0.93800000000E+00 0.  1.
         22    1    1    2    0    0  0.99803434374E-01 -0.23346735849E+00  0.25994966862E+01  0.26118672926E+01  0.00000000000E+00 0. -1.
</event>
<event>
 5    1  0.1166492E+001  0.1516612E+01  0.7818608E-02  0.3449160E+00
         11   -1    0    0    0    0  0.00000000000E+00  0.00000000000E+00  0.39999999674E+01  0.40000000000E+01  0.51100000000E-03 0.  1.
    9000002   -1    0    0    0    0 -0.00000000000E+00 -0.00000000000E+00  0.00000000000E+00  0.93800000000E+00  0.93800000000E+00 0. -1.
         11    1    1    2    0    0  0.42540592447E-01  0.25195741629E+00  0.13299617621E+01  0.13542860818E+01  0.51100000000E-03 0.  1.
    9000002    1    1    2    0    0  0.15111124114E+00  0.18499476640E+00  0.10395736436E+00  0.97350336640E+00  0.93800000000E+00 0. -1.
         22    1    1    2    0    0 -0.19365183359E+00 -0.43695218269E+00  0.25660808409E+01  0.26102105518E+01  0.00000000000E+00 0.  1.
</event>
<event>
 5    1  0.1166492E+001  0.1511239E+01  0.7818608E-02  0.3455720E+00
         11   -1    0    0    0    0  0.00000000000E+00  0.00000000000E+00  0.39999999674E+01  0.40000000000E+01  0.51100000000E-03 0.  1.
    9000002   -1    0    0    0    0 -0.00000000000E+00 -0.00000000000E+00  0.00000000000E+00  0.93800000000E+00  0.93800000000E+00 0. -1.
         11    1    1    2    0    0  0.12586461218E+00 -0.34709394222E+00  0.13623566238E+01  0.14114998890E+01  0.51100000000E-03 0.  1.
    9000002    1    1    2    0    0 -0.13932024997E+00  0.40795358407E-01  0.82188440354E-01  0.95271891608E+00  0.93800000000E+00 0. -1.
         22    1    1    2    0    0  0.13455637789E-01  0.30629858382E+00  0.25554549033E+01  0.25737811949E+01  0.00000000000E+00 0.  1.
</event>
<event>
 5    1  0.1166492E+001  0.1567547E+01  0.7818608E-02  0.3389357E+00
         11   -1    0    0    0    0  0.00000000000E+00  0.00000000000E+00  0.39999999674E+01  0.40000000000E+01  0.51100000000E-03 0.  1.
    9000002   -1    0    0    0    0 -0.00000000000E+00 -0.00000000000E+00  0.00000000000E+00  0.93800000000E+00  0.93800000000E+00 0. -1.
         11    1    1    2    0    0 -0.17574553325E-01 -0.90016546207E-01  0.30926871862E+00  0.32258215226E+00  0.51100000000E-03 0.  1.
    9000002    1    1    2    0    0 -0.12820076152E+00 -0.29802568292E+00  0.96320701398E-01  0.99718424599E+00  0.93800000000E+00 0. -1.
         22    1    1    2    0    0  0.14577531485E+00  0.38804222913E+00  0.35944105473E+01  0.36182336018E+01  0.00000000000E+00 0.  1.
</event>
<event>
 5    1  0.1166492E+001  0.1582142E+01  0.7818608E-02  0.3372977E+00
         11   -1    0    0    0    0  0.00000000000E+00  0.00000000000E+00  0.39999999674E+01  0.40000000000E+01  0.51100000000E-03 0.  1.
    9000002   -1    0    0    0    0 -0.00000000000E+00 -0.00000000000E+00  0.00000000000E+00  0.93800000000E+00  0.93800000000E+00 0.  1.
         11    1    1    2    0    0 -0.10527098844E+00 -0.85035218824E-01  0.11443757147E+01  0.11523493424E+01  0.51100000000E-03 0.  1.
    9000002    1    1    2    0    0  0.19165427074E+00 -0.17511827091E+00  0.58386132890E-01  0.97501318392E+00  0.93800000000E+00 0.  1.
         22    1    1    2    0    0 -0.86383282299E-01  0.26015348974E+00  0.27972381198E+01  0.28106374737E+01  0.00000000000E+00 0.  1.
</event>
<event>
 5    1  0.1166492E+001  0.1484452E+01  0.7818608E-02  0.3489189E+00
         11   -1    0    0    0    0  0.00000000000E+00  0.00000000000E+00  0.39999999674E+01  0.40000000000E+01  0.51100000000E-03 0.  1.
    9000002   -1    0    0    0    0 -0.00000000000E+00 -0.00000000000E+00  0.00000000000E+00  0.93800000000E+00  0.93800000000E+00 0. -1.
         11    1    1    2    0    0  0.38965853079E+00  0.15495236750E+00  0.11979177599E+01  0.12691931403E+01  0.51100000000E-03 0.  1.
    9000002    1    1    2    0    0 -0.13713539768E+00 -0.77775574155E-02  0.10259067690E+00  0.95353838658E+00  0.93800000000E+00 0. -1.
         22    1    1    2    0    0 -0.25252313311E+00 -0.14717481008E+00  0.26994915306E+01  0.27152684731E+01  0.00000000000E+00 0.  1.
</event>
<event>
 5    1  0.1166492E+001  0.1492715E+01  0.7818608E-02  0.3478726E+00
         11   -1    0    0    0    0  0.00000000000E+00  0.00000000000E+00  0.39999999674E+01  0.40000000000E+01  0.51100000000E-03 0. -1.
    9000002   -1    0    0    0    0 -0.00000000000E+00 -0.00000000000E+00  0.00000000000E+00  0.93800000000E+00  0.93800000000E+00 0.  1.
         11    1    1    2    0    0  0.40464053452E+00 -0.14514716686E+00  0.13081157871E+01  0.13769418419E+01  0.51100000000E-03 0. -1.
    9000002    1    1    2    0    0 -0.18378420460E+00 -0.12445087436E-01  0.10690041407E+00  0.96187484248E+00  0.93800000000E+00 0.  1.
         22    1    1    2    0    0 -0.22085632992E+00  0.15759225430E+00  0.25849837662E+01  0.25991833157E+01  0.00000000000E+00 0.  1.
</event>
<event>
 5    1  0.1166492E+001  0.1507898E+01  0.7818608E-02  0.3459824E+00
         11   -1    0    0    0    0  0.00000000000E+00  0.00000000000E+00  0.39999999674E+01  0.40000000000E+01  0.51100000000E-03 0. -1.
    9000002   -1    0    0    0    0 -0.00000000000E+00 -0.00000000000E+00  0.00000000000E+00  0.93800000000E+00  0.93800000000E+00 0. -1.
         11    1    1    2    0    0 -0.67145795294E-02  0.40582236444E+00  0.14297837366E+01  0.14862767817E+01  0.51100000000E-03 0. -1.
    9000002    1    1    2    0    0  0.33911695413E+00 -0.19561402285E+00  0.18353856836E+00  0.10328579576E+01  0.93800000000E+00 0. -1.
         22    1    1    2    0    0 -0.33240237460E+00 -0.21020834160E+00  0.23866776624E+01  0.24188652607E+01  0.00000000000E+00 0.  1.
</event>
<event>
 5    1  0.1166492E+001  0.1513337E+01  0.7818608E-02  0.3453152E+00
         11   -1    0    0    0    0  0.00000000000E+00  0.00000000000E+00  0.39999999674E+01  0.40000000000E+01  0.51100000000E-03 0.  1.
    9000002   -1    0    0    0    0 -0.00000000000E+00 -0.00000000000E+00  0.00000000000E+00  0.93800000000E+00  0.93800000000E+00 0.  1.
         11    1    1    2    0    0  0.39106176886E-01 -0.34468789290E+00  0.11401555391E+01  0.11917608615E+01  0.51100000000E-03 0.  1.
    9000002    1    1    2    0    0  0.70838103742E-01  0.94889408751E-01  0.75395205436E-01  0.94844634737E+00  0.93800000000E+00 0.  1.
         22    1    1    2    0    0 -0.10994428063E+00  0.24979848415E+00  0.27844492228E+01  0.27977927911E+01  0.00000000000E+00 0.  1.
</event>
<event>
 5    1  0.1166492E+001  0.1180254E+01  0.7818608E-02  0.4040209E+00
         11   -1    0    0    0    0  0.00000000000E+00  0.00000000000E+00  0.39999999674E+01  0.40000000000E+01  0.51100000000E-03 0. -1.
    9000002   -1    0    0    0    0 -0.00000000000E+00 -0.00000000000E+00  0.00000000000E+00  0.93800000000E+00  0.93800000000E+00 0. -1.
         11    1    1    2    0    0  0.37564246333E+00  0.67052556752E+00  0.62323176271E+00  0.98950992321E+00  0.51100000000E-03 0. -1.
    9000002    1    1    2    0    0 -0.49187648761E+00 -0.23776540102E+00  0.84029423287E+00  0.13727393281E+01  0.93800000000E+00 0. -1.
         22    1    1    2    0    0  0.11623402427E+00 -0.43276016650E+00  0.25364739718E+01  0.25757507487E+01  0.00000000000E+00 0. -1.
</event>
<event>
 5    1  0.1166492E+001  0.1535210E+01  0.7818608E-02  0.3426833E+00
         11   -1    0    0    0    0  0.00000000000E+00  0.00000000000E+00  0.39999999674E+01  0.40000000000E+01  0.51100000000E-03 0. -1.
    9000002   -1    0    0    0    0 -0.00000000000E+00 -0.00000000000E+00  0.00000000000E+00  0.93800000000E+00  0.93800000000E+00 0.  1.
         11    1    1    2    0    0 -0.15140954168E+00 -0.19903920891E+00  0.13312325320E+01  0.13545190184E+01  0.51100000000E-03 0. -1.
    9000002    1    1    2    0    0 -0.72631006802E-01 -0.89674138301E-01  0.57557700977E-01  0.94682289958E+00  0.93800000000E+00 0.  1.
         22    1    1    2    0    0  0.22404054848E+00  0.28871334721E+00  0.26112097344E+01  0.26366580820E+01  0.00000000000E+00 0. -1.
</event>
<event>
 5    1  0.1166492E+001  0.1472834E+01  0.7818608E-02  0.3504113E+00
         11   -1    0    0    0    0  0.00000000000E+00  0.00000000000E+00  0.39999999674E+01  0.40000000000E+01  0.51100000000E-03 0. -1.
    9000002   -1    0    0    0    0 -0.00000000000E+00 -0.00000000000E+00  0.00000000000E+00  0.93800000000E+00  0.93800000000E+00 0. -1.
         11    1    1    2    0    0  0.19154988835E+00  0.38216800789E+00  0.13358206202E+01  0.14025550743E+01  0.51100000000E-03 0. -1.
    9000002    1    1    2    0    0 -0.14104249089E+00  0.22823649670E+00  0.19950559912E+00  0.99580689230E+00  0.93800000000E+00 0. -1.
         22    1    1    2    0    0 -0.50507397459E-01 -0.61040450460E+00  0.24646737480E+01  0.25396380334E+01  0.00000000000E+00 0. -1.
</event>
<event>
 5    1  0.1166492E+001  0.1575899E+01  0.7818608E-02  0.3379944E+00
         11   -1    0    0    0    0  0.00000000000E+00  0.00000000000E+00  0.39999999674E+01  0.40000000000E+01  0.51100000000E-03 0.  1.
    9000002   -1    0    0    0    0 -0.00000000000E+00 -0.00000000000E+00  0.00000000000E+00  0.93800000000E+00  0.93800000000E+00 0.  1.
         11    1    1    2    0    0  0.81167658754E-01 -0.20563577883E+00  0.10108658079E+01  0.10347580418E+01  0.51100000000E-03 0.  1.
    9000002    1    1    2    0    0 -0.41822886301E+00  0.16847736849E+00  0.15894408396E+00  0.10528092075E+01  0.93800000000E+00 0.  1.
         22    1    1    2    0    0  0.33706120426E+00  0.37158410343E-01  0.28301900755E+01  0.28504327508E+01  0.00000000000E+00 0.  1.
</event>
<event>
 5    1  0.1166492E+001  0.1595529E+01  0.7818608E-02  0.3358231E+00
         11   -1    0    0    0    0  0.00000000000E+00  0.00000000000E+00  0.39999999674E+01  0.40000000000E+01  0.51100000000E-03 0. -1.
    9000002   -1    0    0    0    0 -0.00000000000E+00 -0.00000000000E+00  0.00000000000E+00  0.93800000000E+00  0.93800000000E+00 0. -1.
         11    1    1    2    0    0 -0.22415295456E-01 -0.78360173787E-01  0.77476879585E+00  0.77904410046E+00  0.51100000000E-03 0. -1.
    9000002    1    1    2    0    0 -0.17960208383E+00  0.28839630183E+00  0.80637395287E-01  0.10008874687E+01  0.93800000000E+00 0. -1.
         22    1    1    2    0    0  0.20201737929E+00 -0.21003612805E+00  0.31445937762E+01  0.31580684309E+01  0.00000000000E+00 0. -1.
</event>
<event>
 5    1  0.1166492E+001  0.1478471E+01  0.7818608E-02  0.3496840E+00
         11   -1    0    0    0    0  0.00000000000E+00  0.00000000000E+00  0.39999999674E+01  0.40000000000E+01  0.51100000000E-03 0.  1.
    9000002   -1    0    0    0    0 -0.00000000000E+00 -0.00000000000E+00  0.00000000000E+00  0.93800000000E+00  0.93800000000E+00 0.  1.
         11    1    1    2    0    0 -0.27088221604E+00 -0.34177776384E+00  0.13246920678E+01  0.13946320484E+01  0.51100000000E-03 0.  1.
    9000002    1    1    2    0    0 -0.12646790998E+00 -0.96577461134E-01  0.16664962793E+00  0.96588686540E+00  0.93800000000E+00 0.  1.
         22    1    1    2    0    0  0.39735012602E+00  0.43835522498E+00  0.25086582716E+01  0.25774810862E+01  0.00000000000E+00 0.  1.
</event>
<event>
 5    1  0.1166492E+001  0.1548097E+01  0.7818608E-02  0.3411698E+00
         11   -1    0    0    0    0  0.00000000000E+00  0.00000000000E+00  0.39999999674E+01  0.40000000000E+01  0.51100000000E-03 0.  1.
    9000002   -1    0    0    0    0 -0.00000000000E+00 -0.00000000000E+00  0.00000000000E+00  0.93800000000E+00  0.93800000000E+00 0.  1.
         11    1    1    2    0    0  0.45859822690E+00 -0.28415811194E+00  0.78556584288E+00  0.95298065086E+00  0.51100000000E-03 0.  1.
    9000002    1    1    2    0    0 -0.16056397447E+00  0.34189318667E-01  0.23569874141E+00  0.98099316823E+00  0.93800000000E+00 0.  1.
         22    1    1    2    0    0 -0.29803425243E+00  0.24996879327E+00  0.29787353831E+01  0.30040261809E+01  0.00000000000E+00 0.  1.
</event>
<event>
 5    1  0.1166492E+001  0.1497723E+01  0.7818608E-02  0.3472445E+00
         11   -1    0    0    0    0  0.00000000000E+00  0.00000000000E+00  0.39999999674E+01  0.40000000000E+01  0.51100000000E-03 0.  1.
    9000002   -1    0    0    0    0 -0.00000000000E+00 -0.00000000000E+00  0.00000000000E+00  0.93800000000E+00  0.93800000000E+00 0.  1.
         11    1    1    2    0    0 -0.31860090467E+00  0.15433183941E+00  0.34909418093E+00  0.49718393115E+00  0.51100000000E-03 0.  1.
    9000002    1    1    2    0    0  0.24305670526E+00  0.15110100137E+00  0.23238527762E+00  0.10078467105E+01  0.93800000000E+00 0.  1.
         22    1    1    2    0    0  0.75544199417E-01 -0.30543284078E+00  0.34185205088E+01  0.34329693584E+01  0.00000000000E+00 0.  1.
</event>
<event>
 5    1  0.1166492E+001  0.1531499E+01  0.7818608E-02  0.3431241E+00
         11   -1    0    0    0    0  0.00000000000E+00  0.00000000000E+00  0.39999999674E+01  0.40000000000E+01  0.51100000000E-03 0. -1.
    9000002   -1    0    0    0    0 -0.00000000000E+00 -0.00000000000E+00  0.00000000000E+00  0.93800000000E+00  0.93800000000E+00 0.  1.
         11    1    1    2    0    0  0.18393605262E+00 -0.10683234648E+00  0.80651608626E+00  0.83409476693E+00  0.51100000000E-03 0. -1.
    9000002    1    1    2    0    0  0.64187975231E-01 -0.26504402156E+00  0.10412956414E+00  0.98237233046E+00  0.93800000000E+00 0.  1.
         22    1    1    2    0    0 -0.24812402785E+00  0.37187636804E+00  0.30893543170E+01  0.31215329026E+01  0.00000000000E+00 0. -1.
</event>
<event>
 5    1  0.1166492E+001  0.1560899E+01  0.7818608E-02  0.3396927E+00
         11   -1    0    0    0    0  0.00000000000E+00  0.00000000000E+00  0.39999999674E+01  0.40000000000E+01  0.51100000000E-03 0. -1.
    9000002   -1    0    0    0    0 -0.00000000000E+00 -0.00000000000E+00  0.00000000000E+00  0.93800000000E+00  0.93800000000E+00 0. -1.
         11    1    1    2    0    0  0.20686639416E+00 -0.30291341062E-01  0.14380928541E+01  0.14532111301E+01  0.51100000000E-03 0. -1.
    9000002    1    1    2    0    0  0.48671366435E-01 -0.23459749274E-01  0.30604844595E-01  0.94005314651E+00  0.93800000000E+00 0. -1.
         22    1    1    2    0    0 -0.25553776059E+00  0.53751090335E-01  0.25313022686E+01  0.25447357234E+01  0.00000000000E+00 0. -1.
</event>
<event>
 5    1  0.1166492E+001  0.1548791E+01  0.7818608E-02  0.3410891E+00
         11   -1    0    0    0    0  0.00000000000E+00  0.00000000000E+00  0.39999999674E+01  0.40000000000E+01  0.51100000000E-03 0. -1.
    9000002   -1    0    0    0    0 -0.00000000000E+00 -0.00000000000E+00  0.00000000000E+00  0.93800000000E+00  0.93800000000E+00 0. -1.
         11    1    1    2    0    0 -0.97671417089E-02 -0.21108417094E+00  0.14685908524E+01  0.14837153626E+01  0.51100000000E-03 0. -1.
    9000002    1    1    2    0    0 -0.74407485913E-01 -0.13066434858E+00  0.53475277048E-01  0.95147950646E+00  0.93800000000E+00 0. -1.
         22    1    1    2    0    0  0.84174627622E-01  0.34174851951E+00  0.24779338379E+01  0.25028051309E+01  0.00000000000E+00 0. -1.
</event>
<event>
 5    1  0.1166492E+001  0.1472199E+01  0.7818608E-02  0.3504937E+00
         11   -1    0    0    0    0  0.00000000000E+00  0.00000000000E+00  0.39999999674E+01  0.40000000000E+01  0.51100000000E-03 0.  1.
    9000002   -1    0    0    0    0 -0.00000000000E+00 -0.00000000000E+00  0.00000000000E+00  0.93800000000E+00  0.93800000000E+00 0. -1.
         11    1    1    2    0    0 -0.25366442175E+00 -0.32606813689E+00  0.56976398719E+00  0.70377363617E+00  0.51100000000E-03 0.  1.
    9000002    1    1    2    0    0 -0.72855222896E-01  0.35727675201E+00  0.24979590599E+00  0.10369168509E+01  0.93800000000E+00 0. -1.
         22    1    1    2    0    0  0.32651964465E+00 -0.31208615122E-01  0.31804400742E+01  0.31973095129E+01  0.00000000000E+00 0.  1.
</event>
<event>
 5    1  0.1166492E+001  0.1565423E+01  0.7818608E-02  0.3391769E+00
         11   -1    0    0    0    0  0.00000000000E+00  0.00000000000E+00  0.39999999674E+01  0.40000000000E+01  0.51100000000E-03 0.  1.
    9000002   -1    0    0    0    0 -0.00000000000E+00 -0.00000000000E+00  0.00000000000E+00  0.93800000000E+00  0.93800000000E+00 0. -1.
         11    1    1    2    0    0 -0.57363869622E-01 -0.15674518102E+00  0.13343784133E+01  0.13447771846E+01  0.51100000000E-03 0.  1.
    9000002    1    1    2    0    0  0.11619898178E-02 -0.13626723727E+00  0.37886028174E-01  0.94860395387E+00  0.93800000000E+00 0. -1.
         22    1    1    2    0    0  0.56201879804E-01  0.29301241828E+00  0.26277355259E+01  0.26446188615E+01  0.00000000000E+00 0.  1.
</event>
<event>
 5    1  0.1166492E+001  0.1528147E+01  0.7818608E-02  0.3435243E+00
         11   -1    0    0    0    0  0.00000000000E+00  0.00000000000E+00  0.39999999674E+01  0.40000000000E+01  0.51100000000E-03 0. -1.
    9000002   -1    0    0    0    0 -0.00000000000E+00 -0.00000000000E+00  0.00000000000E+00  0.93800000000E+00  0.93800000000E+00 0. -1.
         11    1    1    2    0    0 -0.21975942248E-02  0.32868117035E+00  0.13473116893E+01  0.13868255804E+01  0.51100000000E-03 0. -1.
    9000002    1    1    2    0    0 -0.46261018281E-01 -0.67839905869E-01  0.58443617649E-01  0.94339916848E+00  0.93800000000E+00 0. -1.
         22    1    1    2    0    0  0.48458612506E-01 -0.26084126448E+00  0.25942446604E+01  0.26077752511E+01  0.00000000000E+00 0. -1.
</event>
<event>
 5    1  0.1166492E+001  0.1618539E+01  0.7818608E-02  0.3333484E+00
         11   -1    0    0    0    0  0.00000000000E+00  0.00000000000E+00  0.39999999674E+01  0.40000000000E+01  0.51100000000E-03 0. -1.
    9000002   -1    0    0    0    0 -0.00000000000E+00 -0.00000000000E+00  0.00000000000E+00  0.93800000000E+00  0.93800000000E+00 0.  1.
         11    1    1    2    0    0  0.29670829618E+00 -0.38532195909E+00  0.36370264855E+00  0.60727975667E+00  0.51100000000E-03 0. -1.
    9000002    1    1    2    0    0  0.97591876053E-01  0.33893224802E+00  0.41434783343E+00  0.10844018490E+01  0.93800000000E+00 0.  1.
         22    1    1    2    0    0 -0.39430017223E+00  0.46389711074E-01  0.32219494854E+01  0.32463183943E+01  0.00000000000E+00 0. -1.
</event>
<event>
 5    1  0.1166492E+001  0.1472189E+01  0.7818608E-02  0.3504950E+00
         11   -1    0    0    0    0  0.00000000000E+00  0.00000000000E+00  0.39999999674E+01  0.40000000000E+01  0.51100000000E-03 0.  1.
    9000002   -1    0    0    0    0 -0.00000000000E+00 -0.00000000000E+00  0.00000000000E+00  0.93800000000E+00  0.93800000000E+00 0. -1.
         11    1    1    2    0    0 -0.34090532562E+00  0.41330635709E-01  0.67669598756E+00  0.75884279214E+00  0.51100000000E-03 0.  1.
    9000002    1    1    2    0    0  0.10349699172E+00  0.23759968069E+00  0.14982528497E+00  0.98460999973E+00  0.93800000000E+00 0. -1.
         22    1    1    2    0    0  0.23740833391E+00 -0.27893031640E+00  0.31734786948E+01  0.31945472081E+01  0.00000000000E+00 0.  1.
</event>
<event>
 5    1  0.1166492E+001  0.1572002E+01  0.7818608E-02  0.3384324E+00
         11   -1    0    0    0    0  0.00000000000E+00  0.00000000000E+00  0.39999999674E+01  0.40000000000E+01  0.51100000000E-03 0.  1.
    9000002   -1    0    0    0    0 -0.00000000000E+00 -0.00000000000E+00  0.00000000000E+00  0.93800000000E+00  0.93800000000E+00 0. -1.
         11    1    1    2    0    0 -0.57792495089E-01 -0.88594219648E-01  0.93387488873E+00  0.93984651788E+00  0.51100000000E-03 0.  1.
    9000002    1    1    2    0    0 -0.24006591979E+00 -0.15686934627E+00  0.76632166417E-01  0.98384761349E+00  0.93800000000E+00 0. -1.
         22    1    1    2    0    0  0.29785841488E+00  0.24546356592E+00  0.29894929122E+01  0.30143058686E+01  0.00000000000E+00 0.  1.
</event>
<event>
 5    1  0.1166492E+001  0.1486942E+01  0.7818608E-02  0.3486022E+00
         11   -1    0    0    0    0  0.00000000000E+00  0.00000000000E+00  0.39999999674E+01  0.40000000000E+01  0.51100000000E-03 0. -1.
    9000002   -1    0    0    0    0 -0.00000000000E+00 -0.00000000000E+00  0.00000000000E+00  0.93800000000E+00  0.93800000000E+00 0. -1.
         11    1    1    2    0    0 -0.38282576851E+00 -0.14997545658E+00  0.12207959275E+01  0.12881735769E+01  0.51100000000E-03 0. -1.
    9000002    1    1    2    0    0  0.14617531671E+00 -0.60547994860E-01  0.10511069481E+00  0.95703998927E+00  0.93800000000E+00 0. -1.
         22    1    1    2    0    0  0.23665045180E+00  0.21052345144E+00  0.26740933451E+01  0.26927864338E+01  0.00000000000E+00 0. -1.
</event>
<event>
 5    1  0.1166492E+001  0.1533038E+01  0.7818608E-02  0.3429411E+00
         11   -1    0    0    0    0  0.00000000000E+00  0.00000000000E+00  0.39999999674E+01  0.40000000000E+01  0.51100000000E-03 0. -1.
    9000002   -1    0    0    0    0 -0.00000000000E+00 -0.00000000000E+00  0.00000000000E+00  0.93800000000E+00  0.93800000000E+00 0.  1.
         11    1    1    2    0    0  0.22885122560E+00  0.15244925771E+00  0.12899632817E+01  0.13189462418E+01  0.51100000000E-03 0. -1.
    9000002    1    1    2    0    0  0.78814855207E-01 -0.30971633026E-01  0.54923058283E-01  0.94341484289E+00  0.93800000000E+00 0.  1.
         22    1    1    2    0    0 -0.30766608081E+00 -0.12147762468E+00  0.26551136274E+01  0.26756389153E+01  0.00000000000E+00 0. -1.
</event>
<event>
 5    1  0.1166492E+001  0.1545484E+01  0.7818608E-02  0.3414745E+00
         11   -1    0    0    0    0  0.00000000000E+00  0.00000000000E+00  0.39999999674E+01  0.40000000000E+01  0.51100000000E-03 0.  1.
    9000002   -1    0    0    0    0 -0.00000000000E+00 -0.00000000000E+00  0.00000000000E+00  0.93800000000E+00  0.93800000000E+00 0. -1.
         11    1    1    2    0    0  0.21951365079E+00 -0.78168652189E-01  0.10023444905E+01  0.10290730391E+01  0.51100000000E-03 0.  1.
    9000002    1    1    2    0    0  0.51168470301E-01  0.13565678501E-01  0.42243159055E-01  0.94044177091E+00  0.93800000000E+00 0. -1.
         22    1    1    2    0    0 -0.27068212109E+00  0.64602973688E-01  0.29554123178E+01  0.29684851900E+01  0.00000000000E+00 0.  1.
</event>
<event>
 5    1  0.1166492E+001  0.1511497E+01  0.7818608E-02  0.3455404E+00
         11   -1    0    0    0    0  0.00000000000E+00  0.00000000000E+00  0.39999999674E+01  0.40000000000E+01  0.51100000000E-03 0. -1.
    9000002   -1    0    0    0    0 -0.00000000000E+00 -0.00000000000E+00  0.00000000000E+00  0.93800000000E+00  0.93800000000E+00 0. -1.
         11    1    1    2    0    0 -0.54525913592E-01 -0.25944391808E+00  0.65419050213E+00  0.70586804439E+00  0.51100000000E-03 0. -1.
    9000002    1    1    2    0    0 -0.11122759842E+00  0.71006459049E-03  0.75681048750E-01  0.94759891514E+00  0.93800000000E+00 0. -1.
         22    1    1    2    0    0  0.16575351201E+00  0.25873385349E+00  0.32701284165E+01  0.32845330405E+01  0.00000000000E+00 0. -1.
</event>
<event>
 5    1  0.1166492E+001  0.1507948E+01  0.7818608E-02  0.3459762E+00
         11   -1    0    0    0    0  0.00000000000E+00  0.00000000000E+00  0.39999999674E+01  0.40000000000E+01  0.51100000000E-03 0. -1.
    9000002   -1    0    0    0    0 -0.00000000000E+00 -0.00000000000E+00  0.00000000000E+00  0.93800000000E+00  0.93800000000E+00 0. -1.
         11    1    1    2    0    0 -0.11964420634E+00  0.17428299498E+00  0.21502866266E+00  0.30154085185E+00  0.51100000000E-03 0. -1.
    9000002    1    1    2    0    0 -0.73836802023E-01 -0.55351569071E+00  0.30902288709E+00  0.11345354282E+01  0.93800000000E+00 0. -1.
         22    1    1    2    0    0  0.19348100836E+00  0.37923269573E+00  0.34759484176E+01  0.35019237199E+01  0.00000000000E+00 0. -1.
</event>
<event>
 5    1  0.1166492E+001  0.1571712E+01  0.7818608E-02  0.3384650E+00
         11   -1    0    0    0    0  0.00000000000E+00  0.00000000000E+00  0.39999999674E+01  0.40000000000E+01  0.51100000000E-03 0. -1.
    9000002   -1    0    0    0    0 -0.00000000000E+00 -0.00000000000E+00  0.00000000000E+00  0.93800000000E+00  0.93800000000E+00 0.  1.
         11    1    1    2    0    0 -0.11064671049E+00  0.88255108240E-01  0.13758185241E+01  0.13830793655E+01  0.51100000000E-03 0. -1.
    9000002    1    1    2    0    0 -0.95481272628E-01  0.11045689248E+00  0.34982498082E-01  0.94993956318E+00  0.93800000000E+00 0.  1.
         22    1    1    2    0    0  0.20612798312E+00 -0.19871200072E+00  0.25891989451E+01  0.26049810714E+01  0.00000000000E+00 0. -1.
</event>
<event>
 5    1  0.1166492E+001  0.1448207E+01  0.7818608E-02  0.3536611E+00
         11   -1    0    0    0    0  0.00000000000E+00  0.00000000000E+00  0.39999999674E+01  0.40000000000E+01  0.51100000000E-03 0. -1.
    9000002   -1    0    0    0    0 -0.00000000000E+00 -0.00000000000E+00  0.00000000000E+00  0.93800000000E+00  0.93800000000E+00 0. -1.
         11    1    1    2    0    0 -0.63067402905E+00 -0.32068579527E-01  0.11526861212E+01  0.13143301259E+01  0.51100000000E-03 0. -1.
    9000002    1    1    2    0    0  0.60572717968E+00 -0.32865672446E+00  0.53107427337E+00  0.12793766226E+01  0.93800000000E+00 0. -1.
         22    1    1    2    0    0  0.24946849373E-01  0.36072530399E+00  0.23162395728E+01  0.23442932515E+01  0.00000000000E+00 0.  1.
</event>
<event>
 5    1  0.1166492E+001  0.1552604E+01  0.7818608E-02  0.3406469E+00
         11   -1    0    0    0    0  0.00000000000E+00  0.00000000000E+00  0.39999999674E+01  0.40000000000E+01  0.51100000000E-03 0. -1.
    9000002   -1    0    0    0    0 -0.00000000000E+00 -0.00000000000E+00  0.00000000000E+00  0.93800000000E+00  0.93800000000E+00 0.  1.
         11    1    1    2    0    0 -0.13065833168E+00 -0.18990048063E+00  0.12702778170E+01  0.12910227673E+01  0.51100000000E-03 0. -1.
    9000002    1    1    2    0    0  0.58011175889E-01 -0.83394528598E-01  0.41999828708E-01  0.94441936106E+00  0.93800000000E+00 0.  1.
         22    1    1    2    0    0  0.72647155793E-01  0.27329500923E+00  0.26877223217E+01  0.27025578717E+01  0.00000000000E+00 0. -1.
</event>
<event>
 5    1  0.1166492E+001  0.1459993E+01  0.7818608E-02  0.3520909E+00
         11   -1    0    0    0    0  0.00000000000E+00  0.00000000000E+00  0.39999999674E+01  0.40000000000E+01  0.51100000000E-03 0. -1.
    9000002   -1    0    0    0    0 -0.00000000000E+00 -0.00000000000E+00  0.00000000000E+00  0.93800000000E+00  0.93800000000E+00 0.  1.
         11    1    1    2    0    0  0.27008927318E+00 -0.16167995724E+00  0.55085752395E+00  0.63445480286E+00  0.51100000000E-03 0. -1.
    9000002    1    1    2    0    0 -0.10950840412E+00 -0.25627648009E+00  0.16903395878E+00  0.99301873298E+00  0.93800000000E+00 0.  1.
         22    1    1    2    0    0 -0.16058086906E+00  0.41795643733E+00  0.32801084846E+01  0.33105264642E+01  0.00000000000E+00 0. -1.
</event>
<event>
 5    1  0.1166492E+001  0.1510530E+01  0.7818608E-02  0.3456589E+00
         11   -1    0    0    0    0  0.00000000000E+00  0.00000000000E+00  0.39999999674E+01  0.40000000000E+01  0.51100000000E-03 0.  1.
    9000002   -1    0    0    0    0 -0.00000000000E+00 -0.00000000000E+00  0.00000000000E+00  0.93800000000E+00  0.93800000000E+00 0. -1.
         11    1    1    2    0    0  0.34900594800E+00  0.10289861020E+00  0.13137795992E+01  0.13632352593E+01  0.51100000000E-03 0.  1.
    9000002    1    1    2    0    0 -0.50845599175E-01 -0.86249817421E-01  0.74760418393E-01  0.94628612276E+00  0.93800000000E+00 0. -1.
         22    1    1    2    0    0 -0.29816034883E+00 -0.16648792781E-01  0.26114599497E+01  0.26284786179E+01  0.00000000000E+00 0.  1.
</event>
<event>
 5    1  0.1166492E+001  0.1494734E+01  0.7818608E-02  0.3476188E+00
         11   -1    0    0    0    0  0.00000000000E+00  0.00000000000E+00  0.39999999674E+01  0.40000000000E+01  0.51100000000E-03 0.  1.
    9000002   -1    0    0    0    0 -0.00000000000E+00 -0.00000000000E+00  0.00000000000E+00  0.93800000000E+00  0.93800000000E+00 0. -1.
         11    1    1    2    0    0  0.14746896315E+00 -0.12018519487E+00  0.25626256260E+00  0.31915879789E+00  0.51100000000E-03 0.  1.
    9000002    1    1    2    0    0  0.59238654045E-01 -0.20099581233E+00  0.11262601096E+00  0.96769682910E+00  0.93800000000E+00 0. -1.
         22    1    1    2    0    0 -0.20670761720E+00  0.32118100720E+00  0.36311113938E+01  0.36511443730E+01  0.00000000000E+00 0.  1.
</event>
<event>
 5    1  0.1166492E+001  0.1527125E+01  0.7818608E-02  0.3436468E+00
         11   -1    0    0    0    0  0.00000000000E+00  0.00000000000E+00  0.39999999674E+01  0.40000000000E+01  0.51100000000E-03 0.  1.
    9000002   -1    0    0    0    0 -0.00000000000E+00 -0.00000000000E+00  0.00000000000E+00  0.93800000000E+00  0.93800000000E+00 0.  1.
         11    1    1    2    0    0 -0.25452553104E+00 -0.14814285360E+00  0.10986605849E+01  0.11374466550E+01  0.51100000000E-03 0.  1.
    9000002    1    1    2    0    0  0.22284156662E-01 -0.16601283087E-01  0.55015763826E-01  0.94002282978E+00  0.93800000000E+00 0.  1.
         22    1    1    2    0    0  0.23224137438E+00  0.16474413669E+00  0.28463236186E+01  0.28605305152E+01  0.00000000000E+00 0.  1.
</event>
<event>
 5    1  0.1166492E+001  0.1514360E+01  0.7818608E-02  0.3451903E+00
         11   -1    0    0    0    0  0.00000000000E+00  0.00000000000E+00  0.39999999674E+01  0.40000000000E+01  0.51100000000E-03 0. -1.
    9000002   -1    0    0    0    0 -0.00000000000E+00 -0.00000000000E+00  0.00000000000E+00  0.93800000000E+00  0.93800000000E+00 0. -1.
         11    1    1    2    0    0 -0.27634035293E+00 -0.91558152493E-01  0.82653217605E+00  0.87630051074E+00  0.51100000000E-03 0. -1.
    9000002    1    1    2    0    0 -0.36195503319E-01  0.17615696466E+00  0.87822672994E-01  0.95911324282E+00  0.93800000000E+00 0. -1.
         22    1    1    2    0    0  0.31253585625E+00 -0.84598812164E-01  0.30856451183E+01  0.31025862464E+01  0.00000000000E+00 0. -1.
</event>
<event>
 5    1  0.1166492E+001  0.1507391E+01  0.7818608E-02  0.3460449E+00
         11   -1    0    0    0    0  0.00000000000E+00  0.00000000000E+00  0.39999999674E+01  0.40000000000E+01  0.51100000000E-03 0.  1.
    9000002   -1    0    0    0    0 -0.00000000000E+00 -0.00000000000E+00  0.00000000000E+00  0.93800000000E+00  0.93800000000E+00 0. -1.
         11    1    1    2    0    0 -0.16957123998E+00 -0.22260274539E+00  0.65762423945E+00  0.71468614728E+00  0.51100000000E-03 0.  1.
    9000002    1    1    2    0    0 -0.12467439187E+00  0.12652296272E+00  0.92956964880E-01  0.95918546768E+00  0.93800000000E+00 0. -1.
         22    1    1    2    0    0  0.29424563185E+00  0.96079782675E-01  0.32494187630E+01  0.32641283850E+01  0.00000000000E+00 0.  1.
</event>
<event>
 5    1  0.1166492E+001  0.1467631E+01  0.7818608E-02  0.3510880E+00
         11   -1    0    0    0    0  0.00000000000E+00  0.00000000000E+00  0.39999999674E+01  0.40000000000E+01  0.51100000000E-03 0. -1.
    9000002   -1    0    0    0    0 -0.00000000000E+00 -0.00000000000E+00  0.00000000000E+00  0.93800000000E+00  0.93800000000E+00 0. -1.
         11    1    1    2    0    0 -0.45477299392E+00 -0.34679827445E-01  0.11328600619E+01  0.12212261656E+01  0.51100000000E-03 0. -1.
    9000002    1    1    2    0    0  0.19499860236E+00 -0.91978298067E-01  0.13791614784E+00  0.97229076210E+00  0.93800000000E+00 0. -1.
         22    1    1    2    0    0  0.25977439156E+00  0.12665812551E+00  0.27292237576E+01  0.27444830723E+01  0.00000000000E+00 0. -1.
</event>
<event>
 5    1  0.1166492E+001  0.1501268E+01  0.7818608E-02  0.3468027E+00
         11   -1    0    0    0    0  0.00000000000E+00  0.00000000000E+00  0.39999999674E+01  0.40000000000E+01  0.51100000000E-03 0. -1.
    9000002   -1    0    0    0    0 -0.00000000000E+00 -0.00000000000E+00  0.00000000000E+00  0.93800000000E+00  0.93800000000E+00 0. -1.
         11    1    1    2    0    0 -0.27263042685E+00 -0.59739017260E+00  0.12884002449E+01  0.14460905297E+01  0.51100000000E-03 0. -1.
    9000002    1    1    2    0    0  0.48673981793E+00  0.61064249615E+00  0.58313260763E+00  0.13526594348E+01  0.93800000000E+00 0. -1.
         22    1    1    2    0    0 -0.21410939108E+00 -0.13252323550E-01  0.21284671148E+01  0.21392500355E+01  0.00000000000E+00 0. -1.
</event>
<event>
 5    1  0.1166492E+001  0.1562794E+01  0.7818608E-02  0.3394763E+00
         11   -1    0    0    0    0  0.00000000000E+00  0.00000000000E+00  0.39999999674E+01  0.40000000000E+01  0.51100000000E-03 0.  1.
    9000002   -1    0    0    0    0 -0.00000000000E+00 -0.00000000000E+00  0.00000000000E+00  0.93800000000E+00  0.93800000000E+00 0.  1.
         11    1    1    2    0    0 -0.34548666723E-01  0.13706882342E-01  0.18406873966E-01  0.41479671238E-01  0.51100000000E-03 0.  1.
    9000002    1    1    2    0    0 -0.35876967272E+00  0.28122756433E+00  0.17399813488E+00  0.10573192384E+01  0.93800000000E+00 0.  1.
         22    1    1    2    0    0  0.39331833944E+00 -0.29493444667E+00  0.38075949585E+01  0.38392010903E+01  0.00000000000E+00 0.  1.
</event>
<event>
 5    1  0.1166492E+001  0.1567488E+01  0.7818608E-02  0.3389425E+00
         11   -1    0    0    0    0  0.00000000000E+00  0.00000000000E+00  0.39999999674E+01  0.40000000000E+01  0.51100000000E-03 0. -1.
    9000002   -1    0    0    0    0 -0.00000000000E+00 -0.00000000000E+00  0.00000000000E+00  0.93800000000E+00  0.93800000000E+00 0. -1.
         11    1    1    2    0    0  0.18444160541E+00  0.21989029869E-01  0.12915364595E+01  0.13048252414E+01  0.51100000000E-03 0. -1.
    9000002    1    1    2    0    0  0.47179722276E-01 -0.16757847509E+00  0.44348066287E-01  0.95504932987E+00  0.93800000000E+00 0. -1.
         22    1    1    2    0    0 -0.23162132769E+00  0.14558944522E+00  0.26641154416E+01  0.26781254287E+01  0.00000000000E+00 0. -1.
</event>
<event>
 5    1  0.1166492E+001  0.1466963E+01  0.7818608E-02  0.3511754E+00
         11   -1    0    0    0    0  0.00000000000E+00  0.00000000000E+00  0.39999999674E+01  0.40000000000E+01  0.51100000000E-03 0.  1.
    9000002   -1    0    0    0    0 -0.00000000000E+00 -0.00000000000E+00  0.00000000000E+00  0.93800000000E+00  0.93800000000E+00 0.  1.
         11    1    1    2    0    0  0.12091469705E+00  0.38809952786E+00  0.12686449500E+01  0.13321793714E+01  0.51100000000E-03 0.  1.
    9000002    1    1    2    0    0  0.16344115657E-01  0.19167878287E+00  0.16552719780E+00  0.97172585595E+00  0.93800000000E+00 0.  1.
         22    1    1    2    0    0 -0.13725881271E+00 -0.57977831073E+00  0.25658278196E+01  0.26340947726E+01  0.00000000000E+00 0.  1.
</event>
<event>
 5    1  0.1166492E+001  0.1545243E+01  0.7818608E-02  0.3415027E+00
         11   -1    0    0    0    0  0.00000000000E+00  0.00000000000E+00  0.39999999674E+01  0.40000000000E+01  0.51100000000E-03 0. -1.
    9000002   -1    0    0    0    0 -0.00000000000E+00 -0.00000000000E+00  0.00000000000E+00  0.93800000000E+00  0.93800000000E+00 0. -1.
         11    1    1    2    0    0  0.19228240825E+00 -0.16709932659E+00  0.12417912710E+01  0.12676515812E+01  0.51100000000E-03 0. -1.
    9000002    1    1    2    0    0  0.47940720003E-01  0.27935369331E-01  0.42620124356E-01  0.94060574764E+00  0.93800000000E+00 0. -1.
         22    1    1    2    0    0 -0.24022312825E+00  0.13916395726E+00  0.27155885720E+01  0.27297426711E+01  0.00000000000E+00 0. -1.
</event>
<event>
 5    1  0.1166492E+001  0.1507514E+01  0.7818608E-02  0.3460297E+00
         11   -1    0    0    0    0  0.00000000000E+00  0.00000000000E+00  0.39999999674E+01  0.40000000000E+01  0.51100000000E-03 0. -1.
    9000002   -1    0    0    0    0 -0.00000000000E+00 -0.00000000000E+00  0.00000000000E+00  0.93800000000E+00  0.93800000000E+00 0. -1.
         11    1    1    2    0    0  0.23946439892E+00 -0.19750536194E-01  0.77025760520E+00  0.80686450010E+00  0.51100000000E-03 0. -1.
    9000002    1    1    2    0    0  0.24296629809E+00 -0.16168367395E+00  0.13244033190E+00  0.99124097673E+00  0.93800000000E+00 0. -1.
         22    1    1    2    0    0 -0.48243069701E+00  0.18143421015E+00  0.30973020303E+01  0.31398945232E+01  0.00000000000E+00 0. -1.
</event>
<event>
 5    1  0.1166492E+001  0.1560032E+01  0.7818608E-02  0.3397919E+00
         11   -1    0    0    0    0  0.00000000000E+00  0.00000000000E+00  0.39999999674E+01  0.40000000000E+01  0.51100000000E-03 0. -1.
    9000002   -1    0    0    0    0 -0.00000000000E+00 -0.00000000000E+00  0.00000000000E+00  0.93800000000E+00  0.93800000000E+00 0.  1.
         11    1    1    2    0    0 -0.18860142634E+00 -0.68340466259E-01  0.13201005969E+01  0.13352553180E+01  0.51100000000E-03 0. -1.
    9000002    1    1    2    0    0 -0.97516840874E-01  0.65876373123E-01  0.38755983909E-01  0.94614758737E+00  0.93800000000E+00 0.  1.
         22    1    1    2    0    0  0.28611826721E+00  0.24640931357E-02  0.26411433866E+01  0.26565970946E+01  0.00000000000E+00 0. -1.
</event>
<event>
 5    1  0.1166492E+001  0.1484171E+01  0.7818608E-02  0.3489547E+00
         11   -1    0    0    0    0  0.00000000000E+00  0.00000000000E+00  0.39999999674E+01  0.40000000000E+01  0.51100000000E-03 0.  1.
    9000002   -1    0    0    0    0 -0.00000000000E+00 -0.00000000000E+00  0.00000000000E+00  0.93800000000E+00  0.93800000000E+00 0. -1.
         11    1    1    2    0    0 -0.23053079250E+00 -0.36338624754E+00  0.97666252246E+00  0.10672693920E+01  0.51100000000E-03 0.  1.
    9000002    1    1    2    0    0 -0.70021484550E-01 -0.84976130574E-01  0.16115098242E+00  0.95809059603E+00  0.93800000000E+00 0. -1.
         22    1    1    2    0    0  0.30055227705E+00  0.44836237812E+00  0.28621864625E+01  0.29126400120E+01  0.00000000000E+00 0.  1.
</event>
<event>
 5    1  0.1166492E+001  0.1548154E+01  0.7818608E-02  0.3411632E+00
         11   -1    0    0    0    0  0.00000000000E+00  0.00000000000E+00  0.39999999674E+01  0.40000000000E+01  0.51100000000E-03 0.  1.
    9000002   -1    0    0    0    0 -0.00000000000E+00 -0.00000000000E+00  0.00000000000E+00  0.93800000000E+00  0.93800000000E+00 0.  1.
         11    1    1    2    0    0  0.39988988837E+00  0.55319135768E-01  0.10755140554E+01  0.11487832146E+01  0.51100000000E-03 0.  1.
    9000002    1    1    2    0    0 -0.52047114282E+00 -0.38022515726E+00  0.34886247860E+00  0.11903824636E+01  0.93800000000E+00 0.  1.
         22    1    1    2    0    0  0.12058125445E+00  0.32490602149E+00  0.25756234334E+01  0.25988343218E+01  0.00000000000E+00 0.  1.
</event>
<event>
 5    1  0.1166492E+001  0.1540993E+01  0.7818608E-02  0.3420008E+00
         11   -1    0    0    0    0  0.00000000000E+00  0.00000000000E+00  0.39999999674E+01  0.40000000000E+01  0.51100000000E-03 0. -1.
    9000002   -1    0    0    0    0 -0.00000000000E+00 -0.00000000000E+00  0.00000000000E+00  0.93800000000E+00  0.93800000000E+00 0. -1.
         11    1    1    2    0    0 -0.24631691884E+00 -0.13658596107E+00  0.14188487032E+01  0.14465336681E+01  0.51100000000E-03 0. -1.
    9000002    1    1    2    0    0 -0.94335252652E-01  0.40150054185E+00  0.16595523681E+00  0.10380206961E+01  0.93800000000E+00 0. -1.
         22    1    1    2    0    0  0.34065217150E+00 -0.26491458078E+00  0.24151960273E+01  0.24534456357E+01  0.00000000000E+00 0. -1.
</event>
<event>
 5    1  0.1166492E+001  0.1556602E+01  0.7818608E-02  0.3401857E+00
         11   -1    0    0    0    0  0.00000000000E+00  0.00000000000E+00  0.39999999674E+01  0.40000000000E+01  0.51100000000E-03 0. -1.
    9000002   -1    0    0    0    0 -0.00000000000E+00 -0.00000000000E+00  0.00000000000E+00  0.93800000000E+00  0.93800000000E+00 0.  1.
         11    1    1    2    0    0  0.97333338051E-01 -0.23464879688E+00  0.50172038843E+00  0.56236771410E+00  0.51100000000E-03 0. -1.
    9000002    1    1    2    0    0 -0.28936793591E+00  0.49634354494E+00  0.27204792318E+00  0.11331128759E+01  0.93800000000E+00 0.  1.
         22    1    1    2    0    0  0.19203459786E+00 -0.26169474806E+00  0.32262316558E+01  0.32425194100E+01  0.00000000000E+00 0. -1.
</event>
<event>
 5    1  0.1166492E+001  0.1519751E+01  0.7818608E-02  0.3445351E+00
         11   -1    0    0    0    0  0.00000000000E+00  0.00000000000E+00  0.39999999674E+01  0.40000000000E+01  0.51100000000E-03 0.  1.
    9000002   -1    0    0    0    0 -0.00000000000E+00 -0.00000000000E+00  0.00000000000E+00  0.93800000000E+00  0.93800000000E+00 0.  1.
         11    1    1    2    0    0 -0.10036620688E+00 -0.27169634127E+00  0.97412113920E+00  0.10162699111E+01  0.51100000000E-03 0.  1.
    9000002    1    1    2    0    0  0.23854071395E-01 -0.30708812452E-01  0.61320799897E-01  0.94080619066E+00  0.93800000000E+00 0.  1.
         22    1    1    2    0    0  0.76512135487E-01  0.30240515373E+00  0.29645580283E+01  0.29809238982E+01  0.00000000000E+00 0.  1.
</event>
<event>
 5    1  0.1166492E+001  0.1517249E+01  0.7818608E-02  0.3448385E+00
         11   -1    0    0    0    0  0.00000000000E+00  0.00000000000E+00  0.39999999674E+01  0.40000000000E+01  0.51100000000E-03 0.  1.
    9000002   -1    0    0    0    0 -0.00000000000E+00 -0.00000000000E+00  0.00000000000E+00  0.93800000000E+00  0.93800000000E+00 0.  1.
         11    1    1    2    0    0  0.15435546029E+00 -0.14694642459E+00  0.52222008323E+00  0.56403274397E+00  0.51100000000E-03 0.  1.
    9000002    1    1    2    0    0  0.59972652784E-01 -0.19634847886E+00  0.92575849730E-01  0.96465731334E+00  0.93800000000E+00 0.  1.
         22    1    1    2    0    0 -0.21432811307E+00  0.34329490345E+00  0.33852040344E+01  0.34093099427E+01  0.00000000000E+00 0.  1.
</event>
<event>
 5    1  0.1166492E+001  0.1539817E+01  0.7818608E-02  0.3421391E+00
         11   -1    0    0    0    0  0.00000000000E+00  0.00000000000E+00  0.39999999674E+01  0.40000000000E+01  0.51100000000E-03 0.  1.
    9000002   -1    0    0    0    0 -0.00000000000E+00 -0.00000000000E+00  0.00000000000E+00  0.93800000000E+00  0.93800000000E+00 0. -1.
         11    1    1    2    0    0  0.95987750189E-02 -0.27487719027E+00  0.76631786982E+00  0.81418237818E+00  0.51100000000E-03 0.  1.
    9000002    1    1    2    0    0 -0.32734057158E+00  0.21910243560E+00  0.15596078065E+00  0.10292353920E+01  0.93800000000E+00 0. -1.
         22    1    1    2    0    0  0.31774179656E+00  0.55774754673E-01  0.30777213169E+01  0.30945822298E+01  0.00000000000E+00 0.  1.
</event>
<event>
 5    1  0.1166492E+001  0.1568621E+01  0.7818608E-02  0.3388142E+00
         11   -1    0    0    0    0  0.00000000000E+00  0.00000000000E+00  0.39999999674E+01  0.40000000000E+01  0.51100000000E-03 0. -1.
    9000002   -1    0    0    0    0 -0.00000000000E+00 -0.00000000000E+00  0.00000000000E+00  0.93800000000E+00  0.93800000000E+00 0.  1.
         11    1    1    2    0    0  0.10273596544E+00 -0.78705286326E-01  0.14716941040E+01  0.14773736825E+01  0.51100000000E-03 0. -1.
    9000002    1    1    2    0    0  0.48302925080E-01 -0.23341922865E+00  0.61711183297E-01  0.96977831437E+00  0.93800000000E+00 0.  1.
         22    1    1    2    0    0 -0.15103889052E+00  0.31212451498E+00  0.24665946800E+01  0.24908480032E+01  0.00000000000E+00 0. -1.
</event>
<event>
 5    1  0.1166492E+001  0.1525505E+01  0.7818608E-02  0.3438411E+00
         11   -1    0    0    0    0  0.00000000000E+00  0.00000000000E+00  0.39999999674E+01  0.40000000000E+01  0.51100000000E-03 0. -1.
    9000002   -1    0    0    0    0 -0.00000000000E+00 -0.00000000000E+00  0.00000000000E+00  0.93800000000E+00  0.93800000000E+00 0. -1.
         11    1    1    2    0    0  0.21635669196E+00 -0.11710670301E+00  0.95529679778E+00  0.98646663958E+00  0.51100000000E-03 0. -1.
    9000002    1    1    2    0    0  0.22772881263E-01 -0.23379696896E+00  0.95224108908E-01  0.97164358575E+00  0.93800000000E+00 0. -1.
         22    1    1    2    0    0 -0.23912957323E+00  0.35090367197E+00  0.29494790607E+01  0.29798897747E+01  0.00000000000E+00 0. -1.
</event>
<event>
 5    1  0.1166492E+001  0.1538667E+01  0.7818608E-02  0.3422747E+00
         11   -1    0    0    0    0  0.00000000000E+00  0.00000000000E+00  0.39999999674E+01  0.40000000000E+01  0.51100000000E-03 0. -1.
    9000002   -1    0    0    0    0 -0.00000000000E+00 -0.00000000000E+00  0.00000000000E+00  0.93800000000E+00  0.93800000000E+00 0.  1.
         11    1    1    2    0    0 -0.48954684325E-01 -0.24015188184E+00  0.91435233638E+00  0.94663083809E+00  0.51100000000E-03 0. -1.
    9000002    1    1    2    0    0  0.38827094153E-01 -0.35694989937E-01  0.47472377372E-01  0.94068023375E+00  0.93800000000E+00 0.  1.
         22    1    1    2    0    0  0.10127590172E-01  0.27584687178E+00  0.30381752536E+01  0.30506889282E+01  0.00000000000E+00 0. -1.
</event>
<event>
 5    1  0.1166492E+001  0.1564319E+01  0.7818608E-02  0.3393025E+00
         11   -1    0    0    0    0  0.00000000000E+00  0.00000000000E+00  0.39999999674E+01  0.40000000000E+01  0.51100000000E-03 0.  1.
    9000002   -1    0    0    0    0 -0.00000000000E+00 -0.00000000000E+00  0.00000000000E+00  0.93800000000E+00  0.93800000000E+00 0.  1.
         11    1    1    2    0    0 -0.26286430440E+00  0.19845342293E+00  0.93830721574E+00  0.99443556645E+00  0.51100000000E-03 0.  1.
    9000002    1    1    2    0    0  0.31716203170E+00 -0.47298158623E+00  0.25972217481E+00  0.11276537338E+01  0.93800000000E+00 0.  1.
         22    1    1    2    0    0 -0.54297727300E-01  0.27452816330E+00  0.28019705768E+01  0.28159106998E+01  0.00000000000E+00 0.  1.
</event>
<event>
 5    1  0.1166492E+001  0.1511539E+01  0.7818608E-02  0.3455352E+00
         11   -1    0    0    0    0  0.00000000000E+00  0.00000000000E+00  0.39999999674E+01  0.40000000000E+01  0.51100000000E-03 0.  1.
    9000002   -1    0    0    0    0 -0.00000000000E+00 -0.00000000000E+00  0.00000000000E+00  0.93800000000E+00  0.93800000000E+00 0.  1.
         11    1    1    2    0    0 -0.30636986205E+00  0.19624758885E+00  0.12496113941E+01  0.13015008666E+01  0.51100000000E-03 0.  1.
    9000002    1    1    2    0    0  0.13787214403E+00  0.34344213034E-01  0.81303095258E-01  0.95217773885E+00  0.93800000000E+00 0.  1.
         22    1    1    2    0    0  0.16849771802E+00 -0.23059180189E+00  0.26690854780E+01  0.26843213945E+01  0.00000000000E+00 0. -1.
</event>
<event>
 5    1  0.1166492E+001  0.1484815E+01  0.7818608E-02  0.3488726E+00
         11   -1    0    0    0    0  0.00000000000E+00  0.00000000000E+00  0.39999999674E+01  0.40000000000E+01  0.51100000000E-03 0. -1.
    9000002   -1    0    0    0    0 -0.00000000000E+00 -0.00000000000E+00  0.00000000000E+00  0.93800000000E+00  0.93800000000E+00 0. -1.
         11    1    1    2    0    0  0.35051314504E+00 -0.28272902135E-01  0.10504322318E+01  0.11077305433E+01  0.51100000000E-03 0. -1.
    9000002    1    1    2    0    0  0.34765854446E-01 -0.79025640924E-01  0.93789992997E-01  0.94662256435E+00  0.93800000000E+00 0. -1.
         22    1    1    2    0    0 -0.38527899949E+00  0.10729854306E+00  0.28557777426E+01  0.28836468924E+01  0.00000000000E+00 0. -1.
</event>
<event>
 5    1  0.1166492E+001  0.1523609E+01  0.7818608E-02  0.3440691E+00
         11   -1    0    0    0    0  0.00000000000E+00  0.00000000000E+00  0.39999999674E+01  0.40000000000E+01  0.51100000000E-03 0.  1.
    9000002   -1    0    0    0    0 -0.00000000000E+00 -0.00000000000E+00  0.00000000000E+00  0.93800000000E+00  0.93800000000E+00 0. -1.
         11    1    1    2    0    0 -0.12263403806E+00  0.18156487248E+00  0.74787735086E+00  0.77931104397E+00  0.51100000000E-03 0.  1.
    9000002    1    1    2    0    0 -0.38353914975E+00 -0.36193327567E-01  0.16548152346E+00  0.10274436096E+01  0.93800000000E+00 0. -1.
         22    1    1    2    0    0  0.50617318782E+00 -0.14537154491E+00  0.30866410930E+01  0.31312453464E+01  0.00000000000E+00 0.  1.
</event>
<event>
 5    1  0.1166492E+001  0.1492572E+01  0.7818608E-02  0.3478906E+00
         11   -1    0    0    0    0  0.00000000000E+00  0.00000000000E+00  0.39999999674E+01  0.40000000000E+01  0.51100000000E-03 0. -1.
    9000002   -1    0    0    0    0 -0.00000000000E+00 -0.00000000000E+00  0.00000000000E+00  0.93800000000E+00  0.93800000000E+00 0.  1.
         11    1    1    2    0    0 -0.21203607348E-01  0.34110214887E+00  0.46864124657E+00  0.58002167894E+00  0.51100000000E-03 0. -1.
    9000002    1    1    2    0    0 -0.32416943457E+00 -0.52254210556E+00  0.38247341194E+00  0.11850172932E+01  0.93800000000E+00 0.  1.
         22    1    1    2    0    0  0.34537304191E+00  0.18143995669E+00  0.31488853088E+01  0.31729610278E+01  0.00000000000E+00 0. -1.
</event>
<event>
 5    1  0.1166492E+001  0.1566821E+01  0.7818608E-02  0.3390181E+00
         11   -1    0    0    0    0  0.00000000000E+00  0.00000000000E+00  0.39999999674E+01  0.40000000000E+01  0.51100000000E-03 0. -1.
    9000002   -1    0    0    0    0 -0.00000000000E+00 -0.00000000000E+00  0.00000000000E+00  0.93800000000E+00  0.93800000000E+00 0.  1.
         11    1    1    2    0    0 -0.19215013027E+00 -0.32139456344E-01  0.50534480896E+00  0.54159787138E+00  0.51100000000E-03 0. -1.
    9000002    1    1    2    0    0  0.31852363161E+00  0.30863010377E+00  0.16227517136E+00  0.10501843058E+01  0.93800000000E+00 0.  1.
         22    1    1    2    0    0 -0.12637350134E+00 -0.27649064743E+00  0.33323799870E+01  0.33462178229E+01  0.00000000000E+00 0. -1.
</event>
<event>
 5    1  0.1166492E+001  0.1553186E+01  0.7818608E-02  0.3405796E+00
         11   -1    0    0    0    0  0.00000000000E+00  0.00000000000E+00  0.39999999674E+01  0.40000000000E+01  0.51100000000E-03 0. -1.
    9000002   -1    0    0    0    0 -0.00000000000E+00 -0.00000000000E+00  0.00000000000E+00  0.93800000000E+00  0.93800000000E+00 0. -1.
         11    1    1    2    0    0 -0.26348321747E+00 -0.23570418334E+00  0.80180146199E+00  0.87627947226E+00  0.51100000000E-03 0. -1.
    9000002    1    1    2    0    0  0.39712616409E+00  0.47371490364E+00  0.31647370749E+00  0.11670966574E+01  0.93800000000E+00 0. -1.
         22    1    1    2    0    0 -0.13364294662E+00 -0.23801072030E+00  0.28817247979E+01  0.28946238704E+01  0.00000000000E+00 0. -1.
</event>
<event>
 5    1  0.1166492E+001  0.1568587E+01  0.7818608E-02  0.3388180E+00
         11   -1    0    0    0    0  0.00000000000E+00  0.00000000000E+00  0.39999999674E+01  0.40000000000E+01  0.51100000000E-03 0. -1.
    9000002   -1    0    0    0    0 -0.00000000000E+00 -0.00000000000E+00  0.00000000000E+00  0.93800000000E+00  0.93800000000E+00 0.  1.
         11    1    1    2    0    0 -0.21533592885E-01 -0.23370268634E-01  0.14191223824E+01  0.14194782360E+01  0.51100000000E-03 0. -1.
    9000002    1    1    2    0    0 -0.35359198500E+00 -0.30863715460E+00  0.17785869855E+00  0.10638429873E+01  0.93800000000E+00 0.  1.
         22    1    1    2    0    0  0.37512557788E+00  0.33200742323E+00  0.24030188864E+01  0.24546787767E+01  0.00000000000E+00 0. -1.
</event>
<event>
 5    1  0.1166492E+001  0.1493303E+01  0.7818608E-02  0.3477986E+00
         11   -1    0    0    0    0  0.00000000000E+00  0.00000000000E+00  0.39999999674E+01  0.40000000000E+01  0.51100000000E-03 0.  1.
    9000002   -1    0    0    0    0 -0.00000000000E+00 -0.00000000000E+00  0.00000000000E+00  0.93800000000E+00  0.93800000000E+00 0.  1.
         11    1    1    2    0    0 -0.21054340981E+00  0.52799457628E+00  0.10447953864E+01  0.11894134943E+01  0.51100000000E-03 0.  1.
    9000002    1    1    2    0    0  0.14430033310E+00 -0.25126355089E+00  0.22967213934E+00  0.10082406705E+01  0.93800000000E+00 0.  1.
         22    1    1    2    0    0  0.66243076716E-01 -0.27673102540E+00  0.27255324416E+01  0.27403458351E+01  0.00000000000E+00 0.  1.
</event>
<event>
 5    1  0.1166492E+001  0.1513389E+01  0.7818608E-02  0.3453088E+00
         11   -1    0    0    0    0  0.00000000000E+00  0.00000000000E+00  0.39999999674E+01  0.40000000000E+01  0.51100000000E-03 0.  1.
    9000002   -1    0    0    0    0 -0.00000000000E+00 -0.00000000000E+00  0.00000000000E+00  0.93800000000E+00  0.93800000000E+00 0.  1.
         11    1    1    2    0    0  0.24088032350E+00  0.17637176245E+00  0.12699098697E+01  0.13045312059E+01  0.51100000000E-03 0.  1.
    9000002    1    1    2    0    0  0.94554290027E-01  0.39975864623E-01  0.72841114556E-01  0.94640816326E+00  0.93800000000E+00 0.  1.
         22    1    1    2    0    0 -0.33543461353E+00 -0.21634762708E+00  0.26572489831E+01  0.26870606309E+01  0.00000000000E+00 0.  1.
</event>
<event>
 5    1  0.1166492E+001  0.1573733E+01  0.7818608E-02  0.3382376E+00
         11   -1    0    0    0    0  0.00000000000E+00  0.00000000000E+00  0.39999999674E+01  0.40000000000E+01  0.51100000000E-03 0. -1.
    9000002   -1    0    0    0    0 -0.00000000000E+00 -0.00000000000E+00  0.00000000000E+00  0.93800000000E+00  0.93800000000E+00 0.  1.
         11    1    1    2    0    0  0.12338458456E+00 -0.27765968667E+00  0.84049807249E+00  0.89373146319E+00  0.51100000000E-03 0. -1.
    9000002    1    1    2    0    0 -0.26446991198E+00  0.54727084567E+00  0.28470023020E+00  0.11534070981E+01  0.93800000000E+00 0.  1.
         22    1    1    2    0    0  0.14108532743E+00 -0.26961115900E+00  0.28748016647E+01  0.28908614387E+01  0.00000000000E+00 0. -1.
</event>
<event>
 5    1  0.1166492E+001  0.1459438E+01  0.7818608E-02  0.3521643E+00
         11   -1    0    0    0    0  0.00000000000E+00  0.00000000000E+00  0.39999999674E+01  0.40000000000E+01  0.51100000000E-03 0. -1.
    9000002   -1    0    0    0    0 -0.00000000000E+00 -0.00000000000E+00  0.00000000000E+00  0.93800000000E+00  0.93800000000E+00 0.  1.
         11    1    1    2    0    0  0.17550159466E+00 -0.21519616636E+00  0.40898123193E+00  0.49434411996E+00  0.51100000000E-03 0. -1.
    9000002    1    1    2    0    0 -0.18236258096E-01 -0.12140918102E+00  0.12088851791E+00  0.95369323375E+00  0.93800000000E+00 0.  1.
         22    1    1    2    0    0 -0.15726533656E+00  0.33660534737E+00  0.34701302175E+01  0.34899626463E+01  0.00000000000E+00 0. -1.
</event>
<event>
 5    1  0.1166492E+001  0.1581508E+01  0.7818608E-02  0.3373681E+00
         11   -1    0    0    0    0  0.00000000000E+00  0.00000000000E+00  0.39999999674E+01  0.40000000000E+01  0.51100000000E-03 0.  1.
    9000002   -1    0    0    0    0 -0.00000000000E+00 -0.00000000000E+00  0.00000000000E+00  0.93800000000E+00  0.93800000000E+00 0.  1.
         11    1    1    2    0    0  0.33703117207E-02  0.13352020617E+00  0.13676268157E+01  0.13741333169E+01  0.51100000000E-03 0.  1.
    9000002    1    1    2    0    0 -0.17589633945E+00  0.27898246808E-01  0.34613122325E-01  0.95538468830E+00  0.93800000000E+00 0.  1.
         22    1    1    2    0    0  0.17252602772E+00 -0.16141845298E+00  0.25977600294E+01  0.26084819948E+01  0.00000000000E+00 0.  1.
</event>
<event>
 5    1  0.1166492E+001  0.1556919E+01  0.7818608E-02  0.3401491E+00
         11   -1    0    0    0    0  0.00000000000E+00  0.00000000000E+00  0.39999999674E+01  0.40000000000E+01  0.51100000000E-03 0. -1.
    9000002   -1    0    0    0    0 -0.00000000000E+00 -0.00000000000E+00  0.00000000000E+00  0.93800000000E+00  0.93800000000E+00 0. -1.
         11    1    1    2    0    0 -0.19841235166E+00  0.49078796904E+00  0.80098972870E+00  0.96011723162E+00  0.51100000000E-03 0. -1.
    9000002    1    1    2    0    0 -0.53340597558E-01 -0.88440481446E-01  0.23015629294E+00  0.97133045730E+00  0.93800000000E+00 0. -1.
         22    1    1    2    0    0  0.25175294922E+00 -0.40234748760E+00  0.29688539457E+01  0.30065523111E+01  0.00000000000E+00 0. -1.
</event>
<event>
 5    1  0.1166492E+001  0.1489591E+01  0.7818608E-02  0.3482666E+00
         11   -1    0    0    0    0  0.00000000000E+00  0.00000000000E+00  0.39999999674E+01  0.40000000000E+01  0.51100000000E-03 0. -1.
    9000002   -1    0    0    0    0 -0.00000000000E+00 -0.00000000000E+00  0.00000000000E+00  0.93800000000E+00  0.93800000000E+00 0.  1.
         11    1    1    2    0    0  0.22971073110E+00 -0.23105359795E+00  0.85890227406E+00  0.91862188228E+00  0.51100000000E-03 0. -1.
    9000002    1    1    2    0    0 -0.38753162706E-02 -0.50073153450E-01  0.86221298674E-01  0.94329234658E+00  0.93800000000E+00 0.  1.
         22    1    1    2    0    0 -0.22583541483E+00  0.28112675140E+00  0.30548763946E+01  0.30760857711E+01  0.00000000000E+00 0. -1.
</event>
<event>
 5    1  0.1166492E+001  0.1588441E+01  0.7818608E-02  0.3366006E+00
         11   -1    0    0    0    0  0.00000000000E+00  0.00000000000E+00  0.39999999674E+01  0.40000000000E+01  0.51100000000E-03 0. -1.
    9000002   -1    0    0    0    0 -0.00000000000E+00 -0.00000000000E+00  0.00000000000E+00  0.93800000000E+00  0.93800000000E+00 0. -1.
         11    1    1    2    0    0 -0.21276889591E-01 -0.91089041785E-01  0.12064207218E+01  0.12100417922E+01  0.51100000000E-03 0. -1.
    9000002    1    1    2    0    0 -0.25773260646E+00  0.96462162153E-01  0.59146808530E-01  0.97932292433E+00  0.93800000000E+00 0. -1.
         22    1    1    2    0    0  0.27900949605E+00 -0.53731203681E-02  0.27344324370E+01  0.27486352835E+01  0.00000000000E+00 0. -1.
</event>
<event>
 5    1  0.1166492E+001  0.1550400E+01  0.7818608E-02  0.3409021E+00
         11   -1    0    0    0    0  0.00000000000E+00  0.00000000000E+00  0.39999999674E+01  0.40000000000E+01  0.51100000000E-03 0.  1.
    9000002   -1    0    0    0    0 -0.00000000000E+00 -0.00000000000E+00  0.00000000000E+00  0.93800000000E+00  0.93800000000E+00 0.  1.
         11    1    1    2    0    0 -0.15037311644E+00 -0.19047500390E+00  0.12470249137E+01  0.12704189064E+01  0.51100000000E-03 0.  1.
    9000002    1    1    2    0    0 -0.11130177461E+00  0.79425440181E-01  0.49503174106E-01  0.94920548346E+00  0.93800000000E+00 0.  1.
         22    1    1    2    0    0  0.26167489105E+00  0.11104956372E+00  0.27034718796E+01  0.27183756101E+01  0.00000000000E+00 0. -1.
</event>
<event>
 5    1  0.1166492E+001  0.1492610E+01  0.7818608E-02  0.3478858E+00
         11   -1    0    0    0    0  0.00000000000E+00  0.00000000000E+00  0.39999999674E+01  0.40000000000E+01  0.51100000000E-03 0. -1.
    9000002   -1    0    0    0    0 -0.00000000000E+00 -0.00000000000E+00  0.00000000000E+00  0.93800000000E+00  0.93800000000E+00 0.  1.
         11    1    1    2    0    0  0.23358923862E+00 -0.18344793610E+00  0.50697777268E+00  0.58757450657E+00  0.51100000000E-03 0. -1.
    9000002    1    1    2    0    0  0.68969602947E-01  0.39033109678E+00  0.20087220154E+00  0.10379348788E+01  0.93800000000E+00 0.  1.
         22    1    1    2    0    0 -0.30255884156E+00 -0.20688316068E+00  0.32921499931E+01  0.33124906146E+01  0.00000000000E+00 0. -1.
</event>
<event>
 5    1  0.1166492E+001  0.1549744E+01  0.7818608E-02  0.3409783E+00
         11   -1    0    0    0    0  0.00000000000E+00  0.00000000000E+00  0.39999999674E+01  0.40000000000E+01  0.51100000000E-03 0.  1.
    9000002   -1    0    0    0    0 -0.00000000000E+00 -0.00000000000E+00  0.00000000000E+00  0.93800000000E+00  0.93800000000E+00 0.  1.
         11    1    1    2    0    0 -0.19785854558E+00 -0.65409224047E-02  0.11617662750E+01  0.11785125908E+01  0.51100000000E-03 0.  1.
    9000002    1    1    2    0    0 -0.15782259692E+00  0.91353943310E-01  0.60160072510E-01  0.95745326224E+00  0.93800000000E+00 0.  1.
         22    1    1    2    0    0  0.35568114250E+00 -0.84813020905E-01  0.27780736198E+01  0.28020341470E+01  0.00000000000E+00 0.  1.
</event>
<event>
 5    1  0.1166492E+001  0.1564720E+01  0.7818608E-02  0.3392568E+00
         11   -1    0    0    0    0  0.00000000000E+00  0.00000000000E+00  0.39999999674E+01  0.40000000000E+01  0.51100000000E-03 0. -1.
    9000002   -1    0    0    0    0 -0.00000000000E+00 -0.00000000000E+00  0.00000000000E+00  0.93800000000E+00  0.93800000000E+00 0. -1.
         11    1    1    2    0    0 -0.20320299920E-01  0.17308884006E+00  0.14668189908E+01  0.14771360378E+01  0.51100000000E-03 0. -1.
    9000002    1    1    2    0    0 -0.71157271814E-01  0.10559324403E+00  0.36807689604E-01  0.94731837126E+00  0.93800000000E+00 0. -1.
         22    1    1    2    0    0  0.91477571734E-01 -0.27868208409E+00  0.24963732869E+01  0.25135455909E+01  0.00000000000E+00 0.  1.
</event>
<event>
 5    1  0.1166492E+001  0.1366561E+01  0.7818608E-02  0.3662019E+00
         11   -1    0    0    0    0  0.00000000000E+00  0.00000000000E+00  0.39999999674E+01  0.40000000000E+01  0.51100000000E-03 0. -1.
    9000002   -1    0    0    0    0 -0.00000000000E+00 -0.00000000000E+00  0.00000000000E+00  0.93800000000E+00  0.93800000000E+00 0.  1.
         11    1    1    2    0    0  0.21386360915E-01  0.63277212609E+00  0.12571146285E+01  0.14075494273E+01  0.51100000000E-03 0. -1.
    9000002    1    1    2    0    0 -0.11619212117E+00 -0.23081925225E+00  0.25130535617E+00  0.10048763696E+01  0.93800000000E+00 0.  1.
         22    1    1    2    0    0  0.94805760259E-01 -0.40195287384E+00  0.24915799827E+01  0.25255742031E+01  0.00000000000E+00 0. -1.
</event>
<event>
 5    1  0.1166492E+001  0.1663801E+01  0.7818608E-02  0.3286900E+00
         11   -1    0    0    0    0  0.00000000000E+00  0.00000000000E+00  0.39999999674E+01  0.40000000000E+01  0.51100000000E-03 0.  1.
    9000002   -1    0    0    0    0 -0.00000000000E+00 -0.00000000000E+00  0.00000000000E+00  0.93800000000E+00  0.93800000000E+00 0.  1.
         11    1    1    2    0    0 -0.36579911295E+00  0.19851053616E+00  0.23165255808E+00  0.47631774352E+00  0.51100000000E-03 0.  1.
    9000002    1    1    2    0    0 -0.91448445728E-01  0.22880963802E-01  0.34970228917E+00  0.10054959213E+01  0.93800000000E+00 0. -1.
         22    1    1    2    0    0  0.45724755868E+00 -0.22139149997E+00  0.34186451201E+01  0.34561863352E+01  0.00000000000E+00 0.  1.
</event>
<event>
 5    1  0.1166492E+001  0.1563779E+01  0.7818608E-02  0.3393639E+00
         11   -1    0    0    0    0  0.00000000000E+00  0.00000000000E+00  0.39999999674E+01  0.40000000000E+01  0.51100000000E-03 0. -1.
    9000002   -1    0    0    0    0 -0.00000000000E+00 -0.00000000000E+00  0.00000000000E+00  0.93800000000E+00  0.93800000000E+00 0. -1.
         11    1    1    2    0    0 -0.13780994878E+00 -0.10278148786E+00  0.98278658879E+00  0.99771005630E+00  0.51100000000E-03 0. -1.
    9000002    1    1    2    0    0 -0.12563984653E+00  0.55620100918E-02  0.37251646917E-01  0.94712617543E+00  0.93800000000E+00 0. -1.
         22    1    1    2    0    0  0.26344979531E+00  0.97219477769E-01  0.29799617317E+01  0.29931637683E+01  0.00000000000E+00 0. -1.
</event>
<event>
 5    1  0.1166492E+001  0.1597659E+01  0.7818608E-02  0.3355908E+00
         11   -1    0    0    0    0  0.00000000000E+00  0.00000000000E+00  0.39999999674E+01  0.40000000000E+01  0.51100000000E-03 0. -1.
    9000002   -1    0    0    0    0 -0.00000000000E+00 -0.00000000000E+00  0.00000000000E+00  0.93800000000E+00  0.93800000000E+00 0.  1.
         11    1    1    2    0    0  0.88125961395E-01  0.60421678507E-01  0.11433169802E+01  0.11482991520E+01  0.51100000000E-03 0. -1.
    9000002    1    1    2    0    0 -0.18511714247E+00 -0.32800238248E+00  0.97060594100E-01  0.10154401402E+01  0.93800000000E+00 0.  1.
         22    1    1    2    0    0  0.96991181070E-01  0.26758070397E+00  0.27596223931E+01  0.27742607078E+01  0.00000000000E+00 0. -1.
</event>
<event>
 5    1  0.1166492E+001  0.1474858E+01  0.7818608E-02  0.3501495E+00
         11   -1    0    0    0    0  0.00000000000E+00  0.00000000000E+00  0.39999999674E+01  0.40000000000E+01  0.51100000000E-03 0.  1.
    9000002   -1    0    0    0    0 -0.00000000000E+00 -0.00000000000E+00  0.00000000000E+00  0.93800000000E+00  0.93800000000E+00 0.  1.
         11    1    1    2    0    0 -0.25745607796E+00  0.16375736154E+00  0.46511820469E+00  0.55626909944E+00  0.51100000000E-03 0.  1.
    9000002    1    1    2    0    0  0.27663742185E+00  0.15152362669E+00  0.17248564317E+00  0.10045312189E+01  0.93800000000E+00 0.  1.
         22    1    1    2    0    0 -0.19181343894E-01 -0.31528098823E+00  0.33623961195E+01  0.33771996817E+01  0.00000000000E+00 0.  1.
</event>
<event>
 5    1  0.1166492E+001  0.1532729E+01  0.7818608E-02  0.3429777E+00
         11   -1    0    0    0    0  0.00000000000E+00  0.00000000000E+00  0.39999999674E+01  0.40000000000E+01  0.51100000000E-03 0. -1.
    9000002   -1    0    0    0    0 -0.00000000000E+00 -0.00000000000E+00  0.00000000000E+00  0.93800000000E+00  0.93800000000E+00 0. -1.
         11    1    1    2    0    0  0.14745522330E+00 -0.21818223568E+00  0.89619468693E+00  0.93408335219E+00  0.51100000000E-03 0. -1.
    9000002    1    1    2    0    0  0.91774107961E-01  0.74611279961E-01  0.59977083540E-01  0.94732812718E+00  0.93800000000E+00 0. -1.
         22    1    1    2    0    0 -0.23922933126E+00  0.14357095572E+00  0.30438281969E+01  0.30565885206E+01  0.00000000000E+00 0. -1.
</event>
<event>
 5    1  0.1166492E+001  0.1533978E+01  0.7818608E-02  0.3428293E+00
         11   -1    0    0    0    0  0.00000000000E+00  0.00000000000E+00  0.39999999674E+01  0.40000000000E+01  0.51100000000E-03 0. -1.
    9000002   -1    0    0    0    0 -0.00000000000E+00 -0.00000000000E+00  0.00000000000E+00  0.93800000000E+00  0.93800000000E+00 0. -1.
         11    1    1    2    0    0  0.22841021500E+00 -0.11653035889E+00  0.10357507401E+01  0.10670194035E+01  0.51100000000E-03 0. -1.
    9000002    1    1    2    0    0  0.13699505524E-01 -0.97251204810E-01  0.55933008295E-01  0.94478461816E+00  0.93800000000E+00 0. -1.
         22    1    1    2    0    0 -0.24210972052E+00  0.21378156370E+00  0.29083162190E+01  0.29261959783E+01  0.00000000000E+00 0. -1.
</event>
<event>
 5    1  0.1166492E+001  0.1519233E+01  0.7818608E-02  0.3445978E+00
         11   -1    0    0    0    0  0.00000000000E+00  0.00000000000E+00  0.39999999674E+01  0.40000000000E+01  0.51100000000E-03 0.  1.
    9000002   -1    0    0    0    0 -0.00000000000E+00 -0.00000000000E+00  0.00000000000E+00  0.93800000000E+00  0.93800000000E+00 0. -1.
         11    1    1    2    0    0 -0.43490274852E+00  0.15092121410E+00  0.11152548804E+01  0.12065286249E+01  0.51100000000E-03 0.  1.
    9000002    1    1    2    0    0  0.38618109671E+00 -0.42371233438E+00  0.31046885428E+00  0.11423234617E+01  0.93800000000E+00 0. -1.
         22    1    1    2    0    0  0.48721651815E-01  0.27279112028E+00  0.25742762327E+01  0.25891479133E+01  0.00000000000E+00 0.  1.
</event>
<event>
 5    1  0.1166492E+001  0.1538170E+01  0.7818608E-02  0.3423333E+00
         11   -1    0    0    0    0  0.00000000000E+00  0.00000000000E+00  0.39999999674E+01  0.40000000000E+01  0.51100000000E-03 0.  1.
    9000002   -1    0    0    0    0 -0.00000000000E+00 -0.00000000000E+00  0.00000000000E+00  0.93800000000E+00  0.93800000000E+00 0. -1.
         11    1    1    2    0    0 -0.50813412947E-01  0.22466399690E+00  0.12844228924E+01  0.13049131550E+01  0.51100000000E-03 0.  1.
    9000002    1    1    2    0    0 -0.49123917149E-01  0.14432081929E+00  0.62230672578E-01  0.95234359069E+00  0.93800000000E+00 0. -1.
         22    1    1    2    0    0  0.99937330095E-01 -0.36898481619E+00  0.26533464024E+01  0.26807432544E+01  0.00000000000E+00 0.  1.
</event>
<event>
 5    1  0.1166492E+001  0.1412307E+01  0.7818608E-02  0.3587350E+00
         11   -1    0    0    0    0  0.00000000000E+00  0.00000000000E+00  0.39999999674E+01  0.40000000000E+01  0.51100000000E-03 0. -1.
    9000002   -1    0    0    0    0 -0.00000000000E+00 -0.00000000000E+00  0.00000000000E+00  0.93800000000E+00  0.93800000000E+00 0. -1.
         11    1    1    2    0    0 -0.15394781866E+00  0.65536919498E+00  0.11661476450E+01  0.13465174724E+01  0.51100000000E-03 0. -1.
    9000002    1    1    2    0    0  0.68831240684E+00 -0.42893988290E+00  0.79815184017E+00  0.14746707268E+01  0.93800000000E+00 0. -1.
         22    1    1    2    0    0 -0.53436458819E+00 -0.22642931208E+00  0.20357004822E+01  0.21168118007E+01  0.00000000000E+00 0. -1.
</event>
<event>
 5    1  0.1166492E+001  0.1531065E+01  0.7818608E-02  0.3431758E+00
         11   -1    0    0    0    0  0.00000000000E+00  0.00000000000E+00  0.39999999674E+01  0.40000000000E+01  0.51100000000E-03 0.  1.
    9000002   -1    0    0    0    0 -0.00000000000E+00 -0.00000000000E+00  0.00000000000E+00  0.93800000000E+00  0.93800000000E+00 0.  1.
         11    1    1    2    0    0  0.12512579620E+00  0.25085911687E+00  0.14691306908E+01  0.14956376597E+01  0.51100000000E-03 0.  1.
    9000002    1    1    2    0    0 -0.27358591042E-01  0.84553596833E-01  0.56976460611E-01  0.94392167064E+00  0.93800000000E+00 0.  1.
         22    1    1    2    0    0 -0.97767205154E-01 -0.33541271370E+00  0.24738928160E+01  0.24984406697E+01  0.00000000000E+00 0.  1.
</event>
<event>
 5    1  0.1166492E+001  0.1531543E+01  0.7818608E-02  0.3431189E+00
         11   -1    0    0    0    0  0.00000000000E+00  0.00000000000E+00  0.39999999674E+01  0.40000000000E+01  0.51100000000E-03 0.  1.
    9000002   -1    0    0    0    0 -0.00000000000E+00 -0.00000000000E+00  0.00000000000E+00  0.93800000000E+00  0.93800000000E+00 0.  1.
         11    1    1    2    0    0 -0.23690744926E+00 -0.71286943823E-01  0.86532068774E+00  0.89999284532E+00  0.51100000000E-03 0.  1.
    9000002    1    1    2    0    0 -0.45646402754E-01 -0.60545212274E-01  0.55086436159E-01  0.94267058523E+00  0.93800000000E+00 0.  1.
         22    1    1    2    0    0  0.28255385201E+00  0.13183215610E+00  0.30795928435E+01  0.30953365694E+01  0.00000000000E+00 0.  1.
</event>
<event>
 5    1  0.1166492E+001  0.1537542E+01  0.7818608E-02  0.3424075E+00
         11   -1    0    0    0    0  0.00000000000E+00  0.00000000000E+00  0.39999999674E+01  0.40000000000E+01  0.51100000000E-03 0. -1.
    9000002   -1    0    0    0    0 -0.00000000000E+00 -0.00000000000E+00  0.00000000000E+00  0.93800000000E+00  0.93800000000E+00 0.  1.
         11    1    1    2    0    0 -0.10932985816E+00  0.11740021310E+00  0.35057471639E+00  0.38553692536E+00  0.51100000000E-03 0. -1.
    9000002    1    1    2    0    0 -0.17870084412E+00  0.32500061314E-01  0.69614259878E-01  0.95795636166E+00  0.93800000000E+00 0.  1.
         22    1    1    2    0    0  0.28803070227E+00 -0.14990027441E+00  0.35798109911E+01  0.35945067130E+01  0.00000000000E+00 0. -1.
</event>
<event>
 5    1  0.1166492E+001  0.1571083E+01  0.7818608E-02  0.3385360E+00
         11   -1    0    0    0    0  0.00000000000E+00  0.00000000000E+00  0.39999999674E+01  0.40000000000E+01  0.51100000000E-03 0. -1.
    9000002   -1    0    0    0    0 -0.00000000000E+00 -0.00000000000E+00  0.00000000000E+00  0.93800000000E+00  0.93800000000E+00 0. -1.
         11    1    1    2    0    0 -0.62474230220E-01 -0.13454441868E+00  0.12277827122E+01  0.12367117205E+01  0.51100000000E-03 0. -1.
    9000002    1    1    2    0    0  0.82640124081E-01 -0.16136775277E+00  0.43342944204E-01  0.95634280075E+00  0.93800000000E+00 0. -1.
         22    1    1    2    0    0 -0.20165893860E-01  0.29591217144E+00  0.27288743109E+01  0.27449454787E+01  0.00000000000E+00 0. -1.
</event>
<event>
 5    1  0.1166492E+001  0.1526355E+01  0.7818608E-02  0.3437391E+00
         11   -1    0    0    0    0  0.00000000000E+00  0.00000000000E+00  0.39999999674E+01  0.40000000000E+01  0.51100000000E-03 0.  1.
    9000002   -1    0    0    0    0 -0.00000000000E+00 -0.00000000000E+00  0.00000000000E+00  0.93800000000E+00  0.93800000000E+00 0. -1.
         11    1    1    2    0    0 -0.13869065288E+00  0.25410470556E+00  0.10817544281E+01  0.11198201652E+01  0.51100000000E-03 0.  1.
    9000002    1    1    2    0    0  0.44954375380E-01  0.32016115207E-01  0.57227987289E-01  0.94136335707E+00  0.93800000000E+00 0. -1.
         22    1    1    2    0    0  0.93736277500E-01 -0.28612082077E+00  0.28610175520E+01  0.28768164777E+01  0.00000000000E+00 0.  1.
</event>
<event>
 5    1  0.1166492E+001  0.1564412E+01  0.7818608E-02  0.3392919E+00
         11   -1    0    0    0    0  0.00000000000E+00  0.00000000000E+00  0.39999999674E+01  0.40000000000E+01  0.51100000000E-03 0.  1.
    9000002   -1    0    0    0    0 -0.00000000000E+00 -0.00000000000E+00  0.00000000000E+00  0.93800000000E+00  0.93800000000E+00 0.  1.
         11    1    1    2    0    0 -0.21341132528E+00  0.98026184656E-01  0.98141232385E+00  0.10091203779E+01  0.51100000000E-03 0.  1.
    9000002    1    1    2    0    0  0.67632417301E-01 -0.32892614037E+00  0.10420610977E+00  0.10017332295E+01  0.93800000000E+00 0.  1.
         22    1    1    2    0    0  0.14577890798E+00  0.23089995571E+00  0.29143815337E+01  0.29271463926E+01  0.00000000000E+00 0.  1.
</event>
<event>
 5    1  0.1166492E+001  0.1325482E+01  0.7818608E-02  0.3734314E+00
         11   -1    0    0    0    0  0.00000000000E+00  0.00000000000E+00  0.39999999674E+01  0.40000000000E+01  0.51100000000E-03 0.  1.
    9000002   -1    0    0    0    0 -0.00000000000E+00 -0.00000000000E+00  0.00000000000E+00  0.93800000000E+00  0.93800000000E+00 0.  1.
         11    1    1    2    0    0 -0.39185492899E+00  0.39216791646E+00  0.12335500102E+01  0.13524022511E+01  0.51100000000E-03 0.  1.
    9000002    1    1    2    0    0 -0.77100144051E-01  0.93621161453E-01  0.24740698967E+00  0.97763161396E+00  0.93800000000E+00 0.  1.
         22    1    1    2    0    0  0.46895507304E+00 -0.48578907792E+00  0.25190429675E+01  0.26079661349E+01  0.00000000000E+00 0.  1.
</event>
<event>
 5    1  0.1166492E+001  0.1501592E+01  0.7818608E-02  0.3467625E+00
         11   -1    0    0    0    0  0.00000000000E+00  0.00000000000E+00  0.39999999674E+01  0.40000000000E+01  0.51100000000E-03 0. -1.
    9000002   -1    0    0    0    0 -0.00000000000E+00 -0.00000000000E+00  0.00000000000E+00  0.93800000000E+00  0.93800000000E+00 0. -1.
         11    1    1    2    0    0  0.23782041004E+00  0.25994090671E+00  0.14069997424E+01  0.14504400569E+01  0.51100000000E-03 0. -1.
    9000002    1    1    2    0    0  0.73150951759E-01 -0.34656398798E-01  0.79434372176E-01  0.94483117392E+00  0.93800000000E+00 0. -1.
         22    1    1    2    0    0 -0.31097136180E+00 -0.22528450792E+00  0.25135658528E+01  0.25427287692E+01  0.00000000000E+00 0. -1.
</event>
<event>
 5    1  0.1166492E+001  0.1533757E+01  0.7818608E-02  0.3428556E+00
         11   -1    0    0    0    0  0.00000000000E+00  0.00000000000E+00  0.39999999674E+01  0.40000000000E+01  0.51100000000E-03 0.  1.
    9000002   -1    0    0    0    0 -0.00000000000E+00 -0.00000000000E+00  0.00000000000E+00  0.93800000000E+00  0.93800000000E+00 0.  1.
         11    1    1    2    0    0 -0.17835926288E+00 -0.51492156240E-01  0.10994494988E+01  0.11150125247E+01  0.51100000000E-03 0.  1.
    9000002    1    1    2    0    0 -0.23210885003E+00 -0.29012156218E+00  0.14870616030E+00  0.10198051585E+01  0.93800000000E+00 0.  1.
         22    1    1    2    0    0  0.41046811291E+00  0.34161371842E+00  0.27518443083E+01  0.28031823168E+01  0.00000000000E+00 0.  1.
</event>
<event>
 5    1  0.1166492E+001  0.1567910E+01  0.7818608E-02  0.3388947E+00
         11   -1    0    0    0    0  0.00000000000E+00  0.00000000000E+00  0.39999999674E+01  0.40000000000E+01  0.51100000000E-03 0.  1.
    9000002   -1    0    0    0    0 -0.00000000000E+00 -0.00000000000E+00  0.00000000000E+00  0.93800000000E+00  0.93800000000E+00 0. -1.
         11    1    1    2    0    0 -0.28918305254E-01  0.12940005988E+00  0.14445252782E+01  0.14505978714E+01  0.51100000000E-03 0.  1.
    9000002    1    1    2    0    0 -0.41654978227E-01  0.19807232491E+00  0.51341804899E-01  0.96096189521E+00  0.93800000000E+00 0. -1.
         22    1    1    2    0    0  0.70573283481E-01 -0.32747238479E+00  0.25041328842E+01  0.25264402334E+01  0.00000000000E+00 0. -1.
</event>
<event>
 5    1  0.1166492E+001  0.1367714E+01  0.7818608E-02  0.3660064E+00
         11   -1    0    0    0    0  0.00000000000E+00  0.00000000000E+00  0.39999999674E+01  0.40000000000E+01  0.51100000000E-03 0.  1.
    9000002   -1    0    0    0    0 -0.00000000000E+00 -0.00000000000E+00  0.00000000000E+00  0.93800000000E+00  0.93800000000E+00 0.  1.
         11    1    1    2    0    0  0.15584951143E+00 -0.64110363084E+00  0.12126930920E+01  0.13805534152E+01  0.51100000000E-03 0.  1.
    9000002    1    1    2    0    0  0.53461008662E-01  0.35018487916E+00  0.30303302102E+00  0.10474543145E+01  0.93800000000E+00 0.  1.
         22    1    1    2    0    0 -0.20931052009E+00  0.29091875168E+00  0.24842738543E+01  0.25099922703E+01  0.00000000000E+00 0.  1.
</event>
<event>
 5    1  0.1166492E+001  0.1450531E+01  0.7818608E-02  0.3533493E+00
         11   -1    0    0    0    0  0.00000000000E+00  0.00000000000E+00  0.39999999674E+01  0.40000000000E+01  0.51100000000E-03 0. -1.
    9000002   -1    0    0    0    0 -0.00000000000E+00 -0.00000000000E+00  0.00000000000E+00  0.93800000000E+00  0.93800000000E+00 0. -1.
         11    1    1    2    0    0  0.35899682331E+00  0.20095738447E+00  0.11470227342E+01  0.12185745785E+01  0.51100000000E-03 0. -1.
    9000002    1    1    2    0    0  0.17347237022E-01  0.11825516183E+00  0.13282038496E+00  0.95486672609E+00  0.93800000000E+00 0. -1.
         22    1    1    2    0    0 -0.37634406033E+00 -0.31921254630E+00  0.27201568482E+01  0.27645586954E+01  0.00000000000E+00 0. -1.
</event>
<event>
 5    1  0.1166492E+001  0.1566733E+01  0.7818608E-02  0.3390281E+00
         11   -1    0    0    0    0  0.00000000000E+00  0.00000000000E+00  0.39999999674E+01  0.40000000000E+01  0.51100000000E-03 0. -1.
    9000002   -1    0    0    0    0 -0.00000000000E+00 -0.00000000000E+00  0.00000000000E+00  0.93800000000E+00  0.93800000000E+00 0.  1.
         11    1    1    2    0    0  0.13578208648E+00  0.11149282556E+00  0.84557127698E+00  0.86363098065E+00  0.51100000000E-03 0. -1.
    9000002    1    1    2    0    0  0.17683209771E+00 -0.29806542878E+00  0.10746819119E+00  0.10057365474E+01  0.93800000000E+00 0.  1.
         22    1    1    2    0    0 -0.31261418420E+00  0.18657260322E+00  0.30469604992E+01  0.30686324720E+01  0.00000000000E+00 0. -1.
</event>
<event>
 5    1  0.1166492E+001  0.1564624E+01  0.7818608E-02  0.3392677E+00
         11   -1    0    0    0    0  0.00000000000E+00  0.00000000000E+00  0.39999999674E+01  0.40000000000E+01  0.51100000000E-03 0.  1.
    9000002   -1    0    0    0    0 -0.00000000000E+00 -0.00000000000E+00  0.00000000000E+00  0.93800000000E+00  0.93800000000E+00 0. -1.
         11    1    1    2    0    0  0.24931545541E+00 -0.17719630995E+00  0.90977901322E+00  0.95982021368E+00  0.51100000000E-03 0.  1.
    9000002    1    1    2    0    0 -0.52020409830E+00  0.10585971839E+00  0.22720444532E+00  0.11014919173E+01  0.93800000000E+00 0. -1.
         22    1    1    2    0    0  0.27088864289E+00  0.71336591555E-01  0.28630165088E+01  0.28766878690E+01  0.00000000000E+00 0.  1.
</event>
<event>
 5    1  0.1166492E+001  0.1459101E+01  0.7818608E-02  0.3522088E+00
         11   -1    0    0    0    0  0.00000000000E+00  0.00000000000E+00  0.39999999674E+01  0.40000000000E+01  0.51100000000E-03 0.  1.
    9000002   -1    0    0    0    0 -0.00000000000E+00 -0.00000000000E+00  0.00000000000E+00  0.93800000000E+00  0.93800000000E+00 0.  1.
         11    1    1    2    0    0  0.27933741237E+00 -0.16894066674E+00  0.68219048538E+00  0.75627670749E+00  0.51100000000E-03 0.  1.
    9000002    1    1    2    0    0 -0.29389816088E-01 -0.26669742764E+00  0.16538386446E+00  0.98953883290E+00  0.93800000000E+00 0.  1.
         22    1    1    2    0    0 -0.24994759628E+00  0.43563809438E+00  0.31524256175E+01  0.31921844596E+01  0.00000000000E+00 0.  1.
</event>
<event>
 5    1  0.1166492E+001  0.1495238E+01  0.7818608E-02  0.3475556E+00
         11   -1    0    0    0    0  0.00000000000E+00  0.00000000000E+00  0.39999999674E+01  0.40000000000E+01  0.51100000000E-03 0.  1.
    9000002   -1    0    0    0    0 -0.00000000000E+00 -0.00000000000E+00  0.00000000000E+00  0.93800000000E+00  0.93800000000E+00 0.  1.
         11    1    1    2    0    0  0.35440644297E+00  0.12086761956E+00  0.11732087590E+01  0.12315161231E+01  0.51100000000E-03 0.  1.
    9000002    1    1    2    0    0 -0.59554995194E-01  0.32434443694E-02  0.82388154608E-01  0.94349834414E+00  0.93800000000E+00 0.  1.
         22    1    1    2    0    0 -0.29485144778E+00 -0.12411106393E+00  0.27444030538E+01  0.27629855327E+01  0.00000000000E+00 0.  1.
</event>
<event>
 5    1  0.1166492E+001  0.1599136E+01  0.7818608E-02  0.3354301E+00
         11   -1    0    0    0    0  0.00000000000E+00  0.00000000000E+00  0.39999999674E+01  0.40000000000E+01  0.51100000000E-03 0.  1.
    9000002   -1    0    0    0    0 -0.00000000000E+00 -0.00000000000E+00  0.00000000000E+00  0.93800000000E+00  0.93800000000E+00 0. -1.
         11    1    1    2    0    0  0.19916515327E+00 -0.13903719558E-01  0.10534621628E+01  0.10722139997E+01  0.51100000000E-03 0.  1.
    9000002    1    1    2    0    0 -0.62320723415E+00  0.10249956599E-01  0.27299215720E+00  0.11588188108E+01  0.93800000000E+00 0. -1.
         22    1    1    2    0    0  0.42404208088E+00  0.36537629592E-02  0.26735456474E+01  0.27069671895E+01  0.00000000000E+00 0.  1.
</event>
<event>
 5    1  0.1166492E+001  0.1533163E+01  0.7818608E-02  0.3429262E+00
         11   -1    0    0    0    0  0.00000000000E+00  0.00000000000E+00  0.39999999674E+01  0.40000000000E+01  0.51100000000E-03 0. -1.
    9000002   -1    0    0    0    0 -0.00000000000E+00 -0.00000000000E+00  0.00000000000E+00  0.93800000000E+00  0.93800000000E+00 0. -1.
         11    1    1    2    0    0 -0.30416676726E+00  0.26162555545E+00  0.10910011636E+01  0.11624324297E+01  0.51100000000E-03 0. -1.
    9000002    1    1    2    0    0  0.16771766700E+00 -0.46543372070E+00  0.22969731464E+00  0.10850634178E+01  0.93800000000E+00 0. -1.
         22    1    1    2    0    0  0.13644910026E+00  0.20380816525E+00  0.26793014891E+01  0.26905041525E+01  0.00000000000E+00 0. -1.
</event>
<event>
 5    1  0.1166492E+001  0.1565127E+01  0.7818608E-02  0.3392105E+00
         11   -1    0    0    0    0  0.00000000000E+00  0.00000000000E+00  0.39999999674E+01  0.40000000000E+01  0.51100000000E-03 0.  1.
    9000002   -1    0    0    0    0 -0.00000000000E+00 -0.00000000000E+00  0.00000000000E+00  0.93800000000E+00  0.93800000000E+00 0.  1.
         11    1    1    2    0    0  0.18552177162E+00  0.92953633651E-01  0.13553635119E+01  0.13711561605E+01  0.51100000000E-03 0.  1.
    9000002    1    1    2    0    0  0.78328745469E-01 -0.24795524502E+00  0.71960699646E-01  0.97603254976E+00  0.93800000000E+00 0.  1.
         22    1    1    2    0    0 -0.26385051709E+00  0.15500161137E+00  0.25726757558E+01  0.25908112898E+01  0.00000000000E+00 0.  1.
</event>
<event>
 5    1  0.1166492E+001  0.1479347E+01  0.7818608E-02  0.3495715E+00
         11   -1    0    0    0    0  0.00000000000E+00  0.00000000000E+00  0.39999999674E+01  0.40000000000E+01  0.51100000000E-03 0.  1.
    9000002   -1    0    0    0    0 -0.00000000000E+00 -0.00000000000E+00  0.00000000000E+00  0.93800000000E+00  0.93800000000E+00 0. -1.
         11    1    1    2    0    0  0.12195683552E+00  0.36193470381E+00  0.86807590874E+00  0.94838085388E+00  0.51100000000E-03 0.  1.
    9000002    1    1    2    0    0 -0.18485292590E+00 -0.81506025901E-01  0.12341435821E+00  0.96741353117E+00  0.93800000000E+00 0. -1.
         22    1    1    2    0    0  0.62896090389E-01 -0.28042867791E+00  0.30085097004E+01  0.30222056149E+01  0.00000000000E+00 0.  1.
</event>
<event>
 5    1  0.1166492E+001  0.1555149E+01  0.7818608E-02  0.3403529E+00
         11   -1    0    0    0    0  0.00000000000E+00  0.00000000000E+00  0.39999999674E+01  0.40000000000E+01  0.51100000000E-03 0.  1.
    9000002   -1    0    0    0    0 -0.00000000000E+00 -0.00000000000E+00  0.00000000000E+00  0.93800000000E+00  0.93800000000E+00 0.  1.
         11    1    1    2    0    0  0.18673775185E+00 -0.16424950776E+00  0.10911091344E+01  0.11190926204E+01  0.51100000000E-03 0.  1.
    9000002    1    1    2    0    0  0.12141537512E+00  0.36919595193E+00  0.13946300540E+00  0.10248615878E+01  0.93800000000E+00 0.  1.
         22    1    1    2    0    0 -0.30815312697E+00 -0.20494644417E+00  0.27694278276E+01  0.27940457919E+01  0.00000000000E+00 0.  1.
</event>
<event>
 5    1  0.1166492E+001  0.1512676E+01  0.7818608E-02  0.3453960E+00
         11   -1    0    0    0    0  0.00000000000E+00  0.00000000000E+00  0.39999999674E+01  0.40000000000E+01  0.51100000000E-03 0.  1.
    9000002   -1    0    0    0    0 -0.00000000000E+00 -0.00000000000E+00  0.00000000000E+00  0.93800000000E+00  0.93800000000E+00 0.  1.
         11    1    1    2    0    0  0.39918028449E+00 -0.35112817244E-01  0.12106119627E+01  0.12752095494E+01  0.51100000000E-03 0.  1.
    9000002    1    1    2    0    0 -0.27020824778E+00 -0.23115060842E+00  0.15881475937E+00  0.10156324280E+01  0.93800000000E+00 0.  1.
         22    1    1    2    0    0 -0.12897203671E+00  0.26626342566E+00  0.26305732453E+01  0.26471580227E+01  0.00000000000E+00 0.  1.
</event>
<event>
 5    1  0.1166492E+001  0.1564427E+01  0.7818608E-02  0.3392901E+00
         11   -1    0    0    0    0  0.00000000000E+00  0.00000000000E+00  0.39999999674E+01  0.40000000000E+01  0.51100000000E-03 0. -1.
    9000002   -1    0    0    0    0 -0.00000000000E+00 -0.00000000000E+00  0.00000000000E+00  0.93800000000E+00  0.93800000000E+00 0. -1.
         11    1    1    2    0    0 -0.49927354361E-01  0.16000228971E+00  0.97642760391E+00  0.99070914007E+00  0.51100000000E-03 0. -1.
    9000002    1    1    2    0    0 -0.11209032578E+00  0.76067809704E-01  0.38494209567E-01  0.94851270786E+00  0.93800000000E+00 0. -1.
         22    1    1    2    0    0  0.16201768014E+00 -0.23607009941E+00  0.29850781539E+01  0.29987781521E+01  0.00000000000E+00 0. -1.
</event>
<event>
 5    1  0.1166492E+001  0.1584805E+01  0.7818608E-02  0.3370022E+00
         11   -1    0    0    0    0  0.00000000000E+00  0.00000000000E+00  0.39999999674E+01  0.40000000000E+01  0.51100000000E-03 0. -1.
    9000002   -1    0    0    0    0 -0.00000000000E+00 -0.00000000000E+00  0.00000000000E+00  0.93800000000E+00  0.93800000000E+00 0. -1.
         11    1    1    2    0    0 -0.17446094122E+00 -0.90671225169E-01  0.72068007874E+00  0.74701936260E+00  0.51100000000E-03 0. -1.
    9000002    1    1    2    0    0  0.32915092978E+00  0.33206631607E+00  0.16201543691E+00  0.10605193891E+01  0.93800000000E+00 0. -1.
         22    1    1    2    0    0 -0.15468998856E+00 -0.24139509090E+00  0.31173044517E+01  0.31304612483E+01  0.00000000000E+00 0. -1.
</event>
<event>
 5    1  0.1166492E+001  0.1574308E+01  0.7818608E-02  0.3381729E+00
         11   -1    0    0    0    0  0.00000000000E+00  0.00000000000E+00  0.39999999674E+01  0.40000000000E+01  0.51100000000E-03 0. -1.
    9000002   -1    0    0    0    0 -0.00000000000E+00 -0.00000000000E+00  0.00000000000E+00  0.93800000000E+00  0.93800000000E+00 0.  1.
         11    1    1    2    0    0  0.23016591593E+00  0.45114111715E-01  0.94271583036E+00  0.97145510955E+00  0.51100000000E-03 0. -1.
    9000002    1    1    2    0    0 -0.27567015093E+00 -0.30957848625E+00  0.13777228395E+00  0.10347260862E+01  0.93800000000E+00 0.  1.
         22    1    1    2    0    0  0.45504235001E-01  0.26446437453E+00  0.29195118531E+01  0.29318188042E+01  0.00000000000E+00 0. -1.
</event>
<event>
 5    1  0.1166492E+001  0.1486661E+01  0.7818608E-02  0.3486379E+00
         11   -1    0    0    0    0  0.00000000000E+00  0.00000000000E+00  0.39999999674E+01  0.40000000000E+01  0.51100000000E-03 0. -1.
    9000002   -1    0    0    0    0 -0.00000000000E+00 -0.00000000000E+00  0.00000000000E+00  0.93800000000E+00  0.93800000000E+00 0.  1.
         11    1    1    2    0    0  0.29044520594E+00 -0.18118127945E+00  0.89599583504E+00  0.95916310980E+00  0.51100000000E-03 0. -1.
    9000002    1    1    2    0    0  0.27751449527E-01  0.41966335325E-01  0.88623477776E-01  0.94351970677E+00  0.93800000000E+00 0.  1.
         22    1    1    2    0    0 -0.31819665546E+00  0.13921494412E+00  0.30153806545E+01  0.30353171834E+01  0.00000000000E+00 0. -1.
</event>
<event>
 5    1  0.1166492E+001  0.1525360E+01  0.7818608E-02  0.3438585E+00
         11   -1    0    0    0    0  0.00000000000E+00  0.00000000000E+00  0.39999999674E+01  0.40000000000E+01  0.51100000000E-03 0. -1.
    9000002   -1    0    0    0    0 -0.00000000000E+00 -0.00000000000E+00  0.00000000000E+00  0.93800000000E+00  0.93800000000E+00 0. -1.
         11    1    1    2    0    0 -0.25138938893E+00 -0.17662775703E+00  0.13392464233E+01  0.13740361105E+01  0.51100000000E-03 0. -1.
    9000002    1    1    2    0    0  0.38302173253E-01 -0.68784483948E-01  0.60245267798E-01  0.94322418014E+00  0.93800000000E+00 0. -1.
         22    1    1    2    0    0  0.21308721568E+00  0.24541224097E+00  0.26005082762E+01  0.26207397093E+01  0.00000000000E+00 0. -1.
</event>
<event>
 5    1  0.1166492E+001  0.1558728E+01  0.7818608E-02  0.3399414E+00
         11   -1    0    0    0    0  0.00000000000E+00  0.00000000000E+00  0.39999999674E+01  0.40000000000E+01  0.51100000000E-03 0. -1.
    9000002   -1    0    0    0    0 -0.00000000000E+00 -0.00000000000E+00  0.00000000000E+00  0.93800000000E+00  0.93800000000E+00 0. -1.
         11    1    1    2    0    0  0.11417605471E+00 -0.14832387909E+00  0.96440672008E+00  0.98240354612E+00  0.51100000000E-03 0. -1.
    9000002    1    1    2    0    0  0.57060221862E-01 -0.70308709246E-01  0.35866965513E-01  0.94304274703E+00  0.93800000000E+00 0. -1.
         22    1    1    2    0    0 -0.17123627658E+00  0.21863258834E+00  0.29997262818E+01  0.30125537068E+01  0.00000000000E+00 0. -1.
</event>
<event>
 5    1  0.1166492E+001  0.1468889E+01  0.7818608E-02  0.3509239E+00
         11   -1    0    0    0    0  0.00000000000E+00  0.00000000000E+00  0.39999999674E+01  0.40000000000E+01  0.51100000000E-03 0.  1.
    9000002   -1    0    0    0    0 -0.00000000000E+00 -0.00000000000E+00  0.00000000000E+00  0.93800000000E+00  0.93800000000E+00 0. -1.
         11    1    1    2    0    0 -0.36007850033E+00 -0.15992627530E+00  0.13137733275E+01  0.13715806783E+01  0.51100000000E-03 0.  1.
    9000002    1    1    2    0    0 -0.68058910825E-01  0.22352389561E-01  0.10529802434E+00  0.94660621094E+00  0.93800000000E+00 0. -1.
         22    1    1    2    0    0  0.42813741115E+00  0.13757388573E+00  0.25809286155E+01  0.26198131107E+01  0.00000000000E+00 0.  1.
</event>
<event>
 5    1  0.1166492E+001  0.1508031E+01  0.7818608E-02  0.3459660E+00
         11   -1    0    0    0    0  0.00000000000E+00  0.00000000000E+00  0.39999999674E+01  0.40000000000E+01  0.51100000000E-03 0.  1.
    9000002   -1    0    0    0    0 -0.00000000000E+00 -0.00000000000E+00  0.00000000000E+00  0.93800000000E+00  0.93800000000E+00 0.  1.
         11    1    1    2    0    0  0.18616767459E+00 -0.76863995636E-01  0.42800872319E+00  0.47303087123E+00  0.51100000000E-03 0.  1.
    9000002    1    1    2    0    0  0.30570395234E+00  0.43175846842E-01  0.13956705229E+00  0.99731741302E+00  0.93800000000E+00 0.  1.
         22    1    1    2    0    0 -0.49187162693E+00  0.33688148794E-01  0.34324241919E+01  0.34676517158E+01  0.00000000000E+00 0.  1.
</event>
<event>
 5    1  0.1166492E+001  0.1505605E+01  0.7818608E-02  0.3462652E+00
         11   -1    0    0    0    0  0.00000000000E+00  0.00000000000E+00  0.39999999674E+01  0.40000000000E+01  0.51100000000E-03 0. -1.
    9000002   -1    0    0    0    0 -0.00000000000E+00 -0.00000000000E+00  0.00000000000E+00  0.93800000000E+00  0.93800000000E+00 0. -1.
         11    1    1    2    0    0  0.23860482166E+00 -0.28580455564E+00  0.12085484442E+01  0.12645972118E+01  0.51100000000E-03 0. -1.
    9000002    1    1    2    0    0  0.31830687900E-01  0.16065300760E+00  0.90965829272E-01  0.95652567328E+00  0.93800000000E+00 0. -1.
         22    1    1    2    0    0 -0.27043550956E+00  0.12515154804E+00  0.27004856939E+01  0.27168771149E+01  0.00000000000E+00 0. -1.
</event>
<event>
 5    1  0.1166492E+001  0.1482840E+01  0.7818608E-02  0.3491244E+00
         11   -1    0    0    0    0  0.00000000000E+00  0.00000000000E+00  0.39999999674E+01  0.40000000000E+01  0.51100000000E-03 0.  1.
    9000002   -1    0    0    0    0 -0.00000000000E+00 -0.00000000000E+00  0.00000000000E+00  0.93800000000E+00  0.93800000000E+00 0. -1.
         11    1    1    2    0    0 -0.38697338752E+00  0.24243743121E+00  0.13114496668E+01  0.13886773564E+01  0.51100000000E-03 0.  1.
    9000002    1    1    2    0    0  0.12155954021E+00 -0.17186027117E+00  0.12306110629E+00  0.96917527337E+00  0.93800000000E+00 0. -1.
         22    1    1    2    0    0  0.26541384731E+00 -0.70577160043E-01  0.25654891943E+01  0.25801473702E+01  0.00000000000E+00 0.  1.
</event>
<event>
 5    1  0.1166492E+001  0.1565852E+01  0.7818608E-02  0.3391282E+00
         11   -1    0    0    0    0  0.00000000000E+00  0.00000000000E+00  0.39999999674E+01  0.40000000000E+01  0.51100000000E-03 0.  1.
    9000002   -1    0    0    0    0 -0.00000000000E+00 -0.00000000000E+00  0.00000000000E+00  0.93800000000E+00  0.93800000000E+00 0. -1.
         11    1    1    2    0    0  0.32068304276E-01 -0.16640834312E+00  0.11171292962E+01  0.11299107214E+01  0.51100000000E-03 0.  1.
    9000002    1    1    2    0    0  0.43212712511E-01 -0.98559939643E-01  0.32783800170E-01  0.94472227547E+00  0.93800000000E+00 0. -1.
         22    1    1    2    0    0 -0.75281016787E-01  0.26496828276E+00  0.28500868710E+01  0.28633670032E+01  0.00000000000E+00 0.  1.
</event>
<event>
 5    1  0.1166492E+001  0.1469251E+01  0.7818608E-02  0.3508768E+00
         11   -1    0    0    0    0  0.00000000000E+00  0.00000000000E+00  0.39999999674E+01  0.40000000000E+01  0.51100000000E-03 0. -1.
    9000002   -1    0    0    0    0 -0.00000000000E+00 -0.00000000000E+00  0.00000000000E+00  0.93800000000E+00  0.93800000000E+00 0.  1.
         11    1    1    2    0    0 -0.32387048135E+00  0.32439092549E+00  0.12781700774E+01  0.13578809113E+01  0.51100000000E-03 0. -1.
    9000002    1    1    2    0    0  0.14505594922E+00 -0.59839132423E-01  0.11977736616E+00  0.95854711288E+00  0.93800000000E+00 0.  1.
         22    1    1    2    0    0  0.17881453213E+00 -0.26455179307E+00  0.26020525238E+01  0.26215719758E+01  0.00000000000E+00 0. -1.
</event>
<event>
 5    1  0.1166492E+001  0.1567290E+01  0.7818608E-02  0.3389649E+00
         11   -1    0    0    0    0  0.00000000000E+00  0.00000000000E+00  0.39999999674E+01  0.40000000000E+01  0.51100000000E-03 0. -1.
    9000002   -1    0    0    0    0 -0.00000000000E+00 -0.00000000000E+00  0.00000000000E+00  0.93800000000E+00  0.93800000000E+00 0.  1.
         11    1    1    2    0    0  0.15804244869E+00  0.94895280349E-02  0.67233722385E+00  0.69072792793E+00  0.51100000000E-03 0. -1.
    9000002    1    1    2    0    0 -0.23614639932E-01  0.26774887938E+00  0.73456827154E-01  0.97851265658E+00  0.93800000000E+00 0.  1.
         22    1    1    2    0    0 -0.13442780876E+00 -0.27723840741E+00  0.32542059164E+01  0.32687594155E+01  0.00000000000E+00 0. -1.
</event>
<event>
 5    1  0.1166492E+001  0.1570293E+01  0.7818608E-02  0.3386252E+00
         11   -1    0    0    0    0  0.00000000000E+00  0.00000000000E+00  0.39999999674E+01  0.40000000000E+01  0.51100000000E-03 0. -1.
    9000002   -1    0    0    0    0 -0.00000000000E+00 -0.00000000000E+00  0.00000000000E+00  0.93800000000E+00  0.93800000000E+00 0.  1.
         11    1    1    2    0    0  0.12633289543E+00  0.17439961651E+00  0.82062624428E+00  0.84841199934E+00  0.51100000000E-03 0. -1.
    9000002    1    1    2    0    0 -0.38382573751E+00 -0.51288420189E-01  0.12563015976E+00  0.10225358849E+01  0.93800000000E+00 0.  1.
         22    1    1    2    0    0  0.25749284207E+00 -0.12311119632E+00  0.30537435633E+01  0.30670521158E+01  0.00000000000E+00 0. -1.
</event>
<event>
 5    1  0.1166492E+001  0.1574870E+01  0.7818608E-02  0.3381098E+00
         11   -1    0    0    0    0  0.00000000000E+00  0.00000000000E+00  0.39999999674E+01  0.40000000000E+01  0.51100000000E-03 0. -1.
    9000002   -1    0    0    0    0 -0.00000000000E+00 -0.00000000000E+00  0.00000000000E+00  0.93800000000E+00  0.93800000000E+00 0. -1.
         11    1    1    2    0    0 -0.27263674342E-01  0.14317788090E+00  0.12236303611E+01  0.12322802990E+01  0.51100000000E-03 0. -1.
    9000002    1    1    2    0    0 -0.10531238874E+00  0.69253464939E-01  0.28909433119E-01  0.94687195383E+00  0.93800000000E+00 0. -1.
         22    1    1    2    0    0  0.13257606308E+00 -0.21243134584E+00  0.27474601731E+01  0.27588477472E+01  0.00000000000E+00 0. -1.
</event>
<event>
 5    1  0.1166492E+001  0.1547730E+01  0.7818608E-02  0.3412126E+00
         11   -1    0    0    0    0  0.00000000000E+00  0.00000000000E+00  0.39999999674E+01  0.40000000000E+01  0.51100000000E-03 0. -1.
    9000002   -1    0    0    0    0 -0.00000000000E+00 -0.00000000000E+00  0.00000000000E+00  0.93800000000E+00  0.93800000000E+00 0. -1.
         11    1    1    2    0    0 -0.25210223827E+00 -0.10408464328E-01  0.14714824476E+01  0.14929583816E+01  0.51100000000E-03 0. -1.
    9000002    1    1    2    0    0 -0.26165082533E-01 -0.85041707739E-01  0.44073101040E-01  0.94324076557E+00  0.93800000000E+00 0. -1.
         22    1    1    2    0    0  0.27826732081E+00  0.95450172067E-01  0.24844444188E+01  0.25018008528E+01  0.00000000000E+00 0. -1.
</event>
<event>
 5    1  0.1166492E+001  0.1578556E+01  0.7818608E-02  0.3376972E+00
         11   -1    0    0    0    0  0.00000000000E+00  0.00000000000E+00  0.39999999674E+01  0.40000000000E+01  0.51100000000E-03 0.  1.
    9000002   -1    0    0    0    0 -0.00000000000E+00 -0.00000000000E+00  0.00000000000E+00  0.93800000000E+00  0.93800000000E+00 0.  1.
         11    1    1    2    0    0 -0.13083826420E+00  0.19696627853E-01  0.11546116284E+01  0.11621681815E+01  0.51100000000E-03 0.  1.
    9000002    1    1    2    0    0 -0.36746711933E-01  0.18044988954E+00  0.38343107897E-01  0.95667480232E+00  0.93800000000E+00 0.  1.
         22    1    1    2    0    0  0.16758497613E+00 -0.20014651740E+00  0.28070452310E+01  0.28191570162E+01  0.00000000000E+00 0.  1.
</event>
<event>
 5    1  0.1166492E+001  0.1156496E+01  0.7818608E-02  0.4099564E+00
         11   -1    0    0    0    0  0.00000000000E+00  0.00000000000E+00  0.39999999674E+01  0.40000000000E+01  0.51100000000E-03 0.  1.
    9000002   -1    0    0    0    0 -0.00000000000E+00 -0.00000000000E+00  0.00000000000E+00  0.93800000000E+00  0.93800000000E+00 0.  1.
         11    1    1    2    0    0  0.21911511742E+00 -0.93605438244E+00  0.62506017724E+00  0.11466951329E+01  0.51100000000E-03 0.  1.
    9000002    1    1    2    0    0 -0.13046835477E+00  0.66101420482E+00  0.14942377902E+01  0.18885317960E+01  0.93800000000E+00 0.  1.
         22    1    1    2    0    0 -0.88646762653E-01  0.27504017762E+00  0.18807019999E+01  0.19027730711E+01  0.00000000000E+00 0.  1.
</event>
<event>
 5    1  0.1166492E+001  0.1577207E+01  0.7818608E-02  0.3378480E+00
         11   -1    0    0    0    0  0.00000000000E+00  0.00000000000E+00  0.39999999674E+01  0.40000000000E+01  0.51100000000E-03 0. -1.
    9000002   -1    0    0    0    0 -0.00000000000E+00 -0.00000000000E+00  0.00000000000E+00  0.93800000000E+00  0.93800000000E+00 0.  1.
         11    1    1    2    0    0 -0.62000786131E-01  0.20823480346E+00  0.59039249441E+00  0.62910205009E+00  0.51100000000E-03 0. -1.
    9000002    1    1    2    0    0 -0.40188897341E-01 -0.58406204428E+00  0.26073768137E+00  0.11360333435E+01  0.93800000000E+00 0.  1.
         22    1    1    2    0    0  0.10218968347E+00  0.37582724082E+00  0.31488697916E+01  0.31728646064E+01  0.00000000000E+00 0. -1.
</event>
<event>
 5    1  0.1166492E+001  0.1532412E+01  0.7818608E-02  0.3430154E+00
         11   -1    0    0    0    0  0.00000000000E+00  0.00000000000E+00  0.39999999674E+01  0.40000000000E+01  0.51100000000E-03 0.  1.
    9000002   -1    0    0    0    0 -0.00000000000E+00 -0.00000000000E+00  0.00000000000E+00  0.93800000000E+00  0.93800000000E+00 0.  1.
         11    1    1    2    0    0 -0.31676714052E+00  0.30871083975E-01  0.11519571622E+01  0.11951150613E+01  0.51100000000E-03 0.  1.
    9000002    1    1    2    0    0  0.14788435878E+00 -0.40768994749E+00  0.18723918467E+00  0.10502301601E+01  0.93800000000E+00 0.  1.
         22    1    1    2    0    0  0.16888278175E+00  0.37681886352E+00  0.26608036205E+01  0.26926547786E+01  0.00000000000E+00 0.  1.
</event>
<event>
 5    1  0.1166492E+001  0.1585727E+01  0.7818608E-02  0.3369002E+00
         11   -1    0    0    0    0  0.00000000000E+00  0.00000000000E+00  0.39999999674E+01  0.40000000000E+01  0.51100000000E-03 0.  1.
    9000002   -1    0    0    0    0 -0.00000000000E+00 -0.00000000000E+00  0.00000000000E+00  0.93800000000E+00  0.93800000000E+00 0.  1.
         11    1    1    2    0    0 -0.52037534825E-01  0.16008363132E-01  0.34154024657E+00  0.34585282111E+00  0.51100000000E-03 0.  1.
    9000002    1    1    2    0    0 -0.32045636217E+00 -0.11169207118E+00  0.88377596261E-01  0.10014100051E+01  0.93800000000E+00 0.  1.
         22    1    1    2    0    0  0.37249389699E+00  0.95683708043E-01  0.35700821245E+01  0.35907371738E+01  0.00000000000E+00 0.  1.
</event>
<event>
 5    1  0.1166492E+001  0.1498468E+01  0.7818608E-02  0.3471515E+00
         11   -1    0    0    0    0  0.00000000000E+00  0.00000000000E+00  0.39999999674E+01  0.40000000000E+01  0.51100000000E-03 0.  1.
    9000002   -1    0    0    0    0 -0.00000000000E+00 -0.00000000000E+00  0.00000000000E+00  0.93800000000E+00  0.93800000000E+00 0. -1.
         11    1    1    2    0    0  0.24638186985E+00  0.17956550918E+00  0.10498960884E+01  0.10932656838E+01  0.51100000000E-03 0.  1.
    9000002    1    1    2    0    0  0.22698944709E+00 -0.12246930740E+00  0.12632256689E+00  0.98098131035E+00  0.93800000000E+00 0. -1.
         22    1    1    2    0    0 -0.47337131694E+00 -0.57096201779E-01  0.28237813121E+01  0.28637530058E+01  0.00000000000E+00 0.  1.
</event>
<event>
 5    1  0.1166492E+001  0.1576736E+01  0.7818608E-02  0.3379007E+00
         11   -1    0    0    0    0  0.00000000000E+00  0.00000000000E+00  0.39999999674E+01  0.40000000000E+01  0.51100000000E-03 0. -1.
    9000002   -1    0    0    0    0 -0.00000000000E+00 -0.00000000000E+00  0.00000000000E+00  0.93800000000E+00  0.93800000000E+00 0. -1.
         11    1    1    2    0    0 -0.48247839658E-01 -0.10777718438E+00  0.12938901846E+01  0.12992674268E+01  0.51100000000E-03 0. -1.
    9000002    1    1    2    0    0  0.19572496579E-02 -0.17269647973E+00  0.36954836007E-01  0.95448287823E+00  0.93800000000E+00 0. -1.
         22    1    1    2    0    0  0.46290590000E-01  0.28047366410E+00  0.26691549468E+01  0.26842496950E+01  0.00000000000E+00 0. -1.
</event>
<event>
 5    1  0.1166492E+001  0.1459318E+01  0.7818608E-02  0.3521801E+00
         11   -1    0    0    0    0  0.00000000000E+00  0.00000000000E+00  0.39999999674E+01  0.40000000000E+01  0.51100000000E-03 0. -1.
    9000002   -1    0    0    0    0 -0.00000000000E+00 -0.00000000000E+00  0.00000000000E+00  0.93800000000E+00  0.93800000000E+00 0. -1.
         11    1    1    2    0    0  0.15895959525E+00  0.22493916403E+00  0.37867452996E+00  0.46825253998E+00  0.51100000000E-03 0. -1.
    9000002    1    1    2    0    0  0.11930383941E+00 -0.41480333029E-01  0.12166753742E+00  0.95425416624E+00  0.93800000000E+00 0. -1.
         22    1    1    2    0    0 -0.27826343466E+00 -0.18345883100E+00  0.34996579000E+01  0.35154932938E+01  0.00000000000E+00 0. -1.
</event>
<event>
 5    1  0.1166492E+001  0.1562510E+01  0.7818608E-02  0.3395087E+00
         11   -1    0    0    0    0  0.00000000000E+00  0.00000000000E+00  0.39999999674E+01  0.40000000000E+01  0.51100000000E-03 0.  1.
    9000002   -1    0    0    0    0 -0.00000000000E+00 -0.00000000000E+00  0.00000000000E+00  0.93800000000E+00  0.93800000000E+00 0. -1.
         11    1    1    2    0    0 -0.17618977832E+00 -0.70620141403E-01  0.11739105586E+01  0.11891578126E+01  0.51100000000E-03 0.  1.
    9000002    1    1    2    0    0 -0.67398726815E-01 -0.32066101035E-01  0.31202800211E-01  0.94148204335E+00  0.93800000000E+00 0. -1.
         22    1    1    2    0    0  0.24358850513E+00  0.10268624244E+00  0.27948866085E+01  0.28073601441E+01  0.00000000000E+00 0.  1.
</event>
<event>
 5    1  0.1166492E+001  0.1504379E+01  0.7818608E-02  0.3464169E+00
         11   -1    0    0    0    0  0.00000000000E+00  0.00000000000E+00  0.39999999674E+01  0.40000000000E+01  0.51100000000E-03 0.  1.
    9000002   -1    0    0    0    0 -0.00000000000E+00 -0.00000000000E+00  0.00000000000E+00  0.93800000000E+00  0.93800000000E+00 0.  1.
         11    1    1    2    0    0 -0.20662281572E+00 -0.49429056046E+00  0.97636152836E+00  0.11136867788E+01  0.51100000000E-03 0.  1.
    9000002    1    1    2    0    0  0.30817075199E-01  0.18196963489E+00  0.19830175819E+00  0.97633509998E+00  0.93800000000E+00 0.  1.
         22    1    1    2    0    0  0.17580574052E+00  0.31232092557E+00  0.28253366808E+01  0.28479781212E+01  0.00000000000E+00 0.  1.
</event>
<event>
 5    1  0.1166492E+001  0.1469313E+01  0.7818608E-02  0.3508687E+00
         11   -1    0    0    0    0  0.00000000000E+00  0.00000000000E+00  0.39999999674E+01  0.40000000000E+01  0.51100000000E-03 0.  1.
    9000002   -1    0    0    0    0 -0.00000000000E+00 -0.00000000000E+00  0.00000000000E+00  0.93800000000E+00  0.93800000000E+00 0. -1.
         11    1    1    2    0    0 -0.79730051796E-01  0.60208575836E+00  0.64833148928E+00  0.88836823598E+00  0.51100000000E-03 0.  1.
    9000002    1    1    2    0    0  0.66650444394E-01 -0.95347485470E+00  0.99879053585E+00  0.16706235706E+01  0.93800000000E+00 0. -1.
         22    1    1    2    0    0  0.13079607402E-01  0.35138909634E+00  0.23528779422E+01  0.23790081934E+01  0.00000000000E+00 0.  1.
</event>
<event>
 5    1  0.1166492E+001  0.1522362E+01  0.7818608E-02  0.3442195E+00
         11   -1    0    0    0    0  0.00000000000E+00  0.00000000000E+00  0.39999999674E+01  0.40000000000E+01  0.51100000000E-03 0.  1.
    9000002   -1    0    0    0    0 -0.00000000000E+00 -0.00000000000E+00  0.00000000000E+00  0.93800000000E+00  0.93800000000E+00 0.  1.
         11    1    1    2    0    0  0.25575176050E+00 -0.83540879785E-01  0.74530213821E+00  0.79237843227E+00  0.51100000000E-03 0.  1.
    9000002    1    1    2    0    0 -0.10980144502E+00 -0.20987059956E+00  0.98486547166E-01  0.97244312217E+00  0.93800000000E+00 0.  1.
         22    1    1    2    0    0 -0.14595031548E+00  0.29341147934E+00  0.31562112820E+01  0.31731784456E+01  0.00000000000E+00 0.  1.
</event>
<event>
 5    1  0.1166492E+001  0.1522841E+01  0.7818608E-02  0.3441616E+00
         11   -1    0    0    0    0  0.00000000000E+00  0.00000000000E+00  0.39999999674E+01  0.40000000000E+01  0.51100000000E-03 0.  1.
    9000002   -1    0    0    0    0 -0.00000000000E+00 -0.00000000000E+00  0.00000000000E+00  0.93800000000E+00  0.93800000000E+00 0.  1.
         11    1    1    2    0    0 -0.14355386080E+00  0.19959182782E+00  0.76731024399E+00  0.80573561442E+00  0.51100000000E-03 0.  1.
    9000002    1    1    2    0    0 -0.29342394769E+00 -0.12369114551E+00  0.13120476233E+00  0.99922760281E+00  0.93800000000E+00 0.  1.
         22    1    1    2    0    0  0.43697780849E+00 -0.75900682313E-01  0.31014849610E+01  0.31330367828E+01  0.00000000000E+00 0.  1.
</event>
<event>
 5    1  0.1166492E+001  0.1471092E+01  0.7818608E-02  0.3506373E+00
         11   -1    0    0    0    0  0.00000000000E+00  0.00000000000E+00  0.39999999674E+01  0.40000000000E+01  0.51100000000E-03 0. -1.
    9000002   -1    0    0    0    0 -0.00000000000E+00 -0.00000000000E+00  0.00000000000E+00  0.93800000000E+00  0.93800000000E+00 0.  1.
         11    1    1    2    0    0  0.34825466262E+00  0.40707472080E-01  0.12377022811E+01  0.12864080247E+01  0.51100000000E-03 0. -1.
    9000002    1    1    2    0    0  0.17025728487E+00 -0.99092112003E-01  0.12901076418E+00  0.96710628526E+00  0.93800000000E+00 0.  1.
         22    1    1    2    0    0 -0.51851194750E+00  0.58384639923E-01  0.26332869221E+01  0.26844856900E+01  0.00000000000E+00 0. -1.
</event>
<event>
 5    1  0.1166492E+001  0.1542535E+01  0.7818608E-02  0.3418197E+00
         11   -1    0    0    0    0  0.00000000000E+00  0.00000000000E+00  0.39999999674E+01  0.40000000000E+01  0.51100000000E-03 0. -1.
    9000002   -1    0    0    0    0 -0.00000000000E+00 -0.00000000000E+00  0.00000000000E+00  0.93800000000E+00  0.93800000000E+00 0. -1.
         11    1    1    2    0    0 -0.16820928777E+00 -0.13791491154E+00  0.11289486865E+01  0.11497131317E+01  0.51100000000E-03 0. -1.
    9000002    1    1    2    0    0 -0.63921985809E-01 -0.15193806564E+00  0.61560921970E-01  0.95436101302E+00  0.93800000000E+00 0. -1.
         22    1    1    2    0    0  0.23213127358E+00  0.28985297718E+00  0.28094903589E+01  0.28339258553E+01  0.00000000000E+00 0. -1.
</event>
<event>
 5    1  0.1166492E+001  0.1592934E+01  0.7818608E-02  0.3361069E+00
         11   -1    0    0    0    0  0.00000000000E+00  0.00000000000E+00  0.39999999674E+01  0.40000000000E+01  0.51100000000E-03 0. -1.
    9000002   -1    0    0    0    0 -0.00000000000E+00 -0.00000000000E+00  0.00000000000E+00  0.93800000000E+00  0.93800000000E+00 0.  1.
         11    1    1    2    0    0  0.40820645370E+00 -0.24870915736E+00  0.42370488251E+00  0.63876039513E+00  0.51100000000E-03 0. -1.
    9000002    1    1    2    0    0 -0.11964307245E+00  0.14113387716E+00  0.29076871097E+00  0.99931160273E+00  0.93800000000E+00 0.  1.
         22    1    1    2    0    0 -0.28856338125E+00  0.10757528020E+00  0.32855263739E+01  0.32999280021E+01  0.00000000000E+00 0. -1.
</event>
<event>
 5    1  0.1166492E+001  0.1575544E+01  0.7818608E-02  0.3380343E+00
         11   -1    0    0    0    0  0.00000000000E+00  0.00000000000E+00  0.39999999674E+01  0.40000000000E+01  0.51100000000E-03 0. -1.
    9000002   -1    0    0    0    0 -0.00000000000E+00 -0.00000000000E+00  0.00000000000E+00  0.93800000000E+00  0.93800000000E+00 0. -1.
         11    1    1    2    0    0  0.66339286239E-01 -0.12486355872E+00  0.11186847079E+01  0.11275848288E+01  0.51100000000E-03 0. -1.
    9000002    1    1    2    0    0 -0.13210101572E+00 -0.14498569299E+00  0.43746705855E-01  0.95928583008E+00  0.93800000000E+00 0. -1.
         22    1    1    2    0    0  0.65761729481E-01  0.26984925170E+00  0.28375685536E+01  0.28511293412E+01  0.00000000000E+00 0. -1.
</event>
<event>
 5    1  0.1166492E+001  0.1488643E+01  0.7818608E-02  0.3483866E+00
         11   -1    0    0    0    0  0.00000000000E+00  0.00000000000E+00  0.39999999674E+01  0.40000000000E+01  0.51100000000E-03 0. -1.
    9000002   -1    0    0    0    0 -0.00000000000E+00 -0.00000000000E+00  0.00000000000E+00  0.93800000000E+00  0.93800000000E+00 0.  1.
         11    1    1    2    0    0 -0.23692639729E+00  0.20108290300E+00  0.69346037251E+00  0.75990525789E+00  0.51100000000E-03 0. -1.
    9000002    1    1    2    0    0 -0.50814447815E-01 -0.63710453684E-01  0.90038836949E-01  0.94582880173E+00  0.93800000000E+00 0.  1.
         22    1    1    2    0    0  0.28774084510E+00 -0.13737244931E+00  0.32165007579E+01  0.32322659404E+01  0.00000000000E+00 0. -1.
</event>
<event>
 5    1  0.1166492E+001  0.1564977E+01  0.7818608E-02  0.3392276E+00
         11   -1    0    0    0    0  0.00000000000E+00  0.00000000000E+00  0.39999999674E+01  0.40000000000E+01  0.51100000000E-03 0. -1.
    9000002   -1    0    0    0    0 -0.00000000000E+00 -0.00000000000E+00  0.00000000000E+00  0.93800000000E+00  0.93800000000E+00 0. -1.
         11    1    1    2    0    0 -0.90755052564E-01  0.11929591279E+00  0.99851193946E+00  0.10097001281E+01  0.51100000000E-03 0. -1.
    9000002    1    1    2    0    0 -0.17219867426E+00  0.86667725826E-01  0.50996351832E-01  0.95896209832E+00  0.93800000000E+00 0. -1.
         22    1    1    2    0    0  0.26295372683E+00 -0.20596363862E+00  0.29504916761E+01  0.29693377736E+01  0.00000000000E+00 0. -1.
</event>
<event>
 5    1  0.1166492E+001  0.1541165E+01  0.7818608E-02  0.3419806E+00
         11   -1    0    0    0    0  0.00000000000E+00  0.00000000000E+00  0.39999999674E+01  0.40000000000E+01  0.51100000000E-03 0. -1.
    9000002   -1    0    0    0    0 -0.00000000000E+00 -0.00000000000E+00  0.00000000000E+00  0.93800000000E+00  0.93800000000E+00 0. -1.
         11    1    1    2    0    0 -0.16528424867E-01 -0.17445037922E+00  0.58637567626E+00  0.61199903469E+00  0.51100000000E-03 0. -1.
    9000002    1    1    2    0    0  0.11226249894E-01 -0.22341287671E+00  0.78795821262E-01  0.96751853916E+00  0.93800000000E+00 0. -1.
         22    1    1    2    0    0  0.53021749732E-02  0.39786325593E+00  0.33348284698E+01  0.33584824261E+01  0.00000000000E+00 0. -1.
</event>
<event>
 5    1  0.1166492E+001  0.1578351E+01  0.7818608E-02  0.3377201E+00
         11   -1    0    0    0    0  0.00000000000E+00  0.00000000000E+00  0.39999999674E+01  0.40000000000E+01  0.51100000000E-03 0. -1.
    9000002   -1    0    0    0    0 -0.00000000000E+00 -0.00000000000E+00  0.00000000000E+00  0.93800000000E+00  0.93800000000E+00 0. -1.
         11    1    1    2    0    0  0.38370688188E-01  0.86648714423E-01  0.77448694706E+00  0.78026316183E+00  0.51100000000E-03 0. -1.
    9000002    1    1    2    0    0  0.41607695039E-01  0.22899822909E+00  0.52298097639E-01  0.96785870881E+00  0.93800000000E+00 0. -1.
         22    1    1    2    0    0 -0.79978383227E-01 -0.31564694351E+00  0.31732149227E+01  0.31898781294E+01  0.00000000000E+00 0. -1.
</event>
<event>
 5    1  0.1166492E+001  0.1557553E+01  0.7818608E-02  0.3400763E+00
         11   -1    0    0    0    0  0.00000000000E+00  0.00000000000E+00  0.39999999674E+01  0.40000000000E+01  0.51100000000E-03 0.  1.
    9000002   -1    0    0    0    0 -0.00000000000E+00 -0.00000000000E+00  0.00000000000E+00  0.93800000000E+00  0.93800000000E+00 0.  1.
         11    1    1    2    0    0  0.19942998002E+00  0.57953778541E-01  0.11351587264E+01  0.11540002395E+01  0.51100000000E-03 0.  1.
    9000002    1    1    2    0    0  0.18474886440E-01  0.11101743807E+00  0.39833842030E-01  0.94556698756E+00  0.93800000000E+00 0.  1.
         22    1    1    2    0    0 -0.21790486646E+00 -0.16897121661E+00  0.28250073989E+01  0.28384327730E+01  0.00000000000E+00 0.  1.
</event>
<event>
 5    1  0.1166492E+001  0.1584457E+01  0.7818608E-02  0.3370408E+00
         11   -1    0    0    0    0  0.00000000000E+00  0.00000000000E+00  0.39999999674E+01  0.40000000000E+01  0.51100000000E-03 0. -1.
    9000002   -1    0    0    0    0 -0.00000000000E+00 -0.00000000000E+00  0.00000000000E+00  0.93800000000E+00  0.93800000000E+00 0. -1.
         11    1    1    2    0    0  0.60567376528E-01 -0.71397823608E-01  0.67973391354E+00  0.68615195886E+00  0.51100000000E-03 0. -1.
    9000002    1    1    2    0    0  0.27754710517E+00  0.24533835176E+00  0.10474334928E+00  0.10139223203E+01  0.93800000000E+00 0. -1.
         22    1    1    2    0    0 -0.33811448170E+00 -0.17394052815E+00  0.32155227045E+01  0.32379257208E+01  0.00000000000E+00 0. -1.
</event>
<event>
 5    1  0.1166492E+001  0.1597979E+01  0.7818608E-02  0.3355560E+00
         11   -1    0    0    0    0  0.00000000000E+00  0.00000000000E+00  0.39999999674E+01  0.40000000000E+01  0.51100000000E-03 0.  1.
    9000002   -1    0    0    0    0 -0.00000000000E+00 -0.00000000000E+00  0.00000000000E+00  0.93800000000E+00  0.93800000000E+00 0.  1.
         11    1    1    2    0    0 -0.52077905467E-01 -0.84298940993E-01  0.94411788428E+00  0.94930356590E+00  0.51100000000E-03 0.  1.
    9000002    1    1    2    0    0  0.29744242418E+00  0.19357014991E+00  0.85863780486E-01  0.10065574934E+01  0.93800000000E+00 0.  1.
         22    1    1    2    0    0 -0.24536451872E+00 -0.10927120891E+00  0.29700183026E+01  0.29821389407E+01  0.00000000000E+00 0.  1.
</event>
<event>
 5    1  0.1166492E+001  0.1533089E+01  0.7818608E-02  0.3429350E+00
         11   -1    0    0    0    0  0.00000000000E+00  0.00000000000E+00  0.39999999674E+01  0.40000000000E+01  0.51100000000E-03 0.  1.
    9000002   -1    0    0    0    0 -0.00000000000E+00 -0.00000000000E+00  0.00000000000E+00  0.93800000000E+00  0.93800000000E+00 0.  1.
         11    1    1    2    0    0  0.27995681511E+00  0.10641756912E+00  0.13380322410E+01  0.13711422451E+01  0.51100000000E-03 0.  1.
    9000002    1    1    2    0    0 -0.32407636707E-01  0.39084170841E-01  0.51647674774E-01  0.94079185245E+00  0.93800000000E+00 0.  1.
         22    1    1    2    0    0 -0.24754917841E+00 -0.14550173996E+00  0.26103200516E+01  0.26260659024E+01  0.00000000000E+00 0.  1.
</event>
<event>
 5    1  0.1166492E+001  0.1568948E+01  0.7818608E-02  0.3387771E+00
         11   -1    0    0    0    0  0.00000000000E+00  0.00000000000E+00  0.39999999674E+01  0.40000000000E+01  0.51100000000E-03 0. -1.
    9000002   -1    0    0    0    0 -0.00000000000E+00 -0.00000000000E+00  0.00000000000E+00  0.93800000000E+00  0.93800000000E+00 0. -1.
         11    1    1    2    0    0 -0.72511469348E-01  0.12963135223E+00  0.10441080093E+01  0.10546203094E+01  0.51100000000E-03 0. -1.
    9000002    1    1    2    0    0  0.16029497359E+00  0.20432243102E+00  0.68803082918E-01  0.97571512164E+00  0.93800000000E+00 0. -1.
         22    1    1    2    0    0 -0.87783504244E-01 -0.33395378325E+00  0.28870888751E+01  0.29076645690E+01  0.00000000000E+00 0. -1.
</event>
<event>
 5    1  0.1166492E+001  0.1536408E+01  0.7818608E-02  0.3425415E+00
         11   -1    0    0    0    0  0.00000000000E+00  0.00000000000E+00  0.39999999674E+01  0.40000000000E+01  0.51100000000E-03 0. -1.
    9000002   -1    0    0    0    0 -0.00000000000E+00 -0.00000000000E+00  0.00000000000E+00  0.93800000000E+00  0.93800000000E+00 0.  1.
         11    1    1    2    0    0  0.87447871277E-01 -0.17965522370E+00  0.58683150763E+00  0.61991500148E+00  0.51100000000E-03 0. -1.
    9000002    1    1    2    0    0  0.13128446403E+00 -0.61931964561E-01  0.62086996193E-01  0.95119397277E+00  0.93800000000E+00 0.  1.
         22    1    1    2    0    0 -0.21873233530E+00  0.24158718826E+00  0.33510814635E+01  0.33668910258E+01  0.00000000000E+00 0. -1.
</event>
<event>
 5    1  0.1166492E+001  0.1572597E+01  0.7818608E-02  0.3383653E+00
         11   -1    0    0    0    0  0.00000000000E+00  0.00000000000E+00  0.39999999674E+01  0.40000000000E+01  0.51100000000E-03 0. -1.
    9000002   -1    0    0    0    0 -0.00000000000E+00 -0.00000000000E+00  0.00000000000E+00  0.93800000000E+00  0.93800000000E+00 0. -1.
         11    1    1    2    0    0 -0.29302416044E+00 -0.24956949983E+00  0.13807245020E+01  0.14333696332E+01  0.51100000000E-03 0. -1.
    9000002    1    1    2    0    0  0.56377071071E+00  0.20356357938E+00  0.27805731522E+00  0.11473601944E+01  0.93800000000E+00 0. -1.
         22    1    1    2    0    0 -0.27074655027E+00  0.46005920450E-01  0.23412181502E+01  0.23572701724E+01  0.00000000000E+00 0. -1.
</event>
<event>
 5    1  0.1166492E+001  0.1576476E+01  0.7818608E-02  0.3379298E+00
         11   -1    0    0    0    0  0.00000000000E+00  0.00000000000E+00  0.39999999674E+01  0.40000000000E+01  0.51100000000E-03 0.  1.
    9000002   -1    0    0    0    0 -0.00000000000E+00 -0.00000000000E+00  0.00000000000E+00  0.93800000000E+00  0.93800000000E+00 0.  1.
         11    1    1    2    0    0  0.18106878462E+00 -0.10787463867E+00  0.12690153298E+01  0.12863992423E+01  0.51100000000E-03 0.  1.
    9000002    1    1    2    0    0 -0.36697642043E+00 -0.16218866624E+00  0.12817966410E+00  0.10282270580E+01  0.93800000000E+00 0.  1.
         22    1    1    2    0    0  0.18590763582E+00  0.27006330491E+00  0.26028049735E+01  0.26233736996E+01  0.00000000000E+00 0.  1.
</event>
<event>
 5    1  0.1166492E+001  0.1611514E+01  0.7818608E-02  0.3340960E+00
         11   -1    0    0    0    0  0.00000000000E+00  0.00000000000E+00  0.39999999674E+01  0.40000000000E+01  0.51100000000E-03 0.  1.
    9000002   -1    0    0    0    0 -0.00000000000E+00 -0.00000000000E+00  0.00000000000E+00  0.93800000000E+00  0.93800000000E+00 0.  1.
         11    1    1    2    0    0 -0.18214379947E+00  0.21387760874E+00  0.77155307596E-01  0.29133004963E+00  0.51100000000E-03 0.  1.
    9000002    1    1    2    0    0 -0.10223750720E+00  0.16317141259E+00  0.31499196154E+00  0.10080383691E+01  0.93800000000E+00 0.  1.
         22    1    1    2    0    0  0.28438130666E+00 -0.37704902133E+00  0.36078526982E+01  0.36386315813E+01  0.00000000000E+00 0.  1.
</event>
<event>
 5    1  0.1166492E+001  0.1474190E+01  0.7818608E-02  0.3502358E+00
         11   -1    0    0    0    0  0.00000000000E+00  0.00000000000E+00  0.39999999674E+01  0.40000000000E+01  0.51100000000E-03 0.  1.
    9000002   -1    0    0    0    0 -0.00000000000E+00 -0.00000000000E+00  0.00000000000E+00  0.93800000000E+00  0.93800000000E+00 0. -1.
         11    1    1    2    0    0 -0.27171113400E+00  0.30743945493E+00  0.98221577437E+00  0.10644689039E+01  0.51100000000E-03 0.  1.
    9000002    1    1    2    0    0  0.27969391494E+00  0.42466196994E-01  0.15797825012E+00  0.99238762157E+00  0.93800000000E+00 0. -1.
         22    1    1    2    0    0 -0.79827809417E-02 -0.34990565193E+00  0.28598059429E+01  0.28811434745E+01  0.00000000000E+00 0.  1.
</event>
<event>
 5    1  0.1166492E+001  0.1533815E+01  0.7818608E-02  0.3428488E+00
         11   -1    0    0    0    0  0.00000000000E+00  0.00000000000E+00  0.39999999674E+01  0.40000000000E+01  0.51100000000E-03 0. -1.
    9000002   -1    0    0    0    0 -0.00000000000E+00 -0.00000000000E+00  0.00000000000E+00  0.93800000000E+00  0.93800000000E+00 0.  1.
         11    1    1    2    0    0  0.23119246182E+00  0.38816685213E-01  0.76763262779E+00  0.80263117422E+00  0.51100000000E-03 0. -1.
    9000002    1    1    2    0    0  0.64624896969E-01 -0.38158970069E-01  0.53233943364E-01  0.94250216818E+00  0.93800000000E+00 0.  1.
         22    1    1    2    0    0 -0.29581735879E+00 -0.65771514473E-03  0.31791333962E+01  0.31928666576E+01  0.00000000000E+00 0. -1.
</event>
<event>
 5    1  0.1166492E+001  0.1452474E+01  0.7818608E-02  0.3530895E+00
         11   -1    0    0    0    0  0.00000000000E+00  0.00000000000E+00  0.39999999674E+01  0.40000000000E+01  0.51100000000E-03 0. -1.
    9000002   -1    0    0    0    0 -0.00000000000E+00 -0.00000000000E+00  0.00000000000E+00  0.93800000000E+00  0.93800000000E+00 0.  1.
         11    1    1    2    0    0 -0.17460558268E+00  0.16125245667E+00  0.28163217912E+00  0.36851921215E+00  0.51100000000E-03 0. -1.
    9000002    1    1    2    0    0 -0.20313333237E+00  0.86733159909E-01  0.15315801766E+00  0.97574954272E+00  0.93800000000E+00 0.  1.
         22    1    1    2    0    0  0.37773891505E+00 -0.24798561658E+00  0.35652097706E+01  0.35937312451E+01  0.00000000000E+00 0. -1.
</event>
<event>
 5    1  0.1166492E+001  0.1472660E+01  0.7818608E-02  0.3504338E+00
         11   -1    0    0    0    0  0.00000000000E+00  0.00000000000E+00  0.39999999674E+01  0.40000000000E+01  0.51100000000E-03 0.  1.
    9000002   -1    0    0    0    0 -0.00000000000E+00 -0.00000000000E+00  0.00000000000E+00  0.93800000000E+00  0.93800000000E+00 0. -1.
         11    1    1    2    0    0  0.28931042807E+00 -0.33665592415E+00  0.58017946580E+00  0.73051092306E+00  0.51100000000E-03 0.  1.
    9000002    1    1    2    0    0 -0.20183923313E+00  0.66461460167E+00  0.50293355135E+00  0.12709200612E+01  0.93800000000E+00 0. -1.
         22    1    1    2    0    0 -0.87471194939E-01 -0.32795867752E+00  0.29168869502E+01  0.29365690158E+01  0.00000000000E+00 0.  1.
</event>
<event>
 5    1  0.1166492E+001  0.1504303E+01  0.7818608E-02  0.3464262E+00
         11   -1    0    0    0    0  0.00000000000E+00  0.00000000000E+00  0.39999999674E+01  0.40000000000E+01  0.51100000000E-03 0.  1.
    9000002   -1    0    0    0    0 -0.00000000000E+00 -0.00000000000E+00  0.00000000000E+00  0.93800000000E+00  0.93800000000E+00 0. -1.
         11    1    1    2    0    0 -0.28604810022E+00  0.22815133984E+00  0.12454853020E+01  0.12981180409E+01  0.51100000000E-03 0.  1.
    9000002    1    1    2    0    0  0.14117105890E-01 -0.78404571890E-01  0.77098398150E-01  0.94452884158E+00  0.93800000000E+00 0. -1.
         22    1    1    2    0    0  0.27193099433E+00 -0.14974676795E+00  0.26774162672E+01  0.26953531175E+01  0.00000000000E+00 0.  1.
</event>
<event>
 5    1  0.1166492E+001  0.1469915E+01  0.7818608E-02  0.3507903E+00
         11   -1    0    0    0    0  0.00000000000E+00  0.00000000000E+00  0.39999999674E+01  0.40000000000E+01  0.51100000000E-03 0.  1.
    9000002   -1    0    0    0    0 -0.00000000000E+00 -0.00000000000E+00  0.00000000000E+00  0.93800000000E+00  0.93800000000E+00 0. -1.
         11    1    1    2    0    0 -0.19128763912E+00 -0.37978294259E+00  0.10005736028E+01  0.10871862031E+01  0.51100000000E-03 0.  1.
    9000002    1    1    2    0    0  0.15673149895E+00  0.10191520056E+00  0.12708380206E+00  0.96485530709E+00  0.93800000000E+00 0. -1.
         22    1    1    2    0    0  0.34556140174E-01  0.27786774203E+00  0.28723425625E+01  0.28859584899E+01  0.00000000000E+00 0.  1.
</event>
<event>
 5    1  0.1166492E+001  0.1556887E+01  0.7818608E-02  0.3401528E+00
         11   -1    0    0    0    0  0.00000000000E+00  0.00000000000E+00  0.39999999674E+01  0.40000000000E+01  0.51100000000E-03 0.  1.
    9000002   -1    0    0    0    0 -0.00000000000E+00 -0.00000000000E+00  0.00000000000E+00  0.93800000000E+00  0.93800000000E+00 0. -1.
         11    1    1    2    0    0 -0.22358748311E+00  0.23054975858E-01  0.12772336535E+01  0.12968611959E+01  0.51100000000E-03 0.  1.
    9000002    1    1    2    0    0 -0.28326773433E-01 -0.95303265365E-01  0.38426945463E-01  0.94403694240E+00  0.93800000000E+00 0. -1.
         22    1    1    2    0    0  0.25191425654E+00  0.72248289507E-01  0.26843393684E+01  0.26971018617E+01  0.00000000000E+00 0.  1.
</event>
<event>
 5    1  0.1166492E+001  0.1512659E+01  0.7818608E-02  0.3453982E+00
         11   -1    0    0    0    0  0.00000000000E+00  0.00000000000E+00  0.39999999674E+01  0.40000000000E+01  0.51100000000E-03 0.  1.
    9000002   -1    0    0    0    0 -0.00000000000E+00 -0.00000000000E+00  0.00000000000E+00  0.93800000000E+00  0.93800000000E+00 0. -1.
         11    1    1    2    0    0  0.26168086222E-01 -0.54360519082E+00  0.85282053881E+00  0.10116790522E+01  0.51100000000E-03 0.  1.
    9000002    1    1    2    0    0  0.26573253380E-01  0.26644273476E+00  0.23878108109E+00  0.10042700202E+01  0.93800000000E+00 0. -1.
         22    1    1    2    0    0 -0.52741339602E-01  0.27716245605E+00  0.29083983475E+01  0.29220509276E+01  0.00000000000E+00 0.  1.
</event>
<event>
 5    1  0.1166492E+001  0.1468077E+01  0.7818608E-02  0.3510298E+00
         11   -1    0    0    0    0  0.00000000000E+00  0.00000000000E+00  0.39999999674E+01  0.40000000000E+01  0.51100000000E-03 0.  1.
    9000002   -1    0    0    0    0 -0.00000000000E+00 -0.00000000000E+00  0.00000000000E+00  0.93800000000E+00  0.93800000000E+00 0. -1.
         11    1    1    2    0    0  0.18913517103E+00 -0.23192249367E+00  0.51106843457E+00  0.59224265460E+00  0.51100000000E-03 0.  1.
    9000002    1    1    2    0    0 -0.84859633947E-01 -0.99576997897E-01  0.11506902757E+00  0.95404487163E+00  0.93800000000E+00 0. -1.
         22    1    1    2    0    0 -0.10427553708E+00  0.33149949157E+00  0.33738625052E+01  0.33917124738E+01  0.00000000000E+00 0.  1.
</event>
<event>
 5    1  0.1166492E+001  0.1501250E+01  0.7818608E-02  0.3468050E+00
         11   -1    0    0    0    0  0.00000000000E+00  0.00000000000E+00  0.39999999674E+01  0.40000000000E+01  0.51100000000E-03 0.  1.
    9000002   -1    0    0    0    0 -0.00000000000E+00 -0.00000000000E+00  0.00000000000E+00  0.93800000000E+00  0.93800000000E+00 0. -1.
         11    1    1    2    0    0 -0.32681600825E+00  0.17739871107E+00  0.12705883773E+01  0.13238859814E+01  0.51100000000E-03 0.  1.
    9000002    1    1    2    0    0  0.48685952878E-01 -0.22304996221E-01  0.77025565595E-01  0.94267957049E+00  0.93800000000E+00 0. -1.
         22    1    1    2    0    0  0.27813005538E+00 -0.15509371485E+00  0.26523860245E+01  0.26714344482E+01  0.00000000000E+00 0. -1.
</event>
<event>
 5    1  0.1166492E+001  0.1467942E+01  0.7818608E-02  0.3510475E+00
         11   -1    0    0    0    0  0.00000000000E+00  0.00000000000E+00  0.39999999674E+01  0.40000000000E+01  0.51100000000E-03 0. -1.
    9000002   -1    0    0    0    0 -0.00000000000E+00 -0.00000000000E+00  0.00000000000E+00  0.93800000000E+00  0.93800000000E+00 0. -1.
         11    1    1    2    0    0 -0.18162706927E+00  0.50930351694E+00  0.13423588647E+01  0.14471717408E+01  0.51100000000E-03 0. -1.
    9000002    1    1    2    0    0 -0.64497087620E-01 -0.21338043941E+00  0.17666914244E+00  0.98017706162E+00  0.93800000000E+00 0. -1.
         22    1    1    2    0    0  0.24612415689E+00 -0.29592307753E+00  0.24809719602E+01  0.25106511975E+01  0.00000000000E+00 0.  1.
</event>
<event>
 5    1  0.1166492E+001  0.1470456E+01  0.7818608E-02  0.3507200E+00
         11   -1    0    0    0    0  0.00000000000E+00  0.00000000000E+00  0.39999999674E+01  0.40000000000E+01  0.51100000000E-03 0. -1.
    9000002   -1    0    0    0    0 -0.00000000000E+00 -0.00000000000E+00  0.00000000000E+00  0.93800000000E+00  0.93800000000E+00 0. -1.
         11    1    1    2    0    0 -0.29765066161E-01  0.51019260561E+00  0.12374062292E+01  0.13387893378E+01  0.51100000000E-03 0. -1.
    9000002    1    1    2    0    0 -0.16687946215E+00 -0.13493033993E+00  0.17606154904E+00  0.97821092847E+00  0.93800000000E+00 0. -1.
         22    1    1    2    0    0  0.19664452831E+00 -0.37526226569E+00  0.25865321892E+01  0.26209997337E+01  0.00000000000E+00 0. -1.
</event>
<event>
 5    1  0.1166492E+001  0.1574384E+01  0.7818608E-02  0.3381644E+00
         11   -1    0    0    0    0  0.00000000000E+00  0.00000000000E+00  0.39999999674E+01  0.40000000000E+01  0.51100000000E-03 0. -1.
    9000002   -1    0    0    0    0 -0.00000000000E+00 -0.00000000000E+00  0.00000000000E+00  0.93800000000E+00  0.93800000000E+00 0. -1.
         11    1    1    2    0    0 -0.16025735027E+00 -0.96963000969E-01  0.14306173197E+01  0.14428272310E+01  0.51100000000E-03 0. -1.
    9000002    1    1    2    0    0 -0.62483350297E-01  0.32310102832E+00  0.92848664521E-01  0.99838034740E+00  0.93800000000E+00 0. -1.
         22    1    1    2    0    0  0.22274070056E+00 -0.22613802735E+00  0.24765339831E+01  0.24967924216E+01  0.00000000000E+00 0. -1.
</event>
<event>
 5    1  0.1166492E+001  0.1463342E+01  0.7818608E-02  0.3516499E+00
         11   -1    0    0    0    0  0.00000000000E+00  0.00000000000E+00  0.39999999674E+01  0.40000000000E+01  0.51100000000E-03 0.  1.
    9000002   -1    0    0    0    0 -0.00000000000E+00 -0.00000000000E+00  0.00000000000E+00  0.93800000000E+00  0.93800000000E+00 0. -1.
         11    1    1    2    0    0  0.55154192200E+00 -0.12921278716E+00  0.13444576338E+01  0.14589246129E+01  0.51100000000E-03 0.  1.
    9000002    1    1    2    0    0 -0.40863153891E+00 -0.51670822547E-01  0.23951438236E+00  0.10520744973E+01  0.93800000000E+00 0. -1.
         22    1    1    2    0    0 -0.14291038308E+00  0.18088360970E+00  0.24160279512E+01  0.24270008898E+01  0.00000000000E+00 0. -1.
</event>
<event>
 5    1  0.1166492E+001  0.1550151E+01  0.7818608E-02  0.3409311E+00
         11   -1    0    0    0    0  0.00000000000E+00  0.00000000000E+00  0.39999999674E+01  0.40000000000E+01  0.51100000000E-03 0.  1.
    9000002   -1    0    0    0    0 -0.00000000000E+00 -0.00000000000E+00  0.00000000000E+00  0.93800000000E+00  0.93800000000E+00 0.  1.
         11    1    1    2    0    0 -0.65504912773E-01  0.21151808282E+00  0.10623906497E+01  0.10852211510E+01  0.51100000000E-03 0.  1.
    9000002    1    1    2    0    0 -0.26457104564E-02  0.62238843531E-01  0.39421135632E-01  0.94089250149E+00  0.93800000000E+00 0.  1.
         22    1    1    2    0    0  0.68150623229E-01 -0.27375692635E+00  0.28981881820E+01  0.29118863475E+01  0.00000000000E+00 0.  1.
</event>
<event>
 5    1  0.1166492E+001  0.1453203E+01  0.7818608E-02  0.3529922E+00
         11   -1    0    0    0    0  0.00000000000E+00  0.00000000000E+00  0.39999999674E+01  0.40000000000E+01  0.51100000000E-03 0.  1.
    9000002   -1    0    0    0    0 -0.00000000000E+00 -0.00000000000E+00  0.00000000000E+00  0.93800000000E+00  0.93800000000E+00 0. -1.
         11    1    1    2    0    0 -0.35613796015E+00  0.32705618508E+00  0.11362501798E+01  0.12348541319E+01  0.51100000000E-03 0.  1.
    9000002    1    1    2    0    0  0.12453978168E+00 -0.15862178848E+00  0.14615346554E+00  0.97050289257E+00  0.93800000000E+00 0. -1.
         22    1    1    2    0    0  0.23159817847E+00 -0.16843439660E+00  0.27175963220E+01  0.27326429756E+01  0.00000000000E+00 0.  1.
</event>
<event>
 5    1  0.1166492E+001  0.1522863E+01  0.7818608E-02  0.3441590E+00
         11   -1    0    0    0    0  0.00000000000E+00  0.00000000000E+00  0.39999999674E+01  0.40000000000E+01  0.51100000000E-03 0.  1.
    9000002   -1    0    0    0    0 -0.00000000000E+00 -0.00000000000E+00  0.00000000000E+00  0.93800000000E+00  0.93800000000E+00 0.  1.
         11    1    1    2    0    0  0.29231598507E+00 -0.16177112580E+00  0.12190413744E+01  0.12639939343E+01  0.51100000000E-03 0.  1.
    9000002    1    1    2    0    0 -0.37828846088E-01  0.99706549382E-01  0.65899253180E-01  0.94633985922E+00  0.93800000000E+00 0.  1.
         22    1    1    2    0    0 -0.25448713898E+00  0.62064576420E-01  0.27150593398E+01  0.27276662065E+01  0.00000000000E+00 0. -1.
</event>
<event>
 5    1  0.1166492E+001  0.1520794E+01  0.7818608E-02  0.3444088E+00
         11   -1    0    0    0    0  0.00000000000E+00  0.00000000000E+00  0.39999999674E+01  0.40000000000E+01  0.51100000000E-03 0. -1.
    9000002   -1    0    0    0    0 -0.00000000000E+00 -0.00000000000E+00  0.00000000000E+00  0.93800000000E+00  0.93800000000E+00 0.  1.
         11    1    1    2    0    0 -0.10212267541E+00  0.32693235839E+00  0.14103749571E+01  0.14513688671E+01  0.51100000000E-03 0. -1.
    9000002    1    1    2    0    0  0.70309593835E-01 -0.32018090382E-01  0.63678711145E-01  0.94332792567E+00  0.93800000000E+00 0.  1.
         22    1    1    2    0    0  0.31813081579E-01 -0.29491426801E+00  0.25259462992E+01  0.25433032072E+01  0.00000000000E+00 0. -1.
</event>
<event>
 5    1  0.1166492E+001  0.1579912E+01  0.7818608E-02  0.3375459E+00
         11   -1    0    0    0    0  0.00000000000E+00  0.00000000000E+00  0.39999999674E+01  0.40000000000E+01  0.51100000000E-03 0.  1.
    9000002   -1    0    0    0    0 -0.00000000000E+00 -0.00000000000E+00  0.00000000000E+00  0.93800000000E+00  0.93800000000E+00 0.  1.
         11    1    1    2    0    0 -0.25122198238E-01  0.13493684389E+00  0.10199625965E+01  0.10291564682E+01  0.51100000000E-03 0.  1.
    9000002    1    1    2    0    0 -0.22619219979E+00 -0.48875110258E-01  0.50665294612E-01  0.96745163172E+00  0.93800000000E+00 0.  1.
         22    1    1    2    0    0  0.25131439803E+00 -0.86061733636E-01  0.29293720762E+01  0.29413919001E+01  0.00000000000E+00 0.  1.
</event>
<event>
 5    1  0.1166492E+001  0.1520768E+01  0.7818608E-02  0.3444120E+00
         11   -1    0    0    0    0  0.00000000000E+00  0.00000000000E+00  0.39999999674E+01  0.40000000000E+01  0.51100000000E-03 0.  1.
    9000002   -1    0    0    0    0 -0.00000000000E+00 -0.00000000000E+00  0.00000000000E+00  0.93800000000E+00  0.93800000000E+00 0.  1.
         11    1    1    2    0    0  0.30708143881E+00  0.71806137541E-01  0.11029626140E+01  0.11471625519E+01  0.51100000000E-03 0.  1.
    9000002    1    1    2    0    0 -0.69889245850E-01  0.10728349050E+00  0.71155140803E-01  0.94936889989E+00  0.93800000000E+00 0.  1.
         22    1    1    2    0    0 -0.23719219296E+00 -0.17908962804E+00  0.28258822126E+01  0.28414685482E+01  0.00000000000E+00 0.  1.
</event>
<event>
 5    1  0.1166492E+001  0.1520313E+01  0.7818608E-02  0.3444670E+00
         11   -1    0    0    0    0  0.00000000000E+00  0.00000000000E+00  0.39999999674E+01  0.40000000000E+01  0.51100000000E-03 0. -1.
    9000002   -1    0    0    0    0 -0.00000000000E+00 -0.00000000000E+00  0.00000000000E+00  0.93800000000E+00  0.93800000000E+00 0.  1.
         11    1    1    2    0    0  0.30832272474E+00 -0.16019924883E+00  0.13662389222E+01  0.14097289653E+01  0.51100000000E-03 0. -1.
    9000002    1    1    2    0    0  0.26520156322E-01  0.27031470901E+00  0.11307380007E+00  0.98305800686E+00  0.93800000000E+00 0.  1.
         22    1    1    2    0    0 -0.33484288106E+00 -0.11011546018E+00  0.25206872451E+01  0.25452130279E+01  0.00000000000E+00 0. -1.
</event>
<event>
 5    1  0.1166492E+001  0.1541380E+01  0.7818608E-02  0.3419553E+00
         11   -1    0    0    0    0  0.00000000000E+00  0.00000000000E+00  0.39999999674E+01  0.40000000000E+01  0.51100000000E-03 0. -1.
    9000002   -1    0    0    0    0 -0.00000000000E+00 -0.00000000000E+00  0.00000000000E+00  0.93800000000E+00  0.93800000000E+00 0. -1.
         11    1    1    2    0    0 -0.10994466959E+00  0.32436065149E+00  0.12267158969E+01  0.12736286019E+01  0.51100000000E-03 0. -1.
    9000002    1    1    2    0    0 -0.14029326920E+00 -0.31761678014E+00  0.12925715155E+00  0.10085207145E+01  0.93800000000E+00 0. -1.
         22    1    1    2    0    0  0.25023793879E+00 -0.67438713431E-02  0.26440269189E+01  0.26558506836E+01  0.00000000000E+00 0. -1.
</event>
<event>
 5    1  0.1166492E+001  0.1574311E+01  0.7818608E-02  0.3381726E+00
         11   -1    0    0    0    0  0.00000000000E+00  0.00000000000E+00  0.39999999674E+01  0.40000000000E+01  0.51100000000E-03 0.  1.
    9000002   -1    0    0    0    0 -0.00000000000E+00 -0.00000000000E+00  0.00000000000E+00  0.93800000000E+00  0.93800000000E+00 0.  1.
         11    1    1    2    0    0  0.73858450693E-01 -0.61480627749E-01  0.41398853215E+00  0.42499612257E+00  0.51100000000E-03 0.  1.
    9000002    1    1    2    0    0  0.23774780928E+00 -0.24843962536E-01  0.57476463593E-01  0.96968489065E+00  0.93800000000E+00 0.  1.
         22    1    1    2    0    0 -0.31160625997E+00  0.86324590285E-01  0.35285349716E+01  0.35433189868E+01  0.00000000000E+00 0.  1.
</event>
<event>
 5    1  0.1166492E+001  0.1536702E+01  0.7818608E-02  0.3425067E+00
         11   -1    0    0    0    0  0.00000000000E+00  0.00000000000E+00  0.39999999674E+01  0.40000000000E+01  0.51100000000E-03 0. -1.
    9000002   -1    0    0    0    0 -0.00000000000E+00 -0.00000000000E+00  0.00000000000E+00  0.93800000000E+00  0.93800000000E+00 0.  1.
         11    1    1    2    0    0  0.75975577793E-01 -0.23065913455E+00  0.88330172876E+00  0.91607757856E+00  0.51100000000E-03 0. -1.
    9000002    1    1    2    0    0 -0.79236189098E-01 -0.68098195650E-01  0.54702448678E-01  0.94538462850E+00  0.93800000000E+00 0.  1.
         22    1    1    2    0    0  0.32606113047E-02  0.29875733020E+00  0.30619957899E+01  0.30765377929E+01  0.00000000000E+00 0. -1.
</event>
<event>
 5    1  0.1166492E+001  0.1074672E+01  0.7818608E-02  0.4330655E+00
         11   -1    0    0    0    0  0.00000000000E+00  0.00000000000E+00  0.39999999674E+01  0.40000000000E+01  0.51100000000E-03 0.  1.
    9000002   -1    0    0    0    0 -0.00000000000E+00 -0.00000000000E+00  0.00000000000E+00  0.93800000000E+00  0.93800000000E+00 0.  1.
         11    1    1    2    0    0 -0.49297347516E+00  0.21299079162E+00  0.85085993630E-01  0.54371666515E+00  0.51100000000E-03 0.  1.
    9000002    1    1    2    0    0  0.37455944685E+00  0.45388172175E-01  0.86331777994E+00  0.13294797684E+01  0.93800000000E+00 0.  1.
         22    1    1    2    0    0  0.11841402832E+00 -0.25837896380E+00  0.30515961938E+01  0.30648035665E+01  0.00000000000E+00 0.  1.
</event>
<event>
 5    1  0.1166492E+001  0.1532641E+01  0.7818608E-02  0.3429882E+00
         11   -1    0    0    0    0  0.00000000000E+00  0.00000000000E+00  0.39999999674E+01  0.40000000000E+01  0.51100000000E-03 0.  1.
    9000002   -1    0    0    0    0 -0.00000000000E+00 -0.00000000000E+00  0.00000000000E+00  0.93800000000E+00  0.93800000000E+00 0. -1.
         11    1    1    2    0    0  0.35827425874E-01 -0.29830022083E+00  0.13256670293E+01  0.13592865629E+01  0.51100000000E-03 0.  1.
    9000002    1    1    2    0    0 -0.38944072046E-01  0.13237994860E-01  0.51371863853E-01  0.94030577668E+00  0.93800000000E+00 0. -1.
         22    1    1    2    0    0  0.31166461728E-02  0.28506222597E+00  0.26229610742E+01  0.26384076605E+01  0.00000000000E+00 0.  1.
</event>
<event>
 5    1  0.1166492E+001  0.1475810E+01  0.7818608E-02  0.3500265E+00
         11   -1    0    0    0    0  0.00000000000E+00  0.00000000000E+00  0.39999999674E+01  0.40000000000E+01  0.51100000000E-03 0.  1.
    9000002   -1    0    0    0    0 -0.00000000000E+00 -0.00000000000E+00  0.00000000000E+00  0.93800000000E+00  0.93800000000E+00 0.  1.
         11    1    1    2    0    0 -0.51383581530E-01 -0.90882164135E-01  0.12349391062E-01  0.10513138822E+00  0.51100000000E-03 0.  1.
    9000002    1    1    2    0    0  0.32875771865E+00 -0.11590314564E+00  0.18884686607E+00  0.10183429263E+01  0.93800000000E+00 0.  1.
         22    1    1    2    0    0 -0.27737413712E+00  0.20678530978E+00  0.37988037102E+01  0.38145256855E+01  0.00000000000E+00 0.  1.
</event>
<event>
 5    1  0.1166492E+001  0.1485558E+01  0.7818608E-02  0.3487780E+00
         11   -1    0    0    0    0  0.00000000000E+00  0.00000000000E+00  0.39999999674E+01  0.40000000000E+01  0.51100000000E-03 0.  1.
    9000002   -1    0    0    0    0 -0.00000000000E+00 -0.00000000000E+00  0.00000000000E+00  0.93800000000E+00  0.93800000000E+00 0.  1.
         11    1    1    2    0    0 -0.13423995422E+00  0.31477876011E+00  0.80410572214E+00  0.87389490594E+00  0.51100000000E-03 0.  1.
    9000002    1    1    2    0    0  0.32216614714E-01 -0.36474666829E-01  0.89405933651E-01  0.94350714494E+00  0.93800000000E+00 0.  1.
         22    1    1    2    0    0  0.10202333951E+00 -0.27830409328E+00  0.31064883116E+01  0.31205979491E+01  0.00000000000E+00 0.  1.
</event>
<event>
 5    1  0.1166492E+001  0.1492003E+01  0.7818608E-02  0.3479623E+00
         11   -1    0    0    0    0  0.00000000000E+00  0.00000000000E+00  0.39999999674E+01  0.40000000000E+01  0.51100000000E-03 0. -1.
    9000002   -1    0    0    0    0 -0.00000000000E+00 -0.00000000000E+00  0.00000000000E+00  0.93800000000E+00  0.93800000000E+00 0.  1.
         11    1    1    2    0    0  0.25180249734E+00  0.92918639030E-01  0.64469070623E+00  0.69832996425E+00  0.51100000000E-03 0. -1.
    9000002    1    1    2    0    0  0.79446722968E-01  0.24452130918E+00  0.13159368100E+00  0.98145980524E+00  0.93800000000E+00 0.  1.
         22    1    1    2    0    0 -0.33124922030E+00 -0.33743994821E+00  0.32237155801E+01  0.32582102305E+01  0.00000000000E+00 0. -1.
</event>
<event>
 5    1  0.1166492E+001  0.1542245E+01  0.7818608E-02  0.3418537E+00
         11   -1    0    0    0    0  0.00000000000E+00  0.00000000000E+00  0.39999999674E+01  0.40000000000E+01  0.51100000000E-03 0.  1.
    9000002   -1    0    0    0    0 -0.00000000000E+00 -0.00000000000E+00  0.00000000000E+00  0.93800000000E+00  0.93800000000E+00 0.  1.
         11    1    1    2    0    0  0.11721525893E+00  0.25793737464E+00  0.12321958537E+01  0.12643488400E+01  0.51100000000E-03 0.  1.
    9000002    1    1    2    0    0  0.94652120668E-01 -0.10813671547E+00  0.57212145602E-01  0.95066808234E+00  0.93800000000E+00 0.  1.
         22    1    1    2    0    0 -0.21186737960E+00 -0.14980065918E+00  0.27105919680E+01  0.27229830776E+01  0.00000000000E+00 0.  1.
</event>
<event>
 5    1  0.1166492E+001  0.1495150E+01  0.7818608E-02  0.3475666E+00
         11   -1    0    0    0    0  0.00000000000E+00  0.00000000000E+00  0.39999999674E+01  0.40000000000E+01  0.51100000000E-03 0. -1.
    9000002   -1    0    0    0    0 -0.00000000000E+00 -0.00000000000E+00  0.00000000000E+00  0.93800000000E+00  0.93800000000E+00 0. -1.
         11    1    1    2    0    0 -0.36367449524E+00 -0.18272098078E+00  0.11974541985E+01  0.12647303720E+01  0.51100000000E-03 0. -1.
    9000002    1    1    2    0    0  0.12961957809E+00  0.73693415536E-01  0.96201800986E-01  0.95463644443E+00  0.93800000000E+00 0. -1.
         22    1    1    2    0    0  0.23405491714E+00  0.10902756524E+00  0.27063439679E+01  0.27186331835E+01  0.00000000000E+00 0. -1.
</event>
<event>
 5    1  0.1166492E+001  0.1448825E+01  0.7818608E-02  0.3535781E+00
         11   -1    0    0    0    0  0.00000000000E+00  0.00000000000E+00  0.39999999674E+01  0.40000000000E+01  0.51100000000E-03 0.  1.
    9000002   -1    0    0    0    0 -0.00000000000E+00 -0.00000000000E+00  0.00000000000E+00  0.93800000000E+00  0.93800000000E+00 0. -1.
         11    1    1    2    0    0 -0.22470774941E+00  0.31813675694E+00  0.14448700186E+01  0.14964471927E+01  0.51100000000E-03 0.  1.
    9000002    1    1    2    0    0 -0.89325063053E-01  0.14263304272E+00  0.14038424748E+00  0.96326262707E+00  0.93800000000E+00 0. -1.
         22    1    1    2    0    0  0.31403281247E+00 -0.46076979966E+00  0.24147457013E+01  0.24782901803E+01  0.00000000000E+00 0.  1.
</event>
<event>
 5    1  0.1166492E+001  0.1493815E+01  0.7818608E-02  0.3477342E+00
         11   -1    0    0    0    0  0.00000000000E+00  0.00000000000E+00  0.39999999674E+01  0.40000000000E+01  0.51100000000E-03 0.  1.
    9000002   -1    0    0    0    0 -0.00000000000E+00 -0.00000000000E+00  0.00000000000E+00  0.93800000000E+00  0.93800000000E+00 0.  1.
         11    1    1    2    0    0  0.91325622722E-01  0.25002740963E+00  0.51989871749E+00  0.58407962856E+00  0.51100000000E-03 0.  1.
    9000002    1    1    2    0    0  0.10358503533E+00 -0.28976001757E-03  0.88818021204E-01  0.94787266254E+00  0.93800000000E+00 0.  1.
         22    1    1    2    0    0 -0.19491065805E+00 -0.24973764961E+00  0.33912832287E+01  0.34060477089E+01  0.00000000000E+00 0.  1.
</event>
<event>
 5    1  0.1166492E+001  0.1537106E+01  0.7818608E-02  0.3424589E+00
         11   -1    0    0    0    0  0.00000000000E+00  0.00000000000E+00  0.39999999674E+01  0.40000000000E+01  0.51100000000E-03 0.  1.
    9000002   -1    0    0    0    0 -0.00000000000E+00 -0.00000000000E+00  0.00000000000E+00  0.93800000000E+00  0.93800000000E+00 0.  1.
         11    1    1    2    0    0  0.23231660518E+00  0.53070069151E-01  0.83173629796E+00  0.86520111404E+00  0.51100000000E-03 0.  1.
    9000002    1    1    2    0    0 -0.68253106444E-02  0.16225954182E+00  0.65280844327E-01  0.95419093080E+00  0.93800000000E+00 0.  1.
         22    1    1    2    0    0 -0.22549129453E+00 -0.21532961097E+00  0.31029828251E+01  0.31186079552E+01  0.00000000000E+00 0.  1.
</event>
<event>
 5    1  0.1166492E+001  0.1580862E+01  0.7818608E-02  0.3374400E+00
         11   -1    0    0    0    0  0.00000000000E+00  0.00000000000E+00  0.39999999674E+01  0.40000000000E+01  0.51100000000E-03 0.  1.
    9000002   -1    0    0    0    0 -0.00000000000E+00 -0.00000000000E+00  0.00000000000E+00  0.93800000000E+00  0.93800000000E+00 0.  1.
         11    1    1    2    0    0 -0.32179173730E-01  0.85355069169E-01  0.91436804575E+00  0.91890705257E+00  0.51100000000E-03 0.  1.
    9000002    1    1    2    0    0  0.58788428264E-01  0.22732940923E+00  0.51009340139E-01  0.96828750502E+00  0.93800000000E+00 0.  1.
         22    1    1    2    0    0 -0.26609254535E-01 -0.31268447840E+00  0.30346225815E+01  0.30508054424E+01  0.00000000000E+00 0.  1.
</event>
<event>
 5    1  0.1166492E+001  0.1585123E+01  0.7818608E-02  0.3369670E+00
         11   -1    0    0    0    0  0.00000000000E+00  0.00000000000E+00  0.39999999674E+01  0.40000000000E+01  0.51100000000E-03 0.  1.
    9000002   -1    0    0    0    0 -0.00000000000E+00 -0.00000000000E+00  0.00000000000E+00  0.93800000000E+00  0.93800000000E+00 0.  1.
         11    1    1    2    0    0 -0.38042489198E-01 -0.13036223184E-01  0.14652520187E+01  0.14658038455E+01  0.51100000000E-03 0.  1.
    9000002    1    1    2    0    0 -0.22042726793E+00  0.22956035865E+00  0.79281889797E-01  0.99368795744E+00  0.93800000000E+00 0.  1.
         22    1    1    2    0    0  0.25846975713E+00 -0.21652413547E+00  0.24554660589E+01  0.24785081971E+01  0.00000000000E+00 0.  1.
</event>
<event>
 5    1  0.1166492E+001  0.1355683E+01  0.7818608E-02  0.3680654E+00
         11   -1    0    0    0    0  0.00000000000E+00  0.00000000000E+00  0.39999999674E+01  0.40000000000E+01  0.51100000000E-03 0.  1.
    9000002   -1    0    0    0    0 -0.00000000000E+00 -0.00000000000E+00  0.00000000000E+00  0.93800000000E+00  0.93800000000E+00 0. -1.
         11    1    1    2    0    0  0.82006545191E+00  0.17887854755E+00  0.10053960172E+01  0.13097046585E+01  0.51100000000E-03 0.  1.
    9000002    1    1    2    0    0 -0.81456121709E+00  0.13451172325E+00  0.97617570638E+00  0.15856753734E+01  0.93800000000E+00 0. -1.
         22    1    1    2    0    0 -0.55042348188E-02 -0.31339027080E+00  0.20184282438E+01  0.20426199681E+01  0.00000000000E+00 0.  1.
</event>
<event>
 5    1  0.1166492E+001  0.1593095E+01  0.7818608E-02  0.3360893E+00
         11   -1    0    0    0    0  0.00000000000E+00  0.00000000000E+00  0.39999999674E+01  0.40000000000E+01  0.51100000000E-03 0. -1.
    9000002   -1    0    0    0    0 -0.00000000000E+00 -0.00000000000E+00  0.00000000000E+00  0.93800000000E+00  0.93800000000E+00 0. -1.
         11    1    1    2    0    0 -0.30037336993E-01 -0.97659482215E-01  0.11273252759E+01  0.11319461802E+01  0.51100000000E-03 0. -1.
    9000002    1    1    2    0    0  0.33094883086E+00  0.13210982147E+00  0.90541646416E-01  0.10074829643E+01  0.93800000000E+00 0. -1.
         22    1    1    2    0    0 -0.30091149387E+00 -0.34450339251E-01  0.27821330451E+01  0.27985708555E+01  0.00000000000E+00 0. -1.
</event>
<event>
 5    1  0.1166492E+001  0.1526639E+01  0.7818608E-02  0.3437050E+00
         11   -1    0    0    0    0  0.00000000000E+00  0.00000000000E+00  0.39999999674E+01  0.40000000000E+01  0.51100000000E-03 0.  1.
    9000002   -1    0    0    0    0 -0.00000000000E+00 -0.00000000000E+00  0.00000000000E+00  0.93800000000E+00  0.93800000000E+00 0.  1.
         11    1    1    2    0    0 -0.30500968828E+00 -0.12342931013E-01  0.12603949610E+01  0.12968342133E+01  0.51100000000E-03 0.  1.
    9000002    1    1    2    0    0  0.42460576139E-02  0.79982019312E-01  0.59394936759E-01  0.94328516946E+00  0.93800000000E+00 0.  1.
         22    1    1    2    0    0  0.30076363066E+00 -0.67639088299E-01  0.26802100696E+01  0.26978806173E+01  0.00000000000E+00 0.  1.
</event>
<event>
 5    1  0.1166492E+001  0.1575454E+01  0.7818608E-02  0.3380443E+00
         11   -1    0    0    0    0  0.00000000000E+00  0.00000000000E+00  0.39999999674E+01  0.40000000000E+01  0.51100000000E-03 0.  1.
    9000002   -1    0    0    0    0 -0.00000000000E+00 -0.00000000000E+00  0.00000000000E+00  0.93800000000E+00  0.93800000000E+00 0. -1.
         11    1    1    2    0    0 -0.75134768895E-01  0.37150611298E+00  0.12144278955E+01  0.12722017922E+01  0.51100000000E-03 0.  1.
    9000002    1    1    2    0    0  0.28405089349E+00 -0.58505923860E+00  0.32447756103E+00  0.11866376491E+01  0.93800000000E+00 0. -1.
         22    1    1    2    0    0 -0.20891612459E+00  0.21355312562E+00  0.24610945108E+01  0.24791605587E+01  0.00000000000E+00 0. -1.
</event>
<event>
 5    1  0.1166492E+001  0.1554839E+01  0.7818608E-02  0.3403887E+00
         11   -1    0    0    0    0  0.00000000000E+00  0.00000000000E+00  0.39999999674E+01  0.40000000000E+01  0.51100000000E-03 0.  1.
    9000002   -1    0    0    0    0 -0.00000000000E+00 -0.00000000000E+00  0.00000000000E+00  0.93800000000E+00  0.93800000000E+00 0. -1.
         11    1    1    2    0    0  0.54281695538E+00  0.13820500034E+00  0.12491425973E+01  0.13689807737E+01  0.51100000000E-03 0.  1.
    9000002    1    1    2    0    0 -0.77485208146E+00 -0.39934789237E+00  0.64388871304E+00  0.14332868387E+01  0.93800000000E+00 0. -1.
         22    1    1    2    0    0  0.23203512608E+00  0.26114289203E+00  0.21069686570E+01  0.21357323876E+01  0.00000000000E+00 0. -1.
</event>
<event>
 5    1  0.1166492E+001  0.1486802E+01  0.7818608E-02  0.3486199E+00
         11   -1    0    0    0    0  0.00000000000E+00  0.00000000000E+00  0.39999999674E+01  0.40000000000E+01  0.51100000000E-03 0. -1.
    9000002   -1    0    0    0    0 -0.00000000000E+00 -0.00000000000E+00  0.00000000000E+00  0.93800000000E+00  0.93800000000E+00 0. -1.
         11    1    1    2    0    0 -0.26455338878E+00  0.12331693665E+00  0.65145751899E+00  0.71385763465E+00  0.51100000000E-03 0. -1.
    9000002    1    1    2    0    0 -0.84134022716E-01  0.80491674664E-02  0.91922736366E-01  0.94627538927E+00  0.93800000000E+00 0. -1.
         22    1    1    2    0    0  0.34868741150E+00 -0.13136610412E+00  0.32566197120E+01  0.32778669761E+01  0.00000000000E+00 0. -1.
</event>
<event>
 5    1  0.1166492E+001  0.1556661E+01  0.7818608E-02  0.3401788E+00
         11   -1    0    0    0    0  0.00000000000E+00  0.00000000000E+00  0.39999999674E+01  0.40000000000E+01  0.51100000000E-03 0. -1.
    9000002   -1    0    0    0    0 -0.00000000000E+00 -0.00000000000E+00  0.00000000000E+00  0.93800000000E+00  0.93800000000E+00 0.  1.
         11    1    1    2    0    0 -0.72082337200E-01 -0.18290938184E+00  0.11646531338E+01  0.11811303436E+01  0.51100000000E-03 0. -1.
    9000002    1    1    2    0    0  0.31237244777E-01 -0.12157809041E+00  0.42646553517E-01  0.94732239816E+00  0.93800000000E+00 0.  1.
         22    1    1    2    0    0  0.40845092422E-01  0.30448747224E+00  0.27927002801E+01  0.28095472583E+01  0.00000000000E+00 0. -1.
</event>
<event>
 5    1  0.1166492E+001  0.1577042E+01  0.7818608E-02  0.3378664E+00
         11   -1    0    0    0    0  0.00000000000E+00  0.00000000000E+00  0.39999999674E+01  0.40000000000E+01  0.51100000000E-03 0.  1.
    9000002   -1    0    0    0    0 -0.00000000000E+00 -0.00000000000E+00  0.00000000000E+00  0.93800000000E+00  0.93800000000E+00 0.  1.
         11    1    1    2    0    0 -0.65096061879E-01 -0.13070185611E+00  0.14075973286E+01  0.14151505125E+01  0.51100000000E-03 0.  1.
    9000002    1    1    2    0    0  0.12174769379E+00 -0.11593144277E+00  0.35659082134E-01  0.95361321850E+00  0.93800000000E+00 0.  1.
         22    1    1    2    0    0 -0.56651631911E-01  0.24663329888E+00  0.25567435567E+01  0.25692362690E+01  0.00000000000E+00 0.  1.
</event>
<event>
 5    1  0.1166492E+001  0.1547046E+01  0.7818608E-02  0.3412923E+00
         11   -1    0    0    0    0  0.00000000000E+00  0.00000000000E+00  0.39999999674E+01  0.40000000000E+01  0.51100000000E-03 0. -1.
    9000002   -1    0    0    0    0 -0.00000000000E+00 -0.00000000000E+00  0.00000000000E+00  0.93800000000E+00  0.93800000000E+00 0.  1.
         11    1    1    2    0    0  0.80335730778E-01  0.25795741110E+00  0.12933004510E+01  0.13212199564E+01  0.51100000000E-03 0. -1.
    9000002    1    1    2    0    0  0.36113519936E-01 -0.47420781737E-01  0.41568057369E-01  0.94081072499E+00  0.93800000000E+00 0.  1.
         22    1    1    2    0    0 -0.11644925071E+00 -0.21053662937E+00  0.26651314590E+01  0.26759693186E+01  0.00000000000E+00 0. -1.
</event>
<event>
 5    1  0.1166492E+001  0.1554840E+01  0.7818608E-02  0.3403886E+00
         11   -1    0    0    0    0  0.00000000000E+00  0.00000000000E+00  0.39999999674E+01  0.40000000000E+01  0.51100000000E-03 0.  1.
    9000002   -1    0    0    0    0 -0.00000000000E+00 -0.00000000000E+00  0.00000000000E+00  0.93800000000E+00  0.93800000000E+00 0. -1.
         11    1    1    2    0    0  0.20933088131E+00  0.68316109861E-02  0.11822230571E+01  0.12006322112E+01  0.51100000000E-03 0.  1.
    9000002    1    1    2    0    0  0.74910989224E-01  0.69606703272E-01  0.40383552218E-01  0.94442129409E+00  0.93800000000E+00 0. -1.
         22    1    1    2    0    0 -0.28424187053E+00 -0.76438314258E-01  0.27773933580E+01  0.27929464947E+01  0.00000000000E+00 0.  1.
</event>
<event>
 5    1  0.1166492E+001  0.1545703E+01  0.7818608E-02  0.3414489E+00
         11   -1    0    0    0    0  0.00000000000E+00  0.00000000000E+00  0.39999999674E+01  0.40000000000E+01  0.51100000000E-03 0.  1.
    9000002   -1    0    0    0    0 -0.00000000000E+00 -0.00000000000E+00  0.00000000000E+00  0.93800000000E+00  0.93800000000E+00 0. -1.
         11    1    1    2    0    0 -0.25047343709E+00 -0.26422786784E-01  0.95278481627E+00  0.98551218845E+00  0.51100000000E-03 0.  1.
    9000002    1    1    2    0    0  0.15662147347E+00 -0.36670271066E+00  0.15355760607E+00  0.10307400751E+01  0.93800000000E+00 0. -1.
         22    1    1    2    0    0  0.93851963625E-01  0.39312549745E+00  0.28936575450E+01  0.29217477365E+01  0.00000000000E+00 0. -1.
</event>
<event>
 5    1  0.1166492E+001  0.1556017E+01  0.7818608E-02  0.3402530E+00
         11   -1    0    0    0    0  0.00000000000E+00  0.00000000000E+00  0.39999999674E+01  0.40000000000E+01  0.51100000000E-03 0.  1.
    9000002   -1    0    0    0    0 -0.00000000000E+00 -0.00000000000E+00  0.00000000000E+00  0.93800000000E+00  0.93800000000E+00 0. -1.
         11    1    1    2    0    0  0.15462375607E+00  0.14827380650E+00  0.12289169929E+01  0.12474497442E+01  0.51100000000E-03 0.  1.
    9000002    1    1    2    0    0 -0.98466638299E-01  0.15732225399E+00  0.56082760886E-01  0.95782840140E+00  0.93800000000E+00 0. -1.
         22    1    1    2    0    0 -0.56157117767E-01 -0.30559606049E+00  0.27150002136E+01  0.27327218544E+01  0.00000000000E+00 0.  1.
</event>
<event>
 5    1  0.1166492E+001  0.1502623E+01  0.7818608E-02  0.3466344E+00
         11   -1    0    0    0    0  0.00000000000E+00  0.00000000000E+00  0.39999999674E+01  0.40000000000E+01  0.51100000000E-03 0. -1.
    9000002   -1    0    0    0    0 -0.00000000000E+00 -0.00000000000E+00  0.00000000000E+00  0.93800000000E+00  0.93800000000E+00 0. -1.
         11    1    1    2    0    0 -0.24678521805E+00 -0.26273043132E+00  0.10021440970E+01  0.10649991904E+01  0.51100000000E-03 0. -1.
    9000002    1    1    2    0    0 -0.48475963580E-01  0.22303312424E+00  0.11204136861E+00  0.97184924851E+00  0.93800000000E+00 0. -1.
         22    1    1    2    0    0  0.29526118163E+00  0.39697307077E-01  0.28858145018E+01  0.29011515611E+01  0.00000000000E+00 0. -1.
</event>
<event>
 5    1  0.1166492E+001  0.1509844E+01  0.7818608E-02  0.3457431E+00
         11   -1    0    0    0    0  0.00000000000E+00  0.00000000000E+00  0.39999999674E+01  0.40000000000E+01  0.51100000000E-03 0. -1.
    9000002   -1    0    0    0    0 -0.00000000000E+00 -0.00000000000E+00  0.00000000000E+00  0.93800000000E+00  0.93800000000E+00 0. -1.
         11    1    1    2    0    0 -0.66515350295E-01  0.54098599873E+00  0.11565016276E+01  0.12785094518E+01  0.51100000000E-03 0. -1.
    9000002    1    1    2    0    0  0.83119145521E-01 -0.84637999383E-01  0.18669423839E+00  0.96372772189E+00  0.93800000000E+00 0. -1.
         22    1    1    2    0    0 -0.16603795226E-01 -0.45634799935E+00  0.26568041014E+01  0.26957628263E+01  0.00000000000E+00 0. -1.
</event>
<event>
 5    1  0.1166492E+001  0.1536300E+01  0.7818608E-02  0.3425542E+00
         11   -1    0    0    0    0  0.00000000000E+00  0.00000000000E+00  0.39999999674E+01  0.40000000000E+01  0.51100000000E-03 0.  1.
    9000002   -1    0    0    0    0 -0.00000000000E+00 -0.00000000000E+00  0.00000000000E+00  0.93800000000E+00  0.93800000000E+00 0.  1.
         11    1    1    2    0    0  0.46175391392E+00 -0.35326825310E+00  0.10636017198E+01  0.12121320123E+01  0.51100000000E-03 0.  1.
    9000002    1    1    2    0    0 -0.48575988466E+00  0.87080225581E+00  0.93329112877E+00  0.16568450638E+01  0.93800000000E+00 0.  1.
         22    1    1    2    0    0  0.24005970739E-01 -0.51753400272E+00  0.20031071188E+01  0.20690229239E+01  0.00000000000E+00 0.  1.
</event>
<event>
 5    1  0.1166492E+001  0.1595008E+01  0.7818608E-02  0.3358800E+00
         11   -1    0    0    0    0  0.00000000000E+00  0.00000000000E+00  0.39999999674E+01  0.40000000000E+01  0.51100000000E-03 0.  1.
    9000002   -1    0    0    0    0 -0.00000000000E+00 -0.00000000000E+00  0.00000000000E+00  0.93800000000E+00  0.93800000000E+00 0.  1.
         11    1    1    2    0    0  0.97807373992E-01  0.62964801769E-01  0.10103220353E+01  0.10169964232E+01  0.51100000000E-03 0.  1.
    9000002    1    1    2    0    0 -0.40653108249E+00  0.33578937486E-01  0.11626908282E+00  0.10294452709E+01  0.93800000000E+00 0.  1.
         22    1    1    2    0    0  0.30872370850E+00 -0.96543739254E-01  0.28734088492E+01  0.28915583059E+01  0.00000000000E+00 0.  1.
</event>
<event>
 5    1  0.1166492E+001  0.1545993E+01  0.7818608E-02  0.3414151E+00
         11   -1    0    0    0    0  0.00000000000E+00  0.00000000000E+00  0.39999999674E+01  0.40000000000E+01  0.51100000000E-03 0. -1.
    9000002   -1    0    0    0    0 -0.00000000000E+00 -0.00000000000E+00  0.00000000000E+00  0.93800000000E+00  0.93800000000E+00 0. -1.
         11    1    1    2    0    0  0.24001840705E+00 -0.42159004794E-01  0.10762334407E+01  0.11034785441E+01  0.51100000000E-03 0. -1.
    9000002    1    1    2    0    0  0.26562895508E-01  0.57904487518E-01  0.42726207168E-01  0.94113125858E+00  0.93800000000E+00 0. -1.
         22    1    1    2    0    0 -0.26658130256E+00 -0.15745482724E-01  0.28810403195E+01  0.28933901973E+01  0.00000000000E+00 0. -1.
</event>
<event>
 5    1  0.1166492E+001  0.1482252E+01  0.7818608E-02  0.3491994E+00
         11   -1    0    0    0    0  0.00000000000E+00  0.00000000000E+00  0.39999999674E+01  0.40000000000E+01  0.51100000000E-03 0.  1.
    9000002   -1    0    0    0    0 -0.00000000000E+00 -0.00000000000E+00  0.00000000000E+00  0.93800000000E+00  0.93800000000E+00 0.  1.
         11    1    1    2    0    0 -0.51865238975E+00 -0.96015775724E-01  0.13143550008E+01  0.14162445621E+01  0.51100000000E-03 0.  1.
    9000002    1    1    2    0    0  0.14271665785E+00 -0.19347259110E+00  0.19683866786E+00  0.98812405552E+00  0.93800000000E+00 0.  1.
         22    1    1    2    0    0  0.37593573190E+00  0.28948836683E+00  0.24888062987E+01  0.25336313824E+01  0.00000000000E+00 0. -1.
</event>
<event>
 5    1  0.1166492E+001  0.1588805E+01  0.7818608E-02  0.3365605E+00
         11   -1    0    0    0    0  0.00000000000E+00  0.00000000000E+00  0.39999999674E+01  0.40000000000E+01  0.51100000000E-03 0.  1.
    9000002   -1    0    0    0    0 -0.00000000000E+00 -0.00000000000E+00  0.00000000000E+00  0.93800000000E+00  0.93800000000E+00 0.  1.
         11    1    1    2    0    0  0.75166199896E-01  0.27254662746E-01  0.14871997941E+01  0.14893475964E+01  0.51100000000E-03 0.  1.
    9000002    1    1    2    0    0 -0.39377030883E+00 -0.31393234638E+00  0.18360563347E+00  0.10803534620E+01  0.93800000000E+00 0.  1.
         22    1    1    2    0    0  0.31860410894E+00  0.28667768363E+00  0.23291945398E+01  0.23682989416E+01  0.00000000000E+00 0.  1.
</event>
<event>
 5    1  0.1166492E+001  0.1556207E+01  0.7818608E-02  0.3402311E+00
         11   -1    0    0    0    0  0.00000000000E+00  0.00000000000E+00  0.39999999674E+01  0.40000000000E+01  0.51100000000E-03 0.  1.
    9000002   -1    0    0    0    0 -0.00000000000E+00 -0.00000000000E+00  0.00000000000E+00  0.93800000000E+00  0.93800000000E+00 0.  1.
         11    1    1    2    0    0  0.69120863359E-01 -0.23124557777E+00  0.86624555566E+00  0.89924069904E+00  0.51100000000E-03 0.  1.
    9000002    1    1    2    0    0  0.26190332407E+00  0.28617201267E+00  0.13813879365E+00  0.10244091459E+01  0.93800000000E+00 0.  1.
         22    1    1    2    0    0 -0.33102418742E+00 -0.54926434902E-01  0.29956156180E+01  0.30143501550E+01  0.00000000000E+00 0.  1.
</event>
<event>
 5    1  0.1166492E+001  0.1455008E+01  0.7818608E-02  0.3527516E+00
         11   -1    0    0    0    0  0.00000000000E+00  0.00000000000E+00  0.39999999674E+01  0.40000000000E+01  0.51100000000E-03 0. -1.
    9000002   -1    0    0    0    0 -0.00000000000E+00 -0.00000000000E+00  0.00000000000E+00  0.93800000000E+00  0.93800000000E+00 0. -1.
         11    1    1    2    0    0 -0.42010624746E+00 -0.24689253111E+00  0.72435633588E+00  0.87300489318E+00  0.51100000000E-03 0. -1.
    9000002    1    1    2    0    0  0.63153552349E+00 -0.31694404032E-01  0.44945445445E+00  0.12172489307E+01  0.93800000000E+00 0. -1.
         22    1    1    2    0    0 -0.21142927603E+00  0.27858693514E+00  0.28261891770E+01  0.28477461761E+01  0.00000000000E+00 0. -1.
</event>
<event>
 5    1  0.1166492E+001  0.1580763E+01  0.7818608E-02  0.3374511E+00
         11   -1    0    0    0    0  0.00000000000E+00  0.00000000000E+00  0.39999999674E+01  0.40000000000E+01  0.51100000000E-03 0. -1.
    9000002   -1    0    0    0    0 -0.00000000000E+00 -0.00000000000E+00  0.00000000000E+00  0.93800000000E+00  0.93800000000E+00 0. -1.
         11    1    1    2    0    0 -0.22569492286E+00  0.10625504045E+00  0.10882216599E+01  0.11164474793E+01  0.51100000000E-03 0. -1.
    9000002    1    1    2    0    0  0.50603880260E+00  0.71172681296E-01  0.19651541015E+00  0.10860953580E+01  0.93800000000E+00 0. -1.
         22    1    1    2    0    0 -0.28034387974E+00 -0.17742772175E+00  0.27152628973E+01  0.27354571627E+01  0.00000000000E+00 0.  1.
</event>
<event>
 5    1  0.1166492E+001  0.1539962E+01  0.7818608E-02  0.3421220E+00
         11   -1    0    0    0    0  0.00000000000E+00  0.00000000000E+00  0.39999999674E+01  0.40000000000E+01  0.51100000000E-03 0.  1.
    9000002   -1    0    0    0    0 -0.00000000000E+00 -0.00000000000E+00  0.00000000000E+00  0.93800000000E+00  0.93800000000E+00 0. -1.
         11    1    1    2    0    0 -0.41376781630E-01  0.22229823913E+00  0.10007520224E+01  0.10259792477E+01  0.51100000000E-03 0.  1.
    9000002    1    1    2    0    0 -0.68368525932E-01  0.10694157528E+00  0.55808819312E-01  0.94819269148E+00  0.93800000000E+00 0. -1.
         22    1    1    2    0    0  0.10974530756E+00 -0.32923981441E+00  0.29434391257E+01  0.29638280609E+01  0.00000000000E+00 0.  1.
</event>
<event>
 5    1  0.1166492E+001  0.1478661E+01  0.7818608E-02  0.3496596E+00
         11   -1    0    0    0    0  0.00000000000E+00  0.00000000000E+00  0.39999999674E+01  0.40000000000E+01  0.51100000000E-03 0. -1.
    9000002   -1    0    0    0    0 -0.00000000000E+00 -0.00000000000E+00  0.00000000000E+00  0.93800000000E+00  0.93800000000E+00 0.  1.
         11    1    1    2    0    0  0.20683994271E+00  0.33889303281E+00  0.69529050414E+00  0.80066247312E+00  0.51100000000E-03 0. -1.
    9000002    1    1    2    0    0 -0.43744954817E+00 -0.14612879325E+00  0.25904329911E+00  0.10768765771E+01  0.93800000000E+00 0.  1.
         22    1    1    2    0    0  0.23060960546E+00 -0.19276423956E+00  0.30456661641E+01  0.30604609498E+01  0.00000000000E+00 0. -1.
</event>
<event>
 5    1  0.1166492E+001  0.1454868E+01  0.7818608E-02  0.3527703E+00
         11   -1    0    0    0    0  0.00000000000E+00  0.00000000000E+00  0.39999999674E+01  0.40000000000E+01  0.51100000000E-03 0. -1.
    9000002   -1    0    0    0    0 -0.00000000000E+00 -0.00000000000E+00  0.00000000000E+00  0.93800000000E+00  0.93800000000E+00 0.  1.
         11    1    1    2    0    0 -0.33252202952E+00 -0.54303673899E-02  0.67696668553E+00  0.75424435261E+00  0.51100000000E-03 0. -1.
    9000002    1    1    2    0    0 -0.19782998484E+00  0.35921097943E+00  0.26156418926E+00  0.10566120649E+01  0.93800000000E+00 0.  1.
         22    1    1    2    0    0  0.53035201436E+00 -0.35378061204E+00  0.30614690926E+01  0.31271435825E+01  0.00000000000E+00 0. -1.
</event>
<event>
 5    1  0.1166492E+001  0.1585449E+01  0.7818608E-02  0.3369310E+00
         11   -1    0    0    0    0  0.00000000000E+00  0.00000000000E+00  0.39999999674E+01  0.40000000000E+01  0.51100000000E-03 0.  1.
    9000002   -1    0    0    0    0 -0.00000000000E+00 -0.00000000000E+00  0.00000000000E+00  0.93800000000E+00  0.93800000000E+00 0.  1.
         11    1    1    2    0    0  0.98598309864E-01  0.20455298447E+00  0.97481288522E+00  0.10009115708E+01  0.51100000000E-03 0.  1.
    9000002    1    1    2    0    0 -0.39801122379E+00 -0.30711974774E+00  0.18605283549E+00  0.10803680536E+01  0.93800000000E+00 0.  1.
         22    1    1    2    0    0  0.29941291392E+00  0.10256676328E+00  0.28391342466E+01  0.28567203756E+01  0.00000000000E+00 0.  1.
</event>
<event>
 5    1  0.1166492E+001  0.1520779E+01  0.7818608E-02  0.3444106E+00
         11   -1    0    0    0    0  0.00000000000E+00  0.00000000000E+00  0.39999999674E+01  0.40000000000E+01  0.51100000000E-03 0. -1.
    9000002   -1    0    0    0    0 -0.00000000000E+00 -0.00000000000E+00  0.00000000000E+00  0.93800000000E+00  0.93800000000E+00 0.  1.
         11    1    1    2    0    0  0.23225519727E+00 -0.20841736751E+00  0.10720168780E+01  0.11165127512E+01  0.51100000000E-03 0. -1.
    9000002    1    1    2    0    0  0.63239863746E-01  0.13707716705E+00  0.75732913670E-01  0.95308389154E+00  0.93800000000E+00 0.  1.
         22    1    1    2    0    0 -0.29549506102E+00  0.71340200460E-01  0.28522501757E+01  0.28684033572E+01  0.00000000000E+00 0. -1.
</event>
<event>
 5    1  0.1166492E+001  0.1531622E+01  0.7818608E-02  0.3431095E+00
         11   -1    0    0    0    0  0.00000000000E+00  0.00000000000E+00  0.39999999674E+01  0.40000000000E+01  0.51100000000E-03 0.  1.
    9000002   -1    0    0    0    0 -0.00000000000E+00 -0.00000000000E+00  0.00000000000E+00  0.93800000000E+00  0.93800000000E+00 0.  1.
         11    1    1    2    0    0  0.48224858943E+00 -0.31967408969E+00  0.13296105210E+01  0.14500412491E+01  0.51100000000E-03 0.  1.
    9000002    1    1    2    0    0 -0.46266115019E+00  0.64134056470E+00  0.55223487153E+00  0.13454294531E+01  0.93800000000E+00 0.  1.
         22    1    1    2    0    0 -0.19587439236E-01 -0.32166647501E+00  0.21181545749E+01  0.21425292978E+01  0.00000000000E+00 0.  1.
</event>
<event>
 5    1  0.1166492E+001  0.1577612E+01  0.7818608E-02  0.3378027E+00
         11   -1    0    0    0    0  0.00000000000E+00  0.00000000000E+00  0.39999999674E+01  0.40000000000E+01  0.51100000000E-03 0.  1.
    9000002   -1    0    0    0    0 -0.00000000000E+00 -0.00000000000E+00  0.00000000000E+00  0.93800000000E+00  0.93800000000E+00 0. -1.
         11    1    1    2    0    0  0.37601107654E-01  0.14014581356E+00  0.66387883246E+00  0.67955136499E+00  0.51100000000E-03 0.  1.
    9000002    1    1    2    0    0 -0.35718481195E+00 -0.43302932263E-01  0.10499336165E+00  0.10101107562E+01  0.93800000000E+00 0. -1.
         22    1    1    2    0    0  0.31958370429E+00 -0.96842881300E-01  0.32311277733E+01  0.32483378788E+01  0.00000000000E+00 0.  1.
</event>
<event>
 5    1  0.1166492E+001  0.1509188E+01  0.7818608E-02  0.3458237E+00
         11   -1    0    0    0    0  0.00000000000E+00  0.00000000000E+00  0.39999999674E+01  0.40000000000E+01  0.51100000000E-03 0. -1.
    9000002   -1    0    0    0    0 -0.00000000000E+00 -0.00000000000E+00  0.00000000000E+00  0.93800000000E+00  0.93800000000E+00 0. -1.
         11    1    1    2    0    0 -0.12722070236E+00  0.34112830613E+00  0.13587538863E+01  0.14066861814E+01  0.51100000000E-03 0. -1.
    9000002    1    1    2    0    0  0.20423427523E+00 -0.18365124645E-03  0.98906330081E-01  0.96505861741E+00  0.93800000000E+00 0. -1.
         22    1    1    2    0    0 -0.77013572871E-01 -0.34094465488E+00  0.25423397510E+01  0.25662552012E+01  0.00000000000E+00 0.  1.
</event>
<event>
 5    1  0.1166492E+001  0.1463887E+01  0.7818608E-02  0.3515782E+00
         11   -1    0    0    0    0  0.00000000000E+00  0.00000000000E+00  0.39999999674E+01  0.40000000000E+01  0.51100000000E-03 0. -1.
    9000002   -1    0    0    0    0 -0.00000000000E+00 -0.00000000000E+00  0.00000000000E+00  0.93800000000E+00  0.93800000000E+00 0. -1.
         11    1    1    2    0    0 -0.35209125072E+00  0.16034245776E+00  0.12981138456E+01  0.13545396893E+01  0.51100000000E-03 0. -1.
    9000002    1    1    2    0    0 -0.39480494447E-01  0.13417525902E+00  0.12051069852E+00  0.95599609729E+00  0.93800000000E+00 0. -1.
         22    1    1    2    0    0  0.39157174517E+00 -0.29451771678E+00  0.25813754233E+01  0.26274642134E+01  0.00000000000E+00 0. -1.
</event>
<event>
 5    1  0.1166492E+001  0.1458720E+01  0.7818608E-02  0.3522592E+00
         11   -1    0    0    0    0  0.00000000000E+00  0.00000000000E+00  0.39999999674E+01  0.40000000000E+01  0.51100000000E-03 0.  1.
    9000002   -1    0    0    0    0 -0.00000000000E+00 -0.00000000000E+00  0.00000000000E+00  0.93800000000E+00  0.93800000000E+00 0.  1.
         11    1    1    2    0    0 -0.14950382166E+00 -0.42449363773E+00  0.14240822174E+01  0.14935048257E+01  0.51100000000E-03 0.  1.
    9000002    1    1    2    0    0  0.18858157528E+00 -0.13540389914E-01  0.13744764879E+00  0.96668619978E+00  0.93800000000E+00 0.  1.
         22    1    1    2    0    0 -0.39077753617E-01  0.43803402765E+00  0.24384701012E+01  0.24778089746E+01  0.00000000000E+00 0.  1.
</event>
<event>
 5    1  0.1166492E+001  0.1472547E+01  0.7818608E-02  0.3504485E+00
         11   -1    0    0    0    0  0.00000000000E+00  0.00000000000E+00  0.39999999674E+01  0.40000000000E+01  0.51100000000E-03 0. -1.
    9000002   -1    0    0    0    0 -0.00000000000E+00 -0.00000000000E+00  0.00000000000E+00  0.93800000000E+00  0.93800000000E+00 0.  1.
         11    1    1    2    0    0  0.12840563166E+00  0.20012277249E+00  0.98757286744E+00  0.10157940539E+01  0.51100000000E-03 0. -1.
    9000002    1    1    2    0    0  0.82983455755E+00  0.21528152784E+00  0.87381428549E+00  0.15421954917E+01  0.93800000000E+00 0.  1.
         22    1    1    2    0    0 -0.95824018921E+00 -0.41540430033E+00  0.21386128144E+01  0.23800104544E+01  0.00000000000E+00 0. -1.
</event>
<event>
 5    1  0.1166492E+001  0.1579023E+01  0.7818608E-02  0.3376451E+00
         11   -1    0    0    0    0  0.00000000000E+00  0.00000000000E+00  0.39999999674E+01  0.40000000000E+01  0.51100000000E-03 0. -1.
    9000002   -1    0    0    0    0 -0.00000000000E+00 -0.00000000000E+00  0.00000000000E+00  0.93800000000E+00  0.93800000000E+00 0.  1.
         11    1    1    2    0    0 -0.21576462929E-01  0.56382730257E+00  0.73758357418E+00  0.92865308964E+00  0.51100000000E-03 0. -1.
    9000002    1    1    2    0    0 -0.11021588942E+00 -0.17149952934E+00  0.28218622679E+00  0.10005162155E+01  0.93800000000E+00 0.  1.
         22    1    1    2    0    0  0.13179235235E+00 -0.39232777324E+00  0.29802301664E+01  0.30088306949E+01  0.00000000000E+00 0. -1.
</event>
<event>
 5    1  0.1166492E+001  0.1564966E+01  0.7818608E-02  0.3392288E+00
         11   -1    0    0    0    0  0.00000000000E+00  0.00000000000E+00  0.39999999674E+01  0.40000000000E+01  0.51100000000E-03 0.  1.
    9000002   -1    0    0    0    0 -0.00000000000E+00 -0.00000000000E+00  0.00000000000E+00  0.93800000000E+00  0.93800000000E+00 0.  1.
         11    1    1    2    0    0  0.37636779846E-01  0.16715094218E+00  0.11834980406E+01  0.11958360414E+01  0.51100000000E-03 0.  1.
    9000002    1    1    2    0    0  0.17627206130E-01  0.11228009402E+00  0.34366918700E-01  0.94548539016E+00  0.93800000000E+00 0.  1.
         22    1    1    2    0    0 -0.55263985975E-01 -0.27943103619E+00  0.27821350081E+01  0.27966785684E+01  0.00000000000E+00 0.  1.
</event>
<event>
 5    1  0.1166492E+001  0.1462101E+01  0.7818608E-02  0.3518130E+00
         11   -1    0    0    0    0  0.00000000000E+00  0.00000000000E+00  0.39999999674E+01  0.40000000000E+01  0.51100000000E-03 0. -1.
    9000002   -1    0    0    0    0 -0.00000000000E+00 -0.00000000000E+00  0.00000000000E+00  0.93800000000E+00  0.93800000000E+00 0. -1.
         11    1    1    2    0    0 -0.26913616137E+00 -0.32194519393E+00  0.10635081879E+01  0.11432991333E+01  0.51100000000E-03 0. -1.
    9000002    1    1    2    0    0  0.24437664922E+00 -0.95421974542E-01  0.16017581355E+00  0.98707932364E+00  0.93800000000E+00 0. -1.
         22    1    1    2    0    0  0.24759512141E-01  0.41736716848E+00  0.27763159659E+01  0.28076215431E+01  0.00000000000E+00 0. -1.
</event>
<event>
 5    1  0.1166492E+001  0.1369541E+01  0.7818608E-02  0.3656975E+00
         11   -1    0    0    0    0  0.00000000000E+00  0.00000000000E+00  0.39999999674E+01  0.40000000000E+01  0.51100000000E-03 0. -1.
    9000002   -1    0    0    0    0 -0.00000000000E+00 -0.00000000000E+00  0.00000000000E+00  0.93800000000E+00  0.93800000000E+00 0. -1.
         11    1    1    2    0    0 -0.61413057929E+00 -0.30197097125E+00  0.13052585968E+01  0.14737852970E+01  0.51100000000E-03 0. -1.
    9000002    1    1    2    0    0  0.35910965100E+00  0.67717581362E-01  0.30836173321E+00  0.10528420446E+01  0.93800000000E+00 0. -1.
         22    1    1    2    0    0  0.25502092828E+00  0.23425338989E+00  0.23863796373E+01  0.24113726585E+01  0.00000000000E+00 0. -1.
</event>
<event>
 5    1  0.1166492E+001  0.1612376E+01  0.7818608E-02  0.3340039E+00
         11   -1    0    0    0    0  0.00000000000E+00  0.00000000000E+00  0.39999999674E+01  0.40000000000E+01  0.51100000000E-03 0. -1.
    9000002   -1    0    0    0    0 -0.00000000000E+00 -0.00000000000E+00  0.00000000000E+00  0.93800000000E+00  0.93800000000E+00 0. -1.
         11    1    1    2    0    0  0.53648901376E+00 -0.10915346406E+00  0.61486518061E+00  0.82328269267E+00  0.51100000000E-03 0. -1.
    9000002    1    1    2    0    0 -0.17004720297E-01  0.36021273795E+00  0.41198635823E+00  0.10861027283E+01  0.93800000000E+00 0. -1.
         22    1    1    2    0    0 -0.51948429346E+00 -0.25105927389E+00  0.29731484285E+01  0.30286145790E+01  0.00000000000E+00 0. -1.
</event>
<event>
 5    1  0.1166492E+001  0.1528192E+01  0.7818608E-02  0.3435190E+00
         11   -1    0    0    0    0  0.00000000000E+00  0.00000000000E+00  0.39999999674E+01  0.40000000000E+01  0.51100000000E-03 0. -1.
    9000002   -1    0    0    0    0 -0.00000000000E+00 -0.00000000000E+00  0.00000000000E+00  0.93800000000E+00  0.93800000000E+00 0.  1.
         11    1    1    2    0    0 -0.24800338038E+00 -0.26247762504E+00  0.95010760174E+00  0.10164176781E+01  0.51100000000E-03 0. -1.
    9000002    1    1    2    0    0  0.48329730646E+00  0.37251637285E-01  0.22701243587E+00  0.10799734335E+01  0.93800000000E+00 0.  1.
         22    1    1    2    0    0 -0.23529392608E+00  0.22522598775E+00  0.28228799298E+01  0.28416088885E+01  0.00000000000E+00 0. -1.
</event>
<event>
 5    1  0.1166492E+001  0.1560390E+01  0.7818608E-02  0.3397509E+00
         11   -1    0    0    0    0  0.00000000000E+00  0.00000000000E+00  0.39999999674E+01  0.40000000000E+01  0.51100000000E-03 0.  1.
    9000002   -1    0    0    0    0 -0.00000000000E+00 -0.00000000000E+00  0.00000000000E+00  0.93800000000E+00  0.93800000000E+00 0.  1.
         11    1    1    2    0    0  0.13767970717E+00  0.75604097478E-01  0.94103456615E+00  0.95405345612E+00  0.51100000000E-03 0.  1.
    9000002    1    1    2    0    0  0.15425274853E+00  0.12090448207E+00  0.55422299049E-01  0.95985802880E+00  0.93800000000E+00 0.  1.
         22    1    1    2    0    0 -0.29193245570E+00 -0.19650857955E+00  0.30035431022E+01  0.30240885151E+01  0.00000000000E+00 0.  1.
</event>
<event>
 5    1  0.1166492E+001  0.1529360E+01  0.7818608E-02  0.3433794E+00
         11   -1    0    0    0    0  0.00000000000E+00  0.00000000000E+00  0.39999999674E+01  0.40000000000E+01  0.51100000000E-03 0. -1.
    9000002   -1    0    0    0    0 -0.00000000000E+00 -0.00000000000E+00  0.00000000000E+00  0.93800000000E+00  0.93800000000E+00 0.  1.
         11    1    1    2    0    0 -0.33079420835E+00 -0.55513917984E-01  0.14255321423E+01  0.14644619330E+01  0.51100000000E-03 0. -1.
    9000002    1    1    2    0    0  0.11459973848E+00 -0.13476346267E+00  0.74940173106E-01  0.95747288237E+00  0.93800000000E+00 0.  1.
         22    1    1    2    0    0  0.21619446987E+00  0.19027738066E+00  0.24995276520E+01  0.25160651846E+01  0.00000000000E+00 0. -1.
</event>
<event>
 5    1  0.1166492E+001  0.1541404E+01  0.7818608E-02  0.3419525E+00
         11   -1    0    0    0    0  0.00000000000E+00  0.00000000000E+00  0.39999999674E+01  0.40000000000E+01  0.51100000000E-03 0.  1.
    9000002   -1    0    0    0    0 -0.00000000000E+00 -0.00000000000E+00  0.00000000000E+00  0.93800000000E+00  0.93800000000E+00 0. -1.
         11    1    1    2    0    0 -0.22515415213E+00 -0.76639679021E-01  0.97270409522E+00  0.10013598507E+01  0.51100000000E-03 0.  1.
    9000002    1    1    2    0    0 -0.45680347020E-01 -0.29457069094E-01  0.45483215733E-01  0.94067376701E+00  0.93800000000E+00 0. -1.
         22    1    1    2    0    0  0.27083449915E+00  0.10609674812E+00  0.29818126564E+01  0.29959663823E+01  0.00000000000E+00 0.  1.
</event>
<event>
 5    1  0.1166492E+001  0.1544777E+01  0.7818608E-02  0.3415572E+00
         11   -1    0    0    0    0  0.00000000000E+00  0.00000000000E+00  0.39999999674E+01  0.40000000000E+01  0.51100000000E-03 0.  1.
    9000002   -1    0    0    0    0 -0.00000000000E+00 -0.00000000000E+00  0.00000000000E+00  0.93800000000E+00  0.93800000000E+00 0.  1.
         11    1    1    2    0    0 -0.23827252432E+00  0.80951543445E-01  0.10668775209E+01  0.10961545757E+01  0.51100000000E-03 0.  1.
    9000002    1    1    2    0    0  0.76726439674E-01  0.16537376885E+00  0.64056111930E-01  0.95769651531E+00  0.93800000000E+00 0.  1.
         22    1    1    2    0    0  0.16154608464E+00 -0.24632531230E+00  0.28690663345E+01  0.28841489089E+01  0.00000000000E+00 0.  1.
</event>
<event>
 5    1  0.1166492E+001  0.1486047E+01  0.7818608E-02  0.3487159E+00
         11   -1    0    0    0    0  0.00000000000E+00  0.00000000000E+00  0.39999999674E+01  0.40000000000E+01  0.51100000000E-03 0.  1.
    9000002   -1    0    0    0    0 -0.00000000000E+00 -0.00000000000E+00  0.00000000000E+00  0.93800000000E+00  0.93800000000E+00 0.  1.
         11    1    1    2    0    0 -0.20663141706E+00  0.29110584175E+00  0.94852293708E+00  0.10134767767E+01  0.51100000000E-03 0.  1.
    9000002    1    1    2    0    0 -0.31216411826E-01 -0.55977017894E-01  0.90294270118E-01  0.94451307355E+00  0.93800000000E+00 0.  1.
         22    1    1    2    0    0  0.23784782889E+00 -0.23512882386E+00  0.29611827602E+01  0.29800101497E+01  0.00000000000E+00 0.  1.
</event>
<event>
 5    1  0.1166492E+001  0.1588695E+01  0.7818608E-02  0.3365725E+00
         11   -1    0    0    0    0  0.00000000000E+00  0.00000000000E+00  0.39999999674E+01  0.40000000000E+01  0.51100000000E-03 0. -1.
    9000002   -1    0    0    0    0 -0.00000000000E+00 -0.00000000000E+00  0.00000000000E+00  0.93800000000E+00  0.93800000000E+00 0. -1.
         11    1    1    2    0    0  0.25593547219E+00  0.13826007952E-01  0.14588654333E+01  0.14812098899E+01  0.51100000000E-03 0. -1.
    9000002    1    1    2    0    0 -0.52023721710E+00  0.24883955040E+00  0.24163785590E+00  0.11272979807E+01  0.93800000000E+00 0. -1.
         22    1    1    2    0    0  0.26430174492E+00 -0.26266555835E+00  0.22994966782E+01  0.23294921294E+01  0.00000000000E+00 0. -1.
</event>
<event>
 5    1  0.1166492E+001  0.1501690E+01  0.7818608E-02  0.3467502E+00
         11   -1    0    0    0    0  0.00000000000E+00  0.00000000000E+00  0.39999999674E+01  0.40000000000E+01  0.51100000000E-03 0.  1.
    9000002   -1    0    0    0    0 -0.00000000000E+00 -0.00000000000E+00  0.00000000000E+00  0.93800000000E+00  0.93800000000E+00 0.  1.
         11    1    1    2    0    0  0.57599038625E-01  0.38179780593E+00  0.13309923559E+01  0.13858672831E+01  0.51100000000E-03 0.  1.
    9000002    1    1    2    0    0 -0.44821687201E-01 -0.77483888314E-01  0.80419440204E-01  0.94568706397E+00  0.93800000000E+00 0.  1.
         22    1    1    2    0    0 -0.12777351423E-01 -0.30431391762E+00  0.25885881713E+01  0.26064456529E+01  0.00000000000E+00 0.  1.
</event>
<event>
 5    1  0.1166492E+001  0.1560860E+01  0.7818608E-02  0.3396972E+00
         11   -1    0    0    0    0  0.00000000000E+00  0.00000000000E+00  0.39999999674E+01  0.40000000000E+01  0.51100000000E-03 0.  1.
    9000002   -1    0    0    0    0 -0.00000000000E+00 -0.00000000000E+00  0.00000000000E+00  0.93800000000E+00  0.93800000000E+00 0. -1.
         11    1    1    2    0    0  0.82357700764E-01 -0.16936469394E+00  0.11684073510E+01  0.11834877226E+01  0.51100000000E-03 0.  1.
    9000002    1    1    2    0    0 -0.11437522715E+00 -0.14061112895E+00  0.51212845558E-01  0.95672354299E+00  0.93800000000E+00 0. -1.
         22    1    1    2    0    0  0.32017526388E-01  0.30997582289E+00  0.27803797708E+01  0.27977887344E+01  0.00000000000E+00 0.  1.
</event>
<event>
 5    1  0.1166492E+001  0.1597215E+01  0.7818608E-02  0.3356392E+00
         11   -1    0    0    0    0  0.00000000000E+00  0.00000000000E+00  0.39999999674E+01  0.40000000000E+01  0.51100000000E-03 0.  1.
    9000002   -1    0    0    0    0 -0.00000000000E+00 -0.00000000000E+00  0.00000000000E+00  0.93800000000E+00  0.93800000000E+00 0.  1.
         11    1    1    2    0    0 -0.48200736333E-01 -0.26361192762E+00  0.13288510706E+01  0.13556031825E+01  0.51100000000E-03 0.  1.
    9000002    1    1    2    0    0  0.16094768710E+00  0.58162173477E+00  0.25674391773E+00  0.11445302266E+01  0.93800000000E+00 0. -1.
         22    1    1    2    0    0 -0.11274695076E+00 -0.31800980715E+00  0.24144049790E+01  0.24378665909E+01  0.00000000000E+00 0.  1.
</event>
<event>
 5    1  0.1166492E+001  0.1503758E+01  0.7818608E-02  0.3464937E+00
         11   -1    0    0    0    0  0.00000000000E+00  0.00000000000E+00  0.39999999674E+01  0.40000000000E+01  0.51100000000E-03 0. -1.
    9000002   -1    0    0    0    0 -0.00000000000E+00 -0.00000000000E+00  0.00000000000E+00  0.93800000000E+00  0.93800000000E+00 0.  1.
         11    1    1    2    0    0 -0.20795552419E+00  0.18865410064E+00  0.10695316892E+01  0.11057731074E+01  0.51100000000E-03 0. -1.
    9000002    1    1    2    0    0 -0.14900878403E+00  0.11829315669E+00  0.99362321110E-01  0.96224412677E+00  0.93800000000E+00 0.  1.
         22    1    1    2    0    0  0.35696430823E+00 -0.30694725733E+00  0.28311059570E+01  0.28699827658E+01  0.00000000000E+00 0. -1.
</event>
<event>
 5    1  0.1166492E+001  0.1490930E+01  0.7818608E-02  0.3480975E+00
         11   -1    0    0    0    0  0.00000000000E+00  0.00000000000E+00  0.39999999674E+01  0.40000000000E+01  0.51100000000E-03 0.  1.
    9000002   -1    0    0    0    0 -0.00000000000E+00 -0.00000000000E+00  0.00000000000E+00  0.93800000000E+00  0.93800000000E+00 0.  1.
         11    1    1    2    0    0  0.39804411891E+00  0.64398471909E-01  0.12796534842E+01  0.13416778990E+01  0.51100000000E-03 0.  1.
    9000002    1    1    2    0    0 -0.90026211089E-01 -0.23562588274E-02  0.89249372283E-01  0.94653035931E+00  0.93800000000E+00 0.  1.
         22    1    1    2    0    0 -0.30801790782E+00 -0.62042213081E-01  0.26310971109E+01  0.26497917417E+01  0.00000000000E+00 0.  1.
</event>
<event>
 5    1  0.1166492E+001  0.1557238E+01  0.7818608E-02  0.3401124E+00
         11   -1    0    0    0    0  0.00000000000E+00  0.00000000000E+00  0.39999999674E+01  0.40000000000E+01  0.51100000000E-03 0.  1.
    9000002   -1    0    0    0    0 -0.00000000000E+00 -0.00000000000E+00  0.00000000000E+00  0.93800000000E+00  0.93800000000E+00 0.  1.
         11    1    1    2    0    0  0.12119112768E+00 -0.21439981192E+00  0.13358687313E+01  0.13583814255E+01  0.51100000000E-03 0.  1.
    9000002    1    1    2    0    0 -0.16896810735E+00 -0.34020643193E-01  0.51845328400E-01  0.95511233033E+00  0.93800000000E+00 0.  1.
         22    1    1    2    0    0  0.47776979669E-01  0.24842045511E+00  0.26122859077E+01  0.26245062442E+01  0.00000000000E+00 0.  1.
</event>
<event>
 5    1  0.1166492E+001  0.1559338E+01  0.7818608E-02  0.3398714E+00
         11   -1    0    0    0    0  0.00000000000E+00  0.00000000000E+00  0.39999999674E+01  0.40000000000E+01  0.51100000000E-03 0.  1.
    9000002   -1    0    0    0    0 -0.00000000000E+00 -0.00000000000E+00  0.00000000000E+00  0.93800000000E+00  0.93800000000E+00 0. -1.
         11    1    1    2    0    0 -0.35258286326E-01  0.18574969805E+00  0.10678852160E+01  0.10844930579E+01  0.51100000000E-03 0.  1.
    9000002    1    1    2    0    0  0.88548280415E-01  0.10613221478E+00  0.42902231811E-01  0.94909928167E+00  0.93800000000E+00 0. -1.
         22    1    1    2    0    0 -0.53289994089E-01 -0.29188191283E+00  0.28892125196E+01  0.29044076604E+01  0.00000000000E+00 0.  1.
</event>
<event>
 5    1  0.1166492E+001  0.1475848E+01  0.7818608E-02  0.3500217E+00
         11   -1    0    0    0    0  0.00000000000E+00  0.00000000000E+00  0.39999999674E+01  0.40000000000E+01  0.51100000000E-03 0.  1.
    9000002   -1    0    0    0    0 -0.00000000000E+00 -0.00000000000E+00  0.00000000000E+00  0.93800000000E+00  0.93800000000E+00 0.  1.
         11    1    1    2    0    0  0.45268065108E+00  0.62738072488E-01  0.13506979706E+01  0.14259176367E+01  0.51100000000E-03 0.  1.
    9000002    1    1    2    0    0 -0.13623593697E+00 -0.12912847485E+00  0.12218996188E+00  0.96436962847E+00  0.93800000000E+00 0.  1.
         22    1    1    2    0    0 -0.31644471411E+00  0.66390402367E-01  0.25271120348E+01  0.25477127348E+01  0.00000000000E+00 0.  1.
</event>
<event>
 5    1  0.1166492E+001  0.1553442E+01  0.7818608E-02  0.3405500E+00
         11   -1    0    0    0    0  0.00000000000E+00  0.00000000000E+00  0.39999999674E+01  0.40000000000E+01  0.51100000000E-03 0. -1.
    9000002   -1    0    0    0    0 -0.00000000000E+00 -0.00000000000E+00  0.00000000000E+00  0.93800000000E+00  0.93800000000E+00 0.  1.
         11    1    1    2    0    0  0.10429673538E+00 -0.23224750299E+00  0.13654517990E+01  0.13889836530E+01  0.51100000000E-03 0. -1.
    9000002    1    1    2    0    0  0.68226900948E-01  0.63243348167E-01  0.40207963054E-01  0.94345922614E+00  0.93800000000E+00 0.  1.
         22    1    1    2    0    0 -0.17252363633E+00  0.16900415482E+00  0.25943402053E+01  0.26055571209E+01  0.00000000000E+00 0. -1.
</event>
<event>
 5    1  0.1166492E+001  0.1504601E+01  0.7818608E-02  0.3463894E+00
         11   -1    0    0    0    0  0.00000000000E+00  0.00000000000E+00  0.39999999674E+01  0.40000000000E+01  0.51100000000E-03 0.  1.
    9000002   -1    0    0    0    0 -0.00000000000E+00 -0.00000000000E+00  0.00000000000E+00  0.93800000000E+00  0.93800000000E+00 0.  1.
         11    1    1    2    0    0 -0.37111837972E+00  0.26302991337E+00  0.12015439081E+01  0.12847651969E+01  0.51100000000E-03 0.  1.
    9000002    1    1    2    0    0  0.45899165699E+00  0.14835611500E-01  0.23142908546E+00  0.10697181209E+01  0.93800000000E+00 0.  1.
         22    1    1    2    0    0 -0.87873277272E-01 -0.27786552487E+00  0.25670269738E+01  0.25835166822E+01  0.00000000000E+00 0.  1.
</event>
<event>
 5    1  0.1166492E+001  0.1334507E+01  0.7818608E-02  0.3717973E+00
         11   -1    0    0    0    0  0.00000000000E+00  0.00000000000E+00  0.39999999674E+01  0.40000000000E+01  0.51100000000E-03 0. -1.
    9000002   -1    0    0    0    0 -0.00000000000E+00 -0.00000000000E+00  0.00000000000E+00  0.93800000000E+00  0.93800000000E+00 0. -1.
         11    1    1    2    0    0 -0.49771861663E+00  0.37682998858E+00  0.85086715873E+00  0.10553197831E+01  0.51100000000E-03 0. -1.
    9000002    1    1    2    0    0  0.26414719550E+00 -0.21575913638E+00  0.33281968314E+00  0.10521115375E+01  0.93800000000E+00 0. -1.
         22    1    1    2    0    0  0.23357142113E+00 -0.16107085220E+00  0.28163131255E+01  0.28305686794E+01  0.00000000000E+00 0. -1.
</event>
<event>
 5    1  0.1166492E+001  0.1467194E+01  0.7818608E-02  0.3511452E+00
         11   -1    0    0    0    0  0.00000000000E+00  0.00000000000E+00  0.39999999674E+01  0.40000000000E+01  0.51100000000E-03 0. -1.
    9000002   -1    0    0    0    0 -0.00000000000E+00 -0.00000000000E+00  0.00000000000E+00  0.93800000000E+00  0.93800000000E+00 0. -1.
         11    1    1    2    0    0  0.34057298019E+00  0.54639125992E-01  0.10423159865E+01  0.10979063101E+01  0.51100000000E-03 0. -1.
    9000002    1    1    2    0    0  0.10472985326E+00  0.26949729023E+00  0.16709687624E+00  0.99567188253E+00  0.93800000000E+00 0. -1.
         22    1    1    2    0    0 -0.44530283345E+00 -0.32413641622E+00  0.27905871046E+01  0.28444218074E+01  0.00000000000E+00 0. -1.
</event>
<event>
 5    1  0.1166492E+001  0.1529044E+01  0.7818608E-02  0.3434170E+00
         11   -1    0    0    0    0  0.00000000000E+00  0.00000000000E+00  0.39999999674E+01  0.40000000000E+01  0.51100000000E-03 0. -1.
    9000002   -1    0    0    0    0 -0.00000000000E+00 -0.00000000000E+00  0.00000000000E+00  0.93800000000E+00  0.93800000000E+00 0. -1.
         11    1    1    2    0    0 -0.13593824319E+00 -0.27281365669E+00  0.11083272484E+01  0.11494764233E+01  0.51100000000E-03 0. -1.
    9000002    1    1    2    0    0 -0.53754910744E-01  0.94836386920E-01  0.61382927465E-01  0.94630618433E+00  0.93800000000E+00 0. -1.
         22    1    1    2    0    0  0.18969315394E+00  0.17797726977E+00  0.28302897915E+01  0.28422173923E+01  0.00000000000E+00 0. -1.
</event>
<event>
 5    1  0.1166492E+001  0.1535930E+01  0.7818608E-02  0.3425981E+00
         11   -1    0    0    0    0  0.00000000000E+00  0.00000000000E+00  0.39999999674E+01  0.40000000000E+01  0.51100000000E-03 0.  1.
    9000002   -1    0    0    0    0 -0.00000000000E+00 -0.00000000000E+00  0.00000000000E+00  0.93800000000E+00  0.93800000000E+00 0.  1.
         11    1    1    2    0    0  0.20650070714E+00 -0.22272120122E+00  0.13767396191E+01  0.14098437912E+01  0.51100000000E-03 0.  1.
    9000002    1    1    2    0    0 -0.50125039122E-01  0.80362463817E-02  0.49444931107E-01  0.94067311114E+00  0.93800000000E+00 0.  1.
         22    1    1    2    0    0 -0.15637566802E+00  0.21468495484E+00  0.25738154171E+01  0.25874830977E+01  0.00000000000E+00 0.  1.
</event>
<event>
 5    1  0.1166492E+001  0.1495599E+01  0.7818608E-02  0.3475104E+00
         11   -1    0    0    0    0  0.00000000000E+00  0.00000000000E+00  0.39999999674E+01  0.40000000000E+01  0.51100000000E-03 0.  1.
    9000002   -1    0    0    0    0 -0.00000000000E+00 -0.00000000000E+00  0.00000000000E+00  0.93800000000E+00  0.93800000000E+00 0. -1.
         11    1    1    2    0    0 -0.16107529447E+00  0.18436204219E+00  0.45827957885E+00  0.51957198405E+00  0.51100000000E-03 0.  1.
    9000002    1    1    2    0    0  0.90729184173E-01  0.18932159963E+00  0.11201888846E+00  0.96771208751E+00  0.93800000000E+00 0. -1.
         22    1    1    2    0    0  0.70346110295E-01 -0.37368364182E+00  0.34297015000E+01  0.34507159284E+01  0.00000000000E+00 0.  1.
</event>
<event>
 5    1  0.1166492E+001  0.1462645E+01  0.7818608E-02  0.3517414E+00
         11   -1    0    0    0    0  0.00000000000E+00  0.00000000000E+00  0.39999999674E+01  0.40000000000E+01  0.51100000000E-03 0. -1.
    9000002   -1    0    0    0    0 -0.00000000000E+00 -0.00000000000E+00  0.00000000000E+00  0.93800000000E+00  0.93800000000E+00 0. -1.
         11    1    1    2    0    0  0.24207910229E+00 -0.23728576480E+00  0.49840313993E+00  0.60275432553E+00  0.51100000000E-03 0. -1.
    9000002    1    1    2    0    0  0.95233874759E-01  0.75072362697E-01  0.14382729217E+00  0.95667948683E+00  0.93800000000E+00 0. -1.
         22    1    1    2    0    0 -0.33731297705E+00  0.16221340210E+00  0.33577695353E+01  0.33785661876E+01  0.00000000000E+00 0. -1.
</event>
<event>
 5    1  0.1166492E+001  0.1488499E+01  0.7818608E-02  0.3484049E+00
         11   -1    0    0    0    0  0.00000000000E+00  0.00000000000E+00  0.39999999674E+01  0.40000000000E+01  0.51100000000E-03 0. -1.
    9000002   -1    0    0    0    0 -0.00000000000E+00 -0.00000000000E+00  0.00000000000E+00  0.93800000000E+00  0.93800000000E+00 0. -1.
         11    1    1    2    0    0 -0.30546662268E+00 -0.87770991522E-01  0.84237225418E+00  0.90033598187E+00  0.51100000000E-03 0. -1.
    9000002    1    1    2    0    0 -0.11184581773E+00  0.18736567260E+00  0.12070032301E+00  0.97058124348E+00  0.93800000000E+00 0. -1.
         22    1    1    2    0    0  0.41731244040E+00 -0.99594681082E-01  0.30369273902E+01  0.30670827747E+01  0.00000000000E+00 0. -1.
</event>
<event>
 5    1  0.1166492E+001  0.1462383E+01  0.7818608E-02  0.3517759E+00
         11   -1    0    0    0    0  0.00000000000E+00  0.00000000000E+00  0.39999999674E+01  0.40000000000E+01  0.51100000000E-03 0.  1.
    9000002   -1    0    0    0    0 -0.00000000000E+00 -0.00000000000E+00  0.00000000000E+00  0.93800000000E+00  0.93800000000E+00 0. -1.
         11    1    1    2    0    0  0.32551651365E+00 -0.54063027456E-01  0.34552089605E+00  0.47777480294E+00  0.51100000000E-03 0.  1.
    9000002    1    1    2    0    0 -0.30387644886E+00 -0.33212662046E+00  0.29901997725E+00  0.10825460429E+01  0.93800000000E+00 0. -1.
         22    1    1    2    0    0 -0.21640064796E-01  0.38618964791E+00  0.33554590941E+01  0.33776791542E+01  0.00000000000E+00 0.  1.
</event>
<event>
 5    1  0.1166492E+001  0.1502489E+01  0.7818608E-02  0.3466511E+00
         11   -1    0    0    0    0  0.00000000000E+00  0.00000000000E+00  0.39999999674E+01  0.40000000000E+01  0.51100000000E-03 0.  1.
    9000002   -1    0    0    0    0 -0.00000000000E+00 -0.00000000000E+00  0.00000000000E+00  0.93800000000E+00  0.93800000000E+00 0. -1.
         11    1    1    2    0    0 -0.13500409219E+00 -0.31137718498E+00  0.12349187451E+01  0.12807054401E+01  0.51100000000E-03 0.  1.
    9000002    1    1    2    0    0  0.17760969881E+00 -0.92655024210E-01  0.10331436074E+00  0.96470099811E+00  0.93800000000E+00 0. -1.
         22    1    1    2    0    0 -0.42605606617E-01  0.40403220919E+00  0.26617668615E+01  0.26925935618E+01  0.00000000000E+00 0.  1.
</event>
<event>
 5    1  0.1166492E+001  0.1472609E+01  0.7818608E-02  0.3504405E+00
         11   -1    0    0    0    0  0.00000000000E+00  0.00000000000E+00  0.39999999674E+01  0.40000000000E+01  0.51100000000E-03 0. -1.
    9000002   -1    0    0    0    0 -0.00000000000E+00 -0.00000000000E+00  0.00000000000E+00  0.93800000000E+00  0.93800000000E+00 0.  1.
         11    1    1    2    0    0 -0.17324614763E+00 -0.80737226636E-01  0.18207275376E+00  0.26397627965E+00  0.51100000000E-03 0. -1.
    9000002    1    1    2    0    0 -0.66645240006E-01 -0.16028402220E+00  0.12109288994E+00  0.96158205255E+00  0.93800000000E+00 0.  1.
         22    1    1    2    0    0  0.23989138764E+00  0.24102124884E+00  0.36968343237E+01  0.37124416678E+01  0.00000000000E+00 0. -1.
</event>
<event>
 5    1  0.1166492E+001  0.1571663E+01  0.7818608E-02  0.3384705E+00
         11   -1    0    0    0    0  0.00000000000E+00  0.00000000000E+00  0.39999999674E+01  0.40000000000E+01  0.51100000000E-03 0. -1.
    9000002   -1    0    0    0    0 -0.00000000000E+00 -0.00000000000E+00  0.00000000000E+00  0.93800000000E+00  0.93800000000E+00 0.  1.
         11    1    1    2    0    0  0.90620903944E-01  0.63830356764E-01  0.50446722572E+00  0.51650160273E+00  0.51100000000E-03 0. -1.
    9000002    1    1    2    0    0  0.28027466536E+00 -0.13041670782E+00  0.86174861675E-01  0.99137909626E+00  0.93800000000E+00 0.  1.
         22    1    1    2    0    0 -0.37089556930E+00  0.66586351057E-01  0.34093578800E+01  0.34301193010E+01  0.00000000000E+00 0. -1.
</event>
<event>
 5    1  0.1166492E+001  0.1527411E+01  0.7818608E-02  0.3436125E+00
         11   -1    0    0    0    0  0.00000000000E+00  0.00000000000E+00  0.39999999674E+01  0.40000000000E+01  0.51100000000E-03 0.  1.
    9000002   -1    0    0    0    0 -0.00000000000E+00 -0.00000000000E+00  0.00000000000E+00  0.93800000000E+00  0.93800000000E+00 0.  1.
         11    1    1    2    0    0 -0.43068783435E-01  0.24353079644E+00  0.92253160960E+00  0.95510575370E+00  0.51100000000E-03 0.  1.
    9000002    1    1    2    0    0 -0.21665889346E+00  0.64245265527E-01  0.90693516815E-01  0.96909124661E+00  0.93800000000E+00 0.  1.
         22    1    1    2    0    0  0.25972767689E+00 -0.30777606196E+00  0.29867748409E+01  0.30138029997E+01  0.00000000000E+00 0.  1.
</event>
<event>
 5    1  0.1166492E+001  0.1496995E+01  0.7818608E-02  0.3473356E+00
         11   -1    0    0    0    0  0.00000000000E+00  0.00000000000E+00  0.39999999674E+01  0.40000000000E+01  0.51100000000E-03 0. -1.
    9000002   -1    0    0    0    0 -0.00000000000E+00 -0.00000000000E+00  0.00000000000E+00  0.93800000000E+00  0.93800000000E+00 0. -1.
         11    1    1    2    0    0  0.43008079987E+00 -0.10032999042E+00  0.13471485821E+01  0.14176900806E+01  0.51100000000E-03 0. -1.
    9000002    1    1    2    0    0 -0.19121100537E+00  0.10483026372E+00  0.11342552020E+00  0.96967024364E+00  0.93800000000E+00 0. -1.
         22    1    1    2    0    0 -0.23886979451E+00 -0.45002732950E-02  0.25394258651E+01  0.25506396757E+01  0.00000000000E+00 0. -1.
</event>
<event>
 5    1  0.1166492E+001  0.1558340E+01  0.7818608E-02  0.3399859E+00
         11   -1    0    0    0    0  0.00000000000E+00  0.00000000000E+00  0.39999999674E+01  0.40000000000E+01  0.51100000000E-03 0.  1.
    9000002   -1    0    0    0    0 -0.00000000000E+00 -0.00000000000E+00  0.00000000000E+00  0.93800000000E+00  0.93800000000E+00 0.  1.
         11    1    1    2    0    0  0.13654716540E+00 -0.15095716757E+00  0.13428579854E+01  0.13581977120E+01  0.51100000000E-03 0.  1.
    9000002    1    1    2    0    0 -0.99928877743E-02 -0.11386452889E+00  0.39507479186E-01  0.94576415118E+00  0.93800000000E+00 0.  1.
         22    1    1    2    0    0 -0.12655427762E+00  0.26482169645E+00  0.26176345027E+01  0.26340381368E+01  0.00000000000E+00 0.  1.
</event>
<event>
 5    1  0.1166492E+001  0.1570658E+01  0.7818608E-02  0.3385839E+00
         11   -1    0    0    0    0  0.00000000000E+00  0.00000000000E+00  0.39999999674E+01  0.40000000000E+01  0.51100000000E-03 0. -1.
    9000002   -1    0    0    0    0 -0.00000000000E+00 -0.00000000000E+00  0.00000000000E+00  0.93800000000E+00  0.93800000000E+00 0.  1.
         11    1    1    2    0    0 -0.81089615361E-01  0.18691873689E+00  0.14663636616E+01  0.14804515490E+01  0.51100000000E-03 0. -1.
    9000002    1    1    2    0    0 -0.14825455616E+00 -0.11594186282E+00  0.45415566029E-01  0.95777267794E+00  0.93800000000E+00 0.  1.
         22    1    1    2    0    0  0.22934417152E+00 -0.70976874063E-01  0.24882207398E+01  0.24997757730E+01  0.00000000000E+00 0.  1.
</event>
<event>
 5    1  0.1166492E+001  0.1521462E+01  0.7818608E-02  0.3443280E+00
         11   -1    0    0    0    0  0.00000000000E+00  0.00000000000E+00  0.39999999674E+01  0.40000000000E+01  0.51100000000E-03 0. -1.
    9000002   -1    0    0    0    0 -0.00000000000E+00 -0.00000000000E+00  0.00000000000E+00  0.93800000000E+00  0.93800000000E+00 0. -1.
         11    1    1    2    0    0 -0.11676272298E+00 -0.22896937320E+00  0.92672522200E+00  0.96170702689E+00  0.51100000000E-03 0. -1.
    9000002    1    1    2    0    0  0.59904429227E-01 -0.16384261988E+00  0.80676938085E-01  0.95748927569E+00  0.93800000000E+00 0. -1.
         22    1    1    2    0    0  0.56858293754E-01  0.39281199308E+00  0.29925978073E+01  0.30188036974E+01  0.00000000000E+00 0. -1.
</event>
<event>
 5    1  0.1166492E+001  0.1501133E+01  0.7818608E-02  0.3468195E+00
         11   -1    0    0    0    0  0.00000000000E+00  0.00000000000E+00  0.39999999674E+01  0.40000000000E+01  0.51100000000E-03 0. -1.
    9000002   -1    0    0    0    0 -0.00000000000E+00 -0.00000000000E+00  0.00000000000E+00  0.93800000000E+00  0.93800000000E+00 0.  1.
         11    1    1    2    0    0  0.10159639996E+00 -0.32694625373E+00  0.12237934183E+01  0.12707817567E+01  0.51100000000E-03 0. -1.
    9000002    1    1    2    0    0 -0.13543686863E+00 -0.61133328915E-01  0.91162038892E-01  0.95406233896E+00  0.93800000000E+00 0.  1.
         22    1    1    2    0    0  0.33840468668E-01  0.38807958265E+00  0.26850445101E+01  0.27131559043E+01  0.00000000000E+00 0. -1.
</event>
<event>
 5    1  0.1166492E+001  0.1506118E+01  0.7818608E-02  0.3462019E+00
         11   -1    0    0    0    0  0.00000000000E+00  0.00000000000E+00  0.39999999674E+01  0.40000000000E+01  0.51100000000E-03 0.  1.
    9000002   -1    0    0    0    0 -0.00000000000E+00 -0.00000000000E+00  0.00000000000E+00  0.93800000000E+00  0.93800000000E+00 0.  1.
         11    1    1    2    0    0  0.36658593463E+00  0.10186713633E+00  0.12153413955E+01  0.12735058420E+01  0.51100000000E-03 0.  1.
    9000002    1    1    2    0    0 -0.11020500531E+00 -0.63093379921E-01  0.82744530707E-01  0.95016660389E+00  0.93800000000E+00 0.  1.
         22    1    1    2    0    0 -0.25638092932E+00 -0.38773756404E-01  0.27019140412E+01  0.27143275541E+01  0.00000000000E+00 0. -1.
</event>
<event>
 5    1  0.1166492E+001  0.1448340E+01  0.7818608E-02  0.3536432E+00
         11   -1    0    0    0    0  0.00000000000E+00  0.00000000000E+00  0.39999999674E+01  0.40000000000E+01  0.51100000000E-03 0.  1.
    9000002   -1    0    0    0    0 -0.00000000000E+00 -0.00000000000E+00  0.00000000000E+00  0.93800000000E+00  0.93800000000E+00 0.  1.
         11    1    1    2    0    0  0.78490785045E-01 -0.39527134778E+00  0.12532930342E+01  0.13164892450E+01  0.51100000000E-03 0.  1.
    9000002    1    1    2    0    0  0.11510133646E+00 -0.92413614545E-01  0.13675815450E+00  0.95934112110E+00  0.93800000000E+00 0.  1.
         22    1    1    2    0    0 -0.19359212150E+00  0.48768496233E+00  0.26099487787E+01  0.26621696339E+01  0.00000000000E+00 0.  1.
</event>
<event>
 5    1  0.1166492E+001  0.1523472E+01  0.7818608E-02  0.3440856E+00
         11   -1    0    0    0    0  0.00000000000E+00  0.00000000000E+00  0.39999999674E+01  0.40000000000E+01  0.51100000000E-03 0. -1.
    9000002   -1    0    0    0    0 -0.00000000000E+00 -0.00000000000E+00  0.00000000000E+00  0.93800000000E+00  0.93800000000E+00 0. -1.
         11    1    1    2    0    0 -0.12896734674E+00 -0.11927332646E+00  0.33401595770E+00  0.37739319555E+00  0.51100000000E-03 0. -1.
    9000002    1    1    2    0    0 -0.10940352386E+00 -0.11758248129E+00  0.75727824273E-01  0.95465882613E+00  0.93800000000E+00 0. -1.
         22    1    1    2    0    0  0.23837087060E+00  0.23685580775E+00  0.35902561854E+01  0.36059479783E+01  0.00000000000E+00 0. -1.
</event>
<event>
 5    1  0.1166492E+001  0.1477236E+01  0.7818608E-02  0.3498428E+00
         11   -1    0    0    0    0  0.00000000000E+00  0.00000000000E+00  0.39999999674E+01  0.40000000000E+01  0.51100000000E-03 0. -1.
    9000002   -1    0    0    0    0 -0.00000000000E+00 -0.00000000000E+00  0.00000000000E+00  0.93800000000E+00  0.93800000000E+00 0. -1.
         11    1    1    2    0    0  0.12106072795E+00  0.73333313340E+00  0.12505467497E+01  0.14547510504E+01  0.51100000000E-03 0. -1.
    9000002    1    1    2    0    0 -0.38755963599E+00 -0.78715833145E+00  0.79618637407E+00  0.15111510356E+01  0.93800000000E+00 0. -1.
         22    1    1    2    0    0  0.26649890804E+00  0.53825198045E-01  0.19532668436E+01  0.19720979140E+01  0.00000000000E+00 0. -1.
</event>
<event>
 5    1  0.1166492E+001  0.1516477E+01  0.7818608E-02  0.3449324E+00
         11   -1    0    0    0    0  0.00000000000E+00  0.00000000000E+00  0.39999999674E+01  0.40000000000E+01  0.51100000000E-03 0.  1.
    9000002   -1    0    0    0    0 -0.00000000000E+00 -0.00000000000E+00  0.00000000000E+00  0.93800000000E+00  0.93800000000E+00 0. -1.
         11    1    1    2    0    0  0.26577054326E+00 -0.77226275573E-01  0.65087424127E+00  0.70727322752E+00  0.51100000000E-03 0.  1.
    9000002    1    1    2    0    0 -0.13007013903E-01  0.36713626455E+00  0.16180859608E+00  0.10202863524E+01  0.93800000000E+00 0. -1.
         22    1    1    2    0    0 -0.25276352936E+00 -0.28990998898E+00  0.31873171300E+01  0.32104404201E+01  0.00000000000E+00 0.  1.
</event>
<event>
 5    1  0.1166492E+001  0.1493781E+01  0.7818608E-02  0.3477385E+00
         11   -1    0    0    0    0  0.00000000000E+00  0.00000000000E+00  0.39999999674E+01  0.40000000000E+01  0.51100000000E-03 0. -1.
    9000002   -1    0    0    0    0 -0.00000000000E+00 -0.00000000000E+00  0.00000000000E+00  0.93800000000E+00  0.93800000000E+00 0. -1.
         11    1    1    2    0    0 -0.29335556577E-01  0.32038549733E+00  0.98579690940E+00  0.10369682972E+01  0.51100000000E-03 0. -1.
    9000002    1    1    2    0    0 -0.26887181310E+00  0.30935305852E-01  0.13543525084E+00  0.98561440340E+00  0.93800000000E+00 0. -1.
         22    1    1    2    0    0  0.29820736967E+00 -0.35132080318E+00  0.28787678071E+01  0.29154172994E+01  0.00000000000E+00 0. -1.
</event>
<event>
 5    1  0.1166492E+001  0.1460188E+01  0.7818608E-02  0.3520652E+00
         11   -1    0    0    0    0  0.00000000000E+00  0.00000000000E+00  0.39999999674E+01  0.40000000000E+01  0.51100000000E-03 0.  1.
    9000002   -1    0    0    0    0 -0.00000000000E+00 -0.00000000000E+00  0.00000000000E+00  0.93800000000E+00  0.93800000000E+00 0.  1.
         11    1    1    2    0    0 -0.10073288882E-01 -0.21836656912E+00  0.21792329836E+00  0.30866851921E+00  0.51100000000E-03 0.  1.
    9000002    1    1    2    0    0  0.11936730309E+00 -0.95858776952E-01  0.12666866073E+00  0.95881510615E+00  0.93800000000E+00 0.  1.
         22    1    1    2    0    0 -0.10929401421E+00  0.31422534607E+00  0.36554080083E+01  0.36705163746E+01  0.00000000000E+00 0.  1.
</event>
<event>
 5    1  0.1166492E+001  0.1575887E+01  0.7818608E-02  0.3379958E+00
         11   -1    0    0    0    0  0.00000000000E+00  0.00000000000E+00  0.39999999674E+01  0.40000000000E+01  0.51100000000E-03 0.  1.
    9000002   -1    0    0    0    0 -0.00000000000E+00 -0.00000000000E+00  0.00000000000E+00  0.93800000000E+00  0.93800000000E+00 0. -1.
         11    1    1    2    0    0  0.54371010679E-01  0.11552842528E+00  0.14345271579E+01  0.14401984070E+01  0.51100000000E-03 0.  1.
    9000002    1    1    2    0    0  0.11231382587E+00  0.97940012832E-01  0.32426031956E-01  0.95031683619E+00  0.93800000000E+00 0. -1.
         22    1    1    2    0    0 -0.16668483655E+00 -0.21346843811E+00  0.25330467775E+01  0.25474847568E+01  0.00000000000E+00 0.  1.
</event>
<event>
 5    1  0.1166492E+001  0.1534974E+01  0.7818608E-02  0.3427113E+00
         11   -1    0    0    0    0  0.00000000000E+00  0.00000000000E+00  0.39999999674E+01  0.40000000000E+01  0.51100000000E-03 0. -1.
    9000002   -1    0    0    0    0 -0.00000000000E+00 -0.00000000000E+00  0.00000000000E+00  0.93800000000E+00  0.93800000000E+00 0. -1.
         11    1    1    2    0    0  0.67863800517E-01 -0.30522762929E+00  0.14541876927E+01  0.14874244545E+01  0.51100000000E-03 0. -1.
    9000002    1    1    2    0    0 -0.15406556426E-01  0.43990251419E-01  0.49901170457E-01  0.94048212690E+00  0.93800000000E+00 0. -1.
         22    1    1    2    0    0 -0.52457244092E-01  0.26123737787E+00  0.24959111042E+01  0.25100934186E+01  0.00000000000E+00 0. -1.
</event>
<event>
 5    1  0.1166492E+001  0.1543996E+01  0.7818608E-02  0.3416486E+00
         11   -1    0    0    0    0  0.00000000000E+00  0.00000000000E+00  0.39999999674E+01  0.40000000000E+01  0.51100000000E-03 0. -1.
    9000002   -1    0    0    0    0 -0.00000000000E+00 -0.00000000000E+00  0.00000000000E+00  0.93800000000E+00  0.93800000000E+00 0.  1.
         11    1    1    2    0    0  0.18554420857E+00  0.17492361771E+00  0.12135008847E+01  0.12400038644E+01  0.51100000000E-03 0. -1.
    9000002    1    1    2    0    0  0.51974960946E-01 -0.23147644946E-01  0.43687422847E-01  0.94073896536E+00  0.93800000000E+00 0.  1.
         22    1    1    2    0    0 -0.23751916952E+00 -0.15177597276E+00  0.27428116598E+01  0.27572571702E+01  0.00000000000E+00 0.  1.
</event>
<event>
 5    1  0.1166492E+001  0.1546536E+01  0.7818608E-02  0.3413517E+00
         11   -1    0    0    0    0  0.00000000000E+00  0.00000000000E+00  0.39999999674E+01  0.40000000000E+01  0.51100000000E-03 0. -1.
    9000002   -1    0    0    0    0 -0.00000000000E+00 -0.00000000000E+00  0.00000000000E+00  0.93800000000E+00  0.93800000000E+00 0.  1.
         11    1    1    2    0    0  0.27057873602E+00  0.45312462080E-01  0.13643306133E+01  0.13916408858E+01  0.51100000000E-03 0. -1.
    9000002    1    1    2    0    0 -0.40877593930E-01  0.50181179168E-01  0.42400018091E-01  0.94118589554E+00  0.93800000000E+00 0.  1.
         22    1    1    2    0    0 -0.22970114209E+00 -0.95493641248E-01  0.25932693360E+01  0.26051732186E+01  0.00000000000E+00 0. -1.
</event>
<event>
 5    1  0.1166492E+001  0.1531079E+01  0.7818608E-02  0.3431742E+00
         11   -1    0    0    0    0  0.00000000000E+00  0.00000000000E+00  0.39999999674E+01  0.40000000000E+01  0.51100000000E-03 0.  1.
    9000002   -1    0    0    0    0 -0.00000000000E+00 -0.00000000000E+00  0.00000000000E+00  0.93800000000E+00  0.93800000000E+00 0. -1.
         11    1    1    2    0    0 -0.50508908000E+00 -0.20136438508E+00  0.73696441253E+00  0.91584900545E+00  0.51100000000E-03 0.  1.
    9000002    1    1    2    0    0  0.21295274255E+00  0.25655551481E+00  0.29362832658E+00  0.10378974886E+01  0.93800000000E+00 0. -1.
         22    1    1    2    0    0  0.29213633745E+00 -0.55191129728E-01  0.29694072282E+01  0.29842535059E+01  0.00000000000E+00 0.  1.
</event>
<event>
 5    1  0.1166492E+001  0.1551655E+01  0.7818608E-02  0.3407567E+00
         11   -1    0    0    0    0  0.00000000000E+00  0.00000000000E+00  0.39999999674E+01  0.40000000000E+01  0.51100000000E-03 0. -1.
    9000002   -1    0    0    0    0 -0.00000000000E+00 -0.00000000000E+00  0.00000000000E+00  0.93800000000E+00  0.93800000000E+00 0.  1.
         11    1    1    2    0    0  0.13889317138E+00  0.15736618882E+00  0.11489850709E+01  0.11679993085E+01  0.51100000000E-03 0. -1.
    9000002    1    1    2    0    0 -0.85883839837E-01  0.18421215360E+00  0.64289280505E-01  0.96191853245E+00  0.93800000000E+00 0.  1.
         22    1    1    2    0    0 -0.53009331538E-01 -0.34157834242E+00  0.27867256160E+01  0.28080821591E+01  0.00000000000E+00 0. -1.
</event>
<event>
 5    1  0.1166492E+001  0.1572444E+01  0.7818608E-02  0.3383825E+00
         11   -1    0    0    0    0  0.00000000000E+00  0.00000000000E+00  0.39999999674E+01  0.40000000000E+01  0.51100000000E-03 0. -1.
    9000002   -1    0    0    0    0 -0.00000000000E+00 -0.00000000000E+00  0.00000000000E+00  0.93800000000E+00  0.93800000000E+00 0. -1.
         11    1    1    2    0    0 -0.75011004017E-01  0.12987531317E+00  0.14770728434E+01  0.14846678731E+01  0.51100000000E-03 0. -1.
    9000002    1    1    2    0    0  0.28022698048E+00  0.15942098936E+00  0.91389860979E-01  0.99606140329E+00  0.93800000000E+00 0. -1.
         22    1    1    2    0    0 -0.20521597647E+00 -0.28929630253E+00  0.24315372630E+01  0.24572707236E+01  0.00000000000E+00 0. -1.
</event>
<event>
 5    1  0.1166492E+001  0.1569524E+01  0.7818608E-02  0.3387120E+00
         11   -1    0    0    0    0  0.00000000000E+00  0.00000000000E+00  0.39999999674E+01  0.40000000000E+01  0.51100000000E-03 0.  1.
    9000002   -1    0    0    0    0 -0.00000000000E+00 -0.00000000000E+00  0.00000000000E+00  0.93800000000E+00  0.93800000000E+00 0.  1.
         11    1    1    2    0    0  0.21303785818E+00 -0.49716175126E+00  0.64364261453E+00  0.84073242610E+00  0.51100000000E-03 0.  1.
    9000002    1    1    2    0    0 -0.15756170338E+00  0.17410338774E+00  0.28444143856E+00  0.10079129982E+01  0.93800000000E+00 0.  1.
         22    1    1    2    0    0 -0.55476154802E-01  0.32305836351E+00  0.30719159143E+01  0.30893545757E+01  0.00000000000E+00 0. -1.
</event>
<event>
 5    1  0.1166492E+001  0.1373915E+01  0.7818608E-02  0.3649617E+00
         11   -1    0    0    0    0  0.00000000000E+00  0.00000000000E+00  0.39999999674E+01  0.40000000000E+01  0.51100000000E-03 0. -1.
    9000002   -1    0    0    0    0 -0.00000000000E+00 -0.00000000000E+00  0.00000000000E+00  0.93800000000E+00  0.93800000000E+00 0.  1.
         11    1    1    2    0    0 -0.59242732681E+00  0.15118974721E+00  0.13336040506E+01  0.14670816276E+01  0.51100000000E-03 0. -1.
    9000002    1    1    2    0    0  0.17895019100E+00  0.39553208043E-02  0.21339250804E+00  0.97847799051E+00  0.93800000000E+00 0.  1.
         22    1    1    2    0    0  0.41347713581E+00 -0.15514506801E+00  0.24530034087E+01  0.24924403819E+01  0.00000000000E+00 0. -1.
</event>
<event>
 5    1  0.1166492E+001  0.1534961E+01  0.7818608E-02  0.3427128E+00
         11   -1    0    0    0    0  0.00000000000E+00  0.00000000000E+00  0.39999999674E+01  0.40000000000E+01  0.51100000000E-03 0. -1.
    9000002   -1    0    0    0    0 -0.00000000000E+00 -0.00000000000E+00  0.00000000000E+00  0.93800000000E+00  0.93800000000E+00 0.  1.
         11    1    1    2    0    0 -0.22766336659E+00 -0.17284605604E+00  0.14077628095E+01  0.14364897342E+01  0.51100000000E-03 0. -1.
    9000002    1    1    2    0    0  0.20445719137E-01 -0.58697940979E-01  0.51099096582E-01  0.94144494973E+00  0.93800000000E+00 0.  1.
         22    1    1    2    0    0  0.20721764745E+00  0.23154399702E+00  0.25411380613E+01  0.25600653160E+01  0.00000000000E+00 0. -1.
</event>
<event>
 5    1  0.1166492E+001  0.1557421E+01  0.7818608E-02  0.3400914E+00
         11   -1    0    0    0    0  0.00000000000E+00  0.00000000000E+00  0.39999999674E+01  0.40000000000E+01  0.51100000000E-03 0.  1.
    9000002   -1    0    0    0    0 -0.00000000000E+00 -0.00000000000E+00  0.00000000000E+00  0.93800000000E+00  0.93800000000E+00 0.  1.
         11    1    1    2    0    0 -0.96210588457E-01  0.17516573535E-01  0.19378007970E+00  0.21705825966E+00  0.51100000000E-03 0.  1.
    9000002    1    1    2    0    0 -0.24817712318E+00 -0.81486797538E-01  0.78554941977E-01  0.97685559913E+00  0.93800000000E+00 0.  1.
         22    1    1    2    0    0  0.34438771163E+00  0.63970224003E-01  0.37276649457E+01  0.37440861412E+01  0.00000000000E+00 0.  1.
</event>
<event>
 5    1  0.1166492E+001  0.1598143E+01  0.7818608E-02  0.3355381E+00
         11   -1    0    0    0    0  0.00000000000E+00  0.00000000000E+00  0.39999999674E+01  0.40000000000E+01  0.51100000000E-03 0.  1.
    9000002   -1    0    0    0    0 -0.00000000000E+00 -0.00000000000E+00  0.00000000000E+00  0.93800000000E+00  0.93800000000E+00 0. -1.
         11    1    1    2    0    0  0.20424190421E-01 -0.74537148233E-01  0.12667417056E+01  0.12690972161E+01  0.51100000000E-03 0.  1.
    9000002    1    1    2    0    0 -0.70321182355E-01  0.36610230402E+00  0.94681722593E-01  0.10137971169E+01  0.93800000000E+00 0. -1.
         22    1    1    2    0    0  0.49896991934E-01 -0.29156515579E+00  0.26385765392E+01  0.26551056670E+01  0.00000000000E+00 0.  1.
</event>
<event>
 5    1  0.1166492E+001  0.1477371E+01  0.7818608E-02  0.3498255E+00
         11   -1    0    0    0    0  0.00000000000E+00  0.00000000000E+00  0.39999999674E+01  0.40000000000E+01  0.51100000000E-03 0.  1.
    9000002   -1    0    0    0    0 -0.00000000000E+00 -0.00000000000E+00  0.00000000000E+00  0.93800000000E+00  0.93800000000E+00 0.  1.
         11    1    1    2    0    0  0.40564701622E-01 -0.48083755633E+00  0.13945416824E+01  0.14756683284E+01  0.51100000000E-03 0.  1.
    9000002    1    1    2    0    0 -0.16111408896E-01  0.21006705215E+00  0.12782934085E+00  0.96983095655E+00  0.93800000000E+00 0.  1.
         22    1    1    2    0    0 -0.24453292726E-01  0.27077050417E+00  0.24776289442E+01  0.24925007150E+01  0.00000000000E+00 0. -1.
</event>
<event>
 5    1  0.1166492E+001  0.1487108E+01  0.7818608E-02  0.3485812E+00
         11   -1    0    0    0    0  0.00000000000E+00  0.00000000000E+00  0.39999999674E+01  0.40000000000E+01  0.51100000000E-03 0.  1.
    9000002   -1    0    0    0    0 -0.00000000000E+00 -0.00000000000E+00  0.00000000000E+00  0.93800000000E+00  0.93800000000E+00 0.  1.
         11    1    1    2    0    0 -0.35720373777E+00  0.12700745931E+00  0.10250567977E+01  0.10929167876E+01  0.51100000000E-03 0.  1.
    9000002    1    1    2    0    0  0.34031069790E-01 -0.16009083242E+00  0.10628079674E+00  0.95808496288E+00  0.93800000000E+00 0.  1.
         22    1    1    2    0    0  0.32317266798E+00  0.33083373107E-01  0.28686623729E+01  0.28869982495E+01  0.00000000000E+00 0.  1.
</event>
<event>
 5    1  0.1166492E+001  0.1473936E+01  0.7818608E-02  0.3502687E+00
         11   -1    0    0    0    0  0.00000000000E+00  0.00000000000E+00  0.39999999674E+01  0.40000000000E+01  0.51100000000E-03 0.  1.
    9000002   -1    0    0    0    0 -0.00000000000E+00 -0.00000000000E+00  0.00000000000E+00  0.93800000000E+00  0.93800000000E+00 0. -1.
         11    1    1    2    0    0  0.34055909475E+00  0.27971982351E-01  0.81046613162E+00  0.87955587681E+00  0.51100000000E-03 0.  1.
    9000002    1    1    2    0    0  0.29782044957E-01  0.90610632472E-01  0.10405926207E+00  0.94856185193E+00  0.93800000000E+00 0. -1.
         22    1    1    2    0    0 -0.37034113970E+00 -0.11858261482E+00  0.30854745737E+01  0.31098822713E+01  0.00000000000E+00 0.  1.
</event>
<event>
 5    1  0.1166492E+001  0.1518922E+01  0.7818608E-02  0.3446355E+00
         11   -1    0    0    0    0  0.00000000000E+00  0.00000000000E+00  0.39999999674E+01  0.40000000000E+01  0.51100000000E-03 0. -1.
    9000002   -1    0    0    0    0 -0.00000000000E+00 -0.00000000000E+00  0.00000000000E+00  0.93800000000E+00  0.93800000000E+00 0. -1.
         11    1    1    2    0    0 -0.30336625884E+00 -0.11535596272E+00  0.11175901051E+01  0.11637637171E+01  0.51100000000E-03 0. -1.
    9000002    1    1    2    0    0  0.70208488263E-01 -0.33930182335E-01  0.65238572489E-01  0.94349380519E+00  0.93800000000E+00 0. -1.
         22    1    1    2    0    0  0.23315777057E+00  0.14928614506E+00  0.28171712898E+01  0.28307424777E+01  0.00000000000E+00 0. -1.
</event>
<event>
 5    1  0.1166492E+001  0.1510493E+01  0.7818608E-02  0.3456634E+00
         11   -1    0    0    0    0  0.00000000000E+00  0.00000000000E+00  0.39999999674E+01  0.40000000000E+01  0.51100000000E-03 0.  1.
    9000002   -1    0    0    0    0 -0.00000000000E+00 -0.00000000000E+00  0.00000000000E+00  0.93800000000E+00  0.93800000000E+00 0. -1.
         11    1    1    2    0    0 -0.72889507784E-01  0.17581316605E+00  0.28679539176E+00  0.34420198657E+00  0.51100000000E-03 0.  1.
    9000002    1    1    2    0    0  0.19912785453E+00  0.13787082039E+00  0.11025685488E+00  0.97501837912E+00  0.93800000000E+00 0. -1.
         22    1    1    2    0    0 -0.12623834675E+00 -0.31368398644E+00  0.36029477207E+01  0.36187796343E+01  0.00000000000E+00 0.  1.
</event>
<event>
 5    1  0.1166492E+001  0.1532371E+01  0.7818608E-02  0.3430203E+00
         11   -1    0    0    0    0  0.00000000000E+00  0.00000000000E+00  0.39999999674E+01  0.40000000000E+01  0.51100000000E-03 0. -1.
    9000002   -1    0    0    0    0 -0.00000000000E+00 -0.00000000000E+00  0.00000000000E+00  0.93800000000E+00  0.93800000000E+00 0. -1.
         11    1    1    2    0    0  0.14420491431E+00 -0.26484686669E+00  0.14593191279E+01  0.14901515018E+01  0.51100000000E-03 0. -1.
    9000002    1    1    2    0    0  0.10995795010E+00  0.71284351239E-01  0.62510375107E-01  0.94917003562E+00  0.93800000000E+00 0. -1.
         22    1    1    2    0    0 -0.25416286441E+00  0.19356251545E+00  0.24781704644E+01  0.24986784626E+01  0.00000000000E+00 0. -1.
</event>
<event>
 5    1  0.1166492E+001  0.1508487E+01  0.7818608E-02  0.3459099E+00
         11   -1    0    0    0    0  0.00000000000E+00  0.00000000000E+00  0.39999999674E+01  0.40000000000E+01  0.51100000000E-03 0. -1.
    9000002   -1    0    0    0    0 -0.00000000000E+00 -0.00000000000E+00  0.00000000000E+00  0.93800000000E+00  0.93800000000E+00 0. -1.
         11    1    1    2    0    0 -0.11132607528E+00  0.35114890878E+00  0.12341124395E+01  0.12879180197E+01  0.51100000000E-03 0. -1.
    9000002    1    1    2    0    0  0.49973462200E-02 -0.96782291695E-01  0.75942881509E-01  0.94604603837E+00  0.93800000000E+00 0. -1.
         22    1    1    2    0    0  0.10632872906E+00 -0.25436661708E+00  0.26899446464E+01  0.27040359419E+01  0.00000000000E+00 0. -1.
</event>
<event>
 5    1  0.1166492E+001  0.1541248E+01  0.7818608E-02  0.3419709E+00
         11   -1    0    0    0    0  0.00000000000E+00  0.00000000000E+00  0.39999999674E+01  0.40000000000E+01  0.51100000000E-03 0. -1.
    9000002   -1    0    0    0    0 -0.00000000000E+00 -0.00000000000E+00  0.00000000000E+00  0.93800000000E+00  0.93800000000E+00 0.  1.
         11    1    1    2    0    0 -0.26250350135E+00 -0.13620523079E+00  0.14334383951E+01  0.14636276326E+01  0.51100000000E-03 0. -1.
    9000002    1    1    2    0    0  0.65212895385E-01 -0.27463926526E-01  0.47036462606E-01  0.94184044179E+00  0.93800000000E+00 0.  1.
         22    1    1    2    0    0  0.19729060596E+00  0.16366915732E+00  0.25195251096E+01  0.25325319256E+01  0.00000000000E+00 0.  1.
</event>
<event>
 5    1  0.1166492E+001  0.1498502E+01  0.7818608E-02  0.3471473E+00
         11   -1    0    0    0    0  0.00000000000E+00  0.00000000000E+00  0.39999999674E+01  0.40000000000E+01  0.51100000000E-03 0. -1.
    9000002   -1    0    0    0    0 -0.00000000000E+00 -0.00000000000E+00  0.00000000000E+00  0.93800000000E+00  0.93800000000E+00 0.  1.
         11    1    1    2    0    0  0.34911980932E+00 -0.36678547796E-01  0.87951119775E+00  0.94697949567E+00  0.51100000000E-03 0. -1.
    9000002    1    1    2    0    0 -0.15636166540E+00 -0.20182799904E+00  0.12529210733E+00  0.98016612049E+00  0.93800000000E+00 0.  1.
         22    1    1    2    0    0 -0.19275814392E+00  0.23850654683E+00  0.29951966623E+01  0.30108543838E+01  0.00000000000E+00 0. -1.
</event>
<event>
 5    1  0.1166492E+001  0.1516704E+01  0.7818608E-02  0.3449048E+00
         11   -1    0    0    0    0  0.00000000000E+00  0.00000000000E+00  0.39999999674E+01  0.40000000000E+01  0.51100000000E-03 0.  1.
    9000002   -1    0    0    0    0 -0.00000000000E+00 -0.00000000000E+00  0.00000000000E+00  0.93800000000E+00  0.93800000000E+00 0.  1.
         11    1    1    2    0    0 -0.35298089725E-01 -0.24180493841E+00  0.68515174092E+00  0.72742611486E+00  0.51100000000E-03 0.  1.
    9000002    1    1    2    0    0 -0.94206115825E-01 -0.10369882493E+00  0.76732835801E-01  0.95150416008E+00  0.93800000000E+00 0.  1.
         22    1    1    2    0    0  0.12950420555E+00  0.34550376333E+00  0.32381153906E+01  0.32590697251E+01  0.00000000000E+00 0.  1.
</event>
<event>
 5    1  0.1166492E+001  0.1487163E+01  0.7818608E-02  0.3485742E+00
         11   -1    0    0    0    0  0.00000000000E+00  0.00000000000E+00  0.39999999674E+01  0.40000000000E+01  0.51100000000E-03 0. -1.
    9000002   -1    0    0    0    0 -0.00000000000E+00 -0.00000000000E+00  0.00000000000E+00  0.93800000000E+00  0.93800000000E+00 0.  1.
         11    1    1    2    0    0  0.37565163198E+00  0.49347997249E-01  0.10438078823E+01  0.11104433933E+01  0.51100000000E-03 0. -1.
    9000002    1    1    2    0    0 -0.76533764587E-01  0.31253062738E-01  0.91397480562E-01  0.94606113466E+00  0.93800000000E+00 0.  1.
         22    1    1    2    0    0 -0.29911786740E+00 -0.80601059987E-01  0.28647946045E+01  0.28814954721E+01  0.00000000000E+00 0.  1.
</event>
<event>
 5    1  0.1166492E+001  0.1509721E+01  0.7818608E-02  0.3457582E+00
         11   -1    0    0    0    0  0.00000000000E+00  0.00000000000E+00  0.39999999674E+01  0.40000000000E+01  0.51100000000E-03 0. -1.
    9000002   -1    0    0    0    0 -0.00000000000E+00 -0.00000000000E+00  0.00000000000E+00  0.93800000000E+00  0.93800000000E+00 0.  1.
         11    1    1    2    0    0 -0.25872673587E-01  0.51174231686E+00  0.83576847908E+00  0.98033606781E+00  0.51100000000E-03 0. -1.
    9000002    1    1    2    0    0 -0.10435194705E+00 -0.18250024665E+00  0.21211914595E+00  0.98439534790E+00  0.93800000000E+00 0.  1.
         22    1    1    2    0    0  0.13022462064E+00 -0.32924207021E+00  0.29521123423E+01  0.29732685843E+01  0.00000000000E+00 0. -1.
</event>
<event>
 5    1  0.1166492E+001  0.1583345E+01  0.7818608E-02  0.3371640E+00
         11   -1    0    0    0    0  0.00000000000E+00  0.00000000000E+00  0.39999999674E+01  0.40000000000E+01  0.51100000000E-03 0. -1.
    9000002   -1    0    0    0    0 -0.00000000000E+00 -0.00000000000E+00  0.00000000000E+00  0.93800000000E+00  0.93800000000E+00 0. -1.
         11    1    1    2    0    0 -0.28767260587E-01 -0.95892239425E-01  0.13926148281E+01  0.13962088659E+01  0.51100000000E-03 0. -1.
    9000002    1    1    2    0    0  0.12208216379E-01 -0.13921408437E+00  0.25009968490E-01  0.94868282390E+00  0.93800000000E+00 0. -1.
         22    1    1    2    0    0  0.16559044208E-01  0.23510632380E+00  0.25823751708E+01  0.25931083102E+01  0.00000000000E+00 0. -1.
</event>
<event>
 5    1  0.1166492E+001  0.1529281E+01  0.7818608E-02  0.3433888E+00
         11   -1    0    0    0    0  0.00000000000E+00  0.00000000000E+00  0.39999999674E+01  0.40000000000E+01  0.51100000000E-03 0. -1.
    9000002   -1    0    0    0    0 -0.00000000000E+00 -0.00000000000E+00  0.00000000000E+00  0.93800000000E+00  0.93800000000E+00 0.  1.
         11    1    1    2    0    0  0.34245798608E+00  0.11321940905E+00  0.11191490873E+01  0.11758363184E+01  0.51100000000E-03 0. -1.
    9000002    1    1    2    0    0 -0.16899185034E+00 -0.40384623635E+00  0.19285380453E+00  0.10529418873E+01  0.93800000000E+00 0.  1.
         22    1    1    2    0    0 -0.17346613574E+00  0.29062682731E+00  0.26879970755E+01  0.27092217943E+01  0.00000000000E+00 0. -1.
</event>
<event>
 5    1  0.1166492E+001  0.1569634E+01  0.7818608E-02  0.3386996E+00
         11   -1    0    0    0    0  0.00000000000E+00  0.00000000000E+00  0.39999999674E+01  0.40000000000E+01  0.51100000000E-03 0. -1.
    9000002   -1    0    0    0    0 -0.00000000000E+00 -0.00000000000E+00  0.00000000000E+00  0.93800000000E+00  0.93800000000E+00 0. -1.
         11    1    1    2    0    0  0.85165604584E-01  0.13574031802E+00  0.13190058710E+01  0.13287043927E+01  0.51100000000E-03 0. -1.
    9000002    1    1    2    0    0  0.17849207527E+00 -0.76837739005E-02  0.43804154237E-01  0.95586676124E+00  0.93800000000E+00 0. -1.
         22    1    1    2    0    0 -0.26365767985E+00 -0.12805654412E+00  0.26371899421E+01  0.26534288461E+01  0.00000000000E+00 0. -1.
</event>
<event>
 5    1  0.1166492E+001  0.1546327E+01  0.7818608E-02  0.3413760E+00
         11   -1    0    0    0    0  0.00000000000E+00  0.00000000000E+00  0.39999999674E+01  0.40000000000E+01  0.51100000000E-03 0. -1.
    9000002   -1    0    0    0    0 -0.00000000000E+00 -0.00000000000E+00  0.00000000000E+00  0.93800000000E+00  0.93800000000E+00 0.  1.
         11    1    1    2    0    0  0.13787975863E+00  0.20807577759E+00  0.13956284833E+01  0.14177748346E+01  0.51100000000E-03 0. -1.
    9000002    1    1    2    0    0  0.40113105225E-01  0.27853752574E-01  0.41307350906E-01  0.94017827564E+00  0.93800000000E+00 0.  1.
         22    1    1    2    0    0 -0.17799286386E+00 -0.23592953017E+00  0.25630641332E+01  0.25800468898E+01  0.00000000000E+00 0. -1.
</event>
<event>
 5    1  0.1166492E+001  0.1457719E+01  0.7818608E-02  0.3523917E+00
         11   -1    0    0    0    0  0.00000000000E+00  0.00000000000E+00  0.39999999674E+01  0.40000000000E+01  0.51100000000E-03 0.  1.
    9000002   -1    0    0    0    0 -0.00000000000E+00 -0.00000000000E+00  0.00000000000E+00  0.93800000000E+00  0.93800000000E+00 0. -1.
         11    1    1    2    0    0 -0.99938506205E-01 -0.50700389355E+00  0.14066481657E+01  0.14985659733E+01  0.51100000000E-03 0.  1.
    9000002    1    1    2    0    0  0.13326195069E+00  0.11261233376E+00  0.15189587876E+00  0.96610384701E+00  0.93800000000E+00 0. -1.
         22    1    1    2    0    0 -0.33323444482E-01  0.39439155979E+00  0.24414559229E+01  0.24733301797E+01  0.00000000000E+00 0.  1.
</event>
<event>
 5    1  0.1166492E+001  0.1490566E+01  0.7818608E-02  0.3481434E+00
         11   -1    0    0    0    0  0.00000000000E+00  0.00000000000E+00  0.39999999674E+01  0.40000000000E+01  0.51100000000E-03 0. -1.
    9000002   -1    0    0    0    0 -0.00000000000E+00 -0.00000000000E+00  0.00000000000E+00  0.93800000000E+00  0.93800000000E+00 0. -1.
         11    1    1    2    0    0  0.46068455126E+00  0.28025605147E+00  0.10868434585E+01  0.12132611733E+01  0.51100000000E-03 0. -1.
    9000002    1    1    2    0    0 -0.27310223199E+00  0.79103427991E-01  0.22428201031E+00  0.10054792895E+01  0.93800000000E+00 0. -1.
         22    1    1    2    0    0 -0.18758231927E+00 -0.35935947946E+00  0.26888744985E+01  0.27192595372E+01  0.00000000000E+00 0. -1.
</event>
<event>
 5    1  0.1166492E+001  0.1541605E+01  0.7818608E-02  0.3419289E+00
         11   -1    0    0    0    0  0.00000000000E+00  0.00000000000E+00  0.39999999674E+01  0.40000000000E+01  0.51100000000E-03 0.  1.
    9000002   -1    0    0    0    0 -0.00000000000E+00 -0.00000000000E+00  0.00000000000E+00  0.93800000000E+00  0.93800000000E+00 0. -1.
         11    1    1    2    0    0  0.32028738694E-01 -0.25148915319E+00  0.79630227032E+00  0.83568546781E+00  0.51100000000E-03 0.  1.
    9000002    1    1    2    0    0  0.24810608868E+00  0.15143029753E+00  0.10301156397E+00  0.98739209464E+00  0.93800000000E+00 0. -1.
         22    1    1    2    0    0 -0.28013482737E+00  0.10005885566E+00  0.31006861331E+01  0.31149224375E+01  0.00000000000E+00 0.  1.
</event>
<event>
 5    1  0.1166492E+001  0.1477710E+01  0.7818608E-02  0.3497819E+00
         11   -1    0    0    0    0  0.00000000000E+00  0.00000000000E+00  0.39999999674E+01  0.40000000000E+01  0.51100000000E-03 0.  1.
    9000002   -1    0    0    0    0 -0.00000000000E+00 -0.00000000000E+00  0.00000000000E+00  0.93800000000E+00  0.93800000000E+00 0.  1.
         11    1    1    2    0    0  0.19421063111E+00 -0.28232712611E+00  0.79538292343E+00  0.86606040862E+00  0.51100000000E-03 0.  1.
    9000002    1    1    2    0    0  0.24419728228E-01  0.18173549017E-01  0.94793349563E-01  0.94326898610E+00  0.93800000000E+00 0.  1.
         22    1    1    2    0    0 -0.21863035933E+00  0.26415357710E+00  0.31098236944E+01  0.31286706053E+01  0.00000000000E+00 0.  1.
</event>
<event>
 5    1  0.1166492E+001  0.1550208E+01  0.7818608E-02  0.3409245E+00
         11   -1    0    0    0    0  0.00000000000E+00  0.00000000000E+00  0.39999999674E+01  0.40000000000E+01  0.51100000000E-03 0.  1.
    9000002   -1    0    0    0    0 -0.00000000000E+00 -0.00000000000E+00  0.00000000000E+00  0.93800000000E+00  0.93800000000E+00 0. -1.
         11    1    1    2    0    0 -0.23635697355E+00 -0.38386293753E-01  0.14498515642E+01  0.14694924109E+01  0.51100000000E-03 0.  1.
    9000002    1    1    2    0    0  0.97079410589E-01  0.53583788674E+00  0.25265408562E+00  0.11136537791E+01  0.93800000000E+00 0. -1.
         22    1    1    2    0    0  0.13927756296E+00 -0.49745159299E+00  0.22974943176E+01  0.23548538099E+01  0.00000000000E+00 0.  1.
</event>
<event>
 5    1  0.1166492E+001  0.1569375E+01  0.7818608E-02  0.3387288E+00
         11   -1    0    0    0    0  0.00000000000E+00  0.00000000000E+00  0.39999999674E+01  0.40000000000E+01  0.51100000000E-03 0. -1.
    9000002   -1    0    0    0    0 -0.00000000000E+00 -0.00000000000E+00  0.00000000000E+00  0.93800000000E+00  0.93800000000E+00 0.  1.
         11    1    1    2    0    0  0.14721244700E+00 -0.21970075297E+00  0.11071216447E+01  0.11382699691E+01  0.51100000000E-03 0. -1.
    9000002    1    1    2    0    0 -0.38450457534E+00  0.11538759999E+00  0.13441059783E+00  0.10291104292E+01  0.93800000000E+00 0.  1.
         22    1    1    2    0    0  0.23729212833E+00  0.10431315298E+00  0.27584677249E+01  0.27706196017E+01  0.00000000000E+00 0. -1.
</event>
<event>
 5    1  0.1166492E+001  0.1515445E+01  0.7818608E-02  0.3450580E+00
         11   -1    0    0    0    0  0.00000000000E+00  0.00000000000E+00  0.39999999674E+01  0.40000000000E+01  0.51100000000E-03 0. -1.
    9000002   -1    0    0    0    0 -0.00000000000E+00 -0.00000000000E+00  0.00000000000E+00  0.93800000000E+00  0.93800000000E+00 0.  1.
         11    1    1    2    0    0 -0.12267361768E+00  0.19086793258E+00  0.49033804097E+00  0.54028792297E+00  0.51100000000E-03 0. -1.
    9000002    1    1    2    0    0 -0.20936976405E+00 -0.70667845241E-01  0.98922873676E-01  0.96874113022E+00  0.93800000000E+00 0.  1.
         22    1    1    2    0    0  0.33204338174E+00 -0.12020008734E+00  0.34107390527E+01  0.34289709468E+01  0.00000000000E+00 0. -1.
</event>
<event>
 5    1  0.1166492E+001  0.1557579E+01  0.7818608E-02  0.3400733E+00
         11   -1    0    0    0    0  0.00000000000E+00  0.00000000000E+00  0.39999999674E+01  0.40000000000E+01  0.51100000000E-03 0.  1.
    9000002   -1    0    0    0    0 -0.00000000000E+00 -0.00000000000E+00  0.00000000000E+00  0.93800000000E+00  0.93800000000E+00 0.  1.
         11    1    1    2    0    0  0.49756481373E+00  0.66937489238E-01  0.13007666595E+01  0.13942903338E+01  0.51100000000E-03 0.  1.
    9000002    1    1    2    0    0 -0.71098680667E+00 -0.39051022660E+00  0.54447114111E+00  0.13543608455E+01  0.93800000000E+00 0.  1.
         22    1    1    2    0    0  0.21342199295E+00  0.32357273736E+00  0.21547621668E+01  0.21893488207E+01  0.00000000000E+00 0.  1.
</event>
<event>
 5    1  0.1166492E+001  0.1531096E+01  0.7818608E-02  0.3431722E+00
         11   -1    0    0    0    0  0.00000000000E+00  0.00000000000E+00  0.39999999674E+01  0.40000000000E+01  0.51100000000E-03 0.  1.
    9000002   -1    0    0    0    0 -0.00000000000E+00 -0.00000000000E+00  0.00000000000E+00  0.93800000000E+00  0.93800000000E+00 0.  1.
         11    1    1    2    0    0  0.17163139848E+00  0.10599499833E-01  0.33865972611E+00  0.37981621549E+00  0.51100000000E-03 0.  1.
    9000002    1    1    2    0    0  0.10511074797E+00 -0.29208294072E+00  0.12043506373E+00  0.99534381908E+00  0.93800000000E+00 0.  1.
         22    1    1    2    0    0 -0.27674214645E+00  0.28148344089E+00  0.35409051775E+01  0.35628399654E+01  0.00000000000E+00 0.  1.
</event>
<event>
 5    1  0.1166492E+001  0.1219876E+01  0.7818608E-02  0.3947723E+00
         11   -1    0    0    0    0  0.00000000000E+00  0.00000000000E+00  0.39999999674E+01  0.40000000000E+01  0.51100000000E-03 0.  1.
    9000002   -1    0    0    0    0 -0.00000000000E+00 -0.00000000000E+00  0.00000000000E+00  0.93800000000E+00  0.93800000000E+00 0.  1.
         11    1    1    2    0    0  0.51524811127E+00  0.72762383827E+00  0.81373635256E+00  0.12070974189E+01  0.51100000000E-03 0.  1.
    9000002    1    1    2    0    0 -0.29920641542E+00 -0.58839052327E+00  0.97684589282E+00  0.15065854723E+01  0.93800000000E+00 0.  1.
         22    1    1    2    0    0 -0.21604169585E+00 -0.13923331500E+00  0.22094177220E+01  0.22243171088E+01  0.00000000000E+00 0.  1.
</event>
<event>
 5    1  0.1166492E+001  0.1085873E+01  0.7818608E-02  0.4296278E+00
         11   -1    0    0    0    0  0.00000000000E+00  0.00000000000E+00  0.39999999674E+01  0.40000000000E+01  0.51100000000E-03 0.  1.
    9000002   -1    0    0    0    0 -0.00000000000E+00 -0.00000000000E+00  0.00000000000E+00  0.93800000000E+00  0.93800000000E+00 0.  1.
         11    1    1    2    0    0 -0.48084165438E+00  0.43699825989E+00  0.35237415258E+00  0.73915085082E+00  0.51100000000E-03 0.  1.
    9000002    1    1    2    0    0  0.23765131755E+00 -0.11912581959E-01  0.66000181303E+00  0.11713524028E+01  0.93800000000E+00 0.  1.
         22    1    1    2    0    0  0.24319033684E+00 -0.42508567793E+00  0.29876240018E+01  0.30274967464E+01  0.00000000000E+00 0.  1.
</event>
<event>
 5    1  0.1166492E+001  0.1580444E+01  0.7818608E-02  0.3374866E+00
         11   -1    0    0    0    0  0.00000000000E+00  0.00000000000E+00  0.39999999674E+01  0.40000000000E+01  0.51100000000E-03 0.  1.
    9000002   -1    0    0    0    0 -0.00000000000E+00 -0.00000000000E+00  0.00000000000E+00  0.93800000000E+00  0.93800000000E+00 0. -1.
         11    1    1    2    0    0  0.94473289276E-01  0.22530517536E-01  0.74299108638E+00  0.74931224610E+00  0.51100000000E-03 0.  1.
    9000002    1    1    2    0    0  0.11903044311E+00  0.18819571966E+00  0.47551479614E-01  0.96524143016E+00  0.93800000000E+00 0. -1.
         22    1    1    2    0    0 -0.21350373238E+00 -0.21072623720E+00  0.32094574014E+01  0.32234463237E+01  0.00000000000E+00 0.  1.
</event>
<event>
 5    1  0.1166492E+001  0.1589515E+01  0.7818608E-02  0.3364822E+00
         11   -1    0    0    0    0  0.00000000000E+00  0.00000000000E+00  0.39999999674E+01  0.40000000000E+01  0.51100000000E-03 0.  1.
    9000002   -1    0    0    0    0 -0.00000000000E+00 -0.00000000000E+00  0.00000000000E+00  0.93800000000E+00  0.93800000000E+00 0.  1.
         11    1    1    2    0    0 -0.11760254967E+00 -0.13235222146E+00  0.12508810801E+01  0.12633492027E+01  0.51100000000E-03 0.  1.
    9000002    1    1    2    0    0  0.38535827678E+00  0.59555022853E-01  0.11087311687E+00  0.10218535366E+01  0.93800000000E+00 0.  1.
         22    1    1    2    0    0 -0.26775572711E+00  0.72797198603E-01  0.26382457703E+01  0.26527972607E+01  0.00000000000E+00 0.  1.
</event>
<event>
 5    1  0.1166492E+001  0.1531736E+01  0.7818608E-02  0.3430959E+00
         11   -1    0    0    0    0  0.00000000000E+00  0.00000000000E+00  0.39999999674E+01  0.40000000000E+01  0.51100000000E-03 0.  1.
    9000002   -1    0    0    0    0 -0.00000000000E+00 -0.00000000000E+00  0.00000000000E+00  0.93800000000E+00  0.93800000000E+00 0. -1.
         11    1    1    2    0    0 -0.13781995815E+00  0.23773474876E+00  0.12490583748E+01  0.12789289411E+01  0.51100000000E-03 0.  1.
    9000002    1    1    2    0    0 -0.12217494689E+00 -0.15444923079E-01  0.61589554068E-01  0.94805196929E+00  0.93800000000E+00 0. -1.
         22    1    1    2    0    0  0.25999490504E+00 -0.22228982568E+00  0.26893520385E+01  0.27110190896E+01  0.00000000000E+00 0.  1.
</event>
<event>
 5    1  0.1166492E+001  0.1569303E+01  0.7818608E-02  0.3387369E+00
         11   -1    0    0    0    0  0.00000000000E+00  0.00000000000E+00  0.39999999674E+01  0.40000000000E+01  0.51100000000E-03 0.  1.
    9000002   -1    0    0    0    0 -0.00000000000E+00 -0.00000000000E+00  0.00000000000E+00  0.93800000000E+00  0.93800000000E+00 0.  1.
         11    1    1    2    0    0  0.11629592202E+00  0.17466573688E+00  0.13897880868E+01  0.14055404826E+01  0.51100000000E-03 0.  1.
    9000002    1    1    2    0    0 -0.26416994673E+00  0.69609453051E-01  0.73507143230E-01  0.97973391123E+00  0.93800000000E+00 0.  1.
         22    1    1    2    0    0  0.14787402471E+00 -0.24427518993E+00  0.25367047374E+01  0.25527256061E+01  0.00000000000E+00 0.  1.
</event>
<event>
 5    1  0.1166492E+001  0.1536913E+01  0.7818608E-02  0.3424817E+00
         11   -1    0    0    0    0  0.00000000000E+00  0.00000000000E+00  0.39999999674E+01  0.40000000000E+01  0.51100000000E-03 0.  1.
    9000002   -1    0    0    0    0 -0.00000000000E+00 -0.00000000000E+00  0.00000000000E+00  0.93800000000E+00  0.93800000000E+00 0. -1.
         11    1    1    2    0    0 -0.27639994456E+00 -0.10755570559E+00  0.12663086587E+01  0.13005779636E+01  0.51100000000E-03 0.  1.
    9000002    1    1    2    0    0  0.47621682085E-01  0.33624491779E-02  0.48475178596E-01  0.94046423303E+00  0.93800000000E+00 0. -1.
         22    1    1    2    0    0  0.22877826247E+00  0.10419325642E+00  0.26852161300E+01  0.26969578033E+01  0.00000000000E+00 0.  1.
</event>
<event>
 5    1  0.1166492E+001  0.1562390E+01  0.7818608E-02  0.3395224E+00
         11   -1    0    0    0    0  0.00000000000E+00  0.00000000000E+00  0.39999999674E+01  0.40000000000E+01  0.51100000000E-03 0. -1.
    9000002   -1    0    0    0    0 -0.00000000000E+00 -0.00000000000E+00  0.00000000000E+00  0.93800000000E+00  0.93800000000E+00 0. -1.
         11    1    1    2    0    0  0.17374589103E+00  0.62578047259E-01  0.98146277710E+00  0.99868568159E+00  0.51100000000E-03 0. -1.
    9000002    1    1    2    0    0  0.95068247524E-01 -0.10026690990E+00  0.40557445644E-01  0.94898911021E+00  0.93800000000E+00 0. -1.
         22    1    1    2    0    0 -0.26881413856E+00  0.37688862645E-01  0.29779797446E+01  0.29903252082E+01  0.00000000000E+00 0. -1.
</event>
<event>
 5    1  0.1166492E+001  0.1516063E+01  0.7818608E-02  0.3449828E+00
         11   -1    0    0    0    0  0.00000000000E+00  0.00000000000E+00  0.39999999674E+01  0.40000000000E+01  0.51100000000E-03 0.  1.
    9000002   -1    0    0    0    0 -0.00000000000E+00 -0.00000000000E+00  0.00000000000E+00  0.93800000000E+00  0.93800000000E+00 0.  1.
         11    1    1    2    0    0  0.37678227326E+00  0.12897930624E+00  0.14172172719E+01  0.14721092350E+01  0.51100000000E-03 0.  1.
    9000002    1    1    2    0    0 -0.20006700072E+00  0.37487382122E-01  0.93029413992E-01  0.96432908308E+00  0.93800000000E+00 0.  1.
         22    1    1    2    0    0 -0.17671527254E+00 -0.16646668836E+00  0.24897532815E+01  0.25015616820E+01  0.00000000000E+00 0. -1.
</event>
<event>
 5    1  0.1166492E+001  0.1468972E+01  0.7818608E-02  0.3509131E+00
         11   -1    0    0    0    0  0.00000000000E+00  0.00000000000E+00  0.39999999674E+01  0.40000000000E+01  0.51100000000E-03 0.  1.
    9000002   -1    0    0    0    0 -0.00000000000E+00 -0.00000000000E+00  0.00000000000E+00  0.93800000000E+00  0.93800000000E+00 0.  1.
         11    1    1    2    0    0  0.11913712365E+00 -0.75443886194E-01  0.14062523644E-01  0.14171608902E+00  0.51100000000E-03 0.  1.
    9000002    1    1    2    0    0 -0.19409060951E+00 -0.36968721647E+00  0.28174603882E+00  0.10646899235E+01  0.93800000000E+00 0.  1.
         22    1    1    2    0    0  0.74953485858E-01  0.44513110267E+00  0.37041914049E+01  0.37315939875E+01  0.00000000000E+00 0.  1.
</event>
<event>
 5    1  0.1166492E+001  0.1569520E+01  0.7818608E-02  0.3387125E+00
         11   -1    0    0    0    0  0.00000000000E+00  0.00000000000E+00  0.39999999674E+01  0.40000000000E+01  0.51100000000E-03 0.  1.
    9000002   -1    0    0    0    0 -0.00000000000E+00 -0.00000000000E+00  0.00000000000E+00  0.93800000000E+00  0.93800000000E+00 0.  1.
         11    1    1    2    0    0 -0.66569325814E-01 -0.20286519409E+00  0.74017106259E+00  0.77035006661E+00  0.51100000000E-03 0.  1.
    9000002    1    1    2    0    0 -0.26463038239E+00  0.43717055392E+00  0.20707814311E+00  0.10880591390E+01  0.93800000000E+00 0.  1.
         22    1    1    2    0    0  0.33119970821E+00 -0.23430535983E+00  0.30527507617E+01  0.30795907944E+01  0.00000000000E+00 0.  1.
</event>
<event>
 5    1  0.1166492E+001  0.1515120E+01  0.7818608E-02  0.3450977E+00
         11   -1    0    0    0    0  0.00000000000E+00  0.00000000000E+00  0.39999999674E+01  0.40000000000E+01  0.51100000000E-03 0.  1.
    9000002   -1    0    0    0    0 -0.00000000000E+00 -0.00000000000E+00  0.00000000000E+00  0.93800000000E+00  0.93800000000E+00 0.  1.
         11    1    1    2    0    0  0.19497128424E+00  0.23787892115E+00  0.24976534499E+00  0.39621101888E+00  0.51100000000E-03 0.  1.
    9000002    1    1    2    0    0  0.11605434387E+00 -0.44644695675E-01  0.19291235415E+00  0.96567123596E+00  0.93800000000E+00 0.  1.
         22    1    1    2    0    0 -0.31102562811E+00 -0.19323422547E+00  0.35573222682E+01  0.35761177452E+01  0.00000000000E+00 0.  1.
</event>
<event>
 5    1  0.1166492E+001  0.1566063E+01  0.7818608E-02  0.3391042E+00
         11   -1    0    0    0    0  0.00000000000E+00  0.00000000000E+00  0.39999999674E+01  0.40000000000E+01  0.51100000000E-03 0.  1.
    9000002   -1    0    0    0    0 -0.00000000000E+00 -0.00000000000E+00  0.00000000000E+00  0.93800000000E+00  0.93800000000E+00 0. -1.
         11    1    1    2    0    0  0.13654744663E+00  0.20588062463E-01  0.82617507802E+00  0.83763631377E+00  0.51100000000E-03 0.  1.
    9000002    1    1    2    0    0  0.67052197054E-01  0.37020198472E+00  0.12324742582E+00  0.10181254513E+01  0.93800000000E+00 0. -1.
         22    1    1    2    0    0 -0.20359964368E+00 -0.39079004718E+00  0.30505774635E+01  0.30822382349E+01  0.00000000000E+00 0.  1.
</event>
<event>
 5    1  0.1166492E+001  0.1505420E+01  0.7818608E-02  0.3462880E+00
         11   -1    0    0    0    0  0.00000000000E+00  0.00000000000E+00  0.39999999674E+01  0.40000000000E+01  0.51100000000E-03 0. -1.
    9000002   -1    0    0    0    0 -0.00000000000E+00 -0.00000000000E+00  0.00000000000E+00  0.93800000000E+00  0.93800000000E+00 0.  1.
         11    1    1    2    0    0 -0.65901176259E-01  0.13239703355E+00  0.12107929112E+00  0.19113449553E+00  0.51100000000E-03 0. -1.
    9000002    1    1    2    0    0  0.33614363114E+00  0.72955070784E-01  0.15919013609E+00  0.10116820066E+01  0.93800000000E+00 0.  1.
         22    1    1    2    0    0 -0.27024245488E+00 -0.20535210433E+00  0.37197305402E+01  0.37351834978E+01  0.00000000000E+00 0. -1.
</event>
<event>
 5    1  0.1166492E+001  0.1545995E+01  0.7818608E-02  0.3414148E+00
         11   -1    0    0    0    0  0.00000000000E+00  0.00000000000E+00  0.39999999674E+01  0.40000000000E+01  0.51100000000E-03 0. -1.
    9000002   -1    0    0    0    0 -0.00000000000E+00 -0.00000000000E+00  0.00000000000E+00  0.93800000000E+00  0.93800000000E+00 0. -1.
         11    1    1    2    0    0 -0.21656122064E+00  0.31671702999E-02  0.90639857836E+00  0.93191600331E+00  0.51100000000E-03 0. -1.
    9000002    1    1    2    0    0 -0.79691664345E-01  0.13054234354E-01  0.44436069477E-01  0.94251776571E+00  0.93800000000E+00 0. -1.
         22    1    1    2    0    0  0.29625288499E+00 -0.16221404654E-01  0.30491653195E+01  0.30635662310E+01  0.00000000000E+00 0. -1.
</event>
<event>
 5    1  0.1166492E+001  0.1571809E+01  0.7818608E-02  0.3384542E+00
         11   -1    0    0    0    0  0.00000000000E+00  0.00000000000E+00  0.39999999674E+01  0.40000000000E+01  0.51100000000E-03 0. -1.
    9000002   -1    0    0    0    0 -0.00000000000E+00 -0.00000000000E+00  0.00000000000E+00  0.93800000000E+00  0.93800000000E+00 0. -1.
         11    1    1    2    0    0  0.16060992369E+00  0.22836825390E-01  0.13559577824E+01  0.13656276348E+01  0.51100000000E-03 0. -1.
    9000002    1    1    2    0    0  0.70063742393E-01  0.71724664196E-01  0.27256054145E-01  0.94373738293E+00  0.93800000000E+00 0. -1.
         22    1    1    2    0    0 -0.23067366609E+00 -0.94561489587E-01  0.26167861308E+01  0.26286349823E+01  0.00000000000E+00 0. -1.
</event>
<event>
 5    1  0.1166492E+001  0.1550184E+01  0.7818608E-02  0.3409273E+00
         11   -1    0    0    0    0  0.00000000000E+00  0.00000000000E+00  0.39999999674E+01  0.40000000000E+01  0.51100000000E-03 0.  1.
    9000002   -1    0    0    0    0 -0.00000000000E+00 -0.00000000000E+00  0.00000000000E+00  0.93800000000E+00  0.93800000000E+00 0. -1.
         11    1    1    2    0    0  0.20283636477E+00 -0.44717380173E-01  0.10526199197E+01  0.10729171410E+01  0.51100000000E-03 0.  1.
    9000002    1    1    2    0    0  0.12826629267E+00  0.15673048337E+00  0.65245582595E-01  0.96183037606E+00  0.93800000000E+00 0. -1.
         22    1    1    2    0    0 -0.33110265745E+00 -0.11201310320E+00  0.28821344650E+01  0.29032524829E+01  0.00000000000E+00 0.  1.
</event>
<event>
 5    1  0.1166492E+001  0.1501334E+01  0.7818608E-02  0.3467945E+00
         11   -1    0    0    0    0  0.00000000000E+00  0.00000000000E+00  0.39999999674E+01  0.40000000000E+01  0.51100000000E-03 0. -1.
    9000002   -1    0    0    0    0 -0.00000000000E+00 -0.00000000000E+00  0.00000000000E+00  0.93800000000E+00  0.93800000000E+00 0.  1.
         11    1    1    2    0    0  0.20935916701E+00  0.28037293382E+00  0.11238704197E+01  0.11770833548E+01  0.51100000000E-03 0. -1.
    9000002    1    1    2    0    0 -0.76497819108E-01  0.23144692121E-01  0.79522502694E-01  0.94475151312E+00  0.93800000000E+00 0.  1.
         22    1    1    2    0    0 -0.13286134790E+00 -0.30351762594E+00  0.27966070450E+01  0.28161651321E+01  0.00000000000E+00 0. -1.
</event>
<event>
 5    1  0.1166492E+001  0.1497474E+01  0.7818608E-02  0.3472757E+00
         11   -1    0    0    0    0  0.00000000000E+00  0.00000000000E+00  0.39999999674E+01  0.40000000000E+01  0.51100000000E-03 0. -1.
    9000002   -1    0    0    0    0 -0.00000000000E+00 -0.00000000000E+00  0.00000000000E+00  0.93800000000E+00  0.93800000000E+00 0. -1.
         11    1    1    2    0    0  0.27522355257E+00  0.46470483793E-01  0.61400757578E+00  0.67447244124E+00  0.51100000000E-03 0. -1.
    9000002    1    1    2    0    0  0.37880109968E-01 -0.48174241510E-01  0.80721471649E-01  0.94345938771E+00  0.93800000000E+00 0. -1.
         22    1    1    2    0    0 -0.31310366254E+00  0.17037577164E-02  0.33052709199E+01  0.33200681710E+01  0.00000000000E+00 0. -1.
</event>
<event>
 5    1  0.1166492E+001  0.1589783E+01  0.7818608E-02  0.3364527E+00
         11   -1    0    0    0    0  0.00000000000E+00  0.00000000000E+00  0.39999999674E+01  0.40000000000E+01  0.51100000000E-03 0. -1.
    9000002   -1    0    0    0    0 -0.00000000000E+00 -0.00000000000E+00  0.00000000000E+00  0.93800000000E+00  0.93800000000E+00 0. -1.
         11    1    1    2    0    0  0.68711066681E-01 -0.24130761235E-01  0.23320622900E+00  0.24431314064E+00  0.51100000000E-03 0. -1.
    9000002    1    1    2    0    0 -0.18487843759E+00  0.36041764957E+00  0.11905635583E+00  0.10286395553E+01  0.93800000000E+00 0. -1.
         22    1    1    2    0    0  0.11616737091E+00 -0.33628688833E+00  0.36477373825E+01  0.36650473041E+01  0.00000000000E+00 0. -1.
</event>
<event>
 5    1  0.1166492E+001  0.1550002E+01  0.7818608E-02  0.3409484E+00
         11   -1    0    0    0    0  0.00000000000E+00  0.00000000000E+00  0.39999999674E+01  0.40000000000E+01  0.51100000000E-03 0.  1.
    9000002   -1    0    0    0    0 -0.00000000000E+00 -0.00000000000E+00  0.00000000000E+00  0.93800000000E+00  0.93800000000E+00 0. -1.
         11    1    1    2    0    0  0.21620841567E+00 -0.32825801387E-01  0.73493590293E+00  0.76678201255E+00  0.51100000000E-03 0.  1.
    9000002    1    1    2    0    0 -0.35597026564E-01  0.31056972736E+00  0.10549980807E+00  0.99433139011E+00  0.93800000000E+00 0. -1.
         22    1    1    2    0    0 -0.18061138911E+00 -0.27774392597E+00  0.31595642564E+01  0.31768865973E+01  0.00000000000E+00 0.  1.
</event>
<event>
 5    1  0.1166492E+001  0.1504744E+01  0.7818608E-02  0.3463717E+00
         11   -1    0    0    0    0  0.00000000000E+00  0.00000000000E+00  0.39999999674E+01  0.40000000000E+01  0.51100000000E-03 0. -1.
    9000002   -1    0    0    0    0 -0.00000000000E+00 -0.00000000000E+00  0.00000000000E+00  0.93800000000E+00  0.93800000000E+00 0.  1.
         11    1    1    2    0    0  0.61742063184E-01 -0.35395861943E+00  0.60208006825E+00  0.70114153802E+00  0.51100000000E-03 0. -1.
    9000002    1    1    2    0    0 -0.36181175291E+00  0.41979822308E+00  0.30866700030E+00  0.11323681423E+01  0.93800000000E+00 0.  1.
         22    1    1    2    0    0  0.30006968973E+00 -0.65839603651E-01  0.30892528988E+01  0.31044903197E+01  0.00000000000E+00 0. -1.
</event>
<event>
 5    1  0.1166492E+001  0.1585484E+01  0.7818608E-02  0.3369271E+00
         11   -1    0    0    0    0  0.00000000000E+00  0.00000000000E+00  0.39999999674E+01  0.40000000000E+01  0.51100000000E-03 0.  1.
    9000002   -1    0    0    0    0 -0.00000000000E+00 -0.00000000000E+00  0.00000000000E+00  0.93800000000E+00  0.93800000000E+00 0.  1.
         11    1    1    2    0    0 -0.74934078267E-01 -0.35886707209E-01  0.14878432871E+01  0.14901613604E+01  0.51100000000E-03 0.  1.
    9000002    1    1    2    0    0 -0.97679474876E-01 -0.12477529062E+00  0.27160079584E-01  0.95167842409E+00  0.93800000000E+00 0.  1.
         22    1    1    2    0    0  0.17261355314E+00  0.16066199783E+00  0.24849966006E+01  0.24961602155E+01  0.00000000000E+00 0.  1.
</event>
<event>
 5    1  0.1166492E+001  0.1392506E+01  0.7818608E-02  0.3618960E+00
         11   -1    0    0    0    0  0.00000000000E+00  0.00000000000E+00  0.39999999674E+01  0.40000000000E+01  0.51100000000E-03 0.  1.
    9000002   -1    0    0    0    0 -0.00000000000E+00 -0.00000000000E+00  0.00000000000E+00  0.93800000000E+00  0.93800000000E+00 0. -1.
         11    1    1    2    0    0  0.71036439091E+00 -0.13854300348E+00  0.12782566828E+01  0.14689289091E+01  0.51100000000E-03 0.  1.
    9000002    1    1    2    0    0 -0.49338852402E+00  0.20314230385E+00  0.42280239299E+00  0.11590103083E+01  0.93800000000E+00 0. -1.
         22    1    1    2    0    0 -0.21697586689E+00 -0.64599300361E-01  0.22989408916E+01  0.23100607826E+01  0.00000000000E+00 0.  1.
</event>
<event>
 5    1  0.1166492E+001  0.1523931E+01  0.7818608E-02  0.3440303E+00
         11   -1    0    0    0    0  0.00000000000E+00  0.00000000000E+00  0.39999999674E+01  0.40000000000E+01  0.51100000000E-03 0. -1.
    9000002   -1    0    0    0    0 -0.00000000000E+00 -0.00000000000E+00  0.00000000000E+00  0.93800000000E+00  0.93800000000E+00 0. -1.
         11    1    1    2    0    0  0.39773577271E+00  0.36752195065E+00  0.10732160669E+01  0.12021061169E+01  0.51100000000E-03 0. -1.
    9000002    1    1    2    0    0 -0.48469357896E-01 -0.42522399231E-01  0.19175760133E+00  0.95956886713E+00  0.93800000000E+00 0. -1.
         22    1    1    2    0    0 -0.34926641481E+00 -0.32499955142E+00  0.27350262992E+01  0.27763250159E+01  0.00000000000E+00 0. -1.
</event>
<event>
 5    1  0.1166492E+001  0.1528452E+01  0.7818608E-02  0.3434878E+00
         11   -1    0    0    0    0  0.00000000000E+00  0.00000000000E+00  0.39999999674E+01  0.40000000000E+01  0.51100000000E-03 0. -1.
    9000002   -1    0    0    0    0 -0.00000000000E+00 -0.00000000000E+00  0.00000000000E+00  0.93800000000E+00  0.93800000000E+00 0. -1.
         11    1    1    2    0    0 -0.65028190060E-02  0.28758785628E+00  0.91531979054E+00  0.95945799377E+00  0.51100000000E-03 0. -1.
    9000002    1    1    2    0    0  0.25410834385E+00 -0.80464213805E-01  0.10426324991E+00  0.98069381837E+00  0.93800000000E+00 0. -1.
         22    1    1    2    0    0 -0.24760552484E+00 -0.20712364248E+00  0.29804169269E+01  0.29978481879E+01  0.00000000000E+00 0. -1.
</event>
<event>
 5    1  0.1166492E+001  0.1567398E+01  0.7818608E-02  0.3389527E+00
         11   -1    0    0    0    0  0.00000000000E+00  0.00000000000E+00  0.39999999674E+01  0.40000000000E+01  0.51100000000E-03 0. -1.
    9000002   -1    0    0    0    0 -0.00000000000E+00 -0.00000000000E+00  0.00000000000E+00  0.93800000000E+00  0.93800000000E+00 0. -1.
         11    1    1    2    0    0  0.91719959169E-01  0.12959912579E+00  0.10175715991E+01  0.10298838307E+01  0.51100000000E-03 0. -1.
    9000002    1    1    2    0    0  0.93311833439E-02  0.13336626613E+00  0.35908482379E-01  0.94815982357E+00  0.93800000000E+00 0. -1.
         22    1    1    2    0    0 -0.10105114251E+00 -0.26296539192E+00  0.29465198859E+01  0.29599563458E+01  0.00000000000E+00 0. -1.
</event>
<event>
 5    1  0.1166492E+001  0.1461669E+01  0.7818608E-02  0.3518699E+00
         11   -1    0    0    0    0  0.00000000000E+00  0.00000000000E+00  0.39999999674E+01  0.40000000000E+01  0.51100000000E-03 0.  1.
    9000002   -1    0    0    0    0 -0.00000000000E+00 -0.00000000000E+00  0.00000000000E+00  0.93800000000E+00  0.93800000000E+00 0.  1.
         11    1    1    2    0    0 -0.24606660004E-01  0.38664294366E+00  0.90045222166E+00  0.98026155602E+00  0.51100000000E-03 0.  1.
    9000002    1    1    2    0    0  0.13825286324E+00 -0.22214942697E-01  0.12244991757E+00  0.95626635421E+00  0.93800000000E+00 0.  1.
         22    1    1    2    0    0 -0.11364620324E+00 -0.36442800097E+00  0.29770978281E+01  0.30014720898E+01  0.00000000000E+00 0.  1.
</event>
<event>
 5    1  0.1166492E+001  0.1566953E+01  0.7818608E-02  0.3390031E+00
         11   -1    0    0    0    0  0.00000000000E+00  0.00000000000E+00  0.39999999674E+01  0.40000000000E+01  0.51100000000E-03 0. -1.
    9000002   -1    0    0    0    0 -0.00000000000E+00 -0.00000000000E+00  0.00000000000E+00  0.93800000000E+00  0.93800000000E+00 0.  1.
         11    1    1    2    0    0 -0.28713850946E+00 -0.13956383466E+00  0.89271735071E+00  0.94808813774E+00  0.51100000000E-03 0. -1.
    9000002    1    1    2    0    0  0.54716286642E+00  0.13850173235E+00  0.25269709250E+00  0.11235077894E+01  0.93800000000E+00 0.  1.
         22    1    1    2    0    0 -0.26002435696E+00  0.10621023095E-02  0.28545855242E+01  0.28664040729E+01  0.00000000000E+00 0. -1.
</event>
<event>
 5    1  0.1166492E+001  0.1453591E+01  0.7818608E-02  0.3529404E+00
         11   -1    0    0    0    0  0.00000000000E+00  0.00000000000E+00  0.39999999674E+01  0.40000000000E+01  0.51100000000E-03 0. -1.
    9000002   -1    0    0    0    0 -0.00000000000E+00 -0.00000000000E+00  0.00000000000E+00  0.93800000000E+00  0.93800000000E+00 0.  1.
         11    1    1    2    0    0 -0.51908499311E+00  0.17851829376E+00  0.12418108251E+01  0.13577232405E+01  0.51100000000E-03 0. -1.
    9000002    1    1    2    0    0  0.22955431696E+00 -0.24451583378E+00  0.21408614396E+00  0.10189013958E+01  0.93800000000E+00 0.  1.
         22    1    1    2    0    0  0.28953067615E+00  0.65997540024E-01  0.25441029983E+01  0.25613753637E+01  0.00000000000E+00 0. -1.
</event>
<event>
 5    1  0.1166492E+001  0.1462021E+01  0.7818608E-02  0.3518235E+00
         11   -1    0    0    0    0  0.00000000000E+00  0.00000000000E+00  0.39999999674E+01  0.40000000000E+01  0.51100000000E-03 0.  1.
    9000002   -1    0    0    0    0 -0.00000000000E+00 -0.00000000000E+00  0.00000000000E+00  0.93800000000E+00  0.93800000000E+00 0.  1.
         11    1    1    2    0    0 -0.23248405781E+00 -0.14022256173E+00  0.48827658913E+00  0.55868192433E+00  0.51100000000E-03 0.  1.
    9000002    1    1    2    0    0 -0.29917669153E+00  0.28642731696E-01  0.17714056454E+00  0.10007746392E+01  0.93800000000E+00 0.  1.
         22    1    1    2    0    0  0.53166074934E+00  0.11157983003E+00  0.33345828137E+01  0.33785434365E+01  0.00000000000E+00 0.  1.
</event>
<event>
 5    1  0.1166492E+001  0.1479284E+01  0.7818608E-02  0.3495795E+00
         11   -1    0    0    0    0  0.00000000000E+00  0.00000000000E+00  0.39999999674E+01  0.40000000000E+01  0.51100000000E-03 0. -1.
    9000002   -1    0    0    0    0 -0.00000000000E+00 -0.00000000000E+00  0.00000000000E+00  0.93800000000E+00  0.93800000000E+00 0. -1.
         11    1    1    2    0    0  0.43716389900E+00 -0.15402000971E+00  0.86367433213E+00  0.98018776317E+00  0.51100000000E-03 0. -1.
    9000002    1    1    2    0    0 -0.61667359936E-01  0.16406140656E+00  0.17179114041E+00  0.96957475438E+00  0.93800000000E+00 0. -1.
         22    1    1    2    0    0 -0.37549653906E+00 -0.10041396855E-01  0.29645344948E+01  0.29882374825E+01  0.00000000000E+00 0. -1.
</event>
<event>
 5    1  0.1166492E+001  0.1548067E+01  0.7818608E-02  0.3411734E+00
         11   -1    0    0    0    0  0.00000000000E+00  0.00000000000E+00  0.39999999674E+01  0.40000000000E+01  0.51100000000E-03 0.  1.
    9000002   -1    0    0    0    0 -0.00000000000E+00 -0.00000000000E+00  0.00000000000E+00  0.93800000000E+00  0.93800000000E+00 0.  1.
         11    1    1    2    0    0 -0.11717542377E+00  0.21942365505E+00  0.12777434709E+01  0.13017317154E+01  0.51100000000E-03 0.  1.
    9000002    1    1    2    0    0  0.37238225987E-01  0.42833079567E-01  0.40557248587E-01  0.94059037237E+00  0.93800000000E+00 0.  1.
         22    1    1    2    0    0  0.79937197787E-01 -0.26225673462E+00  0.26816992479E+01  0.26956779123E+01  0.00000000000E+00 0.  1.
</event>
<event>
 5    1  0.1166492E+001  0.1473250E+01  0.7818608E-02  0.3503575E+00
         11   -1    0    0    0    0  0.00000000000E+00  0.00000000000E+00  0.39999999674E+01  0.40000000000E+01  0.51100000000E-03 0.  1.
    9000002   -1    0    0    0    0 -0.00000000000E+00 -0.00000000000E+00  0.00000000000E+00  0.93800000000E+00  0.93800000000E+00 0. -1.
         11    1    1    2    0    0  0.29822305997E-01 -0.33050280300E+00  0.10518431023E+01  0.11029486142E+01  0.51100000000E-03 0.  1.
    9000002    1    1    2    0    0 -0.17966082482E+00 -0.18658031037E+00  0.14882229521E+00  0.98441977822E+00  0.93800000000E+00 0. -1.
         22    1    1    2    0    0  0.14983851882E+00  0.51708311337E+00  0.27993345699E+01  0.28506316076E+01  0.00000000000E+00 0.  1.
</event>
<event>
 5    1  0.1166492E+001  0.1481937E+01  0.7818608E-02  0.3492397E+00
         11   -1    0    0    0    0  0.00000000000E+00  0.00000000000E+00  0.39999999674E+01  0.40000000000E+01  0.51100000000E-03 0.  1.
    9000002   -1    0    0    0    0 -0.00000000000E+00 -0.00000000000E+00  0.00000000000E+00  0.93800000000E+00  0.93800000000E+00 0.  1.
         11    1    1    2    0    0 -0.43744145517E-01 -0.36116770074E+00  0.56407991484E+00  0.67122430660E+00  0.51100000000E-03 0.  1.
    9000002    1    1    2    0    0 -0.48458336536E-01 -0.87965971964E-01  0.15746269809E+00  0.95641242354E+00  0.93800000000E+00 0.  1.
         22    1    1    2    0    0  0.92202482053E-01  0.44913367270E+00  0.32784573544E+01  0.33103632699E+01  0.00000000000E+00 0.  1.
</event>
<event>
 5    1  0.1166492E+001  0.1558321E+01  0.7818608E-02  0.3399881E+00
         11   -1    0    0    0    0  0.00000000000E+00  0.00000000000E+00  0.39999999674E+01  0.40000000000E+01  0.51100000000E-03 0. -1.
    9000002   -1    0    0    0    0 -0.00000000000E+00 -0.00000000000E+00  0.00000000000E+00  0.93800000000E+00  0.93800000000E+00 0. -1.
         11    1    1    2    0    0 -0.15206299222E+00 -0.16452632842E+00  0.12771180857E+01  0.12966198103E+01  0.51100000000E-03 0. -1.
    9000002    1    1    2    0    0  0.52581707306E-01 -0.62727555824E-01  0.35146026848E-01  0.94222015761E+00  0.93800000000E+00 0. -1.
         22    1    1    2    0    0  0.99481284919E-01  0.22725388425E+00  0.26877358548E+01  0.26991600321E+01  0.00000000000E+00 0.  1.
</event>
<event>
 5    1  0.1166492E+001  0.1490479E+01  0.7818608E-02  0.3481544E+00
         11   -1    0    0    0    0  0.00000000000E+00  0.00000000000E+00  0.39999999674E+01  0.40000000000E+01  0.51100000000E-03 0. -1.
    9000002   -1    0    0    0    0 -0.00000000000E+00 -0.00000000000E+00  0.00000000000E+00  0.93800000000E+00  0.93800000000E+00 0. -1.
         11    1    1    2    0    0 -0.11128760497E+00  0.21864699692E+00  0.43813155623E+00  0.50214635513E+00  0.51100000000E-03 0. -1.
    9000002    1    1    2    0    0  0.27864543260E-01  0.12827592471E+00  0.96365400841E-01  0.95203016555E+00  0.93800000000E+00 0. -1.
         22    1    1    2    0    0  0.83423061705E-01 -0.34692292164E+00  0.34655030103E+01  0.34838234793E+01  0.00000000000E+00 0. -1.
</event>
<event>
 5    1  0.1166492E+001  0.1521883E+01  0.7818608E-02  0.3442773E+00
         11   -1    0    0    0    0  0.00000000000E+00  0.00000000000E+00  0.39999999674E+01  0.40000000000E+01  0.51100000000E-03 0. -1.
    9000002   -1    0    0    0    0 -0.00000000000E+00 -0.00000000000E+00  0.00000000000E+00  0.93800000000E+00  0.93800000000E+00 0.  1.
         11    1    1    2    0    0 -0.31845546438E-01 -0.31465584866E+00  0.25901151638E+00  0.40879049483E+00  0.51100000000E-03 0. -1.
    9000002    1    1    2    0    0  0.53837862019E-01 -0.53348006111E-01  0.19114391797E+00  0.96027314995E+00  0.93800000000E+00 0.  1.
         22    1    1    2    0    0 -0.21992315581E-01  0.36800385477E+00  0.35498445330E+01  0.35689363552E+01  0.00000000000E+00 0. -1.
</event>
<event>
 5    1  0.1166492E+001  0.1596266E+01  0.7818608E-02  0.3357426E+00
         11   -1    0    0    0    0  0.00000000000E+00  0.00000000000E+00  0.39999999674E+01  0.40000000000E+01  0.51100000000E-03 0. -1.
    9000002   -1    0    0    0    0 -0.00000000000E+00 -0.00000000000E+00  0.00000000000E+00  0.93800000000E+00  0.93800000000E+00 0.  1.
         11    1    1    2    0    0  0.13691983603E+00  0.21339987062E-01  0.11837051978E+01  0.11917888626E+01  0.51100000000E-03 0. -1.
    9000002    1    1    2    0    0 -0.45947185754E+00 -0.27688684826E+00  0.20145182221E+00  0.10991849486E+01  0.93800000000E+00 0.  1.
         22    1    1    2    0    0  0.32255202152E+00  0.25554686120E+00  0.26148429474E+01  0.26470261888E+01  0.00000000000E+00 0.  1.
</event>
<event>
 5    1  0.1166492E+001  0.1592599E+01  0.7818608E-02  0.3361436E+00
         11   -1    0    0    0    0  0.00000000000E+00  0.00000000000E+00  0.39999999674E+01  0.40000000000E+01  0.51100000000E-03 0. -1.
    9000002   -1    0    0    0    0 -0.00000000000E+00 -0.00000000000E+00  0.00000000000E+00  0.93800000000E+00  0.93800000000E+00 0.  1.
         11    1    1    2    0    0 -0.27330111074E-01 -0.37394564408E-02  0.11446743257E+01  0.11450067648E+01  0.51100000000E-03 0. -1.
    9000002    1    1    2    0    0 -0.97359316210E-01 -0.23983631242E+00  0.49988621341E-01  0.97434242208E+00  0.93800000000E+00 0.  1.
         22    1    1    2    0    0  0.12468942728E+00  0.24357576886E+00  0.28053370203E+01  0.28186508131E+01  0.00000000000E+00 0. -1.
</event>
<event>
 5    1  0.1166492E+001  0.1553550E+01  0.7818608E-02  0.3405375E+00
         11   -1    0    0    0    0  0.00000000000E+00  0.00000000000E+00  0.39999999674E+01  0.40000000000E+01  0.51100000000E-03 0.  1.
    9000002   -1    0    0    0    0 -0.00000000000E+00 -0.00000000000E+00  0.00000000000E+00  0.93800000000E+00  0.93800000000E+00 0. -1.
         11    1    1    2    0    0 -0.10447415208E-01 -0.22224986299E+00  0.12466606893E+01  0.12663598562E+01  0.51100000000E-03 0.  1.
    9000002    1    1    2    0    0  0.87922284793E-01 -0.55101439202E-01  0.41583722030E-01  0.94463733925E+00  0.93800000000E+00 0. -1.
         22    1    1    2    0    0 -0.77474869585E-01  0.27735130220E+00  0.27117555560E+01  0.27270028045E+01  0.00000000000E+00 0.  1.
</event>
<event>
 5    1  0.1166492E+001  0.1514052E+01  0.7818608E-02  0.3452279E+00
         11   -1    0    0    0    0  0.00000000000E+00  0.00000000000E+00  0.39999999674E+01  0.40000000000E+01  0.51100000000E-03 0.  1.
    9000002   -1    0    0    0    0 -0.00000000000E+00 -0.00000000000E+00  0.00000000000E+00  0.93800000000E+00  0.93800000000E+00 0.  1.
         11    1    1    2    0    0  0.31810110580E+00  0.28744084740E-02  0.10085105914E+01  0.10574925294E+01  0.51100000000E-03 0.  1.
    9000002    1    1    2    0    0 -0.36539293767E-01  0.58960384993E-01  0.68190948776E-01  0.94302993191E+00  0.93800000000E+00 0.  1.
         22    1    1    2    0    0 -0.28156181203E+00 -0.61834793467E-01  0.29232984272E+01  0.29374775387E+01  0.00000000000E+00 0.  1.
</event>
<event>
 5    1  0.1166492E+001  0.1551052E+01  0.7818608E-02  0.3408265E+00
         11   -1    0    0    0    0  0.00000000000E+00  0.00000000000E+00  0.39999999674E+01  0.40000000000E+01  0.51100000000E-03 0. -1.
    9000002   -1    0    0    0    0 -0.00000000000E+00 -0.00000000000E+00  0.00000000000E+00  0.93800000000E+00  0.93800000000E+00 0. -1.
         11    1    1    2    0    0  0.18697547495E+00  0.18139796230E+00  0.14352322432E+01  0.14586832768E+01  0.51100000000E-03 0. -1.
    9000002    1    1    2    0    0  0.50566335819E-01 -0.81695133978E-01  0.42434854430E-01  0.94386215419E+00  0.93800000000E+00 0. -1.
         22    1    1    2    0    0 -0.23754181077E+00 -0.99702828320E-01  0.25223328697E+01  0.25354545690E+01  0.00000000000E+00 0. -1.
</event>
<event>
 5    1  0.1166492E+001  0.1536017E+01  0.7818608E-02  0.3425877E+00
         11   -1    0    0    0    0  0.00000000000E+00  0.00000000000E+00  0.39999999674E+01  0.40000000000E+01  0.51100000000E-03 0. -1.
    9000002   -1    0    0    0    0 -0.00000000000E+00 -0.00000000000E+00  0.00000000000E+00  0.93800000000E+00  0.93800000000E+00 0. -1.
         11    1    1    2    0    0  0.22436550854E-01  0.30090289139E+00  0.12817584413E+01  0.13167956986E+01  0.51100000000E-03 0. -1.
    9000002    1    1    2    0    0  0.63602420953E-01 -0.59061836414E-01  0.52858005889E-01  0.94348902339E+00  0.93800000000E+00 0. -1.
         22    1    1    2    0    0 -0.86038971807E-01 -0.24184105498E+00  0.26653835201E+01  0.26777152780E+01  0.00000000000E+00 0. -1.
</event>
<event>
 5    1  0.1166492E+001  0.1585897E+01  0.7818608E-02  0.3368814E+00
         11   -1    0    0    0    0  0.00000000000E+00  0.00000000000E+00  0.39999999674E+01  0.40000000000E+01  0.51100000000E-03 0.  1.
    9000002   -1    0    0    0    0 -0.00000000000E+00 -0.00000000000E+00  0.00000000000E+00  0.93800000000E+00  0.93800000000E+00 0. -1.
         11    1    1    2    0    0  0.22652705509E+00  0.28137945560E+00  0.13763764515E+01  0.14229902677E+01  0.51100000000E-03 0.  1.
    9000002    1    1    2    0    0 -0.39528086237E+00 -0.45748138265E+00  0.26918637628E+00  0.11479727701E+01  0.93800000000E+00 0. -1.
         22    1    1    2    0    0  0.16875380727E+00  0.17610192705E+00  0.23544371396E+01  0.23670369622E+01  0.00000000000E+00 0.  1.
</event>
<event>
 5    1  0.1166492E+001  0.1497216E+01  0.7818608E-02  0.3473080E+00
         11   -1    0    0    0    0  0.00000000000E+00  0.00000000000E+00  0.39999999674E+01  0.40000000000E+01  0.51100000000E-03 0. -1.
    9000002   -1    0    0    0    0 -0.00000000000E+00 -0.00000000000E+00  0.00000000000E+00  0.93800000000E+00  0.93800000000E+00 0. -1.
         11    1    1    2    0    0 -0.30566720114E+00 -0.36318324707E-01  0.97833565743E+00  0.10256180470E+01  0.51100000000E-03 0. -1.
    9000002    1    1    2    0    0 -0.11687476705E+00  0.12157954562E+00  0.99076215395E-01  0.95817607648E+00  0.93800000000E+00 0. -1.
         22    1    1    2    0    0  0.42254196819E+00 -0.85261220918E-01  0.29225880945E+01  0.29542058765E+01  0.00000000000E+00 0. -1.
</event>
<event>
 5    1  0.1166492E+001  0.1517943E+01  0.7818608E-02  0.3447542E+00
         11   -1    0    0    0    0  0.00000000000E+00  0.00000000000E+00  0.39999999674E+01  0.40000000000E+01  0.51100000000E-03 0. -1.
    9000002   -1    0    0    0    0 -0.00000000000E+00 -0.00000000000E+00  0.00000000000E+00  0.93800000000E+00  0.93800000000E+00 0. -1.
         11    1    1    2    0    0  0.42938636662E+00 -0.45219771902E-01  0.13809692307E+01  0.14468910660E+01  0.51100000000E-03 0. -1.
    9000002    1    1    2    0    0 -0.32660462997E+00 -0.19490015549E+00  0.16778712735E+00  0.10259888767E+01  0.93800000000E+00 0. -1.
         22    1    1    2    0    0 -0.10278173665E+00  0.24011992739E+00  0.24512436093E+01  0.24651200573E+01  0.00000000000E+00 0. -1.
</event>
<event>
 5    1  0.1166492E+001  0.1576620E+01  0.7818608E-02  0.3379137E+00
         11   -1    0    0    0    0  0.00000000000E+00  0.00000000000E+00  0.39999999674E+01  0.40000000000E+01  0.51100000000E-03 0.  1.
    9000002   -1    0    0    0    0 -0.00000000000E+00 -0.00000000000E+00  0.00000000000E+00  0.93800000000E+00  0.93800000000E+00 0. -1.
         11    1    1    2    0    0  0.32017276091E-01 -0.12270393392E+00  0.72007683963E+00  0.73115817541E+00  0.51100000000E-03 0.  1.
    9000002    1    1    2    0    0  0.24935474287E+00  0.24806698008E-01  0.59551721873E-01  0.97271967577E+00  0.93800000000E+00 0. -1.
         22    1    1    2    0    0 -0.28137201896E+00  0.97897235910E-01  0.32203714059E+01  0.32341221488E+01  0.00000000000E+00 0.  1.
</event>
<event>
 5    1  0.1166492E+001  0.1568655E+01  0.7818608E-02  0.3388103E+00
         11   -1    0    0    0    0  0.00000000000E+00  0.00000000000E+00  0.39999999674E+01  0.40000000000E+01  0.51100000000E-03 0. -1.
    9000002   -1    0    0    0    0 -0.00000000000E+00 -0.00000000000E+00  0.00000000000E+00  0.93800000000E+00  0.93800000000E+00 0.  1.
         11    1    1    2    0    0 -0.99059790733E-01  0.13344255725E+00  0.11095396079E+01  0.11219171809E+01  0.51100000000E-03 0. -1.
    9000002    1    1    2    0    0 -0.13552485237E+00 -0.45393078511E-02  0.35305030328E-01  0.94840815902E+00  0.93800000000E+00 0.  1.
         22    1    1    2    0    0  0.23458464310E+00 -0.12890324940E+00  0.28551553292E+01  0.28676746601E+01  0.00000000000E+00 0. -1.
</event>
<event>
 5    1  0.1166492E+001  0.1516864E+01  0.7818608E-02  0.3448853E+00
         11   -1    0    0    0    0  0.00000000000E+00  0.00000000000E+00  0.39999999674E+01  0.40000000000E+01  0.51100000000E-03 0.  1.
    9000002   -1    0    0    0    0 -0.00000000000E+00 -0.00000000000E+00  0.00000000000E+00  0.93800000000E+00  0.93800000000E+00 0.  1.
         11    1    1    2    0    0 -0.56970269744E+00 -0.31753609081E-02  0.97965642617E+00  0.11332688211E+01  0.51100000000E-03 0.  1.
    9000002    1    1    2    0    0  0.23976573980E+00  0.17426445733E+00  0.25730878489E+00  0.10168124320E+01  0.93800000000E+00 0.  1.
         22    1    1    2    0    0  0.32993695763E+00 -0.17108909642E+00  0.27630347563E+01  0.27879187469E+01  0.00000000000E+00 0.  1.
</event>
<event>
 5    1  0.1166492E+001  0.1551420E+01  0.7818608E-02  0.3407840E+00
         11   -1    0    0    0    0  0.00000000000E+00  0.00000000000E+00  0.39999999674E+01  0.40000000000E+01  0.51100000000E-03 0.  1.
    9000002   -1    0    0    0    0 -0.00000000000E+00 -0.00000000000E+00  0.00000000000E+00  0.93800000000E+00  0.93800000000E+00 0. -1.
         11    1    1    2    0    0  0.95680598411E-01  0.19756946960E+00  0.11329256935E+01  0.11539971232E+01  0.51100000000E-03 0.  1.
    9000002    1    1    2    0    0 -0.77854570530E-02  0.78888874568E-01  0.40114849081E-01  0.94219810496E+00  0.93800000000E+00 0. -1.
         22    1    1    2    0    0 -0.87895141358E-01 -0.27645834417E+00  0.28269594248E+01  0.28418047718E+01  0.00000000000E+00 0.  1.
</event>
<event>
 5    1  0.1166492E+001  0.1587088E+01  0.7818608E-02  0.3367498E+00
         11   -1    0    0    0    0  0.00000000000E+00  0.00000000000E+00  0.39999999674E+01  0.40000000000E+01  0.51100000000E-03 0. -1.
    9000002   -1    0    0    0    0 -0.00000000000E+00 -0.00000000000E+00  0.00000000000E+00  0.93800000000E+00  0.93800000000E+00 0.  1.
         11    1    1    2    0    0 -0.56728751947E-01 -0.13268847417E+00  0.14195014346E+01  0.14268177762E+01  0.51100000000E-03 0. -1.
    9000002    1    1    2    0    0  0.25932947799E+00  0.23259618360E-01  0.54798553437E-01  0.97500752277E+00  0.93800000000E+00 0.  1.
         22    1    1    2    0    0 -0.20260072604E+00  0.10942885581E+00  0.25256999793E+01  0.25361747010E+01  0.00000000000E+00 0. -1.
</event>
<event>
 5    1  0.1166492E+001  0.1527359E+01  0.7818608E-02  0.3436186E+00
         11   -1    0    0    0    0  0.00000000000E+00  0.00000000000E+00  0.39999999674E+01  0.40000000000E+01  0.51100000000E-03 0. -1.
    9000002   -1    0    0    0    0 -0.00000000000E+00 -0.00000000000E+00  0.00000000000E+00  0.93800000000E+00  0.93800000000E+00 0. -1.
         11    1    1    2    0    0  0.37308881103E+00  0.13594670946E+00  0.13009772896E+01  0.13602275317E+01  0.51100000000E-03 0. -1.
    9000002    1    1    2    0    0 -0.39232154230E+00  0.17290732051E+00  0.18871229529E+00  0.10484605212E+01  0.93800000000E+00 0. -1.
         22    1    1    2    0    0  0.19232731271E-01 -0.30885402997E+00  0.25103103825E+01  0.25293119472E+01  0.00000000000E+00 0. -1.
</event>
<event>
 5    1  0.1166492E+001  0.1580821E+01  0.7818608E-02  0.3374446E+00
         11   -1    0    0    0    0  0.00000000000E+00  0.00000000000E+00  0.39999999674E+01  0.40000000000E+01  0.51100000000E-03 0.  1.
    9000002   -1    0    0    0    0 -0.00000000000E+00 -0.00000000000E+00  0.00000000000E+00  0.93800000000E+00  0.93800000000E+00 0. -1.
         11    1    1    2    0    0  0.10040885873E+00  0.38035818624E-01  0.87872976236E+00  0.88526545103E+00  0.51100000000E-03 0.  1.
    9000002    1    1    2    0    0  0.37980233556E-01  0.20607561058E+00  0.43401293467E-01  0.96210047692E+00  0.93800000000E+00 0. -1.
         22    1    1    2    0    0 -0.13838909228E+00 -0.24411142920E+00  0.30778689115E+01  0.30906340721E+01  0.00000000000E+00 0.  1.
</event>
<event>
 5    1  0.1166492E+001  0.1497891E+01  0.7818608E-02  0.3472236E+00
         11   -1    0    0    0    0  0.00000000000E+00  0.00000000000E+00  0.39999999674E+01  0.40000000000E+01  0.51100000000E-03 0. -1.
    9000002   -1    0    0    0    0 -0.00000000000E+00 -0.00000000000E+00  0.00000000000E+00  0.93800000000E+00  0.93800000000E+00 0. -1.
         11    1    1    2    0    0 -0.21843506478E+00  0.25104085076E+00  0.85936929534E+00  0.92154828043E+00  0.51100000000E-03 0. -1.
    9000002    1    1    2    0    0  0.58066467701E-01 -0.21481499411E-01  0.80440958854E-01  0.94347650599E+00  0.93800000000E+00 0. -1.
         22    1    1    2    0    0  0.16036859708E+00 -0.22955935135E+00  0.30601897132E+01  0.30729752136E+01  0.00000000000E+00 0. -1.
</event>
<event>
 5    1  0.1166492E+001  0.1546223E+01  0.7818608E-02  0.3413883E+00
         11   -1    0    0    0    0  0.00000000000E+00  0.00000000000E+00  0.39999999674E+01  0.40000000000E+01  0.51100000000E-03 0. -1.
    9000002   -1    0    0    0    0 -0.00000000000E+00 -0.00000000000E+00  0.00000000000E+00  0.93800000000E+00  0.93800000000E+00 0.  1.
         11    1    1    2    0    0  0.13415035555E+00 -0.25735909663E+00  0.10325331695E+01  0.10725460502E+01  0.51100000000E-03 0. -1.
    9000002    1    1    2    0    0  0.12371807042E+00  0.28390783338E+00  0.10735599009E+00  0.99361920644E+00  0.93800000000E+00 0.  1.
         22    1    1    2    0    0 -0.25786842598E+00 -0.26548736749E-01  0.28601108078E+01  0.28718347434E+01  0.00000000000E+00 0. -1.
</event>
<event>
 5    1  0.1166492E+001  0.1541522E+01  0.7818608E-02  0.3419386E+00
         11   -1    0    0    0    0  0.00000000000E+00  0.00000000000E+00  0.39999999674E+01  0.40000000000E+01  0.51100000000E-03 0. -1.
    9000002   -1    0    0    0    0 -0.00000000000E+00 -0.00000000000E+00  0.00000000000E+00  0.93800000000E+00  0.93800000000E+00 0. -1.
         11    1    1    2    0    0  0.60929760776E-01 -0.17729918698E+00  0.11418119052E+01  0.11571007413E+01  0.51100000000E-03 0. -1.
    9000002    1    1    2    0    0  0.20839594514E+00 -0.19443752145E+00  0.10074725607E+00  0.98550942629E+00  0.93800000000E+00 0. -1.
         22    1    1    2    0    0 -0.26932570592E+00  0.37173670843E+00  0.27574408060E+01  0.27953898324E+01  0.00000000000E+00 0. -1.
</event>
<event>
 5    1  0.1166492E+001  0.1571845E+01  0.7818608E-02  0.3384501E+00
         11   -1    0    0    0    0  0.00000000000E+00  0.00000000000E+00  0.39999999674E+01  0.40000000000E+01  0.51100000000E-03 0. -1.
    9000002   -1    0    0    0    0 -0.00000000000E+00 -0.00000000000E+00  0.00000000000E+00  0.93800000000E+00  0.93800000000E+00 0.  1.
         11    1    1    2    0    0 -0.20711385136E+00  0.22157057517E-01  0.85335977753E+00  0.87841348672E+00  0.51100000000E-03 0. -1.
    9000002    1    1    2    0    0  0.21604625451E+00 -0.32777366792E+00  0.12726344778E+00  0.10247690211E+01  0.93800000000E+00 0.  1.
         22    1    1    2    0    0 -0.89324031534E-02  0.30561661041E+00  0.30193767421E+01  0.30348174922E+01  0.00000000000E+00 0. -1.
</event>
<event>
 5    1  0.1166492E+001  0.1510122E+01  0.7818608E-02  0.3457089E+00
         11   -1    0    0    0    0  0.00000000000E+00  0.00000000000E+00  0.39999999674E+01  0.40000000000E+01  0.51100000000E-03 0. -1.
    9000002   -1    0    0    0    0 -0.00000000000E+00 -0.00000000000E+00  0.00000000000E+00  0.93800000000E+00  0.93800000000E+00 0.  1.
         11    1    1    2    0    0  0.18642109181E+00  0.24722085617E+00  0.97515327290E+00  0.10231300709E+01  0.51100000000E-03 0. -1.
    9000002    1    1    2    0    0 -0.21426864431E+00  0.14747674453E+00  0.11720492694E+00  0.98042921061E+00  0.93800000000E+00 0.  1.
         22    1    1    2    0    0  0.27847552503E-01 -0.39469760070E+00  0.29076417675E+01  0.29344407185E+01  0.00000000000E+00 0. -1.
</event>
<event>
 5    1  0.1166492E+001  0.1458364E+01  0.7818608E-02  0.3523063E+00
         11   -1    0    0    0    0  0.00000000000E+00  0.00000000000E+00  0.39999999674E+01  0.40000000000E+01  0.51100000000E-03 0.  1.
    9000002   -1    0    0    0    0 -0.00000000000E+00 -0.00000000000E+00  0.00000000000E+00  0.93800000000E+00  0.93800000000E+00 0. -1.
         11    1    1    2    0    0 -0.24818169065E-01  0.31792246308E+00  0.63359416100E+00  0.70931830374E+00  0.51100000000E-03 0.  1.
    9000002    1    1    2    0    0 -0.60300296518E-01  0.12160617446E+00  0.12438719349E+00  0.95589767304E+00  0.93800000000E+00 0. -1.
         22    1    1    2    0    0  0.85118465583E-01 -0.43952863754E+00  0.32420186129E+01  0.32727840232E+01  0.00000000000E+00 0.  1.
</event>
<event>
 5    1  0.1166492E+001  0.1485195E+01  0.7818608E-02  0.3488243E+00
         11   -1    0    0    0    0  0.00000000000E+00  0.00000000000E+00  0.39999999674E+01  0.40000000000E+01  0.51100000000E-03 0.  1.
    9000002   -1    0    0    0    0 -0.00000000000E+00 -0.00000000000E+00  0.00000000000E+00  0.93800000000E+00  0.93800000000E+00 0.  1.
         11    1    1    2    0    0 -0.31468111489E+00  0.30239864753E-01  0.88414131073E+00  0.93895940910E+00  0.51100000000E-03 0.  1.
    9000002    1    1    2    0    0 -0.11230799632E+00  0.51852160338E-01  0.99313499455E-01  0.95131955921E+00  0.93800000000E+00 0.  1.
         22    1    1    2    0    0  0.42698911121E+00 -0.82092025091E-01  0.30165451572E+01  0.30477210317E+01  0.00000000000E+00 0.  1.
</event>
<event>
 5    1  0.1166492E+001  0.1470767E+01  0.7818608E-02  0.3506795E+00
         11   -1    0    0    0    0  0.00000000000E+00  0.00000000000E+00  0.39999999674E+01  0.40000000000E+01  0.51100000000E-03 0.  1.
    9000002   -1    0    0    0    0 -0.00000000000E+00 -0.00000000000E+00  0.00000000000E+00  0.93800000000E+00  0.93800000000E+00 0. -1.
         11    1    1    2    0    0 -0.35751141338E+00  0.27632759466E+00  0.10968442010E+01  0.11862709693E+01  0.51100000000E-03 0.  1.
    9000002    1    1    2    0    0  0.25573415499E+00 -0.11050290859E-01  0.14982337624E+00  0.98377492905E+00  0.93800000000E+00 0. -1.
         22    1    1    2    0    0  0.10177725839E+00 -0.26527730380E+00  0.27533323901E+01  0.27679541016E+01  0.00000000000E+00 0.  1.
</event>
<event>
 5    1  0.1166492E+001  0.1476432E+01  0.7818608E-02  0.3499464E+00
         11   -1    0    0    0    0  0.00000000000E+00  0.00000000000E+00  0.39999999674E+01  0.40000000000E+01  0.51100000000E-03 0.  1.
    9000002   -1    0    0    0    0 -0.00000000000E+00 -0.00000000000E+00  0.00000000000E+00  0.93800000000E+00  0.93800000000E+00 0.  1.
         11    1    1    2    0    0  0.20391764165E+00  0.46337424442E+00  0.12231960803E+01  0.13238228760E+01  0.51100000000E-03 0.  1.
    9000002    1    1    2    0    0 -0.67644717722E-01 -0.61999730828E-01  0.15114064891E+00  0.95451939227E+00  0.93800000000E+00 0.  1.
         22    1    1    2    0    0 -0.13627292392E+00 -0.40137451359E+00  0.26256632381E+01  0.26596577318E+01  0.00000000000E+00 0.  1.
</event>
<event>
 5    1  0.1166492E+001  0.1581882E+01  0.7818608E-02  0.3373266E+00
         11   -1    0    0    0    0  0.00000000000E+00  0.00000000000E+00  0.39999999674E+01  0.40000000000E+01  0.51100000000E-03 0.  1.
    9000002   -1    0    0    0    0 -0.00000000000E+00 -0.00000000000E+00  0.00000000000E+00  0.93800000000E+00  0.93800000000E+00 0. -1.
         11    1    1    2    0    0  0.27414375786E+00 -0.14549542472E+00  0.10459856309E+01  0.10910590817E+01  0.51100000000E-03 0.  1.
    9000002    1    1    2    0    0 -0.59700149279E+00  0.15595879901E+00  0.28488257020E+00  0.11583332889E+01  0.93800000000E+00 0. -1.
         22    1    1    2    0    0  0.32285773493E+00 -0.10463374284E-01  0.26691317663E+01  0.26886076294E+01  0.00000000000E+00 0.  1.
</event>
<event>
 5    1  0.1166492E+001  0.1465702E+01  0.7818608E-02  0.3513403E+00
         11   -1    0    0    0    0  0.00000000000E+00  0.00000000000E+00  0.39999999674E+01  0.40000000000E+01  0.51100000000E-03 0. -1.
    9000002   -1    0    0    0    0 -0.00000000000E+00 -0.00000000000E+00  0.00000000000E+00  0.93800000000E+00  0.93800000000E+00 0.  1.
         11    1    1    2    0    0 -0.50889134452E-01  0.39660240876E+00  0.87623116875E+00  0.96315341293E+00  0.51100000000E-03 0. -1.
    9000002    1    1    2    0    0 -0.13588181231E+00 -0.13894687115E+00  0.13290156184E+00  0.96709716423E+00  0.93800000000E+00 0.  1.
         22    1    1    2    0    0  0.18677094676E+00 -0.25765553760E+00  0.29908672368E+01  0.30077494228E+01  0.00000000000E+00 0. -1.
</event>
<event>
 5    1  0.1166492E+001  0.1554053E+01  0.7818608E-02  0.3404794E+00
         11   -1    0    0    0    0  0.00000000000E+00  0.00000000000E+00  0.39999999674E+01  0.40000000000E+01  0.51100000000E-03 0. -1.
    9000002   -1    0    0    0    0 -0.00000000000E+00 -0.00000000000E+00  0.00000000000E+00  0.93800000000E+00  0.93800000000E+00 0.  1.
         11    1    1    2    0    0  0.18172488621E+00  0.20398187065E-01  0.45798446662E+00  0.49314303513E+00  0.51100000000E-03 0. -1.
    9000002    1    1    2    0    0 -0.20494801363E+00  0.34184119070E+00  0.14608732723E+00  0.10295846712E+01  0.93800000000E+00 0.  1.
         22    1    1    2    0    0  0.23223127416E-01 -0.36223937777E+00  0.33959281735E+01  0.34152722937E+01  0.00000000000E+00 0. -1.
</event>
<event>
 5    1  0.1166492E+001  0.1567145E+01  0.7818608E-02  0.3389814E+00
         11   -1    0    0    0    0  0.00000000000E+00  0.00000000000E+00  0.39999999674E+01  0.40000000000E+01  0.51100000000E-03 0.  1.
    9000002   -1    0    0    0    0 -0.00000000000E+00 -0.00000000000E+00  0.00000000000E+00  0.93800000000E+00  0.93800000000E+00 0. -1.
         11    1    1    2    0    0 -0.15266906034E+00  0.17473227678E+00  0.13662048443E+01  0.13857687932E+01  0.51100000000E-03 0.  1.
    9000002    1    1    2    0    0  0.30751785479E+00  0.78310202773E-01  0.93451444676E-01  0.99462399498E+00  0.93800000000E+00 0. -1.
         22    1    1    2    0    0 -0.15484879445E+00 -0.25304247955E+00  0.25403436784E+01  0.25576072118E+01  0.00000000000E+00 0.  1.
</event>
<event>
 5    1  0.1166492E+001  0.1557178E+01  0.7818608E-02  0.3401194E+00
         11   -1    0    0    0    0  0.00000000000E+00  0.00000000000E+00  0.39999999674E+01  0.40000000000E+01  0.51100000000E-03 0. -1.
    9000002   -1    0    0    0    0 -0.00000000000E+00 -0.00000000000E+00  0.00000000000E+00  0.93800000000E+00  0.93800000000E+00 0.  1.
         11    1    1    2    0    0 -0.91549884786E-01 -0.91359336617E-01  0.27177730370E+00  0.30098351071E+00  0.51100000000E-03 0. -1.
    9000002    1    1    2    0    0  0.28040013609E+00 -0.22930702494E+00  0.12342061584E+00  0.10130560678E+01  0.93800000000E+00 0.  1.
         22    1    1    2    0    0 -0.18885025130E+00  0.32066636155E+00  0.36048020478E+01  0.36239604215E+01  0.00000000000E+00 0. -1.
</event>
<event>
 5    1  0.1166492E+001  0.1548141E+01  0.7818608E-02  0.3411647E+00
         11   -1    0    0    0    0  0.00000000000E+00  0.00000000000E+00  0.39999999674E+01  0.40000000000E+01  0.51100000000E-03 0. -1.
    9000002   -1    0    0    0    0 -0.00000000000E+00 -0.00000000000E+00  0.00000000000E+00  0.93800000000E+00  0.93800000000E+00 0. -1.
         11    1    1    2    0    0 -0.15189659093E+00  0.13497986736E+00  0.71639119271E+00  0.74465343688E+00  0.51100000000E-03 0. -1.
    9000002    1    1    2    0    0 -0.15041618590E+00 -0.12200188356E+00  0.64400436342E-01  0.95994838652E+00  0.93800000000E+00 0. -1.
         22    1    1    2    0    0  0.30231277684E+00 -0.12977983804E-01  0.32192083383E+01  0.32333981766E+01  0.00000000000E+00 0. -1.
</event>
<event>
 5    1  0.1166492E+001  0.1570269E+01  0.7818608E-02  0.3386278E+00
         11   -1    0    0    0    0  0.00000000000E+00  0.00000000000E+00  0.39999999674E+01  0.40000000000E+01  0.51100000000E-03 0.  1.
    9000002   -1    0    0    0    0 -0.00000000000E+00 -0.00000000000E+00  0.00000000000E+00  0.93800000000E+00  0.93800000000E+00 0. -1.
         11    1    1    2    0    0 -0.11232003539E+00  0.66385700848E-04  0.12823316685E+01  0.12872414552E+01  0.51100000000E-03 0.  1.
    9000002    1    1    2    0    0 -0.17907796873E+00  0.27745583269E+00  0.96749042938E-01  0.99912713670E+00  0.93800000000E+00 0. -1.
         22    1    1    2    0    0  0.29139800412E+00 -0.27752221839E+00  0.26209192559E+01  0.26516314081E+01  0.00000000000E+00 0.  1.
</event>
<event>
 5    1  0.1166492E+001  0.1553142E+01  0.7818608E-02  0.3405846E+00
         11   -1    0    0    0    0  0.00000000000E+00  0.00000000000E+00  0.39999999674E+01  0.40000000000E+01  0.51100000000E-03 0. -1.
    9000002   -1    0    0    0    0 -0.00000000000E+00 -0.00000000000E+00  0.00000000000E+00  0.93800000000E+00  0.93800000000E+00 0.  1.
         11    1    1    2    0    0  0.15033341073E+00  0.17629106228E+00  0.41628719495E+00  0.47641784478E+00  0.51100000000E-03 0. -1.
    9000002    1    1    2    0    0 -0.37871144442E+00 -0.39413970390E+00  0.25141465140E+00  0.11143705808E+01  0.93800000000E+00 0.  1.
         22    1    1    2    0    0  0.22837803368E+00  0.21784864162E+00  0.33322981210E+01  0.33472115745E+01  0.00000000000E+00 0. -1.
</event>
<event>
 5    1  0.1166492E+001  0.1481865E+01  0.7818608E-02  0.3492489E+00
         11   -1    0    0    0    0  0.00000000000E+00  0.00000000000E+00  0.39999999674E+01  0.40000000000E+01  0.51100000000E-03 0.  1.
    9000002   -1    0    0    0    0 -0.00000000000E+00 -0.00000000000E+00  0.00000000000E+00  0.93800000000E+00  0.93800000000E+00 0.  1.
         11    1    1    2    0    0  0.22534768824E+00  0.34578883544E+00  0.79302552270E+00  0.89400293069E+00  0.51100000000E-03 0.  1.
    9000002    1    1    2    0    0  0.14892816169E+00 -0.22620868620E-01  0.16763581733E+00  0.96469532407E+00  0.93800000000E+00 0.  1.
         22    1    1    2    0    0 -0.37427584992E+00 -0.32316796682E+00  0.30393386273E+01  0.30793017452E+01  0.00000000000E+00 0.  1.
</event>
<event>
 5    1  0.1166492E+001  0.1460918E+01  0.7818608E-02  0.3519689E+00
         11   -1    0    0    0    0  0.00000000000E+00  0.00000000000E+00  0.39999999674E+01  0.40000000000E+01  0.51100000000E-03 0. -1.
    9000002   -1    0    0    0    0 -0.00000000000E+00 -0.00000000000E+00  0.00000000000E+00  0.93800000000E+00  0.93800000000E+00 0. -1.
         11    1    1    2    0    0  0.32114195267E+00 -0.55370338211E-01  0.30416507256E+00  0.44577424847E+00  0.51100000000E-03 0. -1.
    9000002    1    1    2    0    0 -0.50656551652E+00  0.29122090053E+00  0.38864386796E+00  0.11714547757E+01  0.93800000000E+00 0. -1.
         22    1    1    2    0    0  0.18542356385E+00 -0.23585056232E+00  0.33071910268E+01  0.33207709758E+01  0.00000000000E+00 0. -1.
</event>
<event>
 5    1  0.1166492E+001  0.1584479E+01  0.7818608E-02  0.3370383E+00
         11   -1    0    0    0    0  0.00000000000E+00  0.00000000000E+00  0.39999999674E+01  0.40000000000E+01  0.51100000000E-03 0.  1.
    9000002   -1    0    0    0    0 -0.00000000000E+00 -0.00000000000E+00  0.00000000000E+00  0.93800000000E+00  0.93800000000E+00 0. -1.
         11    1    1    2    0    0 -0.36710026661E-01 -0.58704643503E-01  0.14360042167E+01  0.14376725054E+01  0.51100000000E-03 0.  1.
    9000002    1    1    2    0    0 -0.26385829395E+00  0.16720761040E-01  0.58268956552E-01  0.97628891955E+00  0.93800000000E+00 0. -1.
         22    1    1    2    0    0  0.30056832061E+00  0.41983882463E-01  0.25057267941E+01  0.25240385751E+01  0.00000000000E+00 0.  1.
</event>
<event>
 5    1  0.1166492E+001  0.1564622E+01  0.7818608E-02  0.3392680E+00
         11   -1    0    0    0    0  0.00000000000E+00  0.00000000000E+00  0.39999999674E+01  0.40000000000E+01  0.51100000000E-03 0. -1.
    9000002   -1    0    0    0    0 -0.00000000000E+00 -0.00000000000E+00  0.00000000000E+00  0.93800000000E+00  0.93800000000E+00 0. -1.
         11    1    1    2    0    0  0.12195351994E+00  0.24447104634E+00  0.11256401242E+01  0.11583197761E+01  0.51100000000E-03 0. -1.
    9000002    1    1    2    0    0  0.18931425399E+00 -0.47233550022E+00  0.21008262979E+00  0.10876209923E+01  0.93800000000E+00 0. -1.
         22    1    1    2    0    0 -0.31126777393E+00  0.22786445388E+00  0.26642772134E+01  0.26920592316E+01  0.00000000000E+00 0. -1.
</event>
<event>
 5    1  0.1166492E+001  0.1521586E+01  0.7818608E-02  0.3443131E+00
         11   -1    0    0    0    0  0.00000000000E+00  0.00000000000E+00  0.39999999674E+01  0.40000000000E+01  0.51100000000E-03 0. -1.
    9000002   -1    0    0    0    0 -0.00000000000E+00 -0.00000000000E+00  0.00000000000E+00  0.93800000000E+00  0.93800000000E+00 0.  1.
         11    1    1    2    0    0 -0.91637445750E-01  0.29236499185E+00  0.88427457602E+00  0.93585068085E+00  0.51100000000E-03 0. -1.
    9000002    1    1    2    0    0  0.33413903235E+00 -0.34853480009E-01  0.14077406103E+00  0.10062430096E+01  0.93800000000E+00 0.  1.
         22    1    1    2    0    0 -0.24250158660E+00 -0.25751151184E+00  0.29749513303E+01  0.29959063096E+01  0.00000000000E+00 0. -1.
</event>
<event>
 5    1  0.1166492E+001  0.1575977E+01  0.7818608E-02  0.3379857E+00
         11   -1    0    0    0    0  0.00000000000E+00  0.00000000000E+00  0.39999999674E+01  0.40000000000E+01  0.51100000000E-03 0.  1.
    9000002   -1    0    0    0    0 -0.00000000000E+00 -0.00000000000E+00  0.00000000000E+00  0.93800000000E+00  0.93800000000E+00 0.  1.
         11    1    1    2    0    0 -0.14588466164E+00  0.29769883106E-01  0.14891922906E+01  0.14966170252E+01  0.51100000000E-03 0.  1.
    9000002    1    1    2    0    0 -0.70396932725E-01  0.53481520662E-01  0.22622773676E-01  0.94242866631E+00  0.93800000000E+00 0.  1.
         22    1    1    2    0    0  0.21628159436E+00 -0.83251403768E-01  0.24881849031E+01  0.24989543085E+01  0.00000000000E+00 0.  1.
</event>
<event>
 5    1  0.1166492E+001  0.1530371E+01  0.7818608E-02  0.3432586E+00
         11   -1    0    0    0    0  0.00000000000E+00  0.00000000000E+00  0.39999999674E+01  0.40000000000E+01  0.51100000000E-03 0. -1.
    9000002   -1    0    0    0    0 -0.00000000000E+00 -0.00000000000E+00  0.00000000000E+00  0.93800000000E+00  0.93800000000E+00 0.  1.
         11    1    1    2    0    0 -0.50711978877E+00 -0.26113478529E+00  0.76575795262E+00  0.95485462735E+00  0.51100000000E-03 0. -1.
    9000002    1    1    2    0    0  0.22410462320E+00  0.35300912335E+00  0.35206323751E+00  0.10856476622E+01  0.93800000000E+00 0.  1.
         22    1    1    2    0    0  0.28301516558E+00 -0.91874338062E-01  0.28821787772E+01  0.28974977104E+01  0.00000000000E+00 0. -1.
</event>
<event>
 5    1  0.1166492E+001  0.1450178E+01  0.7818608E-02  0.3533966E+00
         11   -1    0    0    0    0  0.00000000000E+00  0.00000000000E+00  0.39999999674E+01  0.40000000000E+01  0.51100000000E-03 0.  1.
    9000002   -1    0    0    0    0 -0.00000000000E+00 -0.00000000000E+00  0.00000000000E+00  0.93800000000E+00  0.93800000000E+00 0. -1.
         11    1    1    2    0    0 -0.87498372560E-01 -0.48836704260E+00  0.11354440881E+01  0.12391093058E+01  0.51100000000E-03 0.  1.
    9000002    1    1    2    0    0 -0.25903703813E-01  0.21037029827E+00  0.15657073900E+00  0.97431260927E+00  0.93800000000E+00 0. -1.
         22    1    1    2    0    0  0.11340207637E+00  0.27799674433E+00  0.27079851403E+01  0.27245780849E+01  0.00000000000E+00 0. -1.
</event>
<event>
 5    1  0.1166492E+001  0.1286596E+01  0.7818608E-02  0.3807905E+00
         11   -1    0    0    0    0  0.00000000000E+00  0.00000000000E+00  0.39999999674E+01  0.40000000000E+01  0.51100000000E-03 0. -1.
    9000002   -1    0    0    0    0 -0.00000000000E+00 -0.00000000000E+00  0.00000000000E+00  0.93800000000E+00  0.93800000000E+00 0. -1.
         11    1    1    2    0    0  0.50672040740E+00  0.52394672526E+00  0.79367907636E+00  0.10775956939E+01  0.51100000000E-03 0. -1.
    9000002    1    1    2    0    0 -0.45142414861E+00 -0.28968269668E+00  0.58629224254E+00  0.12293422714E+01  0.93800000000E+00 0. -1.
         22    1    1    2    0    0 -0.55296258786E-01 -0.23426402858E+00  0.26200286485E+01  0.26310620346E+01  0.00000000000E+00 0. -1.
</event>
<event>
 5    1  0.1166492E+001  0.1503681E+01  0.7818608E-02  0.3465033E+00
         11   -1    0    0    0    0  0.00000000000E+00  0.00000000000E+00  0.39999999674E+01  0.40000000000E+01  0.51100000000E-03 0.  1.
    9000002   -1    0    0    0    0 -0.00000000000E+00 -0.00000000000E+00  0.00000000000E+00  0.93800000000E+00  0.93800000000E+00 0. -1.
         11    1    1    2    0    0  0.49328933286E+00  0.16927173798E+00  0.13007216935E+01  0.14013794890E+01  0.51100000000E-03 0.  1.
    9000002    1    1    2    0    0 -0.11785002041E-01  0.35804687826E-01  0.17032751348E+00  0.95408402344E+00  0.93800000000E+00 0. -1.
         22    1    1    2    0    0 -0.48150433082E+00 -0.20507642581E+00  0.25289507604E+01  0.25825364875E+01  0.00000000000E+00 0.  1.
</event>
<event>
 5    1  0.1166492E+001  0.1533787E+01  0.7818608E-02  0.3428521E+00
         11   -1    0    0    0    0  0.00000000000E+00  0.00000000000E+00  0.39999999674E+01  0.40000000000E+01  0.51100000000E-03 0.  1.
    9000002   -1    0    0    0    0 -0.00000000000E+00 -0.00000000000E+00  0.00000000000E+00  0.93800000000E+00  0.93800000000E+00 0.  1.
         11    1    1    2    0    0  0.18496903688E+00 -0.16565287771E+00  0.13027184825E+01  0.13261712281E+01  0.51100000000E-03 0.  1.
    9000002    1    1    2    0    0  0.72704446147E-01 -0.11002215637E+00  0.61550051762E-01  0.94922242928E+00  0.93800000000E+00 0.  1.
         22    1    1    2    0    0 -0.25767348303E+00  0.27567503408E+00  0.26357314331E+01  0.26626063426E+01  0.00000000000E+00 0.  1.
</event>
<event>
 5    1  0.1166492E+001  0.1528942E+01  0.7818608E-02  0.3434292E+00
         11   -1    0    0    0    0  0.00000000000E+00  0.00000000000E+00  0.39999999674E+01  0.40000000000E+01  0.51100000000E-03 0. -1.
    9000002   -1    0    0    0    0 -0.00000000000E+00 -0.00000000000E+00  0.00000000000E+00  0.93800000000E+00  0.93800000000E+00 0. -1.
         11    1    1    2    0    0 -0.81062345703E-01 -0.10134479295E+00  0.20984798841E+00  0.24673530414E+00  0.51100000000E-03 0. -1.
    9000002    1    1    2    0    0 -0.23423556753E+00 -0.26265853551E+00  0.14246579821E+00  0.10119270285E+01  0.93800000000E+00 0. -1.
         22    1    1    2    0    0  0.31529791323E+00  0.36400332846E+00  0.36476861807E+01  0.36793376674E+01  0.00000000000E+00 0. -1.
</event>
<event>
 5    1  0.1166492E+001  0.1536286E+01  0.7818608E-02  0.3425559E+00
         11   -1    0    0    0    0  0.00000000000E+00  0.00000000000E+00  0.39999999674E+01  0.40000000000E+01  0.51100000000E-03 0. -1.
    9000002   -1    0    0    0    0 -0.00000000000E+00 -0.00000000000E+00  0.00000000000E+00  0.93800000000E+00  0.93800000000E+00 0. -1.
         11    1    1    2    0    0  0.20555929837E-01 -0.19326311283E+00  0.12981205629E+01  0.13125892099E+01  0.51100000000E-03 0. -1.
    9000002    1    1    2    0    0 -0.34157510720E+00 -0.22842694768E+00  0.16928283986E+00  0.10379562149E+01  0.93800000000E+00 0. -1.
         22    1    1    2    0    0  0.32101917736E+00  0.42169006050E+00  0.25325965646E+01  0.25874545751E+01  0.00000000000E+00 0. -1.
</event>
<event>
 5    1  0.1166492E+001  0.1547777E+01  0.7818608E-02  0.3412071E+00
         11   -1    0    0    0    0  0.00000000000E+00  0.00000000000E+00  0.39999999674E+01  0.40000000000E+01  0.51100000000E-03 0. -1.
    9000002   -1    0    0    0    0 -0.00000000000E+00 -0.00000000000E+00  0.00000000000E+00  0.93800000000E+00  0.93800000000E+00 0. -1.
         11    1    1    2    0    0 -0.14518286559E+00  0.17061656065E+00  0.11455942931E+01  0.11672937166E+01  0.51100000000E-03 0. -1.
    9000002    1    1    2    0    0  0.16946795928E+00  0.20479517677E+00  0.88069776918E-01  0.97890793196E+00  0.93800000000E+00 0. -1.
         22    1    1    2    0    0 -0.24285093696E-01 -0.37541173742E+00  0.27663358973E+01  0.27917983515E+01  0.00000000000E+00 0.  1.
</event>
<event>
 5    1  0.1166492E+001  0.1465141E+01  0.7818608E-02  0.3514138E+00
         11   -1    0    0    0    0  0.00000000000E+00  0.00000000000E+00  0.39999999674E+01  0.40000000000E+01  0.51100000000E-03 0. -1.
    9000002   -1    0    0    0    0 -0.00000000000E+00 -0.00000000000E+00  0.00000000000E+00  0.93800000000E+00  0.93800000000E+00 0. -1.
         11    1    1    2    0    0 -0.32585085313E+00 -0.10195454158E+00  0.58921108381E+00  0.68098712869E+00  0.51100000000E-03 0. -1.
    9000002    1    1    2    0    0 -0.16933656840E+00  0.54931459102E-01  0.15959862889E+00  0.96799176698E+00  0.93800000000E+00 0. -1.
         22    1    1    2    0    0  0.49518742153E+00  0.47023082476E-01  0.32511902547E+01  0.32890211043E+01  0.00000000000E+00 0. -1.
</event>
<event>
 5    1  0.1166492E+001  0.1476362E+01  0.7818608E-02  0.3499554E+00
         11   -1    0    0    0    0  0.00000000000E+00  0.00000000000E+00  0.39999999674E+01  0.40000000000E+01  0.51100000000E-03 0. -1.
    9000002   -1    0    0    0    0 -0.00000000000E+00 -0.00000000000E+00  0.00000000000E+00  0.93800000000E+00  0.93800000000E+00 0. -1.
         11    1    1    2    0    0  0.37755003874E+00 -0.37233106224E+00  0.13279852309E+01  0.14299368819E+01  0.51100000000E-03 0. -1.
    9000002    1    1    2    0    0 -0.84864983072E-01  0.82629312200E-01  0.15559222207E+00  0.95816627375E+00  0.93800000000E+00 0. -1.
         22    1    1    2    0    0 -0.29268505567E+00  0.28970175004E+00  0.25164225144E+01  0.25498968444E+01  0.00000000000E+00 0. -1.
</event>
<event>
 5    1  0.1166492E+001  0.1596054E+01  0.7818608E-02  0.3357657E+00
         11   -1    0    0    0    0  0.00000000000E+00  0.00000000000E+00  0.39999999674E+01  0.40000000000E+01  0.51100000000E-03 0.  1.
    9000002   -1    0    0    0    0 -0.00000000000E+00 -0.00000000000E+00  0.00000000000E+00  0.93800000000E+00  0.93800000000E+00 0.  1.
         11    1    1    2    0    0  0.17956426240E+00  0.82299899774E-01  0.13422867543E+01  0.13567426395E+01  0.51100000000E-03 0.  1.
    9000002    1    1    2    0    0 -0.54840433840E+00 -0.41222640167E-01  0.21232530797E+00  0.11078685215E+01  0.93800000000E+00 0.  1.
         22    1    1    2    0    0  0.36884007601E+00 -0.41077259607E-01  0.24453879051E+01  0.24733888390E+01  0.00000000000E+00 0.  1.
</event>
<event>
 5    1  0.1166492E+001  0.1530285E+01  0.7818608E-02  0.3432688E+00
         11   -1    0    0    0    0  0.00000000000E+00  0.00000000000E+00  0.39999999674E+01  0.40000000000E+01  0.51100000000E-03 0.  1.
    9000002   -1    0    0    0    0 -0.00000000000E+00 -0.00000000000E+00  0.00000000000E+00  0.93800000000E+00  0.93800000000E+00 0. -1.
         11    1    1    2    0    0  0.46648277769E-01  0.27711857858E+00  0.11679416782E+01  0.12012738211E+01  0.51100000000E-03 0.  1.
    9000002    1    1    2    0    0  0.57715090516E-01  0.19410216435E-01  0.54625777838E-01  0.94156028154E+00  0.93800000000E+00 0. -1.
         22    1    1    2    0    0 -0.10436336829E+00 -0.29652879501E+00  0.27774325113E+01  0.27951658974E+01  0.00000000000E+00 0. -1.
</event>
<event>
 5    1  0.1166492E+001  0.1513051E+01  0.7818608E-02  0.3453502E+00
         11   -1    0    0    0    0  0.00000000000E+00  0.00000000000E+00  0.39999999674E+01  0.40000000000E+01  0.51100000000E-03 0.  1.
    9000002   -1    0    0    0    0 -0.00000000000E+00 -0.00000000000E+00  0.00000000000E+00  0.93800000000E+00  0.93800000000E+00 0.  1.
         11    1    1    2    0    0  0.24344642788E+00 -0.35433485624E-01  0.61667638378E+00  0.66393653205E+00  0.51100000000E-03 0.  1.
    9000002    1    1    2    0    0  0.10540470690E+00  0.11847407505E+00  0.83670980837E-01  0.95498224681E+00  0.93800000000E+00 0.  1.
         22    1    1    2    0    0 -0.34885113479E+00 -0.83040589427E-01  0.32996526027E+01  0.33190812211E+01  0.00000000000E+00 0.  1.
</event>
<event>
 5    1  0.1166492E+001  0.1536803E+01  0.7818608E-02  0.3424947E+00
         11   -1    0    0    0    0  0.00000000000E+00  0.00000000000E+00  0.39999999674E+01  0.40000000000E+01  0.51100000000E-03 0. -1.
    9000002   -1    0    0    0    0 -0.00000000000E+00 -0.00000000000E+00  0.00000000000E+00  0.93800000000E+00  0.93800000000E+00 0.  1.
         11    1    1    2    0    0 -0.13307702311E+00 -0.24987862112E+00  0.14123577557E+01  0.14404525367E+01  0.51100000000E-03 0. -1.
    9000002    1    1    2    0    0 -0.74236876788E-01  0.23562431983E-01  0.51216863124E-01  0.94262053295E+00  0.93800000000E+00 0.  1.
         22    1    1    2    0    0  0.20731389989E+00  0.22631618913E+00  0.25364253486E+01  0.25549269304E+01  0.00000000000E+00 0. -1.
</event>
<event>
 5    1  0.1166492E+001  0.1594230E+01  0.7818608E-02  0.3359650E+00
         11   -1    0    0    0    0  0.00000000000E+00  0.00000000000E+00  0.39999999674E+01  0.40000000000E+01  0.51100000000E-03 0. -1.
    9000002   -1    0    0    0    0 -0.00000000000E+00 -0.00000000000E+00  0.00000000000E+00  0.93800000000E+00  0.93800000000E+00 0.  1.
         11    1    1    2    0    0 -0.10596548201E+00  0.19191015152E+00  0.11682626040E+01  0.11886530035E+01  0.51100000000E-03 0. -1.
    9000002    1    1    2    0    0  0.16762925605E+00 -0.43068736905E+00  0.15009830267E+00  0.10563922935E+01  0.93800000000E+00 0.  1.
         22    1    1    2    0    0 -0.61663774037E-01  0.23877721752E+00  0.26816390607E+01  0.26929547030E+01  0.00000000000E+00 0. -1.
</event>
<event>
 5    1  0.1166492E+001  0.1481764E+01  0.7818608E-02  0.3492619E+00
         11   -1    0    0    0    0  0.00000000000E+00  0.00000000000E+00  0.39999999674E+01  0.40000000000E+01  0.51100000000E-03 0. -1.
    9000002   -1    0    0    0    0 -0.00000000000E+00 -0.00000000000E+00  0.00000000000E+00  0.93800000000E+00  0.93800000000E+00 0.  1.
         11    1    1    2    0    0 -0.27332366366E+00 -0.27067630713E+00  0.11082572164E+01  0.11731179851E+01  0.51100000000E-03 0. -1.
    9000002    1    1    2    0    0  0.83411434344E-01 -0.31003666920E-01  0.96657847217E-01  0.94715649930E+00  0.93800000000E+00 0.  1.
         22    1    1    2    0    0  0.18991222931E+00  0.30167997405E+00  0.27950849038E+01  0.28177255156E+01  0.00000000000E+00 0. -1.
</event>
<event>
 5    1  0.1166492E+001  0.1507778E+01  0.7818608E-02  0.3459972E+00
         11   -1    0    0    0    0  0.00000000000E+00  0.00000000000E+00  0.39999999674E+01  0.40000000000E+01  0.51100000000E-03 0.  1.
    9000002   -1    0    0    0    0 -0.00000000000E+00 -0.00000000000E+00  0.00000000000E+00  0.93800000000E+00  0.93800000000E+00 0.  1.
         11    1    1    2    0    0 -0.31593422227E+00 -0.21992323858E+00  0.13776587253E+01  0.14304280786E+01  0.51100000000E-03 0.  1.
    9000002    1    1    2    0    0  0.65578718405E-01  0.83678579007E-01  0.77898068363E-01  0.94721422178E+00  0.93800000000E+00 0.  1.
         22    1    1    2    0    0  0.25035550386E+00  0.13624465957E+00  0.25444431737E+01  0.25603576996E+01  0.00000000000E+00 0.  1.
</event>
<event>
 5    1  0.1166492E+001  0.1471632E+01  0.7818608E-02  0.3505672E+00
         11   -1    0    0    0    0  0.00000000000E+00  0.00000000000E+00  0.39999999674E+01  0.40000000000E+01  0.51100000000E-03 0.  1.
    9000002   -1    0    0    0    0 -0.00000000000E+00 -0.00000000000E+00  0.00000000000E+00  0.93800000000E+00  0.93800000000E+00 0. -1.
         11    1    1    2    0    0  0.18814577058E+00  0.32530069221E+00  0.68538551641E+00  0.78164757952E+00  0.51100000000E-03 0.  1.
    9000002    1    1    2    0    0  0.13701779465E+00  0.29331918462E-01  0.15581796581E+00  0.96112302852E+00  0.93800000000E+00 0. -1.
         22    1    1    2    0    0 -0.32516356522E+00 -0.35463261067E+00  0.31587964851E+01  0.31952293920E+01  0.00000000000E+00 0.  1.
</event>
<event>
 5    1  0.1166492E+001  0.1598842E+01  0.7818608E-02  0.3354622E+00
         11   -1    0    0    0    0  0.00000000000E+00  0.00000000000E+00  0.39999999674E+01  0.40000000000E+01  0.51100000000E-03 0.  1.
    9000002   -1    0    0    0    0 -0.00000000000E+00 -0.00000000000E+00  0.00000000000E+00  0.93800000000E+00  0.93800000000E+00 0.  1.
         11    1    1    2    0    0 -0.55341558334E-02 -0.24684944655E+00  0.14180198552E+01  0.14393560529E+01  0.51100000000E-03 0.  1.
    9000002    1    1    2    0    0 -0.42842806484E-01  0.58526976584E+00  0.24042511078E+00  0.11322651804E+01  0.93800000000E+00 0.  1.
         22    1    1    2    0    0  0.48376962317E-01 -0.33842031929E+00  0.23415550013E+01  0.23663787667E+01  0.00000000000E+00 0.  1.
</event>
<event>
 5    1  0.1166492E+001  0.1555610E+01  0.7818608E-02  0.3402998E+00
         11   -1    0    0    0    0  0.00000000000E+00  0.00000000000E+00  0.39999999674E+01  0.40000000000E+01  0.51100000000E-03 0.  1.
    9000002   -1    0    0    0    0 -0.00000000000E+00 -0.00000000000E+00  0.00000000000E+00  0.93800000000E+00  0.93800000000E+00 0. -1.
         11    1    1    2    0    0 -0.20787028070E+00 -0.25644786891E+00  0.12479235189E+01  0.12908481449E+01  0.51100000000E-03 0.  1.
    9000002    1    1    2    0    0  0.45468247604E+00  0.78913763501E-01  0.18436960760E+00  0.10615082140E+01  0.93800000000E+00 0. -1.
         22    1    1    2    0    0 -0.24681219534E+00  0.17753410541E+00  0.25677068409E+01  0.25856436411E+01  0.00000000000E+00 0.  1.
</event>
<event>
 5    1  0.1166492E+001  0.1416189E+01  0.7818608E-02  0.3581274E+00
         11   -1    0    0    0    0  0.00000000000E+00  0.00000000000E+00  0.39999999674E+01  0.40000000000E+01  0.51100000000E-03 0.  1.
    9000002   -1    0    0    0    0 -0.00000000000E+00 -0.00000000000E+00  0.00000000000E+00  0.93800000000E+00  0.93800000000E+00 0. -1.
         11    1    1    2    0    0 -0.60292120862E+00 -0.43425130722E-02  0.13719443913E+01  0.14985875067E+01  0.51100000000E-03 0.  1.
    9000002    1    1    2    0    0  0.28211868214E+00  0.43570733947E-01  0.21366547362E+00  0.10034870673E+01  0.93800000000E+00 0. -1.
         22    1    1    2    0    0  0.32080252648E+00 -0.39228220875E-01  0.24143901024E+01  0.24359254260E+01  0.00000000000E+00 0.  1.
</event>
<event>
 5    1  0.1166492E+001  0.1535700E+01  0.7818608E-02  0.3426253E+00
         11   -1    0    0    0    0  0.00000000000E+00  0.00000000000E+00  0.39999999674E+01  0.40000000000E+01  0.51100000000E-03 0.  1.
    9000002   -1    0    0    0    0 -0.00000000000E+00 -0.00000000000E+00  0.00000000000E+00  0.93800000000E+00  0.93800000000E+00 0. -1.
         11    1    1    2    0    0  0.17312433024E+00  0.16972384797E+00  0.13299787938E+01  0.13518957324E+01  0.51100000000E-03 0.  1.
    9000002    1    1    2    0    0  0.17770290672E+00 -0.21399684310E-02  0.70082578589E-01  0.95725569747E+00  0.93800000000E+00 0. -1.
         22    1    1    2    0    0 -0.35082723696E+00 -0.16758387954E+00  0.25999385950E+01  0.26288485701E+01  0.00000000000E+00 0.  1.
</event>
<event>
 5    1  0.1166492E+001  0.1495131E+01  0.7818608E-02  0.3475691E+00
         11   -1    0    0    0    0  0.00000000000E+00  0.00000000000E+00  0.39999999674E+01  0.40000000000E+01  0.51100000000E-03 0. -1.
    9000002   -1    0    0    0    0 -0.00000000000E+00 -0.00000000000E+00  0.00000000000E+00  0.93800000000E+00  0.93800000000E+00 0. -1.
         11    1    1    2    0    0  0.56285361552E-01  0.29834279597E+00  0.93344236989E+00  0.98157596999E+00  0.51100000000E-03 0. -1.
    9000002    1    1    2    0    0 -0.10446957231E+00  0.13988147661E+00  0.10231879767E+00  0.95958004116E+00  0.93800000000E+00 0. -1.
         22    1    1    2    0    0  0.48184210754E-01 -0.43822427258E+00  0.29642387998E+01  0.29968439889E+01  0.00000000000E+00 0. -1.
</event>
<event>
 5    1  0.1166492E+001  0.1466059E+01  0.7818608E-02  0.3512935E+00
         11   -1    0    0    0    0  0.00000000000E+00  0.00000000000E+00  0.39999999674E+01  0.40000000000E+01  0.51100000000E-03 0. -1.
    9000002   -1    0    0    0    0 -0.00000000000E+00 -0.00000000000E+00  0.00000000000E+00  0.93800000000E+00  0.93800000000E+00 0.  1.
         11    1    1    2    0    0  0.64632369461E-01 -0.31323383664E+00  0.76947767071E+00  0.83330002187E+00  0.51100000000E-03 0. -1.
    9000002    1    1    2    0    0  0.14083666447E+00 -0.14212693971E+00  0.13433094490E+00  0.96846467969E+00  0.93800000000E+00 0.  1.
         22    1    1    2    0    0 -0.20546903394E+00  0.45536077636E+00  0.30961913517E+01  0.31362352984E+01  0.00000000000E+00 0. -1.
</event>
<event>
 5    1  0.1166492E+001  0.1265946E+01  0.7818608E-02  0.3849238E+00
         11   -1    0    0    0    0  0.00000000000E+00  0.00000000000E+00  0.39999999674E+01  0.40000000000E+01  0.51100000000E-03 0. -1.
    9000002   -1    0    0    0    0 -0.00000000000E+00 -0.00000000000E+00  0.00000000000E+00  0.93800000000E+00  0.93800000000E+00 0.  1.
         11    1    1    2    0    0  0.83327283509E+00  0.31109182297E+00  0.10382765839E+01  0.13671650471E+01  0.51100000000E-03 0. -1.
    9000002    1    1    2    0    0 -0.59529491214E+00 -0.21450753443E+00  0.78053827893E+00  0.13745812161E+01  0.93800000000E+00 0.  1.
         22    1    1    2    0    0 -0.23797792295E+00 -0.96584288534E-01  0.21811851045E+01  0.21962537369E+01  0.00000000000E+00 0. -1.
</event>
<event>
 5    1  0.1166492E+001  0.1573963E+01  0.7818608E-02  0.3382118E+00
         11   -1    0    0    0    0  0.00000000000E+00  0.00000000000E+00  0.39999999674E+01  0.40000000000E+01  0.51100000000E-03 0.  1.
    9000002   -1    0    0    0    0 -0.00000000000E+00 -0.00000000000E+00  0.00000000000E+00  0.93800000000E+00  0.93800000000E+00 0.  1.
         11    1    1    2    0    0 -0.13055662269E+00  0.86202177332E-01  0.14184251044E+01  0.14270269391E+01  0.51100000000E-03 0.  1.
    9000002    1    1    2    0    0 -0.62708947912E-01  0.49494605869E-01  0.23157695505E-01  0.94168062899E+00  0.93800000000E+00 0.  1.
         22    1    1    2    0    0  0.19326557060E+00 -0.13569678320E+00  0.25584171675E+01  0.25692924319E+01  0.00000000000E+00 0.  1.
</event>
<event>
 5    1  0.1166492E+001  0.1560980E+01  0.7818608E-02  0.3396835E+00
         11   -1    0    0    0    0  0.00000000000E+00  0.00000000000E+00  0.39999999674E+01  0.40000000000E+01  0.51100000000E-03 0. -1.
    9000002   -1    0    0    0    0 -0.00000000000E+00 -0.00000000000E+00  0.00000000000E+00  0.93800000000E+00  0.93800000000E+00 0.  1.
         11    1    1    2    0    0  0.18502910002E+00 -0.98939282044E-01  0.13429001069E+01  0.13591930355E+01  0.51100000000E-03 0. -1.
    9000002    1    1    2    0    0  0.20900815996E-01 -0.48518852199E-01  0.30456296530E-01  0.93998005783E+00  0.93800000000E+00 0.  1.
         22    1    1    2    0    0 -0.20592991602E+00  0.14745813424E+00  0.26266435639E+01  0.26388269067E+01  0.00000000000E+00 0.  1.
</event>
<event>
 5    1  0.1166492E+001  0.1304436E+01  0.7818608E-02  0.3773482E+00
         11   -1    0    0    0    0  0.00000000000E+00  0.00000000000E+00  0.39999999674E+01  0.40000000000E+01  0.51100000000E-03 0. -1.
    9000002   -1    0    0    0    0 -0.00000000000E+00 -0.00000000000E+00  0.00000000000E+00  0.93800000000E+00  0.93800000000E+00 0. -1.
         11    1    1    2    0    0 -0.39896303697E+00  0.46320354938E+00  0.73445855564E+00  0.95559335708E+00  0.51100000000E-03 0. -1.
    9000002    1    1    2    0    0 -0.41660179510E-01 -0.41998405407E+00  0.43387792887E+00  0.11163405544E+01  0.93800000000E+00 0. -1.
         22    1    1    2    0    0  0.44062321648E+00 -0.43219495311E-01  0.28316634828E+01  0.28660660885E+01  0.00000000000E+00 0. -1.
</event>
<event>
 5    1  0.1166492E+001  0.1283154E+01  0.7818608E-02  0.3814682E+00
         11   -1    0    0    0    0  0.00000000000E+00  0.00000000000E+00  0.39999999674E+01  0.40000000000E+01  0.51100000000E-03 0.  1.
    9000002   -1    0    0    0    0 -0.00000000000E+00 -0.00000000000E+00  0.00000000000E+00  0.93800000000E+00  0.93800000000E+00 0.  1.
         11    1    1    2    0    0  0.46267604537E+00 -0.36921019895E+00  0.78445916536E+00  0.98273177277E+00  0.51100000000E-03 0.  1.
    9000002    1    1    2    0    0  0.16272856786E+00  0.35013023963E+00  0.43241875708E+00  0.11026793518E+01  0.93800000000E+00 0.  1.
         22    1    1    2    0    0 -0.62540461323E+00  0.19079959329E-01  0.27831220449E+01  0.28525888754E+01  0.00000000000E+00 0.  1.
</event>
<event>
 5    1  0.1166492E+001  0.1568040E+01  0.7818608E-02  0.3388799E+00
         11   -1    0    0    0    0  0.00000000000E+00  0.00000000000E+00  0.39999999674E+01  0.40000000000E+01  0.51100000000E-03 0. -1.
    9000002   -1    0    0    0    0 -0.00000000000E+00 -0.00000000000E+00  0.00000000000E+00  0.93800000000E+00  0.93800000000E+00 0.  1.
         11    1    1    2    0    0 -0.15841273619E+00 -0.47731790982E-01  0.12138687449E+01  0.12250920414E+01  0.51100000000E-03 0. -1.
    9000002    1    1    2    0    0 -0.72825229668E-01 -0.10277562833E+00  0.34050964641E-01  0.94703210719E+00  0.93800000000E+00 0.  1.
         22    1    1    2    0    0  0.23123796586E+00  0.15050741931E+00  0.27520802578E+01  0.27658758514E+01  0.00000000000E+00 0.  1.
</event>
<event>
 5    1  0.1166492E+001  0.1504646E+01  0.7818608E-02  0.3463838E+00
         11   -1    0    0    0    0  0.00000000000E+00  0.00000000000E+00  0.39999999674E+01  0.40000000000E+01  0.51100000000E-03 0.  1.
    9000002   -1    0    0    0    0 -0.00000000000E+00 -0.00000000000E+00  0.00000000000E+00  0.93800000000E+00  0.93800000000E+00 0. -1.
         11    1    1    2    0    0 -0.30907064835E+00  0.67290600577E-01  0.13095166897E+01  0.13471773871E+01  0.51100000000E-03 0.  1.
    9000002    1    1    2    0    0 -0.11552594866E+00 -0.74564466995E-01  0.85967425486E-01  0.95191412575E+00  0.93800000000E+00 0. -1.
         22    1    1    2    0    0  0.42459659701E+00  0.72738664177E-02  0.26045158522E+01  0.26389084872E+01  0.00000000000E+00 0.  1.
</event>
<event>
 5    1  0.1166492E+001  0.1525224E+01  0.7818608E-02  0.3438748E+00
         11   -1    0    0    0    0  0.00000000000E+00  0.00000000000E+00  0.39999999674E+01  0.40000000000E+01  0.51100000000E-03 0. -1.
    9000002   -1    0    0    0    0 -0.00000000000E+00 -0.00000000000E+00  0.00000000000E+00  0.93800000000E+00  0.93800000000E+00 0.  1.
         11    1    1    2    0    0 -0.15383287459E+00  0.31941184502E+00  0.14066746513E+01  0.14506627161E+01  0.51100000000E-03 0. -1.
    9000002    1    1    2    0    0  0.75377154726E-01 -0.85140851205E-01  0.65141275826E-01  0.94711037679E+00  0.93800000000E+00 0.  1.
         22    1    1    2    0    0  0.78455719868E-01 -0.23427099382E+00  0.25281840402E+01  0.25402269071E+01  0.00000000000E+00 0. -1.
</event>
<event>
 5    1  0.1166492E+001  0.1552405E+01  0.7818608E-02  0.3406699E+00
         11   -1    0    0    0    0  0.00000000000E+00  0.00000000000E+00  0.39999999674E+01  0.40000000000E+01  0.51100000000E-03 0.  1.
    9000002   -1    0    0    0    0 -0.00000000000E+00 -0.00000000000E+00  0.00000000000E+00  0.93800000000E+00  0.93800000000E+00 0.  1.
         11    1    1    2    0    0 -0.22596393380E+00 -0.47344869953E-01  0.10870562089E+01  0.11113022535E+01  0.51100000000E-03 0.  1.
    9000002    1    1    2    0    0 -0.29550956857E-01  0.15724494457E+00  0.52747431501E-01  0.95300866899E+00  0.93800000000E+00 0.  1.
         22    1    1    2    0    0  0.25551489065E+00 -0.10990007461E+00  0.28601963270E+01  0.28736890776E+01  0.00000000000E+00 0.  1.
</event>
<event>
 5    1  0.1166492E+001  0.1584444E+01  0.7818608E-02  0.3370422E+00
         11   -1    0    0    0    0  0.00000000000E+00  0.00000000000E+00  0.39999999674E+01  0.40000000000E+01  0.51100000000E-03 0.  1.
    9000002   -1    0    0    0    0 -0.00000000000E+00 -0.00000000000E+00  0.00000000000E+00  0.93800000000E+00  0.93800000000E+00 0. -1.
         11    1    1    2    0    0  0.19271111838E-04 -0.14340762814E+00  0.98641587913E+00  0.99678598300E+00  0.51100000000E-03 0.  1.
    9000002    1    1    2    0    0  0.27019503434E+00  0.13473006233E+00  0.72854994396E-01  0.98808369913E+00  0.93800000000E+00 0. -1.
         22    1    1    2    0    0 -0.27021430545E+00  0.86775658101E-02  0.29407290938E+01  0.29531303179E+01  0.00000000000E+00 0.  1.
</event>
<event>
 5    1  0.1166492E+001  0.1524061E+01  0.7818608E-02  0.3440147E+00
         11   -1    0    0    0    0  0.00000000000E+00  0.00000000000E+00  0.39999999674E+01  0.40000000000E+01  0.51100000000E-03 0. -1.
    9000002   -1    0    0    0    0 -0.00000000000E+00 -0.00000000000E+00  0.00000000000E+00  0.93800000000E+00  0.93800000000E+00 0.  1.
         11    1    1    2    0    0  0.27119092181E+00 -0.13405973302E+00  0.10681196601E+01  0.11101335044E+01  0.51100000000E-03 0. -1.
    9000002    1    1    2    0    0 -0.13332017785E+00 -0.16880279429E+00  0.89974207895E-01  0.96654436591E+00  0.93800000000E+00 0.  1.
         22    1    1    2    0    0 -0.13787074396E+00  0.30286252731E+00  0.28419060993E+01  0.28613221297E+01  0.00000000000E+00 0. -1.
</event>
<event>
 5    1  0.1166492E+001  0.1541507E+01  0.7818608E-02  0.3419404E+00
         11   -1    0    0    0    0  0.00000000000E+00  0.00000000000E+00  0.39999999674E+01  0.40000000000E+01  0.51100000000E-03 0. -1.
    9000002   -1    0    0    0    0 -0.00000000000E+00 -0.00000000000E+00  0.00000000000E+00  0.93800000000E+00  0.93800000000E+00 0. -1.
         11    1    1    2    0    0 -0.49077370315E+00  0.12891957280E-01  0.57095705171E+00  0.75300547560E+00  0.51100000000E-03 0. -1.
    9000002    1    1    2    0    0  0.22653543746E+00 -0.21133456363E+00  0.29129297466E+00  0.10298913532E+01  0.93800000000E+00 0. -1.
         22    1    1    2    0    0  0.26423826568E+00  0.19844260635E+00  0.31377499410E+01  0.31551031712E+01  0.00000000000E+00 0. -1.
</event>
<event>
 5    1  0.1166492E+001  0.1401840E+01  0.7818608E-02  0.3603930E+00
         11   -1    0    0    0    0  0.00000000000E+00  0.00000000000E+00  0.39999999674E+01  0.40000000000E+01  0.51100000000E-03 0.  1.
    9000002   -1    0    0    0    0 -0.00000000000E+00 -0.00000000000E+00  0.00000000000E+00  0.93800000000E+00  0.93800000000E+00 0.  1.
         11    1    1    2    0    0 -0.77391465043E+00 -0.87334660335E-01  0.11605229164E+01  0.13976354781E+01  0.51100000000E-03 0.  1.
    9000002    1    1    2    0    0  0.67863599952E+00  0.39273420392E+00  0.76676267564E+00  0.14431063632E+01  0.93800000000E+00 0.  1.
         22    1    1    2    0    0  0.95278650911E-01 -0.30539954359E+00  0.20727143753E+01  0.20972581587E+01  0.00000000000E+00 0. -1.
</event>
<event>
 5    1  0.1166492E+001  0.1524127E+01  0.7818608E-02  0.3440067E+00
         11   -1    0    0    0    0  0.00000000000E+00  0.00000000000E+00  0.39999999674E+01  0.40000000000E+01  0.51100000000E-03 0. -1.
    9000002   -1    0    0    0    0 -0.00000000000E+00 -0.00000000000E+00  0.00000000000E+00  0.93800000000E+00  0.93800000000E+00 0.  1.
         11    1    1    2    0    0  0.30640425899E+00  0.11008580442E+00  0.11983923301E+01  0.12418320709E+01  0.51100000000E-03 0. -1.
    9000002    1    1    2    0    0 -0.10239672413E+00  0.74688743019E-01  0.68244174729E-01  0.94898090857E+00  0.93800000000E+00 0.  1.
         22    1    1    2    0    0 -0.20400753486E+00 -0.18477454744E+00  0.27333634625E+01  0.27471870206E+01  0.00000000000E+00 0. -1.
</event>
<event>
 5    1  0.1166492E+001  0.1392226E+01  0.7818608E-02  0.3619416E+00
         11   -1    0    0    0    0  0.00000000000E+00  0.00000000000E+00  0.39999999674E+01  0.40000000000E+01  0.51100000000E-03 0. -1.
    9000002   -1    0    0    0    0 -0.00000000000E+00 -0.00000000000E+00  0.00000000000E+00  0.93800000000E+00  0.93800000000E+00 0. -1.
         11    1    1    2    0    0 -0.36812549044E+00 -0.44450982113E+00  0.11841577803E+01  0.13173212469E+01  0.51100000000E-03 0. -1.
    9000002    1    1    2    0    0  0.52578899853E-01  0.21964716134E+00  0.21156018737E+00  0.98773029167E+00  0.93800000000E+00 0. -1.
         22    1    1    2    0    0  0.31554659059E+00  0.22486265979E+00  0.26042819997E+01  0.26329484614E+01  0.00000000000E+00 0. -1.
</event>
<event>
 5    1  0.1166492E+001  0.1448735E+01  0.7818608E-02  0.3535902E+00
         11   -1    0    0    0    0  0.00000000000E+00  0.00000000000E+00  0.39999999674E+01  0.40000000000E+01  0.51100000000E-03 0. -1.
    9000002   -1    0    0    0    0 -0.00000000000E+00 -0.00000000000E+00  0.00000000000E+00  0.93800000000E+00  0.93800000000E+00 0. -1.
         11    1    1    2    0    0  0.23019365650E+00 -0.35217083889E+00  0.13365881195E+01  0.14012428346E+01  0.51100000000E-03 0. -1.
    9000002    1    1    2    0    0  0.10023952125E+00 -0.27112784991E-01  0.12852695488E+00  0.95244225172E+00  0.93800000000E+00 0. -1.
         22    1    1    2    0    0 -0.33043317776E+00  0.37928362388E+00  0.25348848930E+01  0.25843149136E+01  0.00000000000E+00 0. -1.
</event>
<event>
 5    1  0.1166492E+001  0.1458577E+01  0.7818608E-02  0.3522782E+00
         11   -1    0    0    0    0  0.00000000000E+00  0.00000000000E+00  0.39999999674E+01  0.40000000000E+01  0.51100000000E-03 0.  1.
    9000002   -1    0    0    0    0 -0.00000000000E+00 -0.00000000000E+00  0.00000000000E+00  0.93800000000E+00  0.93800000000E+00 0. -1.
         11    1    1    2    0    0  0.64071650095E+00  0.67525440938E-01  0.13315742629E+01  0.14792456180E+01  0.51100000000E-03 0.  1.
    9000002    1    1    2    0    0 -0.58943688882E+00  0.21579764133E+00  0.43932906794E+00  0.12111393387E+01  0.93800000000E+00 0. -1.
         22    1    1    2    0    0 -0.51279612128E-01 -0.28332308226E+00  0.22290966365E+01  0.22476150432E+01  0.00000000000E+00 0.  1.
</event>
<event>
 5    1  0.1166492E+001  0.1552279E+01  0.7818608E-02  0.3406845E+00
         11   -1    0    0    0    0  0.00000000000E+00  0.00000000000E+00  0.39999999674E+01  0.40000000000E+01  0.51100000000E-03 0.  1.
    9000002   -1    0    0    0    0 -0.00000000000E+00 -0.00000000000E+00  0.00000000000E+00  0.93800000000E+00  0.93800000000E+00 0. -1.
         11    1    1    2    0    0  0.20556581052E+00 -0.18533337181E+00  0.10917263904E+01  0.11262648595E+01  0.51100000000E-03 0.  1.
    9000002    1    1    2    0    0 -0.30912067206E+00 -0.67140330808E-01  0.10527546631E+00  0.99548497614E+00  0.93800000000E+00 0. -1.
         22    1    1    2    0    0  0.10355486154E+00  0.25247370262E+00  0.28029981106E+01  0.28162501643E+01  0.00000000000E+00 0.  1.
</event>
<event>
 5    1  0.1166492E+001  0.1482246E+01  0.7818608E-02  0.3492003E+00
         11   -1    0    0    0    0  0.00000000000E+00  0.00000000000E+00  0.39999999674E+01  0.40000000000E+01  0.51100000000E-03 0. -1.
    9000002   -1    0    0    0    0 -0.00000000000E+00 -0.00000000000E+00  0.00000000000E+00  0.93800000000E+00  0.93800000000E+00 0.  1.
         11    1    1    2    0    0 -0.56493224265E-01 -0.33586810400E+00  0.73015159552E+00  0.80568013580E+00  0.51100000000E-03 0. -1.
    9000002    1    1    2    0    0  0.13160516095E+00  0.54526622957E-01  0.10550220821E+00  0.95460347105E+00  0.93800000000E+00 0.  1.
         22    1    1    2    0    0 -0.75111936680E-01  0.28134148104E+00  0.31643461636E+01  0.31777163932E+01  0.00000000000E+00 0. -1.
</event>
<event>
 5    1  0.1166492E+001  0.1524248E+01  0.7818608E-02  0.3439922E+00
         11   -1    0    0    0    0  0.00000000000E+00  0.00000000000E+00  0.39999999674E+01  0.40000000000E+01  0.51100000000E-03 0.  1.
    9000002   -1    0    0    0    0 -0.00000000000E+00 -0.00000000000E+00  0.00000000000E+00  0.93800000000E+00  0.93800000000E+00 0.  1.
         11    1    1    2    0    0  0.52131917438E+00  0.13583861982E+00  0.10099820498E+01  0.11446789132E+01  0.51100000000E-03 0.  1.
    9000002    1    1    2    0    0 -0.48671341431E-01 -0.17027944942E+00  0.21546497643E+00  0.97858732183E+00  0.93800000000E+00 0.  1.
         22    1    1    2    0    0 -0.47264783295E+00  0.34440829600E-01  0.27745529411E+01  0.28147337650E+01  0.00000000000E+00 0.  1.
</event>
<event>
 5    1  0.1166492E+001  0.1263855E+01  0.7818608E-02  0.3853516E+00
         11   -1    0    0    0    0  0.00000000000E+00  0.00000000000E+00  0.39999999674E+01  0.40000000000E+01  0.51100000000E-03 0. -1.
    9000002   -1    0    0    0    0 -0.00000000000E+00 -0.00000000000E+00  0.00000000000E+00  0.93800000000E+00  0.93800000000E+00 0. -1.
         11    1    1    2    0    0  0.17249132381E+00 -0.52960634183E+00  0.25065934496E+00  0.61079170135E+00  0.51100000000E-03 0. -1.
    9000002    1    1    2    0    0  0.54900005278E+00  0.62133519579E+00  0.14504517607E+01  0.19160148208E+01  0.93800000000E+00 0. -1.
         22    1    1    2    0    0 -0.72149137659E+00 -0.91728853961E-01  0.22988888617E+01  0.24111934778E+01  0.00000000000E+00 0. -1.
</event>
<event>
 5    1  0.1166492E+001  0.1490856E+01  0.7818608E-02  0.3481069E+00
         11   -1    0    0    0    0  0.00000000000E+00  0.00000000000E+00  0.39999999674E+01  0.40000000000E+01  0.51100000000E-03 0. -1.
    9000002   -1    0    0    0    0 -0.00000000000E+00 -0.00000000000E+00  0.00000000000E+00  0.93800000000E+00  0.93800000000E+00 0. -1.
         11    1    1    2    0    0 -0.59245541725E+00  0.66217743375E+00  0.97513321798E+00  0.13192298621E+01  0.51100000000E-03 0. -1.
    9000002    1    1    2    0    0  0.69479185849E+00 -0.88452759140E+00  0.15842305794E+01  0.21574881959E+01  0.93800000000E+00 0. -1.
         22    1    1    2    0    0 -0.10233644124E+00  0.22235015765E+00  0.14406361699E+01  0.14612819420E+01  0.00000000000E+00 0. -1.
</event>
<event>
 5    1  0.1166492E+001  0.1584050E+01  0.7818608E-02  0.3370859E+00
         11   -1    0    0    0    0  0.00000000000E+00  0.00000000000E+00  0.39999999674E+01  0.40000000000E+01  0.51100000000E-03 0.  1.
    9000002   -1    0    0    0    0 -0.00000000000E+00 -0.00000000000E+00  0.00000000000E+00  0.93800000000E+00  0.93800000000E+00 0. -1.
         11    1    1    2    0    0 -0.14291907665E+00  0.78370785831E-02  0.13141437755E+01  0.13219158090E+01  0.51100000000E-03 0.  1.
    9000002    1    1    2    0    0  0.92546532036E-01  0.23716464384E+00  0.55132683138E-01  0.97349655450E+00  0.93800000000E+00 0. -1.
         22    1    1    2    0    0  0.50372544610E-01 -0.24500172242E+00  0.26307235087E+01  0.26425876365E+01  0.00000000000E+00 0.  1.
</event>
<event>
 5    1  0.1166492E+001  0.1530918E+01  0.7818608E-02  0.3431934E+00
         11   -1    0    0    0    0  0.00000000000E+00  0.00000000000E+00  0.39999999674E+01  0.40000000000E+01  0.51100000000E-03 0.  1.
    9000002   -1    0    0    0    0 -0.00000000000E+00 -0.00000000000E+00  0.00000000000E+00  0.93800000000E+00  0.93800000000E+00 0.  1.
         11    1    1    2    0    0 -0.98045687104E-01 -0.28172813602E+00  0.11748768425E+01  0.12121549222E+01  0.51100000000E-03 0.  1.
    9000002    1    1    2    0    0  0.41694412501E-01  0.17841788011E-01  0.52968043157E-01  0.94058830900E+00  0.93800000000E+00 0.  1.
         22    1    1    2    0    0  0.56351274603E-01  0.26388634801E+00  0.27721550817E+01  0.27852567688E+01  0.00000000000E+00 0.  1.
</event>
<event>
 5    1  0.1166492E+001  0.1453079E+01  0.7818608E-02  0.3530087E+00
         11   -1    0    0    0    0  0.00000000000E+00  0.00000000000E+00  0.39999999674E+01  0.40000000000E+01  0.51100000000E-03 0.  1.
    9000002   -1    0    0    0    0 -0.00000000000E+00 -0.00000000000E+00  0.00000000000E+00  0.93800000000E+00  0.93800000000E+00 0. -1.
         11    1    1    2    0    0  0.26417937591E+00 -0.46408484799E+00  0.13125796556E+01  0.14170501411E+01  0.51100000000E-03 0.  1.
    9000002    1    1    2    0    0 -0.15079715449E+00  0.17370954232E+00  0.16554263997E+00  0.97987915201E+00  0.93800000000E+00 0. -1.
         22    1    1    2    0    0 -0.11338222143E+00  0.29037530567E+00  0.25218776718E+01  0.25410707069E+01  0.00000000000E+00 0.  1.
</event>
<event>
 5    1  0.1166492E+001  0.1534596E+01  0.7818608E-02  0.3427561E+00
         11   -1    0    0    0    0  0.00000000000E+00  0.00000000000E+00  0.39999999674E+01  0.40000000000E+01  0.51100000000E-03 0.  1.
    9000002   -1    0    0    0    0 -0.00000000000E+00 -0.00000000000E+00  0.00000000000E+00  0.93800000000E+00  0.93800000000E+00 0.  1.
         11    1    1    2    0    0  0.28465867651E+00 -0.75832341660E-01  0.11513827682E+01  0.11884711381E+01  0.51100000000E-03 0.  1.
    9000002    1    1    2    0    0 -0.80473324547E-01 -0.86981014330E-01  0.58550053620E-01  0.94726646811E+00  0.93800000000E+00 0.  1.
         22    1    1    2    0    0 -0.20418535197E+00  0.16281335599E+00  0.27900671456E+01  0.28022623938E+01  0.00000000000E+00 0.  1.
</event>
<event>
 5    1  0.1166492E+001  0.1575944E+01  0.7818608E-02  0.3379894E+00
         11   -1    0    0    0    0  0.00000000000E+00  0.00000000000E+00  0.39999999674E+01  0.40000000000E+01  0.51100000000E-03 0. -1.
    9000002   -1    0    0    0    0 -0.00000000000E+00 -0.00000000000E+00  0.00000000000E+00  0.93800000000E+00  0.93800000000E+00 0.  1.
         11    1    1    2    0    0  0.13010333609E-01 -0.14793649459E+00  0.14163038852E+01  0.14240686190E+01  0.51100000000E-03 0. -1.
    9000002    1    1    2    0    0 -0.35906517954E-01 -0.83092070905E-01  0.22902662404E-01  0.94263572085E+00  0.93800000000E+00 0.  1.
         22    1    1    2    0    0  0.22896184345E-01  0.23102856550E+00  0.25607934197E+01  0.25712956601E+01  0.00000000000E+00 0. -1.
</event>
<event>
 5    1  0.1166492E+001  0.1476961E+01  0.7818608E-02  0.3498782E+00
         11   -1    0    0    0    0  0.00000000000E+00  0.00000000000E+00  0.39999999674E+01  0.40000000000E+01  0.51100000000E-03 0. -1.
    9000002   -1    0    0    0    0 -0.00000000000E+00 -0.00000000000E+00  0.00000000000E+00  0.93800000000E+00  0.93800000000E+00 0.  1.
         11    1    1    2    0    0  0.47397216608E+00  0.44662153591E-01  0.13779438702E+01  0.14578662122E+01  0.51100000000E-03 0. -1.
    9000002    1    1    2    0    0 -0.18984217421E+00 -0.13421380044E+00  0.13554854410E+00  0.97584363663E+00  0.93800000000E+00 0.  1.
         22    1    1    2    0    0 -0.28412999187E+00  0.89551646845E-01  0.24865075531E+01  0.25042901512E+01  0.00000000000E+00 0. -1.
</event>
<event>
 5    1  0.1166492E+001  0.1151873E+01  0.7818608E-02  0.4111480E+00
         11   -1    0    0    0    0  0.00000000000E+00  0.00000000000E+00  0.39999999674E+01  0.40000000000E+01  0.51100000000E-03 0.  1.
    9000002   -1    0    0    0    0 -0.00000000000E+00 -0.00000000000E+00  0.00000000000E+00  0.93800000000E+00  0.93800000000E+00 0. -1.
         11    1    1    2    0    0 -0.61851258985E-01 -0.46328683212E+00  0.10620397323E+00  0.47931181094E+00  0.51100000000E-03 0.  1.
    9000002    1    1    2    0    0 -0.24829894030E+00  0.31440607275E+00  0.67848998753E+00  0.12250290631E+01  0.93800000000E+00 0. -1.
         22    1    1    2    0    0  0.31015019928E+00  0.14888075938E+00  0.32153060066E+01  0.32336591259E+01  0.00000000000E+00 0.  1.
</event>
<event>
 5    1  0.1166492E+001  0.1541120E+01  0.7818608E-02  0.3419858E+00
         11   -1    0    0    0    0  0.00000000000E+00  0.00000000000E+00  0.39999999674E+01  0.40000000000E+01  0.51100000000E-03 0. -1.
    9000002   -1    0    0    0    0 -0.00000000000E+00 -0.00000000000E+00  0.00000000000E+00  0.93800000000E+00  0.93800000000E+00 0. -1.
         11    1    1    2    0    0 -0.42422121756E-01 -0.29212036576E+00  0.14119326374E+01  0.14424590040E+01  0.51100000000E-03 0. -1.
    9000002    1    1    2    0    0  0.28525901795E-02  0.44230963819E-01  0.45010607889E-01  0.94012470995E+00  0.93800000000E+00 0. -1.
         22    1    1    2    0    0  0.39569531577E-01  0.24788940194E+00  0.25430567220E+01  0.25554162860E+01  0.00000000000E+00 0. -1.
</event>
<event>
 5    1  0.1166492E+001  0.1594269E+01  0.7818608E-02  0.3359607E+00
         11   -1    0    0    0    0  0.00000000000E+00  0.00000000000E+00  0.39999999674E+01  0.40000000000E+01  0.51100000000E-03 0.  1.
    9000002   -1    0    0    0    0 -0.00000000000E+00 -0.00000000000E+00  0.00000000000E+00  0.93800000000E+00  0.93800000000E+00 0. -1.
         11    1    1    2    0    0  0.13299279365E+00 -0.70220311317E-01  0.97014199200E+00  0.98172996340E+00  0.51100000000E-03 0.  1.
    9000002    1    1    2    0    0 -0.42368544042E+00 -0.69532445824E-02  0.12608916168E+00  0.10369668156E+01  0.93800000000E+00 0. -1.
         22    1    1    2    0    0  0.29069264678E+00  0.77173555899E-01  0.29037688137E+01  0.29193032210E+01  0.00000000000E+00 0.  1.
</event>
<event>
 5    1  0.1166492E+001  0.1531055E+01  0.7818608E-02  0.3431770E+00
         11   -1    0    0    0    0  0.00000000000E+00  0.00000000000E+00  0.39999999674E+01  0.40000000000E+01  0.51100000000E-03 0. -1.
    9000002   -1    0    0    0    0 -0.00000000000E+00 -0.00000000000E+00  0.00000000000E+00  0.93800000000E+00  0.93800000000E+00 0.  1.
         11    1    1    2    0    0  0.35792527651E-02 -0.32983065005E+00  0.14530858944E+01  0.14900536723E+01  0.51100000000E-03 0. -1.
    9000002    1    1    2    0    0  0.58164516774E-01  0.71123246334E-01  0.57368650592E-01  0.94423344002E+00  0.93800000000E+00 0.  1.
         22    1    1    2    0    0 -0.61743769540E-01  0.25870740372E+00  0.24895454224E+01  0.25037128877E+01  0.00000000000E+00 0. -1.
</event>
<event>
 5    1  0.1166492E+001  0.1550409E+01  0.7818608E-02  0.3409011E+00
         11   -1    0    0    0    0  0.00000000000E+00  0.00000000000E+00  0.39999999674E+01  0.40000000000E+01  0.51100000000E-03 0. -1.
    9000002   -1    0    0    0    0 -0.00000000000E+00 -0.00000000000E+00  0.00000000000E+00  0.93800000000E+00  0.93800000000E+00 0. -1.
         11    1    1    2    0    0 -0.13978766960E+00 -0.18036021825E+00  0.10861118061E+01  0.11098240930E+01  0.51100000000E-03 0. -1.
    9000002    1    1    2    0    0  0.20933455818E-01 -0.62489465972E-01  0.39543975781E-01  0.94114338384E+00  0.93800000000E+00 0. -1.
         22    1    1    2    0    0  0.11885421378E+00  0.24284968422E+00  0.28743441855E+01  0.28870325232E+01  0.00000000000E+00 0. -1.
</event>
<event>
 5    1  0.1166492E+001  0.1504838E+01  0.7818608E-02  0.3463600E+00
         11   -1    0    0    0    0  0.00000000000E+00  0.00000000000E+00  0.39999999674E+01  0.40000000000E+01  0.51100000000E-03 0.  1.
    9000002   -1    0    0    0    0 -0.00000000000E+00 -0.00000000000E+00  0.00000000000E+00  0.93800000000E+00  0.93800000000E+00 0. -1.
         11    1    1    2    0    0 -0.10840576246E-01  0.24906633701E+00  0.56268239007E+00  0.61543747980E+00  0.51100000000E-03 0.  1.
    9000002    1    1    2    0    0 -0.33717849468E-01  0.95917974446E-01  0.79568250192E-01  0.94684331208E+00  0.93800000000E+00 0. -1.
         22    1    1    2    0    0  0.44558425714E-01 -0.34498431145E+00  0.33577493271E+01  0.33757192081E+01  0.00000000000E+00 0.  1.
</event>
<event>
 5    1  0.1166492E+001  0.1488953E+01  0.7818608E-02  0.3483473E+00
         11   -1    0    0    0    0  0.00000000000E+00  0.00000000000E+00  0.39999999674E+01  0.40000000000E+01  0.51100000000E-03 0.  1.
    9000002   -1    0    0    0    0 -0.00000000000E+00 -0.00000000000E+00  0.00000000000E+00  0.93800000000E+00  0.93800000000E+00 0.  1.
         11    1    1    2    0    0  0.17037345966E+00  0.19248343970E+00  0.14435341600E+01  0.14662428594E+01  0.51100000000E-03 0.  1.
    9000002    1    1    2    0    0  0.34224692834E+00  0.14445100520E+00  0.18941406415E+00  0.10265090066E+01  0.93800000000E+00 0.  1.
         22    1    1    2    0    0 -0.51262038800E+00 -0.33693444490E+00  0.23670517432E+01  0.24452481341E+01  0.00000000000E+00 0.  1.
</event>
<event>
 5    1  0.1166492E+001  0.1577893E+01  0.7818608E-02  0.3377712E+00
         11   -1    0    0    0    0  0.00000000000E+00  0.00000000000E+00  0.39999999674E+01  0.40000000000E+01  0.51100000000E-03 0.  1.
    9000002   -1    0    0    0    0 -0.00000000000E+00 -0.00000000000E+00  0.00000000000E+00  0.93800000000E+00  0.93800000000E+00 0. -1.
         11    1    1    2    0    0 -0.28721879480E-01 -0.16517518510E+00  0.80169322911E+00  0.81903606932E+00  0.51100000000E-03 0.  1.
    9000002    1    1    2    0    0  0.33473708248E+00  0.13074125190E+00  0.10453942242E+00  0.10099082533E+01  0.93800000000E+00 0. -1.
         22    1    1    2    0    0 -0.30601520300E+00  0.34433933200E-01  0.30937673158E+01  0.31090556773E+01  0.00000000000E+00 0.  1.
</event>
<event>
 5    1  0.1166492E+001  0.1533345E+01  0.7818608E-02  0.3429045E+00
         11   -1    0    0    0    0  0.00000000000E+00  0.00000000000E+00  0.39999999674E+01  0.40000000000E+01  0.51100000000E-03 0. -1.
    9000002   -1    0    0    0    0 -0.00000000000E+00 -0.00000000000E+00  0.00000000000E+00  0.93800000000E+00  0.93800000000E+00 0. -1.
         11    1    1    2    0    0 -0.12643571985E+00  0.19542485697E+00  0.88485319378E+00  0.91495480852E+00  0.51100000000E-03 0. -1.
    9000002    1    1    2    0    0 -0.11567473012E+00  0.64161390937E-01  0.61973049612E-01  0.94930605505E+00  0.93800000000E+00 0. -1.
         22    1    1    2    0    0  0.24211044997E+00 -0.25958624790E+00  0.30531737240E+01  0.30737391364E+01  0.00000000000E+00 0. -1.
</event>
<event>
 5    1  0.1166492E+001  0.1551755E+01  0.7818608E-02  0.3407451E+00
         11   -1    0    0    0    0  0.00000000000E+00  0.00000000000E+00  0.39999999674E+01  0.40000000000E+01  0.51100000000E-03 0. -1.
    9000002   -1    0    0    0    0 -0.00000000000E+00 -0.00000000000E+00  0.00000000000E+00  0.93800000000E+00  0.93800000000E+00 0. -1.
         11    1    1    2    0    0 -0.99191911839E-01  0.13710750642E+00  0.55263886961E+00  0.57796841178E+00  0.51100000000E-03 0. -1.
    9000002    1    1    2    0    0 -0.27648822577E+00 -0.10501856852E+00  0.96748224408E-01  0.98827063988E+00  0.93800000000E+00 0. -1.
         22    1    1    2    0    0  0.37568013761E+00 -0.32088937902E-01  0.33506128733E+01  0.33717609483E+01  0.00000000000E+00 0. -1.
</event>
<event>
 5    1  0.1166492E+001  0.1543221E+01  0.7818608E-02  0.3417393E+00
         11   -1    0    0    0    0  0.00000000000E+00  0.00000000000E+00  0.39999999674E+01  0.40000000000E+01  0.51100000000E-03 0. -1.
    9000002   -1    0    0    0    0 -0.00000000000E+00 -0.00000000000E+00  0.00000000000E+00  0.93800000000E+00  0.93800000000E+00 0. -1.
         11    1    1    2    0    0 -0.22391736981E+00 -0.17366274873E+00  0.14421376558E+01  0.14697139239E+01  0.51100000000E-03 0. -1.
    9000002    1    1    2    0    0  0.77936200565E-01 -0.56235761906E-01  0.48465606856E-01  0.94415540422E+00  0.93800000000E+00 0. -1.
         22    1    1    2    0    0  0.14598116925E+00  0.22989851064E+00  0.25093967047E+01  0.25241306719E+01  0.00000000000E+00 0. -1.
</event>
<event>
 5    1  0.1166492E+001  0.1464100E+01  0.7818608E-02  0.3515502E+00
         11   -1    0    0    0    0  0.00000000000E+00  0.00000000000E+00  0.39999999674E+01  0.40000000000E+01  0.51100000000E-03 0. -1.
    9000002   -1    0    0    0    0 -0.00000000000E+00 -0.00000000000E+00  0.00000000000E+00  0.93800000000E+00  0.93800000000E+00 0.  1.
         11    1    1    2    0    0 -0.27551115086E+00  0.12752661514E+00  0.55408156170E+00  0.63180382237E+00  0.51100000000E-03 0. -1.
    9000002    1    1    2    0    0 -0.10953875075E+00 -0.28267453092E-01  0.11516418393E+00  0.95179019541E+00  0.93800000000E+00 0.  1.
         22    1    1    2    0    0  0.38504990162E+00 -0.99259162048E-01  0.33307542217E+01  0.33544059822E+01  0.00000000000E+00 0. -1.
</event>
<event>
 5    1  0.1166492E+001  0.1537588E+01  0.7818608E-02  0.3424020E+00
         11   -1    0    0    0    0  0.00000000000E+00  0.00000000000E+00  0.39999999674E+01  0.40000000000E+01  0.51100000000E-03 0. -1.
    9000002   -1    0    0    0    0 -0.00000000000E+00 -0.00000000000E+00  0.00000000000E+00  0.93800000000E+00  0.93800000000E+00 0.  1.
         11    1    1    2    0    0 -0.23212115322E+00 -0.14525176012E+00  0.10973591154E+01  0.11310064513E+01  0.51100000000E-03 0. -1.
    9000002    1    1    2    0    0 -0.56984990119E-01  0.14172449879E+00  0.62753236532E-01  0.95242589809E+00  0.93800000000E+00 0.  1.
         22    1    1    2    0    0  0.28910614334E+00  0.35272613238E-02  0.28398876155E+01  0.28545676506E+01  0.00000000000E+00 0. -1.
</event>
<event>
 5    1  0.1166492E+001  0.1574161E+01  0.7818608E-02  0.3381894E+00
         11   -1    0    0    0    0  0.00000000000E+00  0.00000000000E+00  0.39999999674E+01  0.40000000000E+01  0.51100000000E-03 0. -1.
    9000002   -1    0    0    0    0 -0.00000000000E+00 -0.00000000000E+00  0.00000000000E+00  0.93800000000E+00  0.93800000000E+00 0.  1.
         11    1    1    2    0    0  0.15392388694E+00 -0.46322880828E-01  0.14522739909E+01  0.14611428329E+01  0.51100000000E-03 0. -1.
    9000002    1    1    2    0    0  0.79419263305E-01  0.49526963125E-01  0.24617440293E-01  0.94297951082E+00  0.93800000000E+00 0.  1.
         22    1    1    2    0    0 -0.23334315024E+00 -0.32040822963E-02  0.25231085362E+01  0.25338776563E+01  0.00000000000E+00 0. -1.
</event>
<event>
 5    1  0.1166492E+001  0.1573780E+01  0.7818608E-02  0.3382323E+00
         11   -1    0    0    0    0  0.00000000000E+00  0.00000000000E+00  0.39999999674E+01  0.40000000000E+01  0.51100000000E-03 0. -1.
    9000002   -1    0    0    0    0 -0.00000000000E+00 -0.00000000000E+00  0.00000000000E+00  0.93800000000E+00  0.93800000000E+00 0. -1.
         11    1    1    2    0    0 -0.12799995903E+00  0.80266984205E-01  0.12536075415E+01  0.12626792576E+01  0.51100000000E-03 0. -1.
    9000002    1    1    2    0    0  0.43786353520E-02  0.15113648074E+00  0.34465346858E-01  0.95073301636E+00  0.93800000000E+00 0. -1.
         22    1    1    2    0    0  0.12362132368E+00 -0.23140346494E+00  0.27119270790E+01  0.27245877261E+01  0.00000000000E+00 0. -1.
</event>
<event>
 5    1  0.1166492E+001  0.1578656E+01  0.7818608E-02  0.3376861E+00
         11   -1    0    0    0    0  0.00000000000E+00  0.00000000000E+00  0.39999999674E+01  0.40000000000E+01  0.51100000000E-03 0. -1.
    9000002   -1    0    0    0    0 -0.00000000000E+00 -0.00000000000E+00  0.00000000000E+00  0.93800000000E+00  0.93800000000E+00 0.  1.
         11    1    1    2    0    0  0.69164922026E-01  0.95681249745E-01  0.10433629813E+01  0.10500215521E+01  0.51100000000E-03 0. -1.
    9000002    1    1    2    0    0  0.25592407353E+00 -0.95676937103E-01  0.66098006924E-01  0.97921609169E+00  0.93800000000E+00 0.  1.
         22    1    1    2    0    0 -0.32508899555E+00 -0.43126422478E-05  0.28905389792E+01  0.29087623562E+01  0.00000000000E+00 0. -1.
</event>
<event>
 5    1  0.1166492E+001  0.1487324E+01  0.7818608E-02  0.3485537E+00
         11   -1    0    0    0    0  0.00000000000E+00  0.00000000000E+00  0.39999999674E+01  0.40000000000E+01  0.51100000000E-03 0.  1.
    9000002   -1    0    0    0    0 -0.00000000000E+00 -0.00000000000E+00  0.00000000000E+00  0.93800000000E+00  0.93800000000E+00 0.  1.
         11    1    1    2    0    0 -0.19420583812E+00 -0.34258316602E+00  0.11867786466E+01  0.12504091132E+01  0.51100000000E-03 0.  1.
    9000002    1    1    2    0    0 -0.22306087079E+00  0.24632435172E+00  0.16955597522E+00  0.10094677147E+01  0.93800000000E+00 0.  1.
         22    1    1    2    0    0  0.41726670891E+00  0.96258814304E-01  0.26436653455E+01  0.26781231720E+01  0.00000000000E+00 0.  1.
</event>
<event>
 5    1  0.1166492E+001  0.1556832E+01  0.7818608E-02  0.3401591E+00
         11   -1    0    0    0    0  0.00000000000E+00  0.00000000000E+00  0.39999999674E+01  0.40000000000E+01  0.51100000000E-03 0. -1.
    9000002   -1    0    0    0    0 -0.00000000000E+00 -0.00000000000E+00  0.00000000000E+00  0.93800000000E+00  0.93800000000E+00 0. -1.
         11    1    1    2    0    0 -0.20615533894E+00  0.15405856077E+00  0.12239934946E+01  0.12507575304E+01  0.51100000000E-03 0. -1.
    9000002    1    1    2    0    0  0.27561152495E+00  0.14053136216E+00  0.98407979373E-01  0.99259201429E+00  0.93800000000E+00 0. -1.
         22    1    1    2    0    0 -0.69456186009E-01 -0.29458992294E+00  0.26775984934E+01  0.26946504553E+01  0.00000000000E+00 0. -1.
</event>
<event>
 5    1  0.1166492E+001  0.1480497E+01  0.7818608E-02  0.3494240E+00
         11   -1    0    0    0    0  0.00000000000E+00  0.00000000000E+00  0.39999999674E+01  0.40000000000E+01  0.51100000000E-03 0. -1.
    9000002   -1    0    0    0    0 -0.00000000000E+00 -0.00000000000E+00  0.00000000000E+00  0.93800000000E+00  0.93800000000E+00 0. -1.
         11    1    1    2    0    0 -0.33091587783E+00  0.27264775581E+00  0.92029590406E+00  0.10152767746E+01  0.51100000000E-03 0. -1.
    9000002    1    1    2    0    0 -0.12712855250E+00 -0.48159570183E-01  0.16295594225E+00  0.96170663519E+00  0.93800000000E+00 0. -1.
         22    1    1    2    0    0  0.45804443033E+00 -0.22448818563E+00  0.29167481211E+01  0.29610165902E+01  0.00000000000E+00 0. -1.
</event>
<event>
 5    1  0.1166492E+001  0.1597665E+01  0.7818608E-02  0.3355901E+00
         11   -1    0    0    0    0  0.00000000000E+00  0.00000000000E+00  0.39999999674E+01  0.40000000000E+01  0.51100000000E-03 0. -1.
    9000002   -1    0    0    0    0 -0.00000000000E+00 -0.00000000000E+00  0.00000000000E+00  0.93800000000E+00  0.93800000000E+00 0.  1.
         11    1    1    2    0    0  0.52156316577E-01 -0.10520010362E-01  0.95626481835E+00  0.95774402421E+00  0.51100000000E-03 0. -1.
    9000002    1    1    2    0    0 -0.30347638449E+00 -0.12499734076E+00  0.73662346411E-01  0.99649003629E+00  0.93800000000E+00 0.  1.
         22    1    1    2    0    0  0.25132006792E+00  0.13551735112E+00  0.29700728026E+01  0.29837659395E+01  0.00000000000E+00 0. -1.
</event>
<event>
 5    1  0.1166492E+001  0.1581188E+01  0.7818608E-02  0.3374038E+00
         11   -1    0    0    0    0  0.00000000000E+00  0.00000000000E+00  0.39999999674E+01  0.40000000000E+01  0.51100000000E-03 0.  1.
    9000002   -1    0    0    0    0 -0.00000000000E+00 -0.00000000000E+00  0.00000000000E+00  0.93800000000E+00  0.93800000000E+00 0.  1.
         11    1    1    2    0    0 -0.38957176632E-01 -0.17141248283E-01  0.63679982755E+00  0.63822078115E+00  0.51100000000E-03 0.  1.
    9000002    1    1    2    0    0 -0.46490605311E+00 -0.11823682890E+00  0.17355631674E+00  0.10677468712E+01  0.93800000000E+00 0.  1.
         22    1    1    2    0    0  0.50386322974E+00  0.13537807718E+00  0.31896438231E+01  0.32320323476E+01  0.00000000000E+00 0.  1.
</event>
<event>
 5    1  0.1166492E+001  0.1566861E+01  0.7818608E-02  0.3390136E+00
         11   -1    0    0    0    0  0.00000000000E+00  0.00000000000E+00  0.39999999674E+01  0.40000000000E+01  0.51100000000E-03 0. -1.
    9000002   -1    0    0    0    0 -0.00000000000E+00 -0.00000000000E+00  0.00000000000E+00  0.93800000000E+00  0.93800000000E+00 0. -1.
         11    1    1    2    0    0 -0.21984053462E+00 -0.48775535402E-01  0.12928928596E+01  0.13123570859E+01  0.51100000000E-03 0. -1.
    9000002    1    1    2    0    0  0.13949725076E+00 -0.18079538117E+00  0.59865087887E-01  0.96725088864E+00  0.93800000000E+00 0. -1.
         22    1    1    2    0    0  0.80343283862E-01  0.22957091657E+00  0.26472420199E+01  0.26583920254E+01  0.00000000000E+00 0. -1.
</event>
<event>
 5    1  0.1166492E+001  0.1352054E+01  0.7818608E-02  0.3686950E+00
         11   -1    0    0    0    0  0.00000000000E+00  0.00000000000E+00  0.39999999674E+01  0.40000000000E+01  0.51100000000E-03 0.  1.
    9000002   -1    0    0    0    0 -0.00000000000E+00 -0.00000000000E+00  0.00000000000E+00  0.93800000000E+00  0.93800000000E+00 0. -1.
         11    1    1    2    0    0  0.46729237921E+00  0.51531283832E+00  0.80826010428E+00  0.10663930543E+01  0.51100000000E-03 0.  1.
    9000002    1    1    2    0    0 -0.24210272757E+00 -0.62221047582E+00  0.65895311485E+00  0.13265831352E+01  0.93800000000E+00 0. -1.
         22    1    1    2    0    0 -0.22518965164E+00  0.10689763750E+00  0.25327867482E+01  0.25450238105E+01  0.00000000000E+00 0. -1.
</event>
<event>
 5    1  0.1166492E+001  0.1555908E+01  0.7818608E-02  0.3402655E+00
         11   -1    0    0    0    0  0.00000000000E+00  0.00000000000E+00  0.39999999674E+01  0.40000000000E+01  0.51100000000E-03 0. -1.
    9000002   -1    0    0    0    0 -0.00000000000E+00 -0.00000000000E+00  0.00000000000E+00  0.93800000000E+00  0.93800000000E+00 0. -1.
         11    1    1    2    0    0  0.99013772238E-01 -0.19851403355E+00  0.13115774474E+01  0.13302057022E+01  0.51100000000E-03 0. -1.
    9000002    1    1    2    0    0  0.70379506517E-01 -0.13641081798E-01  0.35905733437E-01  0.94142050952E+00  0.93800000000E+00 0. -1.
         22    1    1    2    0    0 -0.16939327876E+00  0.21215511535E+00  0.26525167865E+01  0.26663737883E+01  0.00000000000E+00 0. -1.
</event>
<event>
 5    1  0.1166492E+001  0.1513413E+01  0.7818608E-02  0.3453060E+00
         11   -1    0    0    0    0  0.00000000000E+00  0.00000000000E+00  0.39999999674E+01  0.40000000000E+01  0.51100000000E-03 0. -1.
    9000002   -1    0    0    0    0 -0.00000000000E+00 -0.00000000000E+00  0.00000000000E+00  0.93800000000E+00  0.93800000000E+00 0.  1.
         11    1    1    2    0    0 -0.78391971249E-01 -0.92631971177E-01  0.92771096278E-01  0.15275051773E+00  0.51100000000E-03 0. -1.
    9000002    1    1    2    0    0 -0.26957752268E+00  0.15933590259E+00  0.13691346329E+00  0.99832322773E+00  0.93800000000E+00 0.  1.
         22    1    1    2    0    0  0.34796949392E+00 -0.66703931418E-01  0.37703154078E+01  0.37869262545E+01  0.00000000000E+00 0. -1.
</event>
<event>
 5    1  0.1166492E+001  0.1470118E+01  0.7818608E-02  0.3507639E+00
         11   -1    0    0    0    0  0.00000000000E+00  0.00000000000E+00  0.39999999674E+01  0.40000000000E+01  0.51100000000E-03 0.  1.
    9000002   -1    0    0    0    0 -0.00000000000E+00 -0.00000000000E+00  0.00000000000E+00  0.93800000000E+00  0.93800000000E+00 0.  1.
         11    1    1    2    0    0  0.25248543227E+00 -0.97422526722E-02  0.66095932702E+00  0.70760956613E+00  0.51100000000E-03 0.  1.
    9000002    1    1    2    0    0  0.44281126842E+00 -0.49816064007E-01  0.25626451674E+00  0.10696162687E+01  0.93800000000E+00 0.  1.
         22    1    1    2    0    0 -0.69529670069E+00  0.59558316679E-01  0.30827761236E+01  0.31607741652E+01  0.00000000000E+00 0.  1.
</event>
<event>
 5    1  0.1166492E+001  0.1584257E+01  0.7818608E-02  0.3370630E+00
         11   -1    0    0    0    0  0.00000000000E+00  0.00000000000E+00  0.39999999674E+01  0.40000000000E+01  0.51100000000E-03 0.  1.
    9000002   -1    0    0    0    0 -0.00000000000E+00 -0.00000000000E+00  0.00000000000E+00  0.93800000000E+00  0.93800000000E+00 0.  1.
         11    1    1    2    0    0 -0.90070784167E-01 -0.10460805028E+00  0.14097734017E+01  0.14165157590E+01  0.51100000000E-03 0.  1.
    9000002    1    1    2    0    0  0.19785174504E+00 -0.10429167907E+00  0.44914794447E-01  0.96534108278E+00  0.93800000000E+00 0.  1.
         22    1    1    2    0    0 -0.10778096087E+00  0.20889972935E+00  0.25453117712E+01  0.25561431582E+01  0.00000000000E+00 0.  1.
</event>
<event>
 5    1  0.1166492E+001  0.1478608E+01  0.7818608E-02  0.3496664E+00
         11   -1    0    0    0    0  0.00000000000E+00  0.00000000000E+00  0.39999999674E+01  0.40000000000E+01  0.51100000000E-03 0.  1.
    9000002   -1    0    0    0    0 -0.00000000000E+00 -0.00000000000E+00  0.00000000000E+00  0.93800000000E+00  0.93800000000E+00 0.  1.
         11    1    1    2    0    0  0.19227272388E+00 -0.78781283496E-01  0.13469546569E+00  0.24762556527E+00  0.51100000000E-03 0.  1.
    9000002    1    1    2    0    0  0.49249644553E+00  0.22142537594E+00  0.39793992833E+00  0.11531617981E+01  0.93800000000E+00 0.  1.
         22    1    1    2    0    0 -0.68476916941E+00 -0.14264409244E+00  0.34673645733E+01  0.35372126367E+01  0.00000000000E+00 0.  1.
</event>
<event>
 5    1  0.1166492E+001  0.1509282E+01  0.7818608E-02  0.3458121E+00
         11   -1    0    0    0    0  0.00000000000E+00  0.00000000000E+00  0.39999999674E+01  0.40000000000E+01  0.51100000000E-03 0. -1.
    9000002   -1    0    0    0    0 -0.00000000000E+00 -0.00000000000E+00  0.00000000000E+00  0.93800000000E+00  0.93800000000E+00 0. -1.
         11    1    1    2    0    0 -0.33555158462E+00 -0.80931304692E-01  0.12814200856E+01  0.13270954898E+01  0.51100000000E-03 0. -1.
    9000002    1    1    2    0    0  0.87134736283E-01 -0.20321110100E+00  0.10408886367E+00  0.96931197526E+00  0.93800000000E+00 0. -1.
         22    1    1    2    0    0  0.24841684833E+00  0.28414240569E+00  0.26144910181E+01  0.26415925350E+01  0.00000000000E+00 0. -1.
</event>
<event>
 5    1  0.1166492E+001  0.1450284E+01  0.7818608E-02  0.3533825E+00
         11   -1    0    0    0    0  0.00000000000E+00  0.00000000000E+00  0.39999999674E+01  0.40000000000E+01  0.51100000000E-03 0. -1.
    9000002   -1    0    0    0    0 -0.00000000000E+00 -0.00000000000E+00  0.00000000000E+00  0.93800000000E+00  0.93800000000E+00 0. -1.
         11    1    1    2    0    0 -0.11378071536E+00  0.44988826788E+00  0.93200024010E+00  0.10411389021E+01  0.51100000000E-03 0. -1.
    9000002    1    1    2    0    0 -0.15112282440E+00 -0.26221089449E+00  0.19392859227E+00  0.10045122996E+01  0.93800000000E+00 0. -1.
         22    1    1    2    0    0  0.26490353976E+00 -0.18767737339E+00  0.28740711350E+01  0.28923487983E+01  0.00000000000E+00 0. -1.
</event>
<event>
 5    1  0.1166492E+001  0.1530116E+01  0.7818608E-02  0.3432890E+00
         11   -1    0    0    0    0  0.00000000000E+00  0.00000000000E+00  0.39999999674E+01  0.40000000000E+01  0.51100000000E-03 0. -1.
    9000002   -1    0    0    0    0 -0.00000000000E+00 -0.00000000000E+00  0.00000000000E+00  0.93800000000E+00  0.93800000000E+00 0.  1.
         11    1    1    2    0    0  0.40266788250E+00 -0.37054095006E+00  0.90080487821E+00  0.10539884767E+01  0.51100000000E-03 0. -1.
    9000002    1    1    2    0    0 -0.38620968858E+00 -0.16150546992E+00  0.35213868683E+00  0.10858579995E+01  0.93800000000E+00 0.  1.
         22    1    1    2    0    0 -0.16458193923E-01  0.53204641998E+00  0.27470564023E+01  0.27981535238E+01  0.00000000000E+00 0. -1.
</event>
<event>
 5    1  0.1166492E+001  0.1553381E+01  0.7818608E-02  0.3405570E+00
         11   -1    0    0    0    0  0.00000000000E+00  0.00000000000E+00  0.39999999674E+01  0.40000000000E+01  0.51100000000E-03 0. -1.
    9000002   -1    0    0    0    0 -0.00000000000E+00 -0.00000000000E+00  0.00000000000E+00  0.93800000000E+00  0.93800000000E+00 0.  1.
         11    1    1    2    0    0  0.24084434393E+00  0.17391182435E+00  0.13898661032E+01  0.14212597815E+01  0.51100000000E-03 0. -1.
    9000002    1    1    2    0    0 -0.15201516571E-01 -0.26798243189E+00  0.84498097539E-01  0.97930056591E+00  0.93800000000E+00 0.  1.
         22    1    1    2    0    0 -0.22564282736E+00  0.94070607541E-01  0.25256357666E+01  0.25374396525E+01  0.00000000000E+00 0. -1.
</event>
<event>
 5    1  0.1166492E+001  0.1586361E+01  0.7818608E-02  0.3368301E+00
         11   -1    0    0    0    0  0.00000000000E+00  0.00000000000E+00  0.39999999674E+01  0.40000000000E+01  0.51100000000E-03 0. -1.
    9000002   -1    0    0    0    0 -0.00000000000E+00 -0.00000000000E+00  0.00000000000E+00  0.93800000000E+00  0.93800000000E+00 0.  1.
         11    1    1    2    0    0 -0.83975615212E-02  0.70401900342E-01  0.92767385374E+00  0.93037948529E+00  0.51100000000E-03 0. -1.
    9000002    1    1    2    0    0 -0.27584887596E+00  0.92550166188E-01  0.66877096872E-01  0.98436511606E+00  0.93800000000E+00 0.  1.
         22    1    1    2    0    0  0.28424643748E+00 -0.16295206653E+00  0.30054490167E+01  0.30232553987E+01  0.00000000000E+00 0. -1.
</event>
<event>
 5    1  0.1166492E+001  0.1467189E+01  0.7818608E-02  0.3511457E+00
         11   -1    0    0    0    0  0.00000000000E+00  0.00000000000E+00  0.39999999674E+01  0.40000000000E+01  0.51100000000E-03 0. -1.
    9000002   -1    0    0    0    0 -0.00000000000E+00 -0.00000000000E+00  0.00000000000E+00  0.93800000000E+00  0.93800000000E+00 0. -1.
         11    1    1    2    0    0 -0.21142557686E+00 -0.17385066389E+00  0.40377872997E+00  0.48781384951E+00  0.51100000000E-03 0. -1.
    9000002    1    1    2    0    0  0.35235364440E-01 -0.92480643693E-01  0.11026025818E+00  0.94962915125E+00  0.93800000000E+00 0. -1.
         22    1    1    2    0    0  0.17619021242E+00  0.26633130758E+00  0.34859609792E+01  0.35005569992E+01  0.00000000000E+00 0. -1.
</event>
<event>
 5    1  0.1166492E+001  0.1460335E+01  0.7818608E-02  0.3520458E+00
         11   -1    0    0    0    0  0.00000000000E+00  0.00000000000E+00  0.39999999674E+01  0.40000000000E+01  0.51100000000E-03 0.  1.
    9000002   -1    0    0    0    0 -0.00000000000E+00 -0.00000000000E+00  0.00000000000E+00  0.93800000000E+00  0.93800000000E+00 0.  1.
         11    1    1    2    0    0 -0.28070028270E-01 -0.47441732661E+00  0.10074505294E+01  0.11139194569E+01  0.51100000000E-03 0.  1.
    9000002    1    1    2    0    0  0.76805530274E-01  0.14929730381E+00  0.15245962077E+00  0.96502679257E+00  0.93800000000E+00 0.  1.
         22    1    1    2    0    0 -0.48735502004E-01  0.32512002280E+00  0.28400898172E+01  0.28590537505E+01  0.00000000000E+00 0.  1.
</event>
<event>
 5    1  0.1166492E+001  0.1508441E+01  0.7818608E-02  0.3459156E+00
         11   -1    0    0    0    0  0.00000000000E+00  0.00000000000E+00  0.39999999674E+01  0.40000000000E+01  0.51100000000E-03 0. -1.
    9000002   -1    0    0    0    0 -0.00000000000E+00 -0.00000000000E+00  0.00000000000E+00  0.93800000000E+00  0.93800000000E+00 0. -1.
         11    1    1    2    0    0  0.50015207280E+00 -0.11707076632E+00  0.12186458612E+01  0.13224808718E+01  0.51100000000E-03 0. -1.
    9000002    1    1    2    0    0  0.69694284032E-01  0.35806244797E+00  0.28840735372E+00  0.10469426018E+01  0.93800000000E+00 0. -1.
         22    1    1    2    0    0 -0.56984635683E+00 -0.24099168165E+00  0.24929467524E+01  0.25685765263E+01  0.00000000000E+00 0. -1.
</event>
<event>
 5    1  0.1166492E+001  0.1548171E+01  0.7818608E-02  0.3411612E+00
         11   -1    0    0    0    0  0.00000000000E+00  0.00000000000E+00  0.39999999674E+01  0.40000000000E+01  0.51100000000E-03 0. -1.
    9000002   -1    0    0    0    0 -0.00000000000E+00 -0.00000000000E+00  0.00000000000E+00  0.93800000000E+00  0.93800000000E+00 0.  1.
         11    1    1    2    0    0 -0.16504061617E-01 -0.13772348905E+00  0.37742898885E+00  0.40211073877E+00  0.51100000000E-03 0. -1.
    9000002    1    1    2    0    0  0.20496907300E-01 -0.24947240490E+00  0.82081806417E-01  0.97428847215E+00  0.93800000000E+00 0.  1.
         22    1    1    2    0    0 -0.39928456836E-02  0.38719589395E+00  0.35404891721E+01  0.35616007891E+01  0.00000000000E+00 0. -1.
</event>
<event>
 5    1  0.1166492E+001  0.1586827E+01  0.7818608E-02  0.3367786E+00
         11   -1    0    0    0    0  0.00000000000E+00  0.00000000000E+00  0.39999999674E+01  0.40000000000E+01  0.51100000000E-03 0.  1.
    9000002   -1    0    0    0    0 -0.00000000000E+00 -0.00000000000E+00  0.00000000000E+00  0.93800000000E+00  0.93800000000E+00 0. -1.
         11    1    1    2    0    0 -0.11932492773E+00  0.76799727226E-01  0.58884701833E+00  0.60570430789E+00  0.51100000000E-03 0.  1.
    9000002    1    1    2    0    0  0.14010204384E+00 -0.41803207087E+00  0.14294737707E+00  0.10462587383E+01  0.93800000000E+00 0. -1.
         22    1    1    2    0    0 -0.20777116108E-01  0.34123234364E+00  0.32682055720E+01  0.32860369538E+01  0.00000000000E+00 0.  1.
</event>
<event>
 5    1  0.1166492E+001  0.1534974E+01  0.7818608E-02  0.3427112E+00
         11   -1    0    0    0    0  0.00000000000E+00  0.00000000000E+00  0.39999999674E+01  0.40000000000E+01  0.51100000000E-03 0. -1.
    9000002   -1    0    0    0    0 -0.00000000000E+00 -0.00000000000E+00  0.00000000000E+00  0.93800000000E+00  0.93800000000E+00 0.  1.
         11    1    1    2    0    0  0.31600922025E+00  0.40140833474E-02  0.13779846992E+01  0.14137609531E+01  0.51100000000E-03 0. -1.
    9000002    1    1    2    0    0 -0.72505383284E-01  0.80859881013E-01  0.56669974645E-01  0.94596555804E+00  0.93800000000E+00 0.  1.
         22    1    1    2    0    0 -0.24350383697E+00 -0.84873964360E-01  0.25653452935E+01  0.25782734889E+01  0.00000000000E+00 0. -1.
</event>
<event>
 5    1  0.1166492E+001  0.1565286E+01  0.7818608E-02  0.3391925E+00
         11   -1    0    0    0    0  0.00000000000E+00  0.00000000000E+00  0.39999999674E+01  0.40000000000E+01  0.51100000000E-03 0. -1.
    9000002   -1    0    0    0    0 -0.00000000000E+00 -0.00000000000E+00  0.00000000000E+00  0.93800000000E+00  0.93800000000E+00 0.  1.
         11    1    1    2    0    0 -0.90670970443E-01 -0.20689067199E+00  0.14456231865E+01  0.14631649372E+01  0.51100000000E-03 0. -1.
    9000002    1    1    2    0    0  0.16002193839E+00 -0.15583418665E-01  0.42979635503E-01  0.95264952253E+00  0.93800000000E+00 0.  1.
         22    1    1    2    0    0 -0.69350967943E-01  0.22247409065E+00  0.25113971454E+01  0.25221855403E+01  0.00000000000E+00 0. -1.
</event>
<event>
 5    1  0.1166492E+001  0.1487344E+01  0.7818608E-02  0.3485512E+00
         11   -1    0    0    0    0  0.00000000000E+00  0.00000000000E+00  0.39999999674E+01  0.40000000000E+01  0.51100000000E-03 0. -1.
    9000002   -1    0    0    0    0 -0.00000000000E+00 -0.00000000000E+00  0.00000000000E+00  0.93800000000E+00  0.93800000000E+00 0. -1.
         11    1    1    2    0    0  0.12404040459E+00 -0.35063378155E+00  0.57884767314E+00  0.68803703429E+00  0.51100000000E-03 0. -1.
    9000002    1    1    2    0    0  0.15157270461E+00 -0.51299055834E-01  0.17509753822E+00  0.96752727393E+00  0.93800000000E+00 0. -1.
         22    1    1    2    0    0 -0.27561310920E+00  0.40193283738E+00  0.32460547560E+01  0.32824356918E+01  0.00000000000E+00 0. -1.
</event>
<event>
 5    1  0.1166492E+001  0.1560268E+01  0.7818608E-02  0.3397650E+00
         11   -1    0    0    0    0  0.00000000000E+00  0.00000000000E+00  0.39999999674E+01  0.40000000000E+01  0.51100000000E-03 0.  1.
    9000002   -1    0    0    0    0 -0.00000000000E+00 -0.00000000000E+00  0.00000000000E+00  0.93800000000E+00  0.93800000000E+00 0.  1.
         11    1    1    2    0    0  0.27174745901E+00  0.25405346843E+00  0.13500802940E+01  0.14003952684E+01  0.51100000000E-03 0.  1.
    9000002    1    1    2    0    0 -0.48242210017E+00 -0.13044923225E+00  0.20735949716E+00  0.10828619700E+01  0.93800000000E+00 0. -1.
         22    1    1    2    0    0  0.21067464116E+00 -0.12360423618E+00  0.24425601762E+01  0.24547427617E+01  0.00000000000E+00 0.  1.
</event>
<event>
 5    1  0.1166492E+001  0.1575811E+01  0.7818608E-02  0.3380043E+00
         11   -1    0    0    0    0  0.00000000000E+00  0.00000000000E+00  0.39999999674E+01  0.40000000000E+01  0.51100000000E-03 0. -1.
    9000002   -1    0    0    0    0 -0.00000000000E+00 -0.00000000000E+00  0.00000000000E+00  0.93800000000E+00  0.93800000000E+00 0. -1.
         11    1    1    2    0    0 -0.11096725696E+00  0.89016900539E-01  0.96310865067E+00  0.97355856260E+00  0.51100000000E-03 0. -1.
    9000002    1    1    2    0    0  0.13568293549E+00  0.20694175263E+00  0.59114964781E-01  0.97189162309E+00  0.93800000000E+00 0. -1.
         22    1    1    2    0    0 -0.24715678532E-01 -0.29595865317E+00  0.29777763519E+01  0.29925498143E+01  0.00000000000E+00 0. -1.
</event>
<event>
 5    1  0.1166492E+001  0.1516395E+01  0.7818608E-02  0.3449424E+00
         11   -1    0    0    0    0  0.00000000000E+00  0.00000000000E+00  0.39999999674E+01  0.40000000000E+01  0.51100000000E-03 0. -1.
    9000002   -1    0    0    0    0 -0.00000000000E+00 -0.00000000000E+00  0.00000000000E+00  0.93800000000E+00  0.93800000000E+00 0. -1.
         11    1    1    2    0    0 -0.17215544368E+00  0.17464560838E+00  0.90585741813E+00  0.93846497452E+00  0.51100000000E-03 0. -1.
    9000002    1    1    2    0    0  0.41084643800E+00  0.47170375108E+00  0.36545463759E+00  0.11852005385E+01  0.93800000000E+00 0. -1.
         22    1    1    2    0    0 -0.23869099431E+00 -0.64634935946E+00  0.27286879116E+01  0.28143344869E+01  0.00000000000E+00 0. -1.
</event>
<event>
 5    1  0.1166492E+001  0.1555254E+01  0.7818608E-02  0.3403409E+00
         11   -1    0    0    0    0  0.00000000000E+00  0.00000000000E+00  0.39999999674E+01  0.40000000000E+01  0.51100000000E-03 0. -1.
    9000002   -1    0    0    0    0 -0.00000000000E+00 -0.00000000000E+00  0.00000000000E+00  0.93800000000E+00  0.93800000000E+00 0. -1.
         11    1    1    2    0    0 -0.76829025451E-01  0.82753662592E-01  0.29915032205E+00  0.31975309870E+00  0.51100000000E-03 0. -1.
    9000002    1    1    2    0    0 -0.13320258827E+00  0.28473595558E+00  0.10191750014E+00  0.99450926127E+00  0.93800000000E+00 0. -1.
         22    1    1    2    0    0  0.21003161372E+00 -0.36748961817E+00  0.35989321452E+01  0.36237376400E+01  0.00000000000E+00 0. -1.
</event>
<event>
 5    1  0.1166492E+001  0.1505989E+01  0.7818608E-02  0.3462178E+00
         11   -1    0    0    0    0  0.00000000000E+00  0.00000000000E+00  0.39999999674E+01  0.40000000000E+01  0.51100000000E-03 0. -1.
    9000002   -1    0    0    0    0 -0.00000000000E+00 -0.00000000000E+00  0.00000000000E+00  0.93800000000E+00  0.93800000000E+00 0. -1.
         11    1    1    2    0    0  0.50071821083E-01 -0.38444067750E+00  0.94425116655E+00  0.10207410781E+01  0.51100000000E-03 0. -1.
    9000002    1    1    2    0    0 -0.63447948515E+00  0.29513073917E+00  0.46392247126E+00  0.12588623553E+01  0.93800000000E+00 0. -1.
         22    1    1    2    0    0  0.58440766407E+00  0.89309938331E-01  0.25918263295E+01  0.26583965666E+01  0.00000000000E+00 0. -1.
</event>
<event>
 5    1  0.1166492E+001  0.1543759E+01  0.7818608E-02  0.3416762E+00
         11   -1    0    0    0    0  0.00000000000E+00  0.00000000000E+00  0.39999999674E+01  0.40000000000E+01  0.51100000000E-03 0.  1.
    9000002   -1    0    0    0    0 -0.00000000000E+00 -0.00000000000E+00  0.00000000000E+00  0.93800000000E+00  0.93800000000E+00 0.  1.
         11    1    1    2    0    0  0.14932205182E+00  0.26375121909E+00  0.14528803252E+01  0.14841574314E+01  0.51100000000E-03 0.  1.
    9000002    1    1    2    0    0 -0.98346888285E-01 -0.36112216160E-01  0.49263887944E-01  0.94511752351E+00  0.93800000000E+00 0.  1.
         22    1    1    2    0    0 -0.50975163532E-01 -0.22763900293E+00  0.24978557542E+01  0.25087250451E+01  0.00000000000E+00 0.  1.
</event>
<event>
 5    1  0.1166492E+001  0.1598878E+01  0.7818608E-02  0.3354582E+00
         11   -1    0    0    0    0  0.00000000000E+00  0.00000000000E+00  0.39999999674E+01  0.40000000000E+01  0.51100000000E-03 0. -1.
    9000002   -1    0    0    0    0 -0.00000000000E+00 -0.00000000000E+00  0.00000000000E+00  0.93800000000E+00  0.93800000000E+00 0.  1.
         11    1    1    2    0    0 -0.58401453184E-01 -0.40570238708E-01  0.28790129778E+00  0.29655369225E+00  0.51100000000E-03 0. -1.
    9000002    1    1    2    0    0  0.50498967127E+00  0.48835871986E+00  0.35383519478E+00  0.12241536474E+01  0.93800000000E+00 0.  1.
         22    1    1    2    0    0 -0.44658821809E+00 -0.44778848115E+00  0.33582634748E+01  0.34172926604E+01  0.00000000000E+00 0. -1.
</event>
<event>
 5    1  0.1166492E+001  0.1527255E+01  0.7818608E-02  0.3436311E+00
         11   -1    0    0    0    0  0.00000000000E+00  0.00000000000E+00  0.39999999674E+01  0.40000000000E+01  0.51100000000E-03 0. -1.
    9000002   -1    0    0    0    0 -0.00000000000E+00 -0.00000000000E+00  0.00000000000E+00  0.93800000000E+00  0.93800000000E+00 0.  1.
         11    1    1    2    0    0 -0.29221915000E+00 -0.71052786321E-01  0.11312790005E+01  0.11705695059E+01  0.51100000000E-03 0. -1.
    9000002    1    1    2    0    0  0.28739530396E-01 -0.15913823427E-01  0.55131119714E-01  0.94019287954E+00  0.93800000000E+00 0.  1.
         22    1    1    2    0    0  0.26347961960E+00  0.86966609748E-01  0.28135898471E+01  0.28272376145E+01  0.00000000000E+00 0. -1.
</event>
<event>
 5    1  0.1166492E+001  0.1508671E+01  0.7818608E-02  0.3458873E+00
         11   -1    0    0    0    0  0.00000000000E+00  0.00000000000E+00  0.39999999674E+01  0.40000000000E+01  0.51100000000E-03 0. -1.
    9000002   -1    0    0    0    0 -0.00000000000E+00 -0.00000000000E+00  0.00000000000E+00  0.93800000000E+00  0.93800000000E+00 0. -1.
         11    1    1    2    0    0  0.31487574749E+00 -0.20590184570E-01  0.95693476435E+00  0.10076185272E+01  0.51100000000E-03 0. -1.
    9000002    1    1    2    0    0 -0.81635962613E-02  0.19409472544E+00  0.96426593962E-01  0.96274684875E+00  0.93800000000E+00 0. -1.
         22    1    1    2    0    0 -0.30671215123E+00 -0.17350454087E+00  0.29466386090E+01  0.29676346240E+01  0.00000000000E+00 0. -1.
</event>
<event>
 5    1  0.1166492E+001  0.1544573E+01  0.7818608E-02  0.3415810E+00
         11   -1    0    0    0    0  0.00000000000E+00  0.00000000000E+00  0.39999999674E+01  0.40000000000E+01  0.51100000000E-03 0.  1.
    9000002   -1    0    0    0    0 -0.00000000000E+00 -0.00000000000E+00  0.00000000000E+00  0.93800000000E+00  0.93800000000E+00 0.  1.
         11    1    1    2    0    0 -0.60203775132E-01 -0.27407822940E+00  0.13219003190E+01  0.13513563871E+01  0.51100000000E-03 0.  1.
    9000002    1    1    2    0    0  0.12024397966E-01  0.39383347071E-01  0.42172264078E-01  0.93985005933E+00  0.93800000000E+00 0.  1.
         22    1    1    2    0    0  0.48179377167E-01  0.23469488233E+00  0.26359273843E+01  0.26467935536E+01  0.00000000000E+00 0.  1.
</event>
<event>
 5    1  0.1166492E+001  0.1589692E+01  0.7818608E-02  0.3364628E+00
         11   -1    0    0    0    0  0.00000000000E+00  0.00000000000E+00  0.39999999674E+01  0.40000000000E+01  0.51100000000E-03 0.  1.
    9000002   -1    0    0    0    0 -0.00000000000E+00 -0.00000000000E+00  0.00000000000E+00  0.93800000000E+00  0.93800000000E+00 0. -1.
         11    1    1    2    0    0 -0.32755901082E-02  0.13101237655E-01  0.14024868637E+01  0.14025519726E+01  0.51100000000E-03 0.  1.
    9000002    1    1    2    0    0 -0.28436592851E+00 -0.17085162072E+00  0.81644264752E-01  0.99828054352E+00  0.93800000000E+00 0. -1.
         22    1    1    2    0    0  0.28764151862E+00  0.15775038306E+00  0.25158688389E+01  0.25371674839E+01  0.00000000000E+00 0.  1.
</event>
<event>
 5    1  0.1166492E+001  0.1564382E+01  0.7818608E-02  0.3392953E+00
         11   -1    0    0    0    0  0.00000000000E+00  0.00000000000E+00  0.39999999674E+01  0.40000000000E+01  0.51100000000E-03 0. -1.
    9000002   -1    0    0    0    0 -0.00000000000E+00 -0.00000000000E+00  0.00000000000E+00  0.93800000000E+00  0.93800000000E+00 0.  1.
         11    1    1    2    0    0 -0.14005101087E+00 -0.15955722399E+00  0.11761364534E+01  0.11951443476E+01  0.51100000000E-03 0. -1.
    9000002    1    1    2    0    0  0.20118949950E+00 -0.10546821160E+00  0.61432350625E-01  0.96706705666E+00  0.93800000000E+00 0.  1.
         22    1    1    2    0    0 -0.61138488638E-01  0.26502543559E+00  0.27624311633E+01  0.27757885957E+01  0.00000000000E+00 0. -1.
</event>
<event>
 5    1  0.1166492E+001  0.1111724E+01  0.7818608E-02  0.4220446E+00
         11   -1    0    0    0    0  0.00000000000E+00  0.00000000000E+00  0.39999999674E+01  0.40000000000E+01  0.51100000000E-03 0.  1.
    9000002   -1    0    0    0    0 -0.00000000000E+00 -0.00000000000E+00  0.00000000000E+00  0.93800000000E+00  0.93800000000E+00 0.  1.
         11    1    1    2    0    0  0.26323523688E+00 -0.14512689583E+00 -0.12103781977E+00  0.32404478204E+00  0.51100000000E-03 0.  1.
    9000002    1    1    2    0    0  0.86520732817E-01  0.30549901019E+00  0.80646396761E+00  0.12771231787E+01  0.93800000000E+00 0.  1.
         22    1    1    2    0    0 -0.34975596970E+00 -0.16037211436E+00  0.33145738195E+01  0.33368320393E+01  0.00000000000E+00 0.  1.
</event>
<event>
 5    1  0.1166492E+001  0.1596601E+01  0.7818608E-02  0.3357061E+00
         11   -1    0    0    0    0  0.00000000000E+00  0.00000000000E+00  0.39999999674E+01  0.40000000000E+01  0.51100000000E-03 0.  1.
    9000002   -1    0    0    0    0 -0.00000000000E+00 -0.00000000000E+00  0.00000000000E+00  0.93800000000E+00  0.93800000000E+00 0.  1.
         11    1    1    2    0    0  0.65558461670E-01  0.17323623522E+00  0.11527743783E+01  0.11675605909E+01  0.51100000000E-03 0.  1.
    9000002    1    1    2    0    0 -0.24379894089E+00 -0.37596754801E+00  0.13899245284E+00  0.10487861663E+01  0.93800000000E+00 0.  1.
         22    1    1    2    0    0  0.17824047923E+00  0.20273131279E+00  0.27082331362E+01  0.27216532428E+01  0.00000000000E+00 0.  1.
</event>
<event>
 5    1  0.1166492E+001  0.1523156E+01  0.7818608E-02  0.3441236E+00
         11   -1    0    0    0    0  0.00000000000E+00  0.00000000000E+00  0.39999999674E+01  0.40000000000E+01  0.51100000000E-03 0.  1.
    9000002   -1    0    0    0    0 -0.00000000000E+00 -0.00000000000E+00  0.00000000000E+00  0.93800000000E+00  0.93800000000E+00 0.  1.
         11    1    1    2    0    0  0.72173664951E-01 -0.31202511418E+00  0.10241865838E+01  0.10730923210E+01  0.51100000000E-03 0.  1.
    9000002    1    1    2    0    0  0.15886174195E+00  0.15391446840E+00  0.92635228006E-01  0.96816940775E+00  0.93800000000E+00 0.  1.
         22    1    1    2    0    0 -0.23103540690E+00  0.15811064578E+00  0.28831781556E+01  0.28967382713E+01  0.00000000000E+00 0.  1.
</event>
<event>
 5    1  0.1166492E+001  0.1533059E+01  0.7818608E-02  0.3429385E+00
         11   -1    0    0    0    0  0.00000000000E+00  0.00000000000E+00  0.39999999674E+01  0.40000000000E+01  0.51100000000E-03 0.  1.
    9000002   -1    0    0    0    0 -0.00000000000E+00 -0.00000000000E+00  0.00000000000E+00  0.93800000000E+00  0.93800000000E+00 0. -1.
         11    1    1    2    0    0 -0.24451509148E+00  0.13664518943E+00  0.10324751622E+01  0.10697965972E+01  0.51100000000E-03 0.  1.
    9000002    1    1    2    0    0  0.72590377797E-01  0.73526390409E-01  0.57377890099E-01  0.94541615985E+00  0.93800000000E+00 0. -1.
         22    1    1    2    0    0  0.17192471368E+00 -0.21017157984E+00  0.29101469151E+01  0.29227872430E+01  0.00000000000E+00 0.  1.
</event>
<event>
 5    1  0.1166492E+001  0.1598069E+01  0.7818608E-02  0.3355462E+00
         11   -1    0    0    0    0  0.00000000000E+00  0.00000000000E+00  0.39999999674E+01  0.40000000000E+01  0.51100000000E-03 0.  1.
    9000002   -1    0    0    0    0 -0.00000000000E+00 -0.00000000000E+00  0.00000000000E+00  0.93800000000E+00  0.93800000000E+00 0. -1.
         11    1    1    2    0    0  0.67241813221E-01  0.88216409182E-02  0.24768716803E+00  0.25680435573E+00  0.51100000000E-03 0.  1.
    9000002    1    1    2    0    0 -0.65969208281E+00  0.29841717061E-02  0.30953737630E+00  0.11877962522E+01  0.93800000000E+00 0. -1.
         22    1    1    2    0    0  0.59245026959E+00 -0.11805812624E-01  0.34427754230E+01  0.34933993921E+01  0.00000000000E+00 0.  1.
</event>
<event>
 5    1  0.1166492E+001  0.1510887E+01  0.7818608E-02  0.3456151E+00
         11   -1    0    0    0    0  0.00000000000E+00  0.00000000000E+00  0.39999999674E+01  0.40000000000E+01  0.51100000000E-03 0. -1.
    9000002   -1    0    0    0    0 -0.00000000000E+00 -0.00000000000E+00  0.00000000000E+00  0.93800000000E+00  0.93800000000E+00 0.  1.
         11    1    1    2    0    0  0.27231877142E+00  0.19183953117E-01  0.68536222545E+00  0.73773110177E+00  0.51100000000E-03 0. -1.
    9000002    1    1    2    0    0  0.32917548380E-02  0.95441221910E-01  0.73820652056E-01  0.94573429205E+00  0.93800000000E+00 0.  1.
         22    1    1    2    0    0 -0.27561052626E+00 -0.11462517503E+00  0.32408170899E+01  0.32545346062E+01  0.00000000000E+00 0. -1.
</event>
<event>
 5    1  0.1166492E+001  0.1519474E+01  0.7818608E-02  0.3445685E+00
         11   -1    0    0    0    0  0.00000000000E+00  0.00000000000E+00  0.39999999674E+01  0.40000000000E+01  0.51100000000E-03 0.  1.
    9000002   -1    0    0    0    0 -0.00000000000E+00 -0.00000000000E+00  0.00000000000E+00  0.93800000000E+00  0.93800000000E+00 0. -1.
         11    1    1    2    0    0 -0.19092364541E+00 -0.26244483238E+00  0.12318165035E+01  0.12738529302E+01  0.51100000000E-03 0.  1.
    9000002    1    1    2    0    0  0.60834741236E-01 -0.12006070213E-01  0.63203912423E-01  0.94216970128E+00  0.93800000000E+00 0. -1.
         22    1    1    2    0    0  0.13008890417E+00  0.27445090259E+00  0.27049795515E+01  0.27219773685E+01  0.00000000000E+00 0.  1.
</event>
<event>
 5    1  0.1166492E+001  0.1061864E+01  0.7818608E-02  0.4371170E+00
         11   -1    0    0    0    0  0.00000000000E+00  0.00000000000E+00  0.39999999674E+01  0.40000000000E+01  0.51100000000E-03 0. -1.
    9000002   -1    0    0    0    0 -0.00000000000E+00 -0.00000000000E+00  0.00000000000E+00  0.93800000000E+00  0.93800000000E+00 0.  1.
         11    1    1    2    0    0  0.81636029379E+00 -0.40393837489E+00  0.59393716334E+00  0.10873692818E+01  0.51100000000E-03 0. -1.
    9000002    1    1    2    0    0 -0.48396143474E+00 -0.11420708334E+00  0.14307464115E+01  0.17816119730E+01  0.93800000000E+00 0.  1.
         22    1    1    2    0    0 -0.33239885905E+00  0.51814545823E+00  0.19753163925E+01  0.20690187452E+01  0.00000000000E+00 0.  1.
</event>
<event>
 5    1  0.1166492E+001  0.1516547E+01  0.7818608E-02  0.3449239E+00
         11   -1    0    0    0    0  0.00000000000E+00  0.00000000000E+00  0.39999999674E+01  0.40000000000E+01  0.51100000000E-03 0. -1.
    9000002   -1    0    0    0    0 -0.00000000000E+00 -0.00000000000E+00  0.00000000000E+00  0.93800000000E+00  0.93800000000E+00 0.  1.
         11    1    1    2    0    0 -0.15178182657E+00  0.23365027665E+00  0.13657966658E+01  0.13939264572E+01  0.51100000000E-03 0. -1.
    9000002    1    1    2    0    0 -0.15011223215E+00  0.76087594545E-01  0.83133677432E-01  0.95659720500E+00  0.93800000000E+00 0.  1.
         22    1    1    2    0    0  0.30189405872E+00 -0.30973787119E+00  0.25510696241E+01  0.25874763378E+01  0.00000000000E+00 0. -1.
</event>
<event>
 5    1  0.1166492E+001  0.1493190E+01  0.7818608E-02  0.3478129E+00
         11   -1    0    0    0    0  0.00000000000E+00  0.00000000000E+00  0.39999999674E+01  0.40000000000E+01  0.51100000000E-03 0. -1.
    9000002   -1    0    0    0    0 -0.00000000000E+00 -0.00000000000E+00  0.00000000000E+00  0.93800000000E+00  0.93800000000E+00 0. -1.
         11    1    1    2    0    0  0.28220348887E+00 -0.28810637436E+00  0.58537491879E+00  0.71085029982E+00  0.51100000000E-03 0. -1.
    9000002    1    1    2    0    0  0.48187334627E-01  0.96758895218E-01  0.16908291097E+00  0.95922746719E+00  0.93800000000E+00 0. -1.
         22    1    1    2    0    0 -0.33039082350E+00  0.19134747914E+00  0.32455421376E+01  0.32679222330E+01  0.00000000000E+00 0. -1.
</event>
<event>
 5    1  0.1166492E+001  0.1548848E+01  0.7818608E-02  0.3410825E+00
         11   -1    0    0    0    0  0.00000000000E+00  0.00000000000E+00  0.39999999674E+01  0.40000000000E+01  0.51100000000E-03 0. -1.
    9000002   -1    0    0    0    0 -0.00000000000E+00 -0.00000000000E+00  0.00000000000E+00  0.93800000000E+00  0.93800000000E+00 0. -1.
         11    1    1    2    0    0  0.11909283562E+00  0.19317049024E+00  0.10132073057E+01  0.10383098031E+01  0.51100000000E-03 0. -1.
    9000002    1    1    2    0    0  0.86622223223E-01 -0.98211973492E-02  0.42994926467E-01  0.94302302685E+00  0.93800000000E+00 0. -1.
         22    1    1    2    0    0 -0.20571505884E+00 -0.18334929289E+00  0.29437977352E+01  0.29566671700E+01  0.00000000000E+00 0. -1.
</event>
<event>
 5    1  0.1166492E+001  0.1583262E+01  0.7818608E-02  0.3371733E+00
         11   -1    0    0    0    0  0.00000000000E+00  0.00000000000E+00  0.39999999674E+01  0.40000000000E+01  0.51100000000E-03 0.  1.
    9000002   -1    0    0    0    0 -0.00000000000E+00 -0.00000000000E+00  0.00000000000E+00  0.93800000000E+00  0.93800000000E+00 0.  1.
         11    1    1    2    0    0 -0.69021887403E-01 -0.49970742008E+00  0.71153273821E+00  0.87221019559E+00  0.51100000000E-03 0.  1.
    9000002    1    1    2    0    0  0.18295048592E+00 -0.10759481069E+00  0.29024090265E+00  0.10045552773E+01  0.93800000000E+00 0.  1.
         22    1    1    2    0    0 -0.11392859852E+00  0.60730223077E+00  0.29982263265E+01  0.30612345271E+01  0.00000000000E+00 0.  1.
</event>
<event>
 5    1  0.1166492E+001  0.1577146E+01  0.7818608E-02  0.3378549E+00
         11   -1    0    0    0    0  0.00000000000E+00  0.00000000000E+00  0.39999999674E+01  0.40000000000E+01  0.51100000000E-03 0.  1.
    9000002   -1    0    0    0    0 -0.00000000000E+00 -0.00000000000E+00  0.00000000000E+00  0.93800000000E+00  0.93800000000E+00 0.  1.
         11    1    1    2    0    0 -0.77571935966E-02  0.85098014383E-01  0.50065759899E+00  0.50789776398E+00  0.51100000000E-03 0.  1.
    9000002    1    1    2    0    0  0.87283243819E-01  0.27760536502E+00  0.74212081247E-01  0.98490331320E+00  0.93800000000E+00 0.  1.
         22    1    1    2    0    0 -0.79526050222E-01 -0.36270337940E+00  0.34251302871E+01  0.34451989228E+01  0.00000000000E+00 0.  1.
</event>
<event>
 5    1  0.1166492E+001  0.1556930E+01  0.7818608E-02  0.3401480E+00
         11   -1    0    0    0    0  0.00000000000E+00  0.00000000000E+00  0.39999999674E+01  0.40000000000E+01  0.51100000000E-03 0. -1.
    9000002   -1    0    0    0    0 -0.00000000000E+00 -0.00000000000E+00  0.00000000000E+00  0.93800000000E+00  0.93800000000E+00 0. -1.
         11    1    1    2    0    0  0.19265015506E+00 -0.10550342173E+00  0.44113428843E+00  0.49279283253E+00  0.51100000000E-03 0. -1.
    9000002    1    1    2    0    0 -0.31412063702E+00  0.42020754144E+00  0.22973640880E+00  0.10990309231E+01  0.93800000000E+00 0. -1.
         22    1    1    2    0    0  0.12147048196E+00 -0.31470411971E+00  0.33291292701E+01  0.33461762443E+01  0.00000000000E+00 0. -1.
</event>
<event>
 5    1  0.1166492E+001  0.1451122E+01  0.7818608E-02  0.3532702E+00
         11   -1    0    0    0    0  0.00000000000E+00  0.00000000000E+00  0.39999999674E+01  0.40000000000E+01  0.51100000000E-03 0. -1.
    9000002   -1    0    0    0    0 -0.00000000000E+00 -0.00000000000E+00  0.00000000000E+00  0.93800000000E+00  0.93800000000E+00 0.  1.
         11    1    1    2    0    0 -0.13590140432E+00 -0.32154680373E+00  0.73162731744E+00  0.81064192554E+00  0.51100000000E-03 0. -1.
    9000002    1    1    2    0    0 -0.85478304660E-01 -0.69722385224E-01  0.12581400263E+00  0.95280686124E+00  0.93800000000E+00 0.  1.
         22    1    1    2    0    0  0.22137970898E+00  0.39126918895E+00  0.31425586473E+01  0.31745512132E+01  0.00000000000E+00 0. -1.
</event>
<event>
 5    1  0.1166492E+001  0.1595938E+01  0.7818608E-02  0.3357784E+00
         11   -1    0    0    0    0  0.00000000000E+00  0.00000000000E+00  0.39999999674E+01  0.40000000000E+01  0.51100000000E-03 0. -1.
    9000002   -1    0    0    0    0 -0.00000000000E+00 -0.00000000000E+00  0.00000000000E+00  0.93800000000E+00  0.93800000000E+00 0. -1.
         11    1    1    2    0    0 -0.54405333969E-01  0.31674265913E-01  0.13592223962E+01  0.13606796033E+01  0.51100000000E-03 0. -1.
    9000002    1    1    2    0    0  0.88477867823E-01 -0.28255357227E+00  0.61387048130E-01  0.98553397911E+00  0.93800000000E+00 0. -1.
         22    1    1    2    0    0 -0.34072533854E-01  0.25087930636E+00  0.25793905230E+01  0.25917864176E+01  0.00000000000E+00 0. -1.
</event>
<event>
 5    1  0.1166492E+001  0.1590295E+01  0.7818608E-02  0.3363964E+00
         11   -1    0    0    0    0  0.00000000000E+00  0.00000000000E+00  0.39999999674E+01  0.40000000000E+01  0.51100000000E-03 0.  1.
    9000002   -1    0    0    0    0 -0.00000000000E+00 -0.00000000000E+00  0.00000000000E+00  0.93800000000E+00  0.93800000000E+00 0. -1.
         11    1    1    2    0    0 -0.10027914424E+00  0.25440764185E-01  0.14556229311E+01  0.14592948702E+01  0.51100000000E-03 0.  1.
    9000002    1    1    2    0    0  0.18976190469E+00  0.22446236585E+00  0.64957610280E-01  0.98511746776E+00  0.93800000000E+00 0. -1.
         22    1    1    2    0    0 -0.89482760445E-01 -0.24990313003E+00  0.24794194259E+01  0.24935876621E+01  0.00000000000E+00 0.  1.
</event>
<event>
 5    1  0.1166492E+001  0.1452761E+01  0.7818608E-02  0.3530512E+00
         11   -1    0    0    0    0  0.00000000000E+00  0.00000000000E+00  0.39999999674E+01  0.40000000000E+01  0.51100000000E-03 0.  1.
    9000002   -1    0    0    0    0 -0.00000000000E+00 -0.00000000000E+00  0.00000000000E+00  0.93800000000E+00  0.93800000000E+00 0.  1.
         11    1    1    2    0    0  0.41302874879E+00 -0.17507503807E+00  0.12164649241E+01  0.12965458684E+01  0.51100000000E-03 0.  1.
    9000002    1    1    2    0    0 -0.71900062410E-01 -0.18571969911E-01  0.11926571357E+00  0.94846341388E+00  0.93800000000E+00 0.  1.
         22    1    1    2    0    0 -0.34112868638E+00  0.19364700798E+00  0.26642693297E+01  0.26929907177E+01  0.00000000000E+00 0. -1.
</event>
<event>
 5    1  0.1166492E+001  0.1548805E+01  0.7818608E-02  0.3410874E+00
         11   -1    0    0    0    0  0.00000000000E+00  0.00000000000E+00  0.39999999674E+01  0.40000000000E+01  0.51100000000E-03 0. -1.
    9000002   -1    0    0    0    0 -0.00000000000E+00 -0.00000000000E+00  0.00000000000E+00  0.93800000000E+00  0.93800000000E+00 0.  1.
         11    1    1    2    0    0 -0.16973545926E-01 -0.28014825120E+00  0.12220417787E+01  0.12538570548E+01  0.51100000000E-03 0. -1.
    9000002    1    1    2    0    0  0.21461016235E+00  0.10631133848E+00  0.77830169412E-01  0.97121632901E+00  0.93800000000E+00 0.  1.
         22    1    1    2    0    0 -0.19763661642E+00  0.17383691272E+00  0.27001280193E+01  0.27129266162E+01  0.00000000000E+00 0. -1.
</event>
<event>
 5    1  0.1166492E+001  0.1491876E+01  0.7818608E-02  0.3479782E+00
         11   -1    0    0    0    0  0.00000000000E+00  0.00000000000E+00  0.39999999674E+01  0.40000000000E+01  0.51100000000E-03 0.  1.
    9000002   -1    0    0    0    0 -0.00000000000E+00 -0.00000000000E+00  0.00000000000E+00  0.93800000000E+00  0.93800000000E+00 0. -1.
         11    1    1    2    0    0 -0.31818576437E+00 -0.38508187885E+00  0.88089201821E+00  0.10126703526E+01  0.51100000000E-03 0.  1.
    9000002    1    1    2    0    0 -0.15921071326E+00  0.37564504475E+00  0.29986428991E+00  0.10659361347E+01  0.93800000000E+00 0. -1.
         22    1    1    2    0    0  0.47739647763E+00  0.94368340965E-02  0.28192436592E+01  0.28593935128E+01  0.00000000000E+00 0.  1.
</event>
<event>
 5    1  0.1166492E+001  0.1510049E+01  0.7818608E-02  0.3457179E+00
         11   -1    0    0    0    0  0.00000000000E+00  0.00000000000E+00  0.39999999674E+01  0.40000000000E+01  0.51100000000E-03 0. -1.
    9000002   -1    0    0    0    0 -0.00000000000E+00 -0.00000000000E+00  0.00000000000E+00  0.93800000000E+00  0.93800000000E+00 0. -1.
         11    1    1    2    0    0 -0.28308384168E+00 -0.19743589177E+00  0.13917045818E+01  0.14338616728E+01  0.51100000000E-03 0. -1.
    9000002    1    1    2    0    0  0.15072481408E+00 -0.17140591750E+00  0.10580561981E+00  0.97115229872E+00  0.93800000000E+00 0. -1.
         22    1    1    2    0    0  0.13235902760E+00  0.36884180926E+00  0.25024897658E+01  0.25329860285E+01  0.00000000000E+00 0. -1.
</event>
<event>
 5    1  0.1166492E+001  0.1524054E+01  0.7818608E-02  0.3440155E+00
         11   -1    0    0    0    0  0.00000000000E+00  0.00000000000E+00  0.39999999674E+01  0.40000000000E+01  0.51100000000E-03 0. -1.
    9000002   -1    0    0    0    0 -0.00000000000E+00 -0.00000000000E+00  0.00000000000E+00  0.93800000000E+00  0.93800000000E+00 0. -1.
         11    1    1    2    0    0 -0.25894577900E+00 -0.19801646050E+00  0.12095435056E+01  0.12527007576E+01  0.51100000000E-03 0. -1.
    9000002    1    1    2    0    0  0.11410645658E+00 -0.36690804375E-01  0.67091091159E-01  0.94800406807E+00  0.93800000000E+00 0. -1.
         22    1    1    2    0    0  0.14483932243E+00  0.23470726487E+00  0.27233653706E+01  0.27372951743E+01  0.00000000000E+00 0. -1.
</event>
<event>
 5    1  0.1166492E+001  0.1587138E+01  0.7818608E-02  0.3367443E+00
         11   -1    0    0    0    0  0.00000000000E+00  0.00000000000E+00  0.39999999674E+01  0.40000000000E+01  0.51100000000E-03 0. -1.
    9000002   -1    0    0    0    0 -0.00000000000E+00 -0.00000000000E+00  0.00000000000E+00  0.93800000000E+00  0.93800000000E+00 0. -1.
         11    1    1    2    0    0  0.32660398189E+00  0.40966200444E+00  0.57456199228E+00  0.77756984443E+00  0.51100000000E-03 0. -1.
    9000002    1    1    2    0    0 -0.79565256076E-01 -0.14635866374E+00  0.27808338772E+00  0.99243430964E+00  0.93800000000E+00 0. -1.
         22    1    1    2    0    0 -0.24703872582E+00 -0.26330334069E+00  0.31473545874E+01  0.31679958459E+01  0.00000000000E+00 0. -1.
</event>
<event>
 5    1  0.1166492E+001  0.1652081E+01  0.7818608E-02  0.3298707E+00
         11   -1    0    0    0    0  0.00000000000E+00  0.00000000000E+00  0.39999999674E+01  0.40000000000E+01  0.51100000000E-03 0.  1.
    9000002   -1    0    0    0    0 -0.00000000000E+00 -0.00000000000E+00  0.00000000000E+00  0.93800000000E+00  0.93800000000E+00 0.  1.
         11    1    1    2    0    0  0.43189035830E+00 -0.16412950561E-01  0.22952513733E+00  0.48936766988E+00  0.51100000000E-03 0.  1.
    9000002    1    1    2    0    0 -0.12202044311E+00 -0.11077834518E+00  0.35439454236E+00  0.10161694357E+01  0.93800000000E+00 0.  1.
         22    1    1    2    0    0 -0.30986991519E+00  0.12719129574E+00  0.34160802877E+01  0.34324628945E+01  0.00000000000E+00 0.  1.
</event>
<event>
 5    1  0.1166492E+001  0.1510271E+01  0.7818608E-02  0.3456907E+00
         11   -1    0    0    0    0  0.00000000000E+00  0.00000000000E+00  0.39999999674E+01  0.40000000000E+01  0.51100000000E-03 0. -1.
    9000002   -1    0    0    0    0 -0.00000000000E+00 -0.00000000000E+00  0.00000000000E+00  0.93800000000E+00  0.93800000000E+00 0. -1.
         11    1    1    2    0    0  0.33396722513E+00 -0.12795846662E+00  0.11170155136E+01  0.11728731369E+01  0.51100000000E-03 0. -1.
    9000002    1    1    2    0    0 -0.12621369522E+00 -0.22047448060E-01  0.79594809236E-01  0.95005016735E+00  0.93800000000E+00 0. -1.
         22    1    1    2    0    0 -0.20775352991E+00  0.15000591468E+00  0.28033896446E+01  0.28150766957E+01  0.00000000000E+00 0.  1.
</event>
<event>
 5    1  0.1166492E+001  0.1339341E+01  0.7818608E-02  0.3709329E+00
         11   -1    0    0    0    0  0.00000000000E+00  0.00000000000E+00  0.39999999674E+01  0.40000000000E+01  0.51100000000E-03 0. -1.
    9000002   -1    0    0    0    0 -0.00000000000E+00 -0.00000000000E+00  0.00000000000E+00  0.93800000000E+00  0.93800000000E+00 0.  1.
         11    1    1    2    0    0  0.45656350963E+00  0.19806507760E+00  0.14049689430E+01  0.14905093107E+01  0.51100000000E-03 0. -1.
    9000002    1    1    2    0    0 -0.29165072791E-01  0.51757947287E+00  0.48032980910E+00  0.11744359658E+01  0.93800000000E+00 0.  1.
         22    1    1    2    0    0 -0.42739843684E+00 -0.71564455047E+00  0.21147012153E+01  0.22730547236E+01  0.00000000000E+00 0. -1.
</event>
<event>
 5    1  0.1166492E+001  0.1587106E+01  0.7818608E-02  0.3367478E+00
         11   -1    0    0    0    0  0.00000000000E+00  0.00000000000E+00  0.39999999674E+01  0.40000000000E+01  0.51100000000E-03 0.  1.
    9000002   -1    0    0    0    0 -0.00000000000E+00 -0.00000000000E+00  0.00000000000E+00  0.93800000000E+00  0.93800000000E+00 0.  1.
         11    1    1    2    0    0 -0.35846802169E-01 -0.78951148232E-02  0.17201735490E+00  0.17589075465E+00  0.51100000000E-03 0.  1.
    9000002    1    1    2    0    0 -0.43214863851E+00 -0.76518505002E-02  0.13734165827E+00  0.10418818204E+01  0.93800000000E+00 0.  1.
         22    1    1    2    0    0  0.46799544068E+00  0.15546965323E-01  0.36906409542E+01  0.37202274250E+01  0.00000000000E+00 0.  1.
</event>
<event>
 5    1  0.1166492E+001  0.1483597E+01  0.7818608E-02  0.3490278E+00
         11   -1    0    0    0    0  0.00000000000E+00  0.00000000000E+00  0.39999999674E+01  0.40000000000E+01  0.51100000000E-03 0.  1.
    9000002   -1    0    0    0    0 -0.00000000000E+00 -0.00000000000E+00  0.00000000000E+00  0.93800000000E+00  0.93800000000E+00 0.  1.
         11    1    1    2    0    0 -0.31624516498E+00 -0.20952703097E+00  0.12617236485E+01  0.13175201734E+01  0.51100000000E-03 0.  1.
    9000002    1    1    2    0    0 -0.81599995553E-01  0.10767762947E+00  0.10284614131E+00  0.95324412400E+00  0.93800000000E+00 0.  1.
         22    1    1    2    0    0  0.39784516054E+00  0.10184940150E+00  0.26354301775E+01  0.26672357026E+01  0.00000000000E+00 0.  1.
</event>
<event>
 5    1  0.1166492E+001  0.1451951E+01  0.7818608E-02  0.3531594E+00
         11   -1    0    0    0    0  0.00000000000E+00  0.00000000000E+00  0.39999999674E+01  0.40000000000E+01  0.51100000000E-03 0. -1.
    9000002   -1    0    0    0    0 -0.00000000000E+00 -0.00000000000E+00  0.00000000000E+00  0.93800000000E+00  0.93800000000E+00 0.  1.
         11    1    1    2    0    0 -0.39791378000E+00 -0.26920813507E+00  0.13269934527E+01  0.14112832037E+01  0.51100000000E-03 0. -1.
    9000002    1    1    2    0    0  0.36549653905E-01  0.87692948106E-01  0.12995496983E+00  0.95171331005E+00  0.93800000000E+00 0.  1.
         22    1    1    2    0    0  0.36136412609E+00  0.18151518696E+00  0.25430515448E+01  0.25750034863E+01  0.00000000000E+00 0. -1.
</event>
<event>
 5    1  0.1166492E+001  0.1479138E+01  0.7818608E-02  0.3495983E+00
         11   -1    0    0    0    0  0.00000000000E+00  0.00000000000E+00  0.39999999674E+01  0.40000000000E+01  0.51100000000E-03 0.  1.
    9000002   -1    0    0    0    0 -0.00000000000E+00 -0.00000000000E+00  0.00000000000E+00  0.93800000000E+00  0.93800000000E+00 0.  1.
         11    1    1    2    0    0  0.47764452678E+00 -0.26593177333E+00  0.10654272201E+01  0.11974971501E+01  0.51100000000E-03 0.  1.
    9000002    1    1    2    0    0 -0.21635260640E+00  0.15975799878E+00  0.20588532079E+00  0.99727821283E+00  0.93800000000E+00 0.  1.
         22    1    1    2    0    0 -0.26129192038E+00  0.10617377455E+00  0.27286874265E+01  0.27432246371E+01  0.00000000000E+00 0. -1.
</event>
<event>
 5    1  0.1166492E+001  0.1545225E+01  0.7818608E-02  0.3415048E+00
         11   -1    0    0    0    0  0.00000000000E+00  0.00000000000E+00  0.39999999674E+01  0.40000000000E+01  0.51100000000E-03 0. -1.
    9000002   -1    0    0    0    0 -0.00000000000E+00 -0.00000000000E+00  0.00000000000E+00  0.93800000000E+00  0.93800000000E+00 0.  1.
         11    1    1    2    0    0  0.17506306608E+00  0.24896501299E+00  0.13457226014E+01  0.13797102000E+01  0.51100000000E-03 0. -1.
    9000002    1    1    2    0    0  0.52176449089E-01 -0.18784606774E+00  0.67056949778E-01  0.96039010903E+00  0.93800000000E+00 0.  1.
         22    1    1    2    0    0 -0.22723951517E+00 -0.61118945245E-01  0.25872204162E+01  0.25978996910E+01  0.00000000000E+00 0. -1.
</event>
<event>
 5    1  0.1166492E+001  0.1374462E+01  0.7818608E-02  0.3648702E+00
         11   -1    0    0    0    0  0.00000000000E+00  0.00000000000E+00  0.39999999674E+01  0.40000000000E+01  0.51100000000E-03 0. -1.
    9000002   -1    0    0    0    0 -0.00000000000E+00 -0.00000000000E+00  0.00000000000E+00  0.93800000000E+00  0.93800000000E+00 0.  1.
         11    1    1    2    0    0  0.65916041791E+00 -0.33110241070E+00  0.12467990018E+01  0.14486646523E+01  0.51100000000E-03 0. -1.
    9000002    1    1    2    0    0 -0.48077400092E+00  0.18456926457E+00  0.42766238813E+00  0.11523665092E+01  0.93800000000E+00 0.  1.
         22    1    1    2    0    0 -0.17838641699E+00  0.14653314614E+00  0.23255385774E+01  0.23369688384E+01  0.00000000000E+00 0. -1.
</event>
<event>
 5    1  0.1166492E+001  0.1579781E+01  0.7818608E-02  0.3375605E+00
         11   -1    0    0    0    0  0.00000000000E+00  0.00000000000E+00  0.39999999674E+01  0.40000000000E+01  0.51100000000E-03 0. -1.
    9000002   -1    0    0    0    0 -0.00000000000E+00 -0.00000000000E+00  0.00000000000E+00  0.93800000000E+00  0.93800000000E+00 0. -1.
         11    1    1    2    0    0 -0.27495320653E+00 -0.44278725353E+00  0.54595603155E+00  0.75480333013E+00  0.51100000000E-03 0. -1.
    9000002    1    1    2    0    0  0.10178764614E+00  0.20686770147E+00  0.29405704599E+00  0.10096873363E+01  0.93800000000E+00 0. -1.
         22    1    1    2    0    0  0.17316556040E+00  0.23591955206E+00  0.31599868898E+01  0.31735093336E+01  0.00000000000E+00 0.  1.
</event>
<event>
 5    1  0.1166492E+001  0.1529097E+01  0.7818608E-02  0.3434107E+00
         11   -1    0    0    0    0  0.00000000000E+00  0.00000000000E+00  0.39999999674E+01  0.40000000000E+01  0.51100000000E-03 0.  1.
    9000002   -1    0    0    0    0 -0.00000000000E+00 -0.00000000000E+00  0.00000000000E+00  0.93800000000E+00  0.93800000000E+00 0.  1.
         11    1    1    2    0    0 -0.27637140123E+00 -0.11628247375E+00  0.12005291933E+01  0.12374059036E+01  0.51100000000E-03 0.  1.
    9000002    1    1    2    0    0 -0.27791583575E-02  0.51461592865E-01  0.54809588691E-01  0.94101227956E+00  0.93800000000E+00 0.  1.
         22    1    1    2    0    0  0.27915055959E+00  0.64820880884E-01  0.27446611854E+01  0.27595818169E+01  0.00000000000E+00 0.  1.
</event>
<event>
 5    1  0.1166492E+001  0.1453415E+01  0.7818608E-02  0.3529638E+00
         11   -1    0    0    0    0  0.00000000000E+00  0.00000000000E+00  0.39999999674E+01  0.40000000000E+01  0.51100000000E-03 0. -1.
    9000002   -1    0    0    0    0 -0.00000000000E+00 -0.00000000000E+00  0.00000000000E+00  0.93800000000E+00  0.93800000000E+00 0. -1.
         11    1    1    2    0    0  0.23197646292E+00 -0.40807965712E+00  0.11479685521E+01  0.12402314879E+01  0.51100000000E-03 0. -1.
    9000002    1    1    2    0    0  0.83548852195E-01  0.16774021803E+00  0.15173326599E+00  0.96849583141E+00  0.93800000000E+00 0. -1.
         22    1    1    2    0    0 -0.31552531511E+00  0.24033943909E+00  0.27002981493E+01  0.27292726807E+01  0.00000000000E+00 0. -1.
</event>
<event>
 5    1  0.1166492E+001  0.1503230E+01  0.7818608E-02  0.3465591E+00
         11   -1    0    0    0    0  0.00000000000E+00  0.00000000000E+00  0.39999999674E+01  0.40000000000E+01  0.51100000000E-03 0. -1.
    9000002   -1    0    0    0    0 -0.00000000000E+00 -0.00000000000E+00  0.00000000000E+00  0.93800000000E+00  0.93800000000E+00 0. -1.
         11    1    1    2    0    0  0.30014047864E+00  0.16260052899E+00  0.13654031814E+01  0.14074264982E+01  0.51100000000E-03 0. -1.
    9000002    1    1    2    0    0  0.13848828944E+00 -0.24289338242E+00  0.13092624211E+00  0.98750285185E+00  0.93800000000E+00 0. -1.
         22    1    1    2    0    0 -0.43862876807E+00  0.80292853433E-01  0.25036705438E+01  0.25430706499E+01  0.00000000000E+00 0. -1.
</event>
<event>
 5    1  0.1166492E+001  0.1490253E+01  0.7818608E-02  0.3481830E+00
         11   -1    0    0    0    0  0.00000000000E+00  0.00000000000E+00  0.39999999674E+01  0.40000000000E+01  0.51100000000E-03 0. -1.
    9000002   -1    0    0    0    0 -0.00000000000E+00 -0.00000000000E+00  0.00000000000E+00  0.93800000000E+00  0.93800000000E+00 0.  1.
         11    1    1    2    0    0  0.38347949344E+00  0.56775238552E-01  0.11159385778E+01  0.11813547817E+01  0.51100000000E-03 0. -1.
    9000002    1    1    2    0    0 -0.72883583863E-01 -0.20012565747E+00  0.11751307492E+00  0.96902818243E+00  0.93800000000E+00 0.  1.
         22    1    1    2    0    0 -0.31059590958E+00  0.14335041892E+00  0.27665483146E+01  0.27876170359E+01  0.00000000000E+00 0. -1.
</event>
<event>
 5    1  0.1166492E+001  0.1589346E+01  0.7818608E-02  0.3365009E+00
         11   -1    0    0    0    0  0.00000000000E+00  0.00000000000E+00  0.39999999674E+01  0.40000000000E+01  0.51100000000E-03 0.  1.
    9000002   -1    0    0    0    0 -0.00000000000E+00 -0.00000000000E+00  0.00000000000E+00  0.93800000000E+00  0.93800000000E+00 0.  1.
         11    1    1    2    0    0 -0.13520114015E-01  0.50275514493E-01  0.80133264087E+00  0.80302221842E+00  0.51100000000E-03 0.  1.
    9000002    1    1    2    0    0 -0.29178981417E+00  0.78231655755E-01  0.69033103338E-01  0.98786186128E+00  0.93800000000E+00 0.  1.
         22    1    1    2    0    0  0.30530992818E+00 -0.12850717025E+00  0.31296342232E+01  0.31471159203E+01  0.00000000000E+00 0.  1.
</event>
<event>
 5    1  0.1166492E+001  0.1452207E+01  0.7818608E-02  0.3531251E+00
         11   -1    0    0    0    0  0.00000000000E+00  0.00000000000E+00  0.39999999674E+01  0.40000000000E+01  0.51100000000E-03 0. -1.
    9000002   -1    0    0    0    0 -0.00000000000E+00 -0.00000000000E+00  0.00000000000E+00  0.93800000000E+00  0.93800000000E+00 0.  1.
         11    1    1    2    0    0 -0.36743722233E+00 -0.21048145686E+00  0.88414208900E+00  0.98031630135E+00  0.51100000000E-03 0. -1.
    9000002    1    1    2    0    0 -0.12079090148E-01  0.18915049656E+00  0.15128614903E+00  0.96884225427E+00  0.93800000000E+00 0.  1.
         22    1    1    2    0    0  0.37951631248E+00  0.21330960296E-01  0.29645717293E+01  0.29888414444E+01  0.00000000000E+00 0. -1.
</event>
<event>
 5    1  0.1166492E+001  0.1578966E+01  0.7818608E-02  0.3376514E+00
         11   -1    0    0    0    0  0.00000000000E+00  0.00000000000E+00  0.39999999674E+01  0.40000000000E+01  0.51100000000E-03 0.  1.
    9000002   -1    0    0    0    0 -0.00000000000E+00 -0.00000000000E+00  0.00000000000E+00  0.93800000000E+00  0.93800000000E+00 0.  1.
         11    1    1    2    0    0 -0.62953558874E-01 -0.63932993525E-01  0.74731903759E+00  0.75268624493E+00  0.51100000000E-03 0.  1.
    9000002    1    1    2    0    0 -0.28506410168E+00 -0.25992633514E-01  0.70867765682E-01  0.98326161283E+00  0.93800000000E+00 0.  1.
         22    1    1    2    0    0  0.34801766055E+00  0.89925627039E-01  0.31818131641E+01  0.32020521422E+01  0.00000000000E+00 0.  1.
</event>
<event>
 5    1  0.1166492E+001  0.1501827E+01  0.7818608E-02  0.3467333E+00
         11   -1    0    0    0    0  0.00000000000E+00  0.00000000000E+00  0.39999999674E+01  0.40000000000E+01  0.51100000000E-03 0. -1.
    9000002   -1    0    0    0    0 -0.00000000000E+00 -0.00000000000E+00  0.00000000000E+00  0.93800000000E+00  0.93800000000E+00 0. -1.
         11    1    1    2    0    0  0.27362579934E+00  0.17181134590E+00  0.10903048375E+01  0.11371697834E+01  0.51100000000E-03 0. -1.
    9000002    1    1    2    0    0 -0.36028983998E-01  0.14601122605E+00  0.90986671247E-01  0.95432695664E+00  0.93800000000E+00 0. -1.
         22    1    1    2    0    0 -0.23759681534E+00 -0.31782257195E+00  0.28187084586E+01  0.28465032599E+01  0.00000000000E+00 0. -1.
</event>
<event>
 5    1  0.1166492E+001  0.1478918E+01  0.7818608E-02  0.3496266E+00
         11   -1    0    0    0    0  0.00000000000E+00  0.00000000000E+00  0.39999999674E+01  0.40000000000E+01  0.51100000000E-03 0.  1.
    9000002   -1    0    0    0    0 -0.00000000000E+00 -0.00000000000E+00  0.00000000000E+00  0.93800000000E+00  0.93800000000E+00 0.  1.
         11    1    1    2    0    0  0.38082204881E+00  0.20753785405E+00  0.13708270210E+01  0.14377984477E+01  0.51100000000E-03 0.  1.
    9000002    1    1    2    0    0 -0.18592524557E+00  0.11619028744E+00  0.12928798593E+00  0.97191962792E+00  0.93800000000E+00 0.  1.
         22    1    1    2    0    0 -0.19489680324E+00 -0.32372814149E+00  0.24998849605E+01  0.25282819243E+01  0.00000000000E+00 0.  1.
</event>
<event>
 5    1  0.1166492E+001  0.1592609E+01  0.7818608E-02  0.3361425E+00
         11   -1    0    0    0    0  0.00000000000E+00  0.00000000000E+00  0.39999999674E+01  0.40000000000E+01  0.51100000000E-03 0.  1.
    9000002   -1    0    0    0    0 -0.00000000000E+00 -0.00000000000E+00  0.00000000000E+00  0.93800000000E+00  0.93800000000E+00 0. -1.
         11    1    1    2    0    0 -0.99539803852E-02 -0.88751046279E-02  0.12156526026E+01  0.12157258575E+01  0.51100000000E-03 0.  1.
    9000002    1    1    2    0    0 -0.89486128555E-01 -0.24929073177E+00  0.52114448979E-01  0.97607046464E+00  0.93800000000E+00 0. -1.
         22    1    1    2    0    0  0.99440108940E-01  0.25816583640E+00  0.27322329158E+01  0.27462036779E+01  0.00000000000E+00 0.  1.
</event>
<event>
 5    1  0.1166492E+001  0.1484570E+01  0.7818608E-02  0.3489038E+00
         11   -1    0    0    0    0  0.00000000000E+00  0.00000000000E+00  0.39999999674E+01  0.40000000000E+01  0.51100000000E-03 0. -1.
    9000002   -1    0    0    0    0 -0.00000000000E+00 -0.00000000000E+00  0.00000000000E+00  0.93800000000E+00  0.93800000000E+00 0. -1.
         11    1    1    2    0    0  0.13358639846E-01  0.41293375054E+00  0.96342782774E+00  0.10482777189E+01  0.51100000000E-03 0. -1.
    9000002    1    1    2    0    0  0.50795919368E+00 -0.30450274917E+00  0.36833131754E+00  0.11688697216E+01  0.93800000000E+00 0. -1.
         22    1    1    2    0    0 -0.52131783352E+00 -0.10843100137E+00  0.26682408221E+01  0.27208525594E+01  0.00000000000E+00 0. -1.
</event>
<event>
 5    1  0.1166492E+001  0.1582608E+01  0.7818608E-02  0.3372459E+00
         11   -1    0    0    0    0  0.00000000000E+00  0.00000000000E+00  0.39999999674E+01  0.40000000000E+01  0.51100000000E-03 0. -1.
    9000002   -1    0    0    0    0 -0.00000000000E+00 -0.00000000000E+00  0.00000000000E+00  0.93800000000E+00  0.93800000000E+00 0. -1.
         11    1    1    2    0    0  0.59118934516E-01  0.32227154593E+00  0.14058626204E+01  0.14435386959E+01  0.51100000000E-03 0. -1.
    9000002    1    1    2    0    0  0.80293292268E-01 -0.53215781237E+00  0.21571698238E+00  0.11027315025E+01  0.93800000000E+00 0. -1.
         22    1    1    2    0    0 -0.13941222678E+00  0.20988626643E+00  0.23784203645E+01  0.23917298017E+01  0.00000000000E+00 0.  1.
</event>
<event>
 5    1  0.1166492E+001  0.1599637E+01  0.7818608E-02  0.3353757E+00
         11   -1    0    0    0    0  0.00000000000E+00  0.00000000000E+00  0.39999999674E+01  0.40000000000E+01  0.51100000000E-03 0. -1.
    9000002   -1    0    0    0    0 -0.00000000000E+00 -0.00000000000E+00  0.00000000000E+00  0.93800000000E+00  0.93800000000E+00 0. -1.
         11    1    1    2    0    0  0.11702208488E+00  0.11102205775E+00  0.11074063587E+01  0.11190930122E+01  0.51100000000E-03 0. -1.
    9000002    1    1    2    0    0 -0.37918029885E+00 -0.37441481542E+00  0.19554793102E+00  0.10963791070E+01  0.93800000000E+00 0. -1.
         22    1    1    2    0    0  0.26215821397E+00  0.26339275767E+00  0.26970456777E+01  0.27225278807E+01  0.00000000000E+00 0. -1.
</event>
<event>
 5    1  0.1166492E+001  0.1569325E+01  0.7818608E-02  0.3387345E+00
         11   -1    0    0    0    0  0.00000000000E+00  0.00000000000E+00  0.39999999674E+01  0.40000000000E+01  0.51100000000E-03 0.  1.
    9000002   -1    0    0    0    0 -0.00000000000E+00 -0.00000000000E+00  0.00000000000E+00  0.93800000000E+00  0.93800000000E+00 0.  1.
         11    1    1    2    0    0  0.79736384832E-01  0.11722760675E+00  0.87197547759E+00  0.88342611320E+00  0.51100000000E-03 0.  1.
    9000002    1    1    2    0    0  0.97046272962E-01  0.10965515737E+00  0.36880241181E-01  0.95007704152E+00  0.93800000000E+00 0.  1.
         22    1    1    2    0    0 -0.17678265779E+00 -0.22688276412E+00  0.30911442486E+01  0.31044968453E+01  0.00000000000E+00 0.  1.
</event>
<event>
 5    1  0.1166492E+001  0.1538146E+01  0.7818608E-02  0.3423361E+00
         11   -1    0    0    0    0  0.00000000000E+00  0.00000000000E+00  0.39999999674E+01  0.40000000000E+01  0.51100000000E-03 0. -1.
    9000002   -1    0    0    0    0 -0.00000000000E+00 -0.00000000000E+00  0.00000000000E+00  0.93800000000E+00  0.93800000000E+00 0.  1.
         11    1    1    2    0    0  0.17101573095E+00 -0.15087817922E+00  0.14430543920E+01  0.14609643543E+01  0.51100000000E-03 0. -1.
    9000002    1    1    2    0    0  0.20516126875E+00  0.59831926226E-02  0.75607135659E-01  0.96316529410E+00  0.93800000000E+00 0.  1.
         22    1    1    2    0    0 -0.37617699970E+00  0.14489498660E+00  0.24813384397E+01  0.25138703516E+01  0.00000000000E+00 0. -1.
</event>
<event>
 5    1  0.1166492E+001  0.1536374E+01  0.7818608E-02  0.3425455E+00
         11   -1    0    0    0    0  0.00000000000E+00  0.00000000000E+00  0.39999999674E+01  0.40000000000E+01  0.51100000000E-03 0. -1.
    9000002   -1    0    0    0    0 -0.00000000000E+00 -0.00000000000E+00  0.00000000000E+00  0.93800000000E+00  0.93800000000E+00 0. -1.
         11    1    1    2    0    0 -0.27249107410E+00  0.16332009124E+00  0.13571159295E+01  0.13938036967E+01  0.51100000000E-03 0. -1.
    9000002    1    1    2    0    0  0.31519094647E-01 -0.12208519855E+00  0.58465830260E-01  0.94824074071E+00  0.93800000000E+00 0. -1.
         22    1    1    2    0    0  0.24097197945E+00 -0.41234892694E-01  0.25844182076E+01  0.25959555626E+01  0.00000000000E+00 0.  1.
</event>
<event>
 5    1  0.1166492E+001  0.1531968E+01  0.7818608E-02  0.3430683E+00
         11   -1    0    0    0    0  0.00000000000E+00  0.00000000000E+00  0.39999999674E+01  0.40000000000E+01  0.51100000000E-03 0. -1.
    9000002   -1    0    0    0    0 -0.00000000000E+00 -0.00000000000E+00  0.00000000000E+00  0.93800000000E+00  0.93800000000E+00 0. -1.
         11    1    1    2    0    0 -0.19822272651E+00  0.21899349481E-01  0.57522350323E+00  0.60881374049E+00  0.51100000000E-03 0. -1.
    9000002    1    1    2    0    0 -0.14435267758E+00  0.12190802213E+00  0.75990404831E-01  0.95985301115E+00  0.93800000000E+00 0. -1.
         22    1    1    2    0    0  0.34257540409E+00 -0.14380737161E+00  0.33487860593E+01  0.33693332484E+01  0.00000000000E+00 0. -1.
</event>
<event>
 5    1  0.1166492E+001  0.1498547E+01  0.7818608E-02  0.3471417E+00
         11   -1    0    0    0    0  0.00000000000E+00  0.00000000000E+00  0.39999999674E+01  0.40000000000E+01  0.51100000000E-03 0. -1.
    9000002   -1    0    0    0    0 -0.00000000000E+00 -0.00000000000E+00  0.00000000000E+00  0.93800000000E+00  0.93800000000E+00 0. -1.
         11    1    1    2    0    0  0.39235177045E-01  0.36482103931E+00  0.42031318453E+00  0.55794016171E+00  0.51100000000E-03 0. -1.
    9000002    1    1    2    0    0 -0.27829308671E+00 -0.31817693610E-01  0.23026548026E+00  0.10056468561E+01  0.93800000000E+00 0. -1.
         22    1    1    2    0    0  0.23905790966E+00 -0.33300334570E+00  0.33494213026E+01  0.33744129822E+01  0.00000000000E+00 0. -1.
</event>
<event>
 5    1  0.1166492E+001  0.1537549E+01  0.7818608E-02  0.3424066E+00
         11   -1    0    0    0    0  0.00000000000E+00  0.00000000000E+00  0.39999999674E+01  0.40000000000E+01  0.51100000000E-03 0.  1.
    9000002   -1    0    0    0    0 -0.00000000000E+00 -0.00000000000E+00  0.00000000000E+00  0.93800000000E+00  0.93800000000E+00 0.  1.
         11    1    1    2    0    0 -0.10247392747E+00  0.18981628572E+00  0.79888174333E+00  0.82749225319E+00  0.51100000000E-03 0.  1.
    9000002    1    1    2    0    0  0.23685820482E+00  0.22981534725E+00  0.12407396630E+00  0.10020754723E+01  0.93800000000E+00 0.  1.
         22    1    1    2    0    0 -0.13438427735E+00 -0.41963163297E+00  0.30770442577E+01  0.31084322745E+01  0.00000000000E+00 0.  1.
</event>
<event>
 5    1  0.1166492E+001  0.1497354E+01  0.7818608E-02  0.3472907E+00
         11   -1    0    0    0    0  0.00000000000E+00  0.00000000000E+00  0.39999999674E+01  0.40000000000E+01  0.51100000000E-03 0. -1.
    9000002   -1    0    0    0    0 -0.00000000000E+00 -0.00000000000E+00  0.00000000000E+00  0.93800000000E+00  0.93800000000E+00 0.  1.
         11    1    1    2    0    0 -0.10377944503E+00 -0.28287717244E+00  0.27076457655E+00  0.40509675996E+00  0.51100000000E-03 0. -1.
    9000002    1    1    2    0    0 -0.90485500771E-01  0.44748796773E-02  0.17007486447E+00  0.95758921773E+00  0.93800000000E+00 0.  1.
         22    1    1    2    0    0  0.19426494580E+00  0.27840229276E+00  0.35591605263E+01  0.35753140223E+01  0.00000000000E+00 0. -1.
</event>
<event>
 5    1  0.1166492E+001  0.1514469E+01  0.7818608E-02  0.3451771E+00
         11   -1    0    0    0    0  0.00000000000E+00  0.00000000000E+00  0.39999999674E+01  0.40000000000E+01  0.51100000000E-03 0. -1.
    9000002   -1    0    0    0    0 -0.00000000000E+00 -0.00000000000E+00  0.00000000000E+00  0.93800000000E+00  0.93800000000E+00 0. -1.
         11    1    1    2    0    0 -0.24630355188E+00  0.66920168259E-01  0.10662975042E+01  0.10964188876E+01  0.51100000000E-03 0. -1.
    9000002    1    1    2    0    0 -0.21090074438E+00  0.32421156638E-01  0.97325747440E-01  0.96687463329E+00  0.93800000000E+00 0. -1.
         22    1    1    2    0    0  0.45720429626E+00 -0.99341324897E-01  0.28363767157E+01  0.28747064791E+01  0.00000000000E+00 0. -1.
</event>
<event>
 5    1  0.1166492E+001  0.1302893E+01  0.7818608E-02  0.3776416E+00
         11   -1    0    0    0    0  0.00000000000E+00  0.00000000000E+00  0.39999999674E+01  0.40000000000E+01  0.51100000000E-03 0. -1.
    9000002   -1    0    0    0    0 -0.00000000000E+00 -0.00000000000E+00  0.00000000000E+00  0.93800000000E+00  0.93800000000E+00 0. -1.
         11    1    1    2    0    0  0.78495409653E+00  0.31655065939E+00  0.11272563224E+01  0.14096326937E+01  0.51100000000E-03 0. -1.
    9000002    1    1    2    0    0 -0.54808619601E+00 -0.23964237510E+00  0.64340558329E+00  0.12851621263E+01  0.93800000000E+00 0. -1.
         22    1    1    2    0    0 -0.23686790053E+00 -0.76908284295E-01  0.22293380617E+01  0.22432051801E+01  0.00000000000E+00 0.  1.
</event>
<event>
 5    1  0.1166492E+001  0.1591854E+01  0.7818608E-02  0.3362253E+00
         11   -1    0    0    0    0  0.00000000000E+00  0.00000000000E+00  0.39999999674E+01  0.40000000000E+01  0.51100000000E-03 0. -1.
    9000002   -1    0    0    0    0 -0.00000000000E+00 -0.00000000000E+00  0.00000000000E+00  0.93800000000E+00  0.93800000000E+00 0. -1.
         11    1    1    2    0    0 -0.15296064256E+00 -0.44727933031E-01  0.95672461475E+00  0.96990710677E+00  0.51100000000E-03 0. -1.
    9000002    1    1    2    0    0  0.39025152387E+00 -0.11199769627E+00  0.11784014349E+00  0.10288683275E+01  0.93800000000E+00 0. -1.
         22    1    1    2    0    0 -0.23729088130E+00  0.15672562930E+00  0.29254352091E+01  0.29392245658E+01  0.00000000000E+00 0. -1.
</event>
<event>
 5    1  0.1166492E+001  0.1574658E+01  0.7818608E-02  0.3381336E+00
         11   -1    0    0    0    0  0.00000000000E+00  0.00000000000E+00  0.39999999674E+01  0.40000000000E+01  0.51100000000E-03 0.  1.
    9000002   -1    0    0    0    0 -0.00000000000E+00 -0.00000000000E+00  0.00000000000E+00  0.93800000000E+00  0.93800000000E+00 0. -1.
         11    1    1    2    0    0  0.51752408418E-01 -0.11864313449E+00  0.62216821425E+00  0.63549040361E+00  0.51100000000E-03 0.  1.
    9000002    1    1    2    0    0  0.29192606396E+00  0.12335710367E+00  0.87143044166E-01  0.99391936896E+00  0.93800000000E+00 0. -1.
         22    1    1    2    0    0 -0.34367847237E+00 -0.47139691785E-02  0.32906887089E+01  0.33085902274E+01  0.00000000000E+00 0.  1.
</event>
<event>
 5    1  0.1166492E+001  0.1550377E+01  0.7818608E-02  0.3409048E+00
         11   -1    0    0    0    0  0.00000000000E+00  0.00000000000E+00  0.39999999674E+01  0.40000000000E+01  0.51100000000E-03 0. -1.
    9000002   -1    0    0    0    0 -0.00000000000E+00 -0.00000000000E+00  0.00000000000E+00  0.93800000000E+00  0.93800000000E+00 0. -1.
         11    1    1    2    0    0  0.76079722649E-01  0.16345224899E+00  0.65250262127E+00  0.67695250482E+00  0.51100000000E-03 0. -1.
    9000002    1    1    2    0    0 -0.12330946598E+00  0.16983275760E+00  0.67216518485E-01  0.96354058052E+00  0.93800000000E+00 0. -1.
         22    1    1    2    0    0  0.47229743330E-01 -0.33328500659E+00  0.32802808276E+01  0.32975069147E+01  0.00000000000E+00 0. -1.
</event>
<event>
 5    1  0.1166492E+001  0.1484581E+01  0.7818608E-02  0.3489023E+00
         11   -1    0    0    0    0  0.00000000000E+00  0.00000000000E+00  0.39999999674E+01  0.40000000000E+01  0.51100000000E-03 0.  1.
    9000002   -1    0    0    0    0 -0.00000000000E+00 -0.00000000000E+00  0.00000000000E+00  0.93800000000E+00  0.93800000000E+00 0.  1.
         11    1    1    2    0    0  0.33301202130E+00  0.12463969832E+00  0.98367501031E+00  0.10459679000E+01  0.51100000000E-03 0.  1.
    9000002    1    1    2    0    0  0.62307342973E-01 -0.18660607542E+00  0.11734475172E+00  0.96556606357E+00  0.93800000000E+00 0.  1.
         22    1    1    2    0    0 -0.39531936427E+00  0.61966377091E-01  0.28989802053E+01  0.29264660365E+01  0.00000000000E+00 0.  1.
</event>
<event>
 5    1  0.1166492E+001  0.1595478E+01  0.7818608E-02  0.3358286E+00
         11   -1    0    0    0    0  0.00000000000E+00  0.00000000000E+00  0.39999999674E+01  0.40000000000E+01  0.51100000000E-03 0. -1.
    9000002   -1    0    0    0    0 -0.00000000000E+00 -0.00000000000E+00  0.00000000000E+00  0.93800000000E+00  0.93800000000E+00 0. -1.
         11    1    1    2    0    0  0.31895541070E-01  0.21186164206E-02  0.30934890418E+00  0.31099649470E+00  0.51100000000E-03 0. -1.
    9000002    1    1    2    0    0 -0.13632429070E+00 -0.48431770123E+00  0.17718748246E+00  0.10790678162E+01  0.93800000000E+00 0. -1.
         22    1    1    2    0    0  0.10442874963E+00  0.48219908481E+00  0.35134635807E+01  0.35479356891E+01  0.00000000000E+00 0. -1.
</event>
<event>
 5    1  0.1166492E+001  0.1520039E+01  0.7818608E-02  0.3445001E+00
         11   -1    0    0    0    0  0.00000000000E+00  0.00000000000E+00  0.39999999674E+01  0.40000000000E+01  0.51100000000E-03 0.  1.
    9000002   -1    0    0    0    0 -0.00000000000E+00 -0.00000000000E+00  0.00000000000E+00  0.93800000000E+00  0.93800000000E+00 0.  1.
         11    1    1    2    0    0 -0.23123633086E+00 -0.24903198346E+00  0.12189042442E+01  0.12653912387E+01  0.51100000000E-03 0.  1.
    9000002    1    1    2    0    0  0.97258930270E-01  0.19911637881E-01  0.67053497377E-01  0.94561934432E+00  0.93800000000E+00 0.  1.
         22    1    1    2    0    0  0.13397740059E+00  0.22912034558E+00  0.27140422258E+01  0.27269894170E+01  0.00000000000E+00 0.  1.
</event>
<event>
 5    1  0.1166492E+001  0.1461203E+01  0.7818608E-02  0.3519313E+00
         11   -1    0    0    0    0  0.00000000000E+00  0.00000000000E+00  0.39999999674E+01  0.40000000000E+01  0.51100000000E-03 0.  1.
    9000002   -1    0    0    0    0 -0.00000000000E+00 -0.00000000000E+00  0.00000000000E+00  0.93800000000E+00  0.93800000000E+00 0. -1.
         11    1    1    2    0    0  0.14633803108E-01  0.51449917905E+00  0.13271419641E+01  0.14234569216E+01  0.51100000000E-03 0.  1.
    9000002    1    1    2    0    0 -0.15941601362E+00 -0.13803675548E+00  0.16623595568E+00  0.97567720288E+00  0.93800000000E+00 0. -1.
         22    1    1    2    0    0  0.14478221051E+00 -0.37646242357E+00  0.25066220475E+01  0.25388658756E+01  0.00000000000E+00 0.  1.
</event>
<event>
 5    1  0.1166492E+001  0.1537564E+01  0.7818608E-02  0.3424048E+00
         11   -1    0    0    0    0  0.00000000000E+00  0.00000000000E+00  0.39999999674E+01  0.40000000000E+01  0.51100000000E-03 0.  1.
    9000002   -1    0    0    0    0 -0.00000000000E+00 -0.00000000000E+00  0.00000000000E+00  0.93800000000E+00  0.93800000000E+00 0.  1.
         11    1    1    2    0    0 -0.17491260980E+00  0.23822283528E+00  0.12898773814E+01  0.13233021048E+01  0.51100000000E-03 0.  1.
    9000002    1    1    2    0    0  0.32834188313E-01 -0.28113263625E-01  0.47684287524E-01  0.94020541946E+00  0.93800000000E+00 0.  1.
         22    1    1    2    0    0  0.14207842149E+00 -0.21010957166E+00  0.26624382984E+01  0.26744924758E+01  0.00000000000E+00 0.  1.
</event>
<event>
 5    1  0.1166492E+001  0.1500416E+01  0.7818608E-02  0.3469087E+00
         11   -1    0    0    0    0  0.00000000000E+00  0.00000000000E+00  0.39999999674E+01  0.40000000000E+01  0.51100000000E-03 0.  1.
    9000002   -1    0    0    0    0 -0.00000000000E+00 -0.00000000000E+00  0.00000000000E+00  0.93800000000E+00  0.93800000000E+00 0. -1.
         11    1    1    2    0    0  0.47886305436E-01 -0.31052512560E+00  0.71154482995E+00  0.77782726747E+00  0.51100000000E-03 0.  1.
    9000002    1    1    2    0    0 -0.20658776528E+00  0.71225253477E-01  0.11068610226E+00  0.96945704120E+00  0.93800000000E+00 0. -1.
         22    1    1    2    0    0  0.15870145984E+00  0.23929987212E+00  0.31777690352E+01  0.31907156913E+01  0.00000000000E+00 0.  1.
</event>
<event>
 5    1  0.1166492E+001  0.1074414E+01  0.7818608E-02  0.4331459E+00
         11   -1    0    0    0    0  0.00000000000E+00  0.00000000000E+00  0.39999999674E+01  0.40000000000E+01  0.51100000000E-03 0. -1.
    9000002   -1    0    0    0    0 -0.00000000000E+00 -0.00000000000E+00  0.00000000000E+00  0.93800000000E+00  0.93800000000E+00 0. -1.
         11    1    1    2    0    0  0.52449079709E+00  0.12639367635E+00  0.71093919507E-01  0.54416960975E+00  0.51100000000E-03 0. -1.
    9000002    1    1    2    0    0 -0.35867325090E-01 -0.38270316650E-02  0.82621833874E+00  0.12505126367E+01  0.93800000000E+00 0.  1.
         22    1    1    2    0    0 -0.48862347201E+00 -0.12256664468E+00  0.31026877091E+01  0.31433177536E+01  0.00000000000E+00 0. -1.
</event>
<event>
 5    1  0.1166492E+001  0.1334943E+01  0.7818608E-02  0.3717191E+00
         11   -1    0    0    0    0  0.00000000000E+00  0.00000000000E+00  0.39999999674E+01  0.40000000000E+01  0.51100000000E-03 0. -1.
    9000002   -1    0    0    0    0 -0.00000000000E+00 -0.00000000000E+00  0.00000000000E+00  0.93800000000E+00  0.93800000000E+00 0. -1.
         11    1    1    2    0    0  0.62070532609E+00 -0.13381284799E-01  0.64302323013E+00  0.89383068655E+00  0.51100000000E-03 0. -1.
    9000002    1    1    2    0    0 -0.49381725532E+00  0.50913208311E+00  0.76670917306E+00  0.14038368551E+01  0.93800000000E+00 0. -1.
         22    1    1    2    0    0 -0.12688807077E+00 -0.49575079831E+00  0.25902675642E+01  0.26403324583E+01  0.00000000000E+00 0. -1.
</event>
<event>
 5    1  0.1166492E+001  0.1535108E+01  0.7818608E-02  0.3426954E+00
         11   -1    0    0    0    0  0.00000000000E+00  0.00000000000E+00  0.39999999674E+01  0.40000000000E+01  0.51100000000E-03 0. -1.
    9000002   -1    0    0    0    0 -0.00000000000E+00 -0.00000000000E+00  0.00000000000E+00  0.93800000000E+00  0.93800000000E+00 0.  1.
         11    1    1    2    0    0  0.23940127847E+00 -0.12259788377E+00  0.12711458078E+01  0.12992902443E+01  0.51100000000E-03 0. -1.
    9000002    1    1    2    0    0 -0.14965184786E-01 -0.12780438185E+00  0.59923659881E-01  0.94867948317E+00  0.93800000000E+00 0.  1.
         22    1    1    2    0    0 -0.22443609368E+00  0.25040226562E+00  0.26689304997E+01  0.26900302725E+01  0.00000000000E+00 0. -1.
</event>
<event>
 5    1  0.1166492E+001  0.1486137E+01  0.7818608E-02  0.3487045E+00
         11   -1    0    0    0    0  0.00000000000E+00  0.00000000000E+00  0.39999999674E+01  0.40000000000E+01  0.51100000000E-03 0.  1.
    9000002   -1    0    0    0    0 -0.00000000000E+00 -0.00000000000E+00  0.00000000000E+00  0.93800000000E+00  0.93800000000E+00 0.  1.
         11    1    1    2    0    0  0.28545429739E+00 -0.18418564331E+00  0.99739782614E+00  0.10536655977E+01  0.51100000000E-03 0.  1.
    9000002    1    1    2    0    0  0.17841631576E+00  0.20610828570E+00  0.14294200055E+00  0.98721295711E+00  0.93800000000E+00 0.  1.
         22    1    1    2    0    0 -0.46387061314E+00 -0.21922642389E-01  0.28596601407E+01  0.28971214452E+01  0.00000000000E+00 0.  1.
</event>
<event>
 5    1  0.1166492E+001  0.1557125E+01  0.7818608E-02  0.3401255E+00
         11   -1    0    0    0    0  0.00000000000E+00  0.00000000000E+00  0.39999999674E+01  0.40000000000E+01  0.51100000000E-03 0.  1.
    9000002   -1    0    0    0    0 -0.00000000000E+00 -0.00000000000E+00  0.00000000000E+00  0.93800000000E+00  0.93800000000E+00 0.  1.
         11    1    1    2    0    0  0.37800039149E+00 -0.38061800378E+00  0.54918917026E+00  0.76770004989E+00  0.51100000000E-03 0.  1.
    9000002    1    1    2    0    0 -0.68381275763E-03  0.52372088544E+00  0.48767448403E+00  0.11798111865E+01  0.93800000000E+00 0.  1.
         22    1    1    2    0    0 -0.37731657873E+00 -0.14310288166E+00  0.29631363131E+01  0.29904887636E+01  0.00000000000E+00 0.  1.
</event>
<event>
 5    1  0.1166492E+001  0.1590006E+01  0.7818608E-02  0.3364282E+00
         11   -1    0    0    0    0  0.00000000000E+00  0.00000000000E+00  0.39999999674E+01  0.40000000000E+01  0.51100000000E-03 0. -1.
    9000002   -1    0    0    0    0 -0.00000000000E+00 -0.00000000000E+00  0.00000000000E+00  0.93800000000E+00  0.93800000000E+00 0. -1.
         11    1    1    2    0    0  0.18625823476E+00  0.12697372173E-01  0.11201955349E+01  0.11356459179E+01  0.51100000000E-03 0. -1.
    9000002    1    1    2    0    0 -0.34841113765E+00  0.18005699092E+00  0.11169216420E+00  0.10228049571E+01  0.93800000000E+00 0. -1.
         22    1    1    2    0    0  0.16215290289E+00 -0.19275436310E+00  0.27681122683E+01  0.27795491250E+01  0.00000000000E+00 0. -1.
</event>
<event>
 5    1  0.1166492E+001  0.1498172E+01  0.7818608E-02  0.3471885E+00
         11   -1    0    0    0    0  0.00000000000E+00  0.00000000000E+00  0.39999999674E+01  0.40000000000E+01  0.51100000000E-03 0.  1.
    9000002   -1    0    0    0    0 -0.00000000000E+00 -0.00000000000E+00  0.00000000000E+00  0.93800000000E+00  0.93800000000E+00 0. -1.
         11    1    1    2    0    0 -0.38745254309E+00  0.30679395613E-01  0.13352567626E+01  0.13906730678E+01  0.51100000000E-03 0.  1.
    9000002    1    1    2    0    0  0.83620063939E-01  0.10070012777E+00  0.89958871202E-01  0.95135137007E+00  0.93800000000E+00 0. -1.
         22    1    1    2    0    0  0.30383247916E+00 -0.13137952338E+00  0.25747843336E+01  0.25959755621E+01  0.00000000000E+00 0.  1.
</event>
<event>
 5    1  0.1166492E+001  0.1547179E+01  0.7818608E-02  0.3412767E+00
         11   -1    0    0    0    0  0.00000000000E+00  0.00000000000E+00  0.39999999674E+01  0.40000000000E+01  0.51100000000E-03 0.  1.
    9000002   -1    0    0    0    0 -0.00000000000E+00 -0.00000000000E+00  0.00000000000E+00  0.93800000000E+00  0.93800000000E+00 0. -1.
         11    1    1    2    0    0  0.28728316986E+00 -0.46662499717E+00  0.50926782493E+00  0.74808053463E+00  0.51100000000E-03 0.  1.
    9000002    1    1    2    0    0 -0.62943116770E+00  0.20046262100E+00  0.65465095027E+00  0.13209014816E+01  0.93800000000E+00 0. -1.
         22    1    1    2    0    0  0.34214799784E+00  0.26616237617E+00  0.28360811922E+01  0.28690179838E+01  0.00000000000E+00 0.  1.
</event>
<event>
 5    1  0.1166492E+001  0.1536598E+01  0.7818608E-02  0.3425190E+00
         11   -1    0    0    0    0  0.00000000000E+00  0.00000000000E+00  0.39999999674E+01  0.40000000000E+01  0.51100000000E-03 0. -1.
    9000002   -1    0    0    0    0 -0.00000000000E+00 -0.00000000000E+00  0.00000000000E+00  0.93800000000E+00  0.93800000000E+00 0. -1.
         11    1    1    2    0    0  0.20944794085E+00  0.25032297986E+00  0.14421034542E+01  0.14785779209E+01  0.51100000000E-03 0. -1.
    9000002    1    1    2    0    0 -0.91531878098E-01 -0.48441642355E-01  0.54649088278E-01  0.94528048762E+00  0.93800000000E+00 0. -1.
         22    1    1    2    0    0 -0.11791606276E+00 -0.20188133751E+00  0.25032474248E+01  0.25141415915E+01  0.00000000000E+00 0. -1.
</event>
<event>
 5    1  0.1166492E+001  0.1507783E+01  0.7818608E-02  0.3459966E+00
         11   -1    0    0    0    0  0.00000000000E+00  0.00000000000E+00  0.39999999674E+01  0.40000000000E+01  0.51100000000E-03 0.  1.
    9000002   -1    0    0    0    0 -0.00000000000E+00 -0.00000000000E+00  0.00000000000E+00  0.93800000000E+00  0.93800000000E+00 0. -1.
         11    1    1    2    0    0  0.24284750721E+00 -0.18868168632E+00  0.68488026351E+00  0.75075756871E+00  0.51100000000E-03 0.  1.
    9000002    1    1    2    0    0  0.53791003755E-01  0.33238083707E+00  0.15334093625E+00  0.10083292794E+01  0.93800000000E+00 0. -1.
         22    1    1    2    0    0 -0.29663851096E+00 -0.14369915075E+00  0.31617787676E+01  0.31789131519E+01  0.00000000000E+00 0.  1.
</event>
<event>
 5    1  0.1166492E+001  0.1496665E+01  0.7818608E-02  0.3473769E+00
         11   -1    0    0    0    0  0.00000000000E+00  0.00000000000E+00  0.39999999674E+01  0.40000000000E+01  0.51100000000E-03 0. -1.
    9000002   -1    0    0    0    0 -0.00000000000E+00 -0.00000000000E+00  0.00000000000E+00  0.93800000000E+00  0.93800000000E+00 0. -1.
         11    1    1    2    0    0 -0.42161232448E+00 -0.11863236504E+00  0.45179669552E+00  0.62924645839E+00  0.51100000000E-03 0. -1.
    9000002    1    1    2    0    0  0.23788267685E+00  0.59580801280E+00  0.54139869695E+00  0.12587819132E+01  0.93800000000E+00 0. -1.
         22    1    1    2    0    0  0.18372964764E+00 -0.47717564776E+00  0.30068045749E+01  0.30499716284E+01  0.00000000000E+00 0. -1.
</event>
<event>
 5    1  0.1166492E+001  0.1497433E+01  0.7818608E-02  0.3472808E+00
         11   -1    0    0    0    0  0.00000000000E+00  0.00000000000E+00  0.39999999674E+01  0.40000000000E+01  0.51100000000E-03 0.  1.
    9000002   -1    0    0    0    0 -0.00000000000E+00 -0.00000000000E+00  0.00000000000E+00  0.93800000000E+00  0.93800000000E+00 0. -1.
         11    1    1    2    0    0  0.13261071125E-01  0.33727634874E+00  0.12180131872E+01  0.12639175514E+01  0.51100000000E-03 0.  1.
    9000002    1    1    2    0    0 -0.11557142207E+00  0.61095367050E-01  0.90532716446E-01  0.95138297768E+00  0.93800000000E+00 0. -1.
         22    1    1    2    0    0  0.10231035094E+00 -0.39837171579E+00  0.26914540637E+01  0.27226994709E+01  0.00000000000E+00 0.  1.
</event>
<event>
 5    1  0.1166492E+001  0.1563111E+01  0.7818608E-02  0.3394402E+00
         11   -1    0    0    0    0  0.00000000000E+00  0.00000000000E+00  0.39999999674E+01  0.40000000000E+01  0.51100000000E-03 0. -1.
    9000002   -1    0    0    0    0 -0.00000000000E+00 -0.00000000000E+00  0.00000000000E+00  0.93800000000E+00  0.93800000000E+00 0. -1.
         11    1    1    2    0    0 -0.15673970040E+00  0.68593110269E-01  0.12506024236E+01  0.12622515722E+01  0.51100000000E-03 0. -1.
    9000002    1    1    2    0    0 -0.84603221192E-01  0.13123045059E+00  0.43637962047E-01  0.95190724755E+00  0.93800000000E+00 0. -1.
         22    1    1    2    0    0  0.24134292159E+00 -0.19982356086E+00  0.27057595817E+01  0.27238411802E+01  0.00000000000E+00 0. -1.
</event>
<event>
 5    1  0.1166492E+001  0.1512828E+01  0.7818608E-02  0.3453775E+00
         11   -1    0    0    0    0  0.00000000000E+00  0.00000000000E+00  0.39999999674E+01  0.40000000000E+01  0.51100000000E-03 0.  1.
    9000002   -1    0    0    0    0 -0.00000000000E+00 -0.00000000000E+00  0.00000000000E+00  0.93800000000E+00  0.93800000000E+00 0. -1.
         11    1    1    2    0    0 -0.37791725356E+00  0.31669269062E-01  0.94136602047E+00  0.10148865152E+01  0.51100000000E-03 0.  1.
    9000002    1    1    2    0    0 -0.37485088085E+00  0.37529768292E+00  0.43262561104E+00  0.11611935467E+01  0.93800000000E+00 0. -1.
         22    1    1    2    0    0  0.75276813441E+00 -0.40696695198E+00  0.26260083358E+01  0.27619199380E+01  0.00000000000E+00 0.  1.
</event>
<event>
 5    1  0.1166492E+001  0.1583648E+01  0.7818608E-02  0.3371305E+00
         11   -1    0    0    0    0  0.00000000000E+00  0.00000000000E+00  0.39999999674E+01  0.40000000000E+01  0.51100000000E-03 0. -1.
    9000002   -1    0    0    0    0 -0.00000000000E+00 -0.00000000000E+00  0.00000000000E+00  0.93800000000E+00  0.93800000000E+00 0.  1.
         11    1    1    2    0    0 -0.44558452556E-02 -0.10899943655E+00  0.11916538732E+01  0.11966369317E+01  0.51100000000E-03 0. -1.
    9000002    1    1    2    0    0 -0.19188005487E+00 -0.53622820254E-01  0.38383159922E-01  0.95969298699E+00  0.93800000000E+00 0.  1.
         22    1    1    2    0    0  0.19633590013E+00  0.16262225681E+00  0.27699629343E+01  0.27816700813E+01  0.00000000000E+00 0. -1.
</event>
<event>
 5    1  0.1166492E+001  0.1457494E+01  0.7818608E-02  0.3524215E+00
         11   -1    0    0    0    0  0.00000000000E+00  0.00000000000E+00  0.39999999674E+01  0.40000000000E+01  0.51100000000E-03 0. -1.
    9000002   -1    0    0    0    0 -0.00000000000E+00 -0.00000000000E+00  0.00000000000E+00  0.93800000000E+00  0.93800000000E+00 0. -1.
         11    1    1    2    0    0 -0.37154474253E+00 -0.26499331060E+00  0.11681605635E+01  0.12541396706E+01  0.51100000000E-03 0. -1.
    9000002    1    1    2    0    0  0.12677282770E+00 -0.11160771899E+00  0.15017863502E+00  0.96484467931E+00  0.93800000000E+00 0. -1.
         22    1    1    2    0    0  0.24477191483E+00  0.37660102958E+00  0.26816607689E+01  0.27190156500E+01  0.00000000000E+00 0. -1.
</event>
<event>
 5    1  0.1166492E+001  0.1492603E+01  0.7818608E-02  0.3478867E+00
         11   -1    0    0    0    0  0.00000000000E+00  0.00000000000E+00  0.39999999674E+01  0.40000000000E+01  0.51100000000E-03 0. -1.
    9000002   -1    0    0    0    0 -0.00000000000E+00 -0.00000000000E+00  0.00000000000E+00  0.93800000000E+00  0.93800000000E+00 0. -1.
         11    1    1    2    0    0 -0.31532761295E+00 -0.12510646101E+00  0.11601742599E+01  0.12087546089E+01  0.51100000000E-03 0. -1.
    9000002    1    1    2    0    0 -0.98407765411E-01  0.62805519347E-01  0.91949776193E-01  0.94969857476E+00  0.93800000000E+00 0. -1.
         22    1    1    2    0    0  0.41373537836E+00  0.62300941660E-01  0.27478759312E+01  0.27795468163E+01  0.00000000000E+00 0. -1.
</event>
<event>
 5    1  0.1166492E+001  0.1585663E+01  0.7818608E-02  0.3369073E+00
         11   -1    0    0    0    0  0.00000000000E+00  0.00000000000E+00  0.39999999674E+01  0.40000000000E+01  0.51100000000E-03 0.  1.
    9000002   -1    0    0    0    0 -0.00000000000E+00 -0.00000000000E+00  0.00000000000E+00  0.93800000000E+00  0.93800000000E+00 0.  1.
         11    1    1    2    0    0  0.39364352681E-01 -0.33356232628E-01  0.10041336924E+01  0.10054585640E+01  0.51100000000E-03 0.  1.
    9000002    1    1    2    0    0 -0.14565550415E-01 -0.33501619424E+00  0.86549710411E-01  0.99989142312E+00  0.93800000000E+00 0.  1.
         22    1    1    2    0    0 -0.24798802266E-01  0.36837242687E+00  0.29093165645E+01  0.29326500129E+01  0.00000000000E+00 0.  1.
</event>
<event>
 5    1  0.1166492E+001  0.1511925E+01  0.7818608E-02  0.3454879E+00
         11   -1    0    0    0    0  0.00000000000E+00  0.00000000000E+00  0.39999999674E+01  0.40000000000E+01  0.51100000000E-03 0.  1.
    9000002   -1    0    0    0    0 -0.00000000000E+00 -0.00000000000E+00  0.00000000000E+00  0.93800000000E+00  0.93800000000E+00 0. -1.
         11    1    1    2    0    0 -0.25006363915E+00 -0.14803199957E+00  0.95628678591E+00  0.99946484408E+00  0.51100000000E-03 0.  1.
    9000002    1    1    2    0    0 -0.33987633911E-01 -0.74303045278E-01  0.71227357810E-01  0.94424225615E+00  0.93800000000E+00 0. -1.
         22    1    1    2    0    0  0.28405127306E+00  0.22233504485E+00  0.29724858236E+01  0.29942928998E+01  0.00000000000E+00 0.  1.
</event>
<event>
 5    1  0.1166492E+001  0.1560010E+01  0.7818608E-02  0.3397945E+00
         11   -1    0    0    0    0  0.00000000000E+00  0.00000000000E+00  0.39999999674E+01  0.40000000000E+01  0.51100000000E-03 0.  1.
    9000002   -1    0    0    0    0 -0.00000000000E+00 -0.00000000000E+00  0.00000000000E+00  0.93800000000E+00  0.93800000000E+00 0. -1.
         11    1    1    2    0    0 -0.29384311695E+00  0.24478881166E+00  0.42498992409E+00  0.57173598487E+00  0.51100000000E-03 0.  1.
    9000002    1    1    2    0    0 -0.99427836342E-01  0.29475221691E+00  0.31298589664E+00  0.10366141691E+01  0.93800000000E+00 0. -1.
         22    1    1    2    0    0  0.39327095330E+00 -0.53954102857E+00  0.32620241466E+01  0.33296498461E+01  0.00000000000E+00 0.  1.
</event>
<event>
 5    1  0.1166492E+001  0.1585883E+01  0.7818608E-02  0.3368829E+00
         11   -1    0    0    0    0  0.00000000000E+00  0.00000000000E+00  0.39999999674E+01  0.40000000000E+01  0.51100000000E-03 0. -1.
    9000002   -1    0    0    0    0 -0.00000000000E+00 -0.00000000000E+00  0.00000000000E+00  0.93800000000E+00  0.93800000000E+00 0.  1.
         11    1    1    2    0    0 -0.53579605170E-01  0.11962226171E+00  0.67526091171E+00  0.68786468117E+00  0.51100000000E-03 0. -1.
    9000002    1    1    2    0    0  0.38056252775E+00 -0.74936090059E-01  0.11279212023E+00  0.10212782762E+01  0.93800000000E+00 0.  1.
         22    1    1    2    0    0 -0.32698292258E+00 -0.44686171646E-01  0.32119469354E+01  0.32288570426E+01  0.00000000000E+00 0.  1.
</event>
<event>
 5    1  0.1166492E+001  0.1550231E+01  0.7818608E-02  0.3409218E+00
         11   -1    0    0    0    0  0.00000000000E+00  0.00000000000E+00  0.39999999674E+01  0.40000000000E+01  0.51100000000E-03 0.  1.
    9000002   -1    0    0    0    0 -0.00000000000E+00 -0.00000000000E+00  0.00000000000E+00  0.93800000000E+00  0.93800000000E+00 0.  1.
         11    1    1    2    0    0  0.10959151435E+00  0.10161836001E+00  0.53864102553E+00  0.55899106130E+00  0.51100000000E-03 0.  1.
    9000002    1    1    2    0    0  0.54355578661E-01  0.30269740155E+00  0.10306707908E+00  0.99249537461E+00  0.93800000000E+00 0.  1.
         22    1    1    2    0    0 -0.16394709301E+00 -0.40431576156E+00  0.33582918627E+01  0.33865135641E+01  0.00000000000E+00 0.  1.
</event>
<event>
 5    1  0.1166492E+001  0.1479159E+01  0.7818608E-02  0.3495957E+00
         11   -1    0    0    0    0  0.00000000000E+00  0.00000000000E+00  0.39999999674E+01  0.40000000000E+01  0.51100000000E-03 0.  1.
    9000002   -1    0    0    0    0 -0.00000000000E+00 -0.00000000000E+00  0.00000000000E+00  0.93800000000E+00  0.93800000000E+00 0. -1.
         11    1    1    2    0    0  0.31593404857E+00  0.74273375463E-01  0.89339192963E+00  0.95051578546E+00  0.51100000000E-03 0.  1.
    9000002    1    1    2    0    0  0.12571989916E+00  0.86269694862E-02  0.10478170990E+00  0.95220960107E+00  0.93800000000E+00 0. -1.
         22    1    1    2    0    0 -0.44165394772E+00 -0.82900344949E-01  0.30018263278E+01  0.30352746135E+01  0.00000000000E+00 0.  1.
</event>
<event>
 5    1  0.1166492E+001  0.1596203E+01  0.7818608E-02  0.3357495E+00
         11   -1    0    0    0    0  0.00000000000E+00  0.00000000000E+00  0.39999999674E+01  0.40000000000E+01  0.51100000000E-03 0.  1.
    9000002   -1    0    0    0    0 -0.00000000000E+00 -0.00000000000E+00  0.00000000000E+00  0.93800000000E+00  0.93800000000E+00 0.  1.
         11    1    1    2    0    0 -0.18444398633E-01  0.13846287454E+00  0.71589155576E+00  0.72939231158E+00  0.51100000000E-03 0.  1.
    9000002    1    1    2    0    0  0.11041123483E+00 -0.44553078904E+00  0.14631713207E+00  0.10544861440E+01  0.93800000000E+00 0.  1.
         22    1    1    2    0    0 -0.91966836197E-01  0.30706791450E+00  0.31377912795E+01  0.31541215444E+01  0.00000000000E+00 0.  1.
</event>
<event>
 5    1  0.1166492E+001  0.1546859E+01  0.7818608E-02  0.3413140E+00
         11   -1    0    0    0    0  0.00000000000E+00  0.00000000000E+00  0.39999999674E+01  0.40000000000E+01  0.51100000000E-03 0.  1.
    9000002   -1    0    0    0    0 -0.00000000000E+00 -0.00000000000E+00  0.00000000000E+00  0.93800000000E+00  0.93800000000E+00 0. -1.
         11    1    1    2    0    0 -0.66738029662E-01 -0.25017752245E+00  0.14083712912E+01  0.14319751088E+01  0.51100000000E-03 0.  1.
    9000002    1    1    2    0    0 -0.21576458189E+00  0.76255426935E-01  0.75871329813E-01  0.96848836009E+00  0.93800000000E+00 0. -1.
         22    1    1    2    0    0  0.28250261155E+00  0.17392209551E+00  0.25157573464E+01  0.25375365311E+01  0.00000000000E+00 0.  1.
</event>
<event>
 5    1  0.1166492E+001  0.1495691E+01  0.7818608E-02  0.3474988E+00
         11   -1    0    0    0    0  0.00000000000E+00  0.00000000000E+00  0.39999999674E+01  0.40000000000E+01  0.51100000000E-03 0. -1.
    9000002   -1    0    0    0    0 -0.00000000000E+00 -0.00000000000E+00  0.00000000000E+00  0.93800000000E+00  0.93800000000E+00 0. -1.
         11    1    1    2    0    0 -0.35911585510E+00  0.26711282382E-01  0.14086065495E+01  0.14539086499E+01  0.51100000000E-03 0. -1.
    9000002    1    1    2    0    0 -0.36867330716E-01 -0.25606222524E-01  0.80890678454E-01  0.94255089017E+00  0.93800000000E+00 0. -1.
         22    1    1    2    0    0  0.39598318582E+00 -0.11050598579E-02  0.25105027394E+01  0.25415404599E+01  0.00000000000E+00 0. -1.
</event>
<event>
 5    1  0.1166492E+001  0.1541849E+01  0.7818608E-02  0.3419002E+00
         11   -1    0    0    0    0  0.00000000000E+00  0.00000000000E+00  0.39999999674E+01  0.40000000000E+01  0.51100000000E-03 0. -1.
    9000002   -1    0    0    0    0 -0.00000000000E+00 -0.00000000000E+00  0.00000000000E+00  0.93800000000E+00  0.93800000000E+00 0. -1.
         11    1    1    2    0    0 -0.18590897889E+00  0.63302862170E-01  0.67044404997E+00  0.69861640838E+00  0.51100000000E-03 0. -1.
    9000002    1    1    2    0    0 -0.14568606251E+00 -0.34179317938E-01  0.58743004276E-01  0.95167609781E+00  0.93800000000E+00 0. -1.
         22    1    1    2    0    0  0.33159504140E+00 -0.29123544232E-01  0.32708129131E+01  0.32877074938E+01  0.00000000000E+00 0. -1.
</event>
<event>
 5    1  0.1166492E+001  0.1462503E+01  0.7818608E-02  0.3517602E+00
         11   -1    0    0    0    0  0.00000000000E+00  0.00000000000E+00  0.39999999674E+01  0.40000000000E+01  0.51100000000E-03 0. -1.
    9000002   -1    0    0    0    0 -0.00000000000E+00 -0.00000000000E+00  0.00000000000E+00  0.93800000000E+00  0.93800000000E+00 0.  1.
         11    1    1    2    0    0  0.23200085066E+00  0.23891359767E+00  0.74791029730E+00  0.81870273958E+00  0.51100000000E-03 0. -1.
    9000002    1    1    2    0    0  0.53483086107E-01  0.10788181323E+00  0.11782502857E+00  0.95300874261E+00  0.93800000000E+00 0.  1.
         22    1    1    2    0    0 -0.28548393677E+00 -0.34679541091E+00  0.31342646415E+01  0.31662885178E+01  0.00000000000E+00 0. -1.
</event>
<event>
 5    1  0.1166492E+001  0.1540755E+01  0.7818608E-02  0.3420288E+00
         11   -1    0    0    0    0  0.00000000000E+00  0.00000000000E+00  0.39999999674E+01  0.40000000000E+01  0.51100000000E-03 0. -1.
    9000002   -1    0    0    0    0 -0.00000000000E+00 -0.00000000000E+00  0.00000000000E+00  0.93800000000E+00  0.93800000000E+00 0.  1.
         11    1    1    2    0    0 -0.13218994559E+00 -0.13183898337E+00  0.11542832080E+01  0.11692842617E+01  0.51100000000E-03 0. -1.
    9000002    1    1    2    0    0 -0.24442049994E+00 -0.13257941874E+00  0.98575377475E-01  0.98330045668E+00  0.93800000000E+00 0.  1.
         22    1    1    2    0    0  0.37661044553E+00  0.26441840211E+00  0.27471413819E+01  0.27854152816E+01  0.00000000000E+00 0. -1.
</event>
<event>
 5    1  0.1166492E+001  0.1564785E+01  0.7818608E-02  0.3392495E+00
         11   -1    0    0    0    0  0.00000000000E+00  0.00000000000E+00  0.39999999674E+01  0.40000000000E+01  0.51100000000E-03 0.  1.
    9000002   -1    0    0    0    0 -0.00000000000E+00 -0.00000000000E+00  0.00000000000E+00  0.93800000000E+00  0.93800000000E+00 0. -1.
         11    1    1    2    0    0  0.23180957830E-01  0.18093557122E+00  0.98488960916E+00  0.10016400756E+01  0.51100000000E-03 0.  1.
    9000002    1    1    2    0    0  0.37429737105E+00 -0.97970600955E-01  0.13016238183E+00  0.10229775199E+01  0.93800000000E+00 0. -1.
         22    1    1    2    0    0 -0.39747832888E+00 -0.82964970263E-01  0.28849479764E+01  0.29133824044E+01  0.00000000000E+00 0.  1.
</event>
<event>
 5    1  0.1166492E+001  0.1576421E+01  0.7818608E-02  0.3379360E+00
         11   -1    0    0    0    0  0.00000000000E+00  0.00000000000E+00  0.39999999674E+01  0.40000000000E+01  0.51100000000E-03 0. -1.
    9000002   -1    0    0    0    0 -0.00000000000E+00 -0.00000000000E+00  0.00000000000E+00  0.93800000000E+00  0.93800000000E+00 0. -1.
         11    1    1    2    0    0 -0.29756816530E+00 -0.22781095271E+00  0.12837457793E+01  0.13373287293E+01  0.51100000000E-03 0. -1.
    9000002    1    1    2    0    0  0.35772539785E+00  0.54101316925E+00  0.32160596991E+00  0.11848785210E+01  0.93800000000E+00 0. -1.
         22    1    1    2    0    0 -0.60157232552E-01 -0.31320221654E+00  0.23946482181E+01  0.24157927497E+01  0.00000000000E+00 0. -1.
</event>
<event>
 5    1  0.1166492E+001  0.1566214E+01  0.7818608E-02  0.3390870E+00
         11   -1    0    0    0    0  0.00000000000E+00  0.00000000000E+00  0.39999999674E+01  0.40000000000E+01  0.51100000000E-03 0. -1.
    9000002   -1    0    0    0    0 -0.00000000000E+00 -0.00000000000E+00  0.00000000000E+00  0.93800000000E+00  0.93800000000E+00 0.  1.
         11    1    1    2    0    0  0.16675534918E+00  0.17801022212E+00  0.97581356555E+00  0.10058366475E+01  0.51100000000E-03 0. -1.
    9000002    1    1    2    0    0 -0.46413931014E+00  0.33218614500E-01  0.17727513229E+00  0.10619789302E+01  0.93800000000E+00 0.  1.
         22    1    1    2    0    0  0.29738396095E+00 -0.21122883662E+00  0.28469112695E+01  0.28701844223E+01  0.00000000000E+00 0. -1.
</event>
<event>
 5    1  0.1166492E+001  0.1478255E+01  0.7818608E-02  0.3497118E+00
         11   -1    0    0    0    0  0.00000000000E+00  0.00000000000E+00  0.39999999674E+01  0.40000000000E+01  0.51100000000E-03 0.  1.
    9000002   -1    0    0    0    0 -0.00000000000E+00 -0.00000000000E+00  0.00000000000E+00  0.93800000000E+00  0.93800000000E+00 0.  1.
         11    1    1    2    0    0  0.34555832139E+00 -0.18340604901E+00  0.14392285237E+01  0.14914514195E+01  0.51100000000E-03 0.  1.
    9000002    1    1    2    0    0 -0.18431585543E+00 -0.30549358304E+00  0.19109425715E+00  0.10215966322E+01  0.93800000000E+00 0.  1.
         22    1    1    2    0    0 -0.16124246595E+00  0.48889963204E+00  0.23696771865E+01  0.24249519483E+01  0.00000000000E+00 0.  1.
</event>
<event>
 5    1  0.1166492E+001  0.1526561E+01  0.7818608E-02  0.3437144E+00
         11   -1    0    0    0    0  0.00000000000E+00  0.00000000000E+00  0.39999999674E+01  0.40000000000E+01  0.51100000000E-03 0.  1.
    9000002   -1    0    0    0    0 -0.00000000000E+00 -0.00000000000E+00  0.00000000000E+00  0.93800000000E+00  0.93800000000E+00 0.  1.
         11    1    1    2    0    0  0.20856479302E+00 -0.18224469377E+00  0.13188421865E+01  0.13476117302E+01  0.51100000000E-03 0.  1.
    9000002    1    1    2    0    0  0.35273575565E-01 -0.95245378153E-01  0.62226058340E-01  0.94553264858E+00  0.93800000000E+00 0.  1.
         22    1    1    2    0    0 -0.24383836858E+00  0.27749007193E+00  0.26189317225E+01  0.26448556213E+01  0.00000000000E+00 0.  1.
</event>
<event>
 5    1  0.1166492E+001  0.1595785E+01  0.7818608E-02  0.3357951E+00
         11   -1    0    0    0    0  0.00000000000E+00  0.00000000000E+00  0.39999999674E+01  0.40000000000E+01  0.51100000000E-03 0.  1.
    9000002   -1    0    0    0    0 -0.00000000000E+00 -0.00000000000E+00  0.00000000000E+00  0.93800000000E+00  0.93800000000E+00 0.  1.
         11    1    1    2    0    0 -0.49233267946E-01 -0.27061352386E-01  0.95264398611E+00  0.95429924911E+00  0.51100000000E-03 0.  1.
    9000002    1    1    2    0    0  0.29780916731E-01  0.31287172867E+00  0.69060559533E-01  0.99165971103E+00  0.93800000000E+00 0.  1.
         22    1    1    2    0    0  0.19452351215E-01 -0.28581037628E+00  0.29782954217E+01  0.29920410399E+01  0.00000000000E+00 0.  1.
</event>
<event>
 5    1  0.1166492E+001  0.1578450E+01  0.7818608E-02  0.3377090E+00
         11   -1    0    0    0    0  0.00000000000E+00  0.00000000000E+00  0.39999999674E+01  0.40000000000E+01  0.51100000000E-03 0.  1.
    9000002   -1    0    0    0    0 -0.00000000000E+00 -0.00000000000E+00  0.00000000000E+00  0.93800000000E+00  0.93800000000E+00 0.  1.
         11    1    1    2    0    0  0.29856352237E+00 -0.26876407357E+00  0.11238584315E+01  0.11934958481E+01  0.51100000000E-03 0.  1.
    9000002    1    1    2    0    0 -0.64074852752E+00  0.41434333362E+00  0.45024686969E+00  0.12902733498E+01  0.93800000000E+00 0.  1.
         22    1    1    2    0    0  0.34218500516E+00 -0.14557926005E+00  0.24258946661E+01  0.24542308021E+01  0.00000000000E+00 0.  1.
</event>
<event>
 5    1  0.1166492E+001  0.1521206E+01  0.7818608E-02  0.3443590E+00
         11   -1    0    0    0    0  0.00000000000E+00  0.00000000000E+00  0.39999999674E+01  0.40000000000E+01  0.51100000000E-03 0.  1.
    9000002   -1    0    0    0    0 -0.00000000000E+00 -0.00000000000E+00  0.00000000000E+00  0.93800000000E+00  0.93800000000E+00 0. -1.
         11    1    1    2    0    0 -0.25992017613E+00  0.12127224634E+00  0.89825643161E+00  0.94293707836E+00  0.51100000000E-03 0.  1.
    9000002    1    1    2    0    0 -0.99206386112E-02 -0.46495508414E-01  0.60708747945E-01  0.94116406830E+00  0.93800000000E+00 0. -1.
         22    1    1    2    0    0  0.26984081474E+00 -0.74776737926E-01  0.30410347878E+01  0.30538988533E+01  0.00000000000E+00 0.  1.
</event>
<event>
 5    1  0.1166492E+001  0.1589353E+01  0.7818608E-02  0.3365001E+00
         11   -1    0    0    0    0  0.00000000000E+00  0.00000000000E+00  0.39999999674E+01  0.40000000000E+01  0.51100000000E-03 0.  1.
    9000002   -1    0    0    0    0 -0.00000000000E+00 -0.00000000000E+00  0.00000000000E+00  0.93800000000E+00  0.93800000000E+00 0. -1.
         11    1    1    2    0    0  0.29011713362E-01  0.28714383254E-01  0.13900986333E+01  0.13906979064E+01  0.51100000000E-03 0.  1.
    9000002    1    1    2    0    0  0.24183878401E+00 -0.94427267805E-02  0.46792117303E-01  0.96984981558E+00  0.93800000000E+00 0. -1.
         22    1    1    2    0    0 -0.27085049737E+00 -0.19271656473E-01  0.25631092168E+01  0.25774522781E+01  0.00000000000E+00 0.  1.
</event>
<event>
 5    1  0.1166492E+001  0.1532377E+01  0.7818608E-02  0.3430196E+00
         11   -1    0    0    0    0  0.00000000000E+00  0.00000000000E+00  0.39999999674E+01  0.40000000000E+01  0.51100000000E-03 0.  1.
    9000002   -1    0    0    0    0 -0.00000000000E+00 -0.00000000000E+00  0.00000000000E+00  0.93800000000E+00  0.93800000000E+00 0. -1.
         11    1    1    2    0    0 -0.23577471485E+00 -0.21713023580E+00  0.13154711853E+01  0.13539571470E+01  0.51100000000E-03 0.  1.
    9000002    1    1    2    0    0  0.13383733402E+00 -0.23829098011E-01  0.63431469627E-01  0.94991989622E+00  0.93800000000E+00 0. -1.
         22    1    1    2    0    0  0.10193738084E+00  0.24095933381E+00  0.26210973124E+01  0.26341229568E+01  0.00000000000E+00 0.  1.
</event>
<event>
 5    1  0.1166492E+001  0.1450505E+01  0.7818608E-02  0.3533528E+00
         11   -1    0    0    0    0  0.00000000000E+00  0.00000000000E+00  0.39999999674E+01  0.40000000000E+01  0.51100000000E-03 0.  1.
    9000002   -1    0    0    0    0 -0.00000000000E+00 -0.00000000000E+00  0.00000000000E+00  0.93800000000E+00  0.93800000000E+00 0. -1.
         11    1    1    2    0    0  0.12800984473E+00 -0.34056201612E+00  0.68167453686E+00  0.77268974530E+00  0.51100000000E-03 0.  1.
    9000002    1    1    2    0    0 -0.22029627086E+00 -0.57856212877E-01  0.15736179856E+00  0.97800026788E+00  0.93800000000E+00 0. -1.
         22    1    1    2    0    0  0.92286426127E-01  0.39841822900E+00  0.31609636319E+01  0.31873099868E+01  0.00000000000E+00 0.  1.
</event>
<event>
 5    1  0.1166492E+001  0.1574479E+01  0.7818608E-02  0.3381538E+00
         11   -1    0    0    0    0  0.00000000000E+00  0.00000000000E+00  0.39999999674E+01  0.40000000000E+01  0.51100000000E-03 0.  1.
    9000002   -1    0    0    0    0 -0.00000000000E+00 -0.00000000000E+00  0.00000000000E+00  0.93800000000E+00  0.93800000000E+00 0.  1.
         11    1    1    2    0    0  0.17664873613E+00  0.14509192097E+00  0.10297667763E+01  0.10548347341E+01  0.51100000000E-03 0.  1.
    9000002    1    1    2    0    0 -0.47195056321E-01 -0.38825075326E+00  0.12420259996E+00  0.10238341206E+01  0.93800000000E+00 0.  1.
         22    1    1    2    0    0 -0.12945367981E+00  0.24315883229E+00  0.28460305911E+01  0.28593311453E+01  0.00000000000E+00 0.  1.
</event>
<event>
 5    1  0.1166492E+001  0.1591457E+01  0.7818608E-02  0.3362688E+00
         11   -1    0    0    0    0  0.00000000000E+00  0.00000000000E+00  0.39999999674E+01  0.40000000000E+01  0.51100000000E-03 0.  1.
    9000002   -1    0    0    0    0 -0.00000000000E+00 -0.00000000000E+00  0.00000000000E+00  0.93800000000E+00  0.93800000000E+00 0. -1.
         11    1    1    2    0    0  0.17845655895E-01 -0.15871158337E-01  0.74041213563E+00  0.74079737636E+00  0.51100000000E-03 0.  1.
    9000002    1    1    2    0    0  0.35451932101E+00  0.13189186738E+00  0.10301905998E+00  0.10166298935E+01  0.93800000000E+00 0. -1.
         22    1    1    2    0    0 -0.37236497690E+00 -0.11602070904E+00  0.31565687717E+01  0.31805727301E+01  0.00000000000E+00 0.  1.
</event>
<event>
 5    1  0.1166492E+001  0.1574823E+01  0.7818608E-02  0.3381152E+00
         11   -1    0    0    0    0  0.00000000000E+00  0.00000000000E+00  0.39999999674E+01  0.40000000000E+01  0.51100000000E-03 0.  1.
    9000002   -1    0    0    0    0 -0.00000000000E+00 -0.00000000000E+00  0.00000000000E+00  0.93800000000E+00  0.93800000000E+00 0.  1.
         11    1    1    2    0    0 -0.63266198817E-01  0.15230312359E+00  0.11952126833E+01  0.12065373897E+01  0.51100000000E-03 0.  1.
    9000002    1    1    2    0    0 -0.21199941272E+00 -0.10997142173E+00  0.57005989098E-01  0.96960360322E+00  0.93800000000E+00 0.  1.
         22    1    1    2    0    0  0.27526561154E+00 -0.42331701860E-01  0.27477812950E+01  0.27618590071E+01  0.00000000000E+00 0. -1.
</event>
<event>
 5    1  0.1166492E+001  0.1536730E+01  0.7818608E-02  0.3425033E+00
         11   -1    0    0    0    0  0.00000000000E+00  0.00000000000E+00  0.39999999674E+01  0.40000000000E+01  0.51100000000E-03 0.  1.
    9000002   -1    0    0    0    0 -0.00000000000E+00 -0.00000000000E+00  0.00000000000E+00  0.93800000000E+00  0.93800000000E+00 0. -1.
         11    1    1    2    0    0  0.57482592777E-01  0.34224418465E+00  0.11571287333E+01  0.12080490457E+01  0.51100000000E-03 0.  1.
    9000002    1    1    2    0    0 -0.38931292789E+00 -0.22940255133E+00  0.19535846589E+00  0.10593389526E+01  0.93800000000E+00 0. -1.
         22    1    1    2    0    0  0.33183033511E+00 -0.11284163331E+00  0.26475127682E+01  0.26706120016E+01  0.00000000000E+00 0.  1.
</event>
<event>
 5    1  0.1166492E+001  0.1553152E+01  0.7818608E-02  0.3405835E+00
         11   -1    0    0    0    0  0.00000000000E+00  0.00000000000E+00  0.39999999674E+01  0.40000000000E+01  0.51100000000E-03 0. -1.
    9000002   -1    0    0    0    0 -0.00000000000E+00 -0.00000000000E+00  0.00000000000E+00  0.93800000000E+00  0.93800000000E+00 0.  1.
         11    1    1    2    0    0  0.19517878927E+00 -0.55837904072E-01  0.90962132565E+00  0.93199991873E+00  0.51100000000E-03 0. -1.
    9000002    1    1    2    0    0  0.84767972604E-01  0.57733333113E-01  0.41717473609E-01  0.94451209338E+00  0.93800000000E+00 0.  1.
         22    1    1    2    0    0 -0.27994676187E+00 -0.18954290411E-02  0.30486611681E+01  0.30614879879E+01  0.00000000000E+00 0. -1.
</event>
<event>
 5    1  0.1166492E+001  0.1588435E+01  0.7818608E-02  0.3366012E+00
         11   -1    0    0    0    0  0.00000000000E+00  0.00000000000E+00  0.39999999674E+01  0.40000000000E+01  0.51100000000E-03 0.  1.
    9000002   -1    0    0    0    0 -0.00000000000E+00 -0.00000000000E+00  0.00000000000E+00  0.93800000000E+00  0.93800000000E+00 0.  1.
         11    1    1    2    0    0  0.55522698289E-01  0.35412545777E-02  0.14195145771E+00  0.15246569443E+00  0.51100000000E-03 0.  1.
    9000002    1    1    2    0    0 -0.21897908280E+00 -0.43674061464E+00  0.17318501547E+00  0.10716955038E+01  0.93800000000E+00 0.  1.
         22    1    1    2    0    0  0.16345638452E+00  0.43319936006E+00  0.36848634942E+01  0.37138388018E+01  0.00000000000E+00 0.  1.
</event>
<event>
 5    1  0.1166492E+001  0.1568957E+01  0.7818608E-02  0.3387761E+00
         11   -1    0    0    0    0  0.00000000000E+00  0.00000000000E+00  0.39999999674E+01  0.40000000000E+01  0.51100000000E-03 0.  1.
    9000002   -1    0    0    0    0 -0.00000000000E+00 -0.00000000000E+00  0.00000000000E+00  0.93800000000E+00  0.93800000000E+00 0. -1.
         11    1    1    2    0    0  0.14445450717E-01 -0.20360678057E+00  0.12986403460E+01  0.13145841174E+01  0.51100000000E-03 0.  1.
    9000002    1    1    2    0    0 -0.21480761506E+00  0.40837962867E-01  0.55236259683E-01  0.96473058160E+00  0.93800000000E+00 0. -1.
         22    1    1    2    0    0  0.20036216434E+00  0.16276881771E+00  0.26461233616E+01  0.26586853010E+01  0.00000000000E+00 0.  1.
</event>
<event>
 5    1  0.1166492E+001  0.1598677E+01  0.7818608E-02  0.3354801E+00
         11   -1    0    0    0    0  0.00000000000E+00  0.00000000000E+00  0.39999999674E+01  0.40000000000E+01  0.51100000000E-03 0. -1.
    9000002   -1    0    0    0    0 -0.00000000000E+00 -0.00000000000E+00  0.00000000000E+00  0.93800000000E+00  0.93800000000E+00 0. -1.
         11    1    1    2    0    0  0.92869083536E-01 -0.68520073684E-01  0.59236169715E+00  0.60350004850E+00  0.51100000000E-03 0. -1.
    9000002    1    1    2    0    0 -0.45901359809E+00  0.55247237724E+00  0.37171939865E+00  0.12385227177E+01  0.93800000000E+00 0. -1.
         22    1    1    2    0    0  0.36614451456E+00 -0.48395230356E+00  0.30359188716E+01  0.30959772338E+01  0.00000000000E+00 0. -1.
</event>
<event>
 5    1  0.1166492E+001  0.1463809E+01  0.7818608E-02  0.3515885E+00
         11   -1    0    0    0    0  0.00000000000E+00  0.00000000000E+00  0.39999999674E+01  0.40000000000E+01  0.51100000000E-03 0. -1.
    9000002   -1    0    0    0    0 -0.00000000000E+00 -0.00000000000E+00  0.00000000000E+00  0.93800000000E+00  0.93800000000E+00 0.  1.
         11    1    1    2    0    0 -0.20187610563E+00  0.29629371368E+00  0.69631906631E+00  0.78320139813E+00  0.51100000000E-03 0. -1.
    9000002    1    1    2    0    0  0.80462658283E-01 -0.24132042659E-01  0.11103865538E+00  0.94827747935E+00  0.93800000000E+00 0.  1.
         22    1    1    2    0    0  0.12141344735E+00 -0.27216167103E+00  0.31926422457E+01  0.32065211225E+01  0.00000000000E+00 0. -1.
</event>
<event>
 5    1  0.1281177E+001  0.1589423E+01  0.7818608E-02  0.3364924E+00
         11   -1    0    0    0    0  0.00000000000E+00  0.00000000000E+00  0.39999999674E+01  0.40000000000E+01  0.51100000000E-03 0.  1.
    9000002   -1    0    0    0    0 -0.00000000000E+00 -0.00000000000E+00  0.00000000000E+00  0.93800000000E+00  0.93800000000E+00 0. -1.
         11    1    1    2    0    0  0.12532401431E+00 -0.30068744493E+00  0.14621698712E+01  0.14980187053E+01  0.51100000000E-03 0.  1.
    9000002    1    1    2    0    0 -0.14732253214E+00  0.52345176819E+00  0.21368862955E+00  0.11050848440E+01  0.93800000000E+00 0. -1.
         22    1    1    2    0    0  0.21998517838E-01 -0.22276432325E+00  0.23241414666E+01  0.23348964506E+01  0.00000000000E+00 0.  1.
</event>
<event>
 5    1  0.1166492E+001  0.1593873E+01  0.7818608E-02  0.3360041E+00
         11   -1    0    0    0    0  0.00000000000E+00  0.00000000000E+00  0.39999999674E+01  0.40000000000E+01  0.51100000000E-03 0.  1.
    9000002   -1    0    0    0    0 -0.00000000000E+00 -0.00000000000E+00  0.00000000000E+00  0.93800000000E+00  0.93800000000E+00 0. -1.
         11    1    1    2    0    0 -0.15903030251E+00  0.39372253989E-01  0.87258652175E+00  0.88783349259E+00  0.51100000000E-03 0.  1.
    9000002    1    1    2    0    0  0.47718695804E+00  0.83871048680E-01  0.16546008319E+00  0.10686265881E+01  0.93800000000E+00 0. -1.
         22    1    1    2    0    0 -0.31815665553E+00 -0.12324330267E+00  0.29619533624E+01  0.29815399193E+01  0.00000000000E+00 0.  1.
</event>
<event>
 5    1  0.1166492E+001  0.1518667E+01  0.7818608E-02  0.3446664E+00
         11   -1    0    0    0    0  0.00000000000E+00  0.00000000000E+00  0.39999999674E+01  0.40000000000E+01  0.51100000000E-03 0.  1.
    9000002   -1    0    0    0    0 -0.00000000000E+00 -0.00000000000E+00  0.00000000000E+00  0.93800000000E+00  0.93800000000E+00 0.  1.
         11    1    1    2    0    0  0.29076575216E+00  0.41113725554E-02  0.11177493216E+01  0.11549568966E+01  0.51100000000E-03 0.  1.
    9000002    1    1    2    0    0  0.64531738747E-01  0.44157337929E-01  0.65464599516E-01  0.94352733378E+00  0.93800000000E+00 0.  1.
         22    1    1    2    0    0 -0.35529749090E+00 -0.48268710484E-01  0.28167860462E+01  0.28395157696E+01  0.00000000000E+00 0.  1.
</event>
<event>
 5    1  0.1166492E+001  0.1567892E+01  0.7818608E-02  0.3388967E+00
         11   -1    0    0    0    0  0.00000000000E+00  0.00000000000E+00  0.39999999674E+01  0.40000000000E+01  0.51100000000E-03 0. -1.
    9000002   -1    0    0    0    0 -0.00000000000E+00 -0.00000000000E+00  0.00000000000E+00  0.93800000000E+00  0.93800000000E+00 0.  1.
         11    1    1    2    0    0 -0.11371617916E+00 -0.84436588211E-01  0.88816906342E+00  0.89939171286E+00  0.51100000000E-03 0. -1.
    9000002    1    1    2    0    0 -0.22560245206E+00  0.58508137375E-01  0.60557909370E-01  0.96841671242E+00  0.93800000000E+00 0.  1.
         22    1    1    2    0    0  0.33931863121E+00  0.25928450837E-01  0.30512729946E+01  0.30701915747E+01  0.00000000000E+00 0. -1.
</event>
<event>
 5    1  0.1166492E+001  0.1497398E+01  0.7818608E-02  0.3472851E+00
         11   -1    0    0    0    0  0.00000000000E+00  0.00000000000E+00  0.39999999674E+01  0.40000000000E+01  0.51100000000E-03 0.  1.
    9000002   -1    0    0    0    0 -0.00000000000E+00 -0.00000000000E+00  0.00000000000E+00  0.93800000000E+00  0.93800000000E+00 0. -1.
         11    1    1    2    0    0 -0.27114421642E+00 -0.27841932991E+00  0.10421994752E+01  0.11123023494E+01  0.51100000000E-03 0.  1.
    9000002    1    1    2    0    0  0.25613444133E+00 -0.21854654399E-02  0.12656018390E+00  0.98054633162E+00  0.93800000000E+00 0. -1.
         22    1    1    2    0    0  0.15009775088E-01  0.28060479535E+00  0.28312403083E+01  0.28451513190E+01  0.00000000000E+00 0.  1.
</event>
<event>
 5    1  0.1166492E+001  0.1466075E+01  0.7818608E-02  0.3512914E+00
         11   -1    0    0    0    0  0.00000000000E+00  0.00000000000E+00  0.39999999674E+01  0.40000000000E+01  0.51100000000E-03 0.  1.
    9000002   -1    0    0    0    0 -0.00000000000E+00 -0.00000000000E+00  0.00000000000E+00  0.93800000000E+00  0.93800000000E+00 0. -1.
         11    1    1    2    0    0 -0.30110492855E+00 -0.97172611639E-01  0.41867319656E+00  0.52478014548E+00  0.51100000000E-03 0.  1.
    9000002    1    1    2    0    0  0.59260735580E-01 -0.36651023563E+00  0.24762858398E+00  0.10387518968E+01  0.93800000000E+00 0. -1.
         22    1    1    2    0    0  0.24184419297E+00  0.46368284727E+00  0.33336981868E+01  0.33744679577E+01  0.00000000000E+00 0.  1.
</event>
<event>
 5    1  0.1166492E+001  0.1519834E+01  0.7818608E-02  0.3445249E+00
         11   -1    0    0    0    0  0.00000000000E+00  0.00000000000E+00  0.39999999674E+01  0.40000000000E+01  0.51100000000E-03 0.  1.
    9000002   -1    0    0    0    0 -0.00000000000E+00 -0.00000000000E+00  0.00000000000E+00  0.93800000000E+00  0.93800000000E+00 0.  1.
         11    1    1    2    0    0  0.25659204694E+00  0.23376561773E+00  0.98432691788E+00  0.10437363580E+01  0.51100000000E-03 0.  1.
    9000002    1    1    2    0    0  0.56552265187E-01 -0.40893121560E+00  0.18555122792E+00  0.10414874728E+01  0.93800000000E+00 0.  1.
         22    1    1    2    0    0 -0.31314431212E+00  0.17516559787E+00  0.28301218216E+01  0.28527761692E+01  0.00000000000E+00 0.  1.
</event>
<event>
 5    1  0.1166492E+001  0.1533123E+01  0.7818608E-02  0.3429310E+00
         11   -1    0    0    0    0  0.00000000000E+00  0.00000000000E+00  0.39999999674E+01  0.40000000000E+01  0.51100000000E-03 0. -1.
    9000002   -1    0    0    0    0 -0.00000000000E+00 -0.00000000000E+00  0.00000000000E+00  0.93800000000E+00  0.93800000000E+00 0.  1.
         11    1    1    2    0    0  0.31983015964E-01 -0.28961938591E+00  0.12901881459E+01  0.13226821292E+01  0.51100000000E-03 0. -1.
    9000002    1    1    2    0    0  0.49490283486E-01  0.60349128046E-02  0.51556767127E-01  0.94073790642E+00  0.93800000000E+00 0.  1.
         22    1    1    2    0    0 -0.81473299450E-01  0.28358447311E+00  0.26582550544E+01  0.26745799644E+01  0.00000000000E+00 0. -1.
</event>
<event>
 5    1  0.1166492E+001  0.1560711E+01  0.7818608E-02  0.3397142E+00
         11   -1    0    0    0    0  0.00000000000E+00  0.00000000000E+00  0.39999999674E+01  0.40000000000E+01  0.51100000000E-03 0. -1.
    9000002   -1    0    0    0    0 -0.00000000000E+00 -0.00000000000E+00  0.00000000000E+00  0.93800000000E+00  0.93800000000E+00 0. -1.
         11    1    1    2    0    0  0.14224375429E+00  0.34815095678E-02  0.67289602551E+00  0.68777520224E+00  0.51100000000E-03 0. -1.
    9000002    1    1    2    0    0  0.21519798548E+00 -0.22413409178E-01  0.60995104607E-01  0.96456048885E+00  0.93800000000E+00 0.  1.
         22    1    1    2    0    0 -0.35744173977E+00  0.18931899611E-01  0.32661088372E+01  0.32856643089E+01  0.00000000000E+00 0. -1.
</event>
<event>
 5    1  0.1166492E+001  0.1352908E+01  0.7818608E-02  0.3685465E+00
         11   -1    0    0    0    0  0.00000000000E+00  0.00000000000E+00  0.39999999674E+01  0.40000000000E+01  0.51100000000E-03 0. -1.
    9000002   -1    0    0    0    0 -0.00000000000E+00 -0.00000000000E+00  0.00000000000E+00  0.93800000000E+00  0.93800000000E+00 0.  1.
         11    1    1    2    0    0  0.19349435106E+00  0.63288810544E+00  0.12943756980E+01  0.14537524296E+01  0.51100000000E-03 0. -1.
    9000002    1    1    2    0    0  0.95938047555E-01 -0.29392235258E+00  0.29213075089E+00  0.10299411798E+01  0.93800000000E+00 0.  1.
         22    1    1    2    0    0 -0.28943239861E+00 -0.33896575285E+00  0.24134935185E+01  0.24543063906E+01  0.00000000000E+00 0.  1.
</event>
<event>
 5    1  0.1166492E+001  0.1055172E+01  0.7818608E-02  0.4392872E+00
         11   -1    0    0    0    0  0.00000000000E+00  0.00000000000E+00  0.39999999674E+01  0.40000000000E+01  0.51100000000E-03 0. -1.
    9000002   -1    0    0    0    0 -0.00000000000E+00 -0.00000000000E+00  0.00000000000E+00  0.93800000000E+00  0.93800000000E+00 0. -1.
         11    1    1    2    0    0  0.47050122772E-01  0.93431716314E-01 -0.25508163171E+00  0.27569929202E+00  0.51100000000E-03 0. -1.
    9000002    1    1    2    0    0  0.34154046425E+00 -0.10999297087E+00  0.11246111619E+01  0.15077607927E+01  0.93800000000E+00 0. -1.
         22    1    1    2    0    0 -0.38859058702E+00  0.16561254561E-01  0.31304704372E+01  0.31545399153E+01  0.00000000000E+00 0. -1.
</event>
<event>
 5    1  0.1166492E+001  0.1280067E+01  0.7818608E-02  0.3820797E+00
         11   -1    0    0    0    0  0.00000000000E+00  0.00000000000E+00  0.39999999674E+01  0.40000000000E+01  0.51100000000E-03 0. -1.
    9000002   -1    0    0    0    0 -0.00000000000E+00 -0.00000000000E+00  0.00000000000E+00  0.93800000000E+00  0.93800000000E+00 0. -1.
         11    1    1    2    0    0  0.47187895264E+00 -0.37978097675E+00  0.62579814696E+00  0.87093450850E+00  0.51100000000E-03 0. -1.
    9000002    1    1    2    0    0 -0.32158696396E+00  0.92074040772E-01  0.39676900530E+00  0.10719913470E+01  0.93800000000E+00 0. -1.
         22    1    1    2    0    0 -0.15029198869E+00  0.28770693597E+00  0.29774328151E+01  0.29950741445E+01  0.00000000000E+00 0. -1.
</event>
<event>
 5    1  0.1166492E+001  0.1280773E+01  0.7818608E-02  0.3819395E+00
         11   -1    0    0    0    0  0.00000000000E+00  0.00000000000E+00  0.39999999674E+01  0.40000000000E+01  0.51100000000E-03 0.  1.
    9000002   -1    0    0    0    0 -0.00000000000E+00 -0.00000000000E+00  0.00000000000E+00  0.93800000000E+00  0.93800000000E+00 0.  1.
         11    1    1    2    0    0 -0.67752460218E+00 -0.11847359133E-01  0.12719761073E+01  0.14412159537E+01  0.51100000000E-03 0.  1.
    9000002    1    1    2    0    0  0.80130009399E-01  0.17373347237E+00  0.31830091014E+00  0.10088427069E+01  0.93800000000E+00 0.  1.
         22    1    1    2    0    0  0.59739459278E+00 -0.16188611324E+00  0.24097229499E+01  0.24879413394E+01  0.00000000000E+00 0.  1.
</event>
<event>
 5    1  0.1166492E+001  0.1554864E+01  0.7818608E-02  0.3403858E+00
         11   -1    0    0    0    0  0.00000000000E+00  0.00000000000E+00  0.39999999674E+01  0.40000000000E+01  0.51100000000E-03 0.  1.
    9000002   -1    0    0    0    0 -0.00000000000E+00 -0.00000000000E+00  0.00000000000E+00  0.93800000000E+00  0.93800000000E+00 0. -1.
         11    1    1    2    0    0 -0.24250102651E+00 -0.12581863604E+00  0.12221338917E+01  0.12522973239E+01  0.51100000000E-03 0.  1.
    9000002    1    1    2    0    0  0.59564451796E-01  0.64733671314E+00  0.34704323181E+00  0.11928435559E+01  0.93800000000E+00 0. -1.
         22    1    1    2    0    0  0.18293657471E+00 -0.52151807710E+00  0.24308228439E+01  0.24928591202E+01  0.00000000000E+00 0.  1.
</event>
<event>
 5    1  0.1166492E+001  0.1552656E+01  0.7818608E-02  0.3406408E+00
         11   -1    0    0    0    0  0.00000000000E+00  0.00000000000E+00  0.39999999674E+01  0.40000000000E+01  0.51100000000E-03 0. -1.
    9000002   -1    0    0    0    0 -0.00000000000E+00 -0.00000000000E+00  0.00000000000E+00  0.93800000000E+00  0.93800000000E+00 0. -1.
         11    1    1    2    0    0  0.18412318501E+00  0.16575298509E+00  0.13825100797E+01  0.14045318725E+01  0.51100000000E-03 0. -1.
    9000002    1    1    2    0    0 -0.72983195105E-01  0.74814174483E-01  0.42376901240E-01  0.94475579344E+00  0.93800000000E+00 0. -1.
         22    1    1    2    0    0 -0.11113998990E+00 -0.24056715957E+00  0.25751129864E+01  0.25887123341E+01  0.00000000000E+00 0.  1.
</event>
<event>
 5    1  0.1166492E+001  0.1577640E+01  0.7818608E-02  0.3377995E+00
         11   -1    0    0    0    0  0.00000000000E+00  0.00000000000E+00  0.39999999674E+01  0.40000000000E+01  0.51100000000E-03 0. -1.
    9000002   -1    0    0    0    0 -0.00000000000E+00 -0.00000000000E+00  0.00000000000E+00  0.93800000000E+00  0.93800000000E+00 0. -1.
         11    1    1    2    0    0 -0.23912238683E-01  0.10709932263E+00  0.12138223766E+01  0.12187727774E+01  0.51100000000E-03 0. -1.
    9000002    1    1    2    0    0 -0.80034057369E-01  0.16417924878E+00  0.38665598447E-01  0.95639913455E+00  0.93800000000E+00 0. -1.
         22    1    1    2    0    0  0.10394629605E+00 -0.27127857141E+00  0.27475119924E+01  0.27628280880E+01  0.00000000000E+00 0. -1.
</event>
<event>
 5    1  0.1166492E+001  0.1574704E+01  0.7818608E-02  0.3381285E+00
         11   -1    0    0    0    0  0.00000000000E+00  0.00000000000E+00  0.39999999674E+01  0.40000000000E+01  0.51100000000E-03 0. -1.
    9000002   -1    0    0    0    0 -0.00000000000E+00 -0.00000000000E+00  0.00000000000E+00  0.93800000000E+00  0.93800000000E+00 0. -1.
         11    1    1    2    0    0 -0.87386820451E-01  0.36115694431E-01  0.50094861185E+00  0.50979463768E+00  0.51100000000E-03 0. -1.
    9000002    1    1    2    0    0 -0.19203966478E+00  0.18705564955E+00  0.67305060275E-01  0.97787679184E+00  0.93800000000E+00 0. -1.
         22    1    1    2    0    0  0.27942648523E+00 -0.22317134398E+00  0.34317462952E+01  0.34503285705E+01  0.00000000000E+00 0. -1.
</event>
<event>
 5    1  0.1166492E+001  0.1479690E+01  0.7818608E-02  0.3495275E+00
         11   -1    0    0    0    0  0.00000000000E+00  0.00000000000E+00  0.39999999674E+01  0.40000000000E+01  0.51100000000E-03 0. -1.
    9000002   -1    0    0    0    0 -0.00000000000E+00 -0.00000000000E+00  0.00000000000E+00  0.93800000000E+00  0.93800000000E+00 0. -1.
         11    1    1    2    0    0 -0.25796465141E+00  0.27594318346E+00  0.82977002696E+00  0.91170661983E+00  0.51100000000E-03 0. -1.
    9000002    1    1    2    0    0 -0.54651486600E-01 -0.26052429839E+00  0.14600113139E+00  0.98591075935E+00  0.93800000000E+00 0. -1.
         22    1    1    2    0    0  0.31261613801E+00 -0.15418885073E-01  0.30242288090E+01  0.30403826208E+01  0.00000000000E+00 0. -1.
</event>
<event>
 5    1  0.1166492E+001  0.1543288E+01  0.7818608E-02  0.3417314E+00
         11   -1    0    0    0    0  0.00000000000E+00  0.00000000000E+00  0.39999999674E+01  0.40000000000E+01  0.51100000000E-03 0.  1.
    9000002   -1    0    0    0    0 -0.00000000000E+00 -0.00000000000E+00  0.00000000000E+00  0.93800000000E+00  0.93800000000E+00 0.  1.
         11    1    1    2    0    0  0.15084544036E+00 -0.18336011157E+00  0.97908854347E+00  0.10074670786E+01  0.51100000000E-03 0.  1.
    9000002    1    1    2    0    0  0.13667549138E-01 -0.40038721553E-01  0.43223242554E-01  0.93994795059E+00  0.93800000000E+00 0.  1.
         22    1    1    2    0    0 -0.16451298950E+00  0.22339883312E+00  0.29776881813E+01  0.29905849708E+01  0.00000000000E+00 0.  1.
</event>
<event>
 5    1  0.1166492E+001  0.1577120E+01  0.7818608E-02  0.3378577E+00
         11   -1    0    0    0    0  0.00000000000E+00  0.00000000000E+00  0.39999999674E+01  0.40000000000E+01  0.51100000000E-03 0.  1.
    9000002   -1    0    0    0    0 -0.00000000000E+00 -0.00000000000E+00  0.00000000000E+00  0.93800000000E+00  0.93800000000E+00 0.  1.
         11    1    1    2    0    0 -0.80771580954E-01  0.19440176076E-02  0.37379160947E+00  0.38242418324E+00  0.51100000000E-03 0.  1.
    9000002    1    1    2    0    0 -0.26138329805E+00  0.95056652523E-01  0.69176085576E-01  0.98080901632E+00  0.93800000000E+00 0.  1.
         22    1    1    2    0    0  0.34215487900E+00 -0.97000670130E-01  0.35570322723E+01  0.35747668004E+01  0.00000000000E+00 0.  1.
</event>
<event>
 5    1  0.1166492E+001  0.1578520E+01  0.7818608E-02  0.3377012E+00
         11   -1    0    0    0    0  0.00000000000E+00  0.00000000000E+00  0.39999999674E+01  0.40000000000E+01  0.51100000000E-03 0. -1.
    9000002   -1    0    0    0    0 -0.00000000000E+00 -0.00000000000E+00  0.00000000000E+00  0.93800000000E+00  0.93800000000E+00 0. -1.
         11    1    1    2    0    0 -0.35220346457E-01  0.13741781970E+00  0.91014720413E+00  0.92113643087E+00  0.51100000000E-03 0. -1.
    9000002    1    1    2    0    0 -0.28007342476E+00 -0.12375597970E+00  0.79386165459E-01  0.98990041370E+00  0.93800000000E+00 0. -1.
         22    1    1    2    0    0  0.31529377122E+00 -0.13661840007E-01  0.30104665978E+01  0.30269631554E+01  0.00000000000E+00 0.  1.
</event>
<event>
 5    1  0.1166492E+001  0.1463562E+01  0.7818608E-02  0.3516209E+00
         11   -1    0    0    0    0  0.00000000000E+00  0.00000000000E+00  0.39999999674E+01  0.40000000000E+01  0.51100000000E-03 0. -1.
    9000002   -1    0    0    0    0 -0.00000000000E+00 -0.00000000000E+00  0.00000000000E+00  0.93800000000E+00  0.93800000000E+00 0.  1.
         11    1    1    2    0    0 -0.33028094272E+00  0.56556376153E-01  0.57186206039E+00  0.66280510110E+00  0.51100000000E-03 0. -1.
    9000002    1    1    2    0    0  0.13909586454E+00  0.29658665564E+00  0.18914184923E+00  0.10113999916E+01  0.93800000000E+00 0.  1.
         22    1    1    2    0    0  0.19118507819E+00 -0.35314303179E+00  0.32389960577E+01  0.32637949073E+01  0.00000000000E+00 0. -1.
</event>
<event>
 5    1  0.1166492E+001  0.1588230E+01  0.7818608E-02  0.3366238E+00
         11   -1    0    0    0    0  0.00000000000E+00  0.00000000000E+00  0.39999999674E+01  0.40000000000E+01  0.51100000000E-03 0.  1.
    9000002   -1    0    0    0    0 -0.00000000000E+00 -0.00000000000E+00  0.00000000000E+00  0.93800000000E+00  0.93800000000E+00 0.  1.
         11    1    1    2    0    0  0.21802731724E+00  0.16484578312E-02  0.86016751902E+00  0.88737086406E+00  0.51100000000E-03 0.  1.
    9000002    1    1    2    0    0 -0.50220608169E+00  0.13128488612E+00  0.19562375358E+00  0.10897519547E+01  0.93800000000E+00 0.  1.
         22    1    1    2    0    0  0.28417876445E+00 -0.13293334395E+00  0.29442086948E+01  0.29608771812E+01  0.00000000000E+00 0.  1.
</event>
<event>
 5    1  0.1166492E+001  0.1534137E+01  0.7818608E-02  0.3428105E+00
         11   -1    0    0    0    0  0.00000000000E+00  0.00000000000E+00  0.39999999674E+01  0.40000000000E+01  0.51100000000E-03 0.  1.
    9000002   -1    0    0    0    0 -0.00000000000E+00 -0.00000000000E+00  0.00000000000E+00  0.93800000000E+00  0.93800000000E+00 0. -1.
         11    1    1    2    0    0 -0.36750784803E+00 -0.38940515128E+00  0.11051817533E+01  0.12280575553E+01  0.51100000000E-03 0.  1.
    9000002    1    1    2    0    0  0.61104464142E+00  0.46578737837E+00  0.51644341259E+00  0.13179116943E+01  0.93800000000E+00 0. -1.
         22    1    1    2    0    0 -0.24353679339E+00 -0.76382227095E-01  0.23783748015E+01  0.23920307504E+01  0.00000000000E+00 0.  1.
</event>
<event>
 5    1  0.1166492E+001  0.1565900E+01  0.7818608E-02  0.3391226E+00
         11   -1    0    0    0    0  0.00000000000E+00  0.00000000000E+00  0.39999999674E+01  0.40000000000E+01  0.51100000000E-03 0.  1.
    9000002   -1    0    0    0    0 -0.00000000000E+00 -0.00000000000E+00  0.00000000000E+00  0.93800000000E+00  0.93800000000E+00 0. -1.
         11    1    1    2    0    0  0.36217906914E-01  0.17702288597E+00  0.13296546807E+01  0.13418758027E+01  0.51100000000E-03 0.  1.
    9000002    1    1    2    0    0  0.67454187610E-01  0.69553491717E-01  0.31250350461E-01  0.94350852674E+00  0.93800000000E+00 0. -1.
         22    1    1    2    0    0 -0.10367209452E+00 -0.24657637769E+00  0.26390949362E+01  0.26526156706E+01  0.00000000000E+00 0.  1.
</event>
<event>
 5    1  0.1166492E+001  0.1541210E+01  0.7818608E-02  0.3419752E+00
         11   -1    0    0    0    0  0.00000000000E+00  0.00000000000E+00  0.39999999674E+01  0.40000000000E+01  0.51100000000E-03 0.  1.
    9000002   -1    0    0    0    0 -0.00000000000E+00 -0.00000000000E+00  0.00000000000E+00  0.93800000000E+00  0.93800000000E+00 0. -1.
         11    1    1    2    0    0 -0.16068634167E+00 -0.63299547231E-01  0.45873682410E+00  0.49017003986E+00  0.51100000000E-03 0.  1.
    9000002    1    1    2    0    0 -0.51689099201E-02 -0.30347317406E+00  0.10882739758E+00  0.99187201164E+00  0.93800000000E+00 0. -1.
         22    1    1    2    0    0  0.16585525159E+00  0.36677272129E+00  0.34324357457E+01  0.34559579485E+01  0.00000000000E+00 0.  1.
</event>
<event>
 5    1  0.1166492E+001  0.1591230E+01  0.7818608E-02  0.3362937E+00
         11   -1    0    0    0    0  0.00000000000E+00  0.00000000000E+00  0.39999999674E+01  0.40000000000E+01  0.51100000000E-03 0.  1.
    9000002   -1    0    0    0    0 -0.00000000000E+00 -0.00000000000E+00  0.00000000000E+00  0.93800000000E+00  0.93800000000E+00 0. -1.
         11    1    1    2    0    0 -0.86263575028E-02  0.20429334990E-01  0.45972482130E-01  0.51044118232E-01  0.51100000000E-03 0.  1.
    9000002    1    1    2    0    0 -0.41894452670E+00 -0.13621870495E-01  0.12597312930E+00  0.10350909627E+01  0.93800000000E+00 0. -1.
         22    1    1    2    0    0  0.42757088420E+00 -0.68074644957E-02  0.38280543559E+01  0.38518649190E+01  0.00000000000E+00 0.  1.
</event>
<event>
 5    1  0.1166492E+001  0.1541286E+01  0.7818608E-02  0.3419663E+00
         11   -1    0    0    0    0  0.00000000000E+00  0.00000000000E+00  0.39999999674E+01  0.40000000000E+01  0.51100000000E-03 0.  1.
    9000002   -1    0    0    0    0 -0.00000000000E+00 -0.00000000000E+00  0.00000000000E+00  0.93800000000E+00  0.93800000000E+00 0. -1.
         11    1    1    2    0    0 -0.15312198465E+00  0.23531593386E+00  0.13822935295E+01  0.14105160736E+01  0.51100000000E-03 0.  1.
    9000002    1    1    2    0    0  0.10687972647E+00  0.48901174307E-01  0.53167179377E-01  0.94682910271E+00  0.93800000000E+00 0. -1.
         22    1    1    2    0    0  0.46242258180E-01 -0.28421710816E+00  0.25645392584E+01  0.25806548237E+01  0.00000000000E+00 0.  1.
</event>
<event>
 5    1  0.1166492E+001  0.1559235E+01  0.7818608E-02  0.3398832E+00
         11   -1    0    0    0    0  0.00000000000E+00  0.00000000000E+00  0.39999999674E+01  0.40000000000E+01  0.51100000000E-03 0. -1.
    9000002   -1    0    0    0    0 -0.00000000000E+00 -0.00000000000E+00  0.00000000000E+00  0.93800000000E+00  0.93800000000E+00 0. -1.
         11    1    1    2    0    0  0.12645010257E+00  0.34791520476E+00  0.82594977672E+00  0.90511209965E+00  0.51100000000E-03 0. -1.
    9000002    1    1    2    0    0 -0.33746897872E+00 -0.62041790267E+00  0.40435874591E+00  0.12418348042E+01  0.93800000000E+00 0. -1.
         22    1    1    2    0    0  0.21101887616E+00  0.27250269792E+00  0.27696914447E+01  0.27910530961E+01  0.00000000000E+00 0. -1.
</event>
<event>
 5    1  0.1166492E+001  0.1548739E+01  0.7818608E-02  0.3410952E+00
         11   -1    0    0    0    0  0.00000000000E+00  0.00000000000E+00  0.39999999674E+01  0.40000000000E+01  0.51100000000E-03 0. -1.
    9000002   -1    0    0    0    0 -0.00000000000E+00 -0.00000000000E+00  0.00000000000E+00  0.93800000000E+00  0.93800000000E+00 0.  1.
         11    1    1    2    0    0 -0.22380678312E+00 -0.12198353454E+00  0.10108501816E+01  0.10424911556E+01  0.51100000000E-03 0. -1.
    9000002    1    1    2    0    0  0.44430745700E+00 -0.35579723363E+00  0.27542853877E+00  0.11312407647E+01  0.93800000000E+00 0.  1.
         22    1    1    2    0    0 -0.22050067388E+00  0.47778076817E+00  0.27137212470E+01  0.27642680796E+01  0.00000000000E+00 0. -1.
</event>
<event>
 5    1  0.1166492E+001  0.1531743E+01  0.7818608E-02  0.3430950E+00
         11   -1    0    0    0    0  0.00000000000E+00  0.00000000000E+00  0.39999999674E+01  0.40000000000E+01  0.51100000000E-03 0.  1.
    9000002   -1    0    0    0    0 -0.00000000000E+00 -0.00000000000E+00  0.00000000000E+00  0.93800000000E+00  0.93800000000E+00 0. -1.
         11    1    1    2    0    0  0.26403364624E+00 -0.18992801122E+00  0.12752772611E+01  0.13160998327E+01  0.51100000000E-03 0.  1.
    9000002    1    1    2    0    0 -0.23567637787E+00 -0.11711978261E+00  0.10023804934E+00  0.97936309155E+00  0.93800000000E+00 0. -1.
         22    1    1    2    0    0 -0.28357268372E-01  0.30704779383E+00  0.26244846569E+01  0.26425370757E+01  0.00000000000E+00 0.  1.
</event>
<event>
 5    1  0.1166492E+001  0.1505375E+01  0.7818608E-02  0.3462937E+00
         11   -1    0    0    0    0  0.00000000000E+00  0.00000000000E+00  0.39999999674E+01  0.40000000000E+01  0.51100000000E-03 0.  1.
    9000002   -1    0    0    0    0 -0.00000000000E+00 -0.00000000000E+00  0.00000000000E+00  0.93800000000E+00  0.93800000000E+00 0.  1.
         11    1    1    2    0    0  0.30940767024E+00 -0.12389070606E-02  0.52558977387E+00  0.60990123201E+00  0.51100000000E-03 0.  1.
    9000002    1    1    2    0    0 -0.34139611470E+00 -0.31047135079E+00  0.23227847140E+00  0.10708599605E+01  0.93800000000E+00 0.  1.
         22    1    1    2    0    0  0.31988444465E-01  0.31171025785E+00  0.32421317221E+01  0.32572388075E+01  0.00000000000E+00 0.  1.
</event>
<event>
 5    1  0.1166492E+001  0.1569668E+01  0.7818608E-02  0.3386957E+00
         11   -1    0    0    0    0  0.00000000000E+00  0.00000000000E+00  0.39999999674E+01  0.40000000000E+01  0.51100000000E-03 0. -1.
    9000002   -1    0    0    0    0 -0.00000000000E+00 -0.00000000000E+00  0.00000000000E+00  0.93800000000E+00  0.93800000000E+00 0. -1.
         11    1    1    2    0    0  0.13170039926E+00  0.47840963146E-02  0.14622433788E+01  0.14681702363E+01  0.51100000000E-03 0. -1.
    9000002    1    1    2    0    0  0.18539746561E+00  0.41677035644E-01  0.46648088328E-01  0.95819060719E+00  0.93800000000E+00 0. -1.
         22    1    1    2    0    0 -0.31709786487E+00 -0.46461131959E-01  0.24911085002E+01  0.25116391565E+01  0.00000000000E+00 0. -1.
</event>
<event>
 5    1  0.1166492E+001  0.1577137E+01  0.7818608E-02  0.3378558E+00
         11   -1    0    0    0    0  0.00000000000E+00  0.00000000000E+00  0.39999999674E+01  0.40000000000E+01  0.51100000000E-03 0. -1.
    9000002   -1    0    0    0    0 -0.00000000000E+00 -0.00000000000E+00  0.00000000000E+00  0.93800000000E+00  0.93800000000E+00 0.  1.
         11    1    1    2    0    0  0.65588725338E-02  0.13537904349E+00  0.14300594514E+01  0.14364681688E+01  0.51100000000E-03 0. -1.
    9000002    1    1    2    0    0 -0.10502960438E-01  0.10560194933E+00  0.24082756864E-01  0.94429130201E+00  0.93800000000E+00 0.  1.
         22    1    1    2    0    0  0.39440879046E-02 -0.24098099282E+00  0.25458577591E+01  0.25572405292E+01  0.00000000000E+00 0.  1.
</event>
<event>
 5    1  0.1166492E+001  0.1554467E+01  0.7818608E-02  0.3404316E+00
         11   -1    0    0    0    0  0.00000000000E+00  0.00000000000E+00  0.39999999674E+01  0.40000000000E+01  0.51100000000E-03 0. -1.
    9000002   -1    0    0    0    0 -0.00000000000E+00 -0.00000000000E+00  0.00000000000E+00  0.93800000000E+00  0.93800000000E+00 0. -1.
         11    1    1    2    0    0 -0.14905455548E+00  0.14428664611E+00  0.12662656226E+01  0.12831464394E+01  0.51100000000E-03 0. -1.
    9000002    1    1    2    0    0 -0.65417068401E-01  0.72933763362E-01  0.40076126614E-01  0.94395382440E+00  0.93800000000E+00 0. -1.
         22    1    1    2    0    0  0.21447162388E+00 -0.21722040947E+00  0.26936582181E+01  0.27108997362E+01  0.00000000000E+00 0. -1.
</event>
<event>
 5    1  0.1166492E+001  0.1547366E+01  0.7818608E-02  0.3412550E+00
         11   -1    0    0    0    0  0.00000000000E+00  0.00000000000E+00  0.39999999674E+01  0.40000000000E+01  0.51100000000E-03 0. -1.
    9000002   -1    0    0    0    0 -0.00000000000E+00 -0.00000000000E+00  0.00000000000E+00  0.93800000000E+00  0.93800000000E+00 0. -1.
         11    1    1    2    0    0  0.70876666945E-01  0.21890685987E+00  0.10675382361E+01  0.10920539647E+01  0.51100000000E-03 0. -1.
    9000002    1    1    2    0    0  0.49394205466E-01  0.40125198391E-01  0.41667945003E-01  0.94107918727E+00  0.93800000000E+00 0. -1.
         22    1    1    2    0    0 -0.12027087241E+00 -0.25903205826E+00  0.28907937863E+01  0.29048668480E+01  0.00000000000E+00 0. -1.
</event>
<event>
 5    1  0.1166492E+001  0.1521096E+01  0.7818608E-02  0.3443723E+00
         11   -1    0    0    0    0  0.00000000000E+00  0.00000000000E+00  0.39999999674E+01  0.40000000000E+01  0.51100000000E-03 0. -1.
    9000002   -1    0    0    0    0 -0.00000000000E+00 -0.00000000000E+00  0.00000000000E+00  0.93800000000E+00  0.93800000000E+00 0. -1.
         11    1    1    2    0    0 -0.25709841990E+00 -0.33750710852E+00  0.41593215008E+00  0.59414683405E+00  0.51100000000E-03 0. -1.
    9000002    1    1    2    0    0 -0.13368198598E+00  0.44090427788E+00  0.37631562540E+00  0.11107316983E+01  0.93800000000E+00 0. -1.
         22    1    1    2    0    0  0.39078040589E+00 -0.10339716935E+00  0.32077521919E+01  0.32331214677E+01  0.00000000000E+00 0. -1.
</event>
<event>
 5    1  0.1166492E+001  0.1465031E+01  0.7818608E-02  0.3514282E+00
         11   -1    0    0    0    0  0.00000000000E+00  0.00000000000E+00  0.39999999674E+01  0.40000000000E+01  0.51100000000E-03 0. -1.
    9000002   -1    0    0    0    0 -0.00000000000E+00 -0.00000000000E+00  0.00000000000E+00  0.93800000000E+00  0.93800000000E+00 0. -1.
         11    1    1    2    0    0  0.16900393569E+00 -0.32540740472E+00  0.96386738428E+00  0.10312579236E+01  0.51100000000E-03 0. -1.
    9000002    1    1    2    0    0 -0.20790980798E+00 -0.16478653458E+00  0.15874154604E+00  0.98763554446E+00  0.93800000000E+00 0. -1.
         22    1    1    2    0    0  0.38905872293E-01  0.49019393929E+00  0.28773910370E+01  0.29191065320E+01  0.00000000000E+00 0. -1.
</event>
<event>
 5    1  0.1166492E+001  0.1506774E+01  0.7818608E-02  0.3461209E+00
         11   -1    0    0    0    0  0.00000000000E+00  0.00000000000E+00  0.39999999674E+01  0.40000000000E+01  0.51100000000E-03 0. -1.
    9000002   -1    0    0    0    0 -0.00000000000E+00 -0.00000000000E+00  0.00000000000E+00  0.93800000000E+00  0.93800000000E+00 0. -1.
         11    1    1    2    0    0 -0.19664265165E+00  0.18766354162E+00  0.64077336028E+00  0.69604360328E+00  0.51100000000E-03 0. -1.
    9000002    1    1    2    0    0 -0.16293392993E+00 -0.16216819769E+00  0.10910176679E+00  0.97190183937E+00  0.93800000000E+00 0. -1.
         22    1    1    2    0    0  0.35957658157E+00 -0.25495343931E-01  0.32501248403E+01  0.32700545573E+01  0.00000000000E+00 0. -1.
</event>
<event>
 5    1  0.1166492E+001  0.1555674E+01  0.7818608E-02  0.3402924E+00
         11   -1    0    0    0    0  0.00000000000E+00  0.00000000000E+00  0.39999999674E+01  0.40000000000E+01  0.51100000000E-03 0.  1.
    9000002   -1    0    0    0    0 -0.00000000000E+00 -0.00000000000E+00  0.00000000000E+00  0.93800000000E+00  0.93800000000E+00 0. -1.
         11    1    1    2    0    0  0.18532295966E+00  0.31096117724E+00  0.13988561020E+01  0.14449360223E+01  0.51100000000E-03 0.  1.
    9000002    1    1    2    0    0  0.68570392176E-02 -0.42484341366E+00  0.16045687135E+00  0.10421752984E+01  0.93800000000E+00 0. -1.
         22    1    1    2    0    0 -0.19217999887E+00  0.11388223642E+00  0.24406869940E+01  0.24508886793E+01  0.00000000000E+00 0.  1.
</event>
<event>
 5    1  0.1166492E+001  0.1560144E+01  0.7818608E-02  0.3397791E+00
         11   -1    0    0    0    0  0.00000000000E+00  0.00000000000E+00  0.39999999674E+01  0.40000000000E+01  0.51100000000E-03 0.  1.
    9000002   -1    0    0    0    0 -0.00000000000E+00 -0.00000000000E+00  0.00000000000E+00  0.93800000000E+00  0.93800000000E+00 0. -1.
         11    1    1    2    0    0 -0.62185601562E-03  0.19425656783E+00  0.13647795635E+01  0.13785352803E+01  0.51100000000E-03 0.  1.
    9000002    1    1    2    0    0 -0.50707021641E-01  0.94082197775E-01  0.37004022698E-01  0.94479413614E+00  0.93800000000E+00 0. -1.
         22    1    1    2    0    0  0.51328877657E-01 -0.28833876560E+00  0.25982163811E+01  0.26146705836E+01  0.00000000000E+00 0.  1.
</event>
<event>
 5    1  0.1166492E+001  0.1461209E+01  0.7818608E-02  0.3519305E+00
         11   -1    0    0    0    0  0.00000000000E+00  0.00000000000E+00  0.39999999674E+01  0.40000000000E+01  0.51100000000E-03 0. -1.
    9000002   -1    0    0    0    0 -0.00000000000E+00 -0.00000000000E+00  0.00000000000E+00  0.93800000000E+00  0.93800000000E+00 0. -1.
         11    1    1    2    0    0 -0.40202022311E+00  0.15914805490E+00  0.10918632924E+01  0.11743568766E+01  0.51100000000E-03 0. -1.
    9000002    1    1    2    0    0 -0.65277665826E-01 -0.66423582360E-01  0.13778775603E+00  0.95262937791E+00  0.93800000000E+00 0. -1.
         22    1    1    2    0    0  0.46729788894E+00 -0.92724472539E-01  0.27703489189E+01  0.28110137455E+01  0.00000000000E+00 0. -1.
</event>
<event>
 5    1  0.1166492E+001  0.1492300E+01  0.7818608E-02  0.3479249E+00
         11   -1    0    0    0    0  0.00000000000E+00  0.00000000000E+00  0.39999999674E+01  0.40000000000E+01  0.51100000000E-03 0.  1.
    9000002   -1    0    0    0    0 -0.00000000000E+00 -0.00000000000E+00  0.00000000000E+00  0.93800000000E+00  0.93800000000E+00 0.  1.
         11    1    1    2    0    0 -0.28808922852E+00  0.16845720810E+00  0.80239547086E+00  0.86902933628E+00  0.51100000000E-03 0.  1.
    9000002    1    1    2    0    0  0.73618733834E-01  0.14081269911E-01  0.86292860086E-01  0.94493833547E+00  0.93800000000E+00 0.  1.
         22    1    1    2    0    0  0.21447049468E+00 -0.18253847801E+00  0.31113116364E+01  0.31240323282E+01  0.00000000000E+00 0.  1.
</event>
<event>
 5    1  0.1166492E+001  0.1586201E+01  0.7818608E-02  0.3368477E+00
         11   -1    0    0    0    0  0.00000000000E+00  0.00000000000E+00  0.39999999674E+01  0.40000000000E+01  0.51100000000E-03 0.  1.
    9000002   -1    0    0    0    0 -0.00000000000E+00 -0.00000000000E+00  0.00000000000E+00  0.93800000000E+00  0.93800000000E+00 0.  1.
         11    1    1    2    0    0  0.11400875187E-01 -0.94174559976E-01  0.14158349743E+01  0.14190094303E+01  0.51100000000E-03 0.  1.
    9000002    1    1    2    0    0  0.24545079426E+00  0.11996454105E-01  0.50454080538E-01  0.97096839370E+00  0.93800000000E+00 0.  1.
         22    1    1    2    0    0 -0.25685166945E+00  0.82178105871E-01  0.25337109125E+01  0.25480221760E+01  0.00000000000E+00 0.  1.
</event>
<event>
 5    1  0.1166492E+001  0.1592291E+01  0.7818608E-02  0.3361773E+00
         11   -1    0    0    0    0  0.00000000000E+00  0.00000000000E+00  0.39999999674E+01  0.40000000000E+01  0.51100000000E-03 0. -1.
    9000002   -1    0    0    0    0 -0.00000000000E+00 -0.00000000000E+00  0.00000000000E+00  0.93800000000E+00  0.93800000000E+00 0. -1.
         11    1    1    2    0    0  0.98115557115E-01  0.79784655804E-01  0.57617239582E+00  0.58988740000E+00  0.51100000000E-03 0. -1.
    9000002    1    1    2    0    0 -0.39741669935E+00 -0.11262017108E+00  0.12151451327E+00  0.10321013094E+01  0.93800000000E+00 0. -1.
         22    1    1    2    0    0  0.29930114224E+00  0.32835515273E-01  0.33023130583E+01  0.33160112906E+01  0.00000000000E+00 0. -1.
</event>
<event>
 5    1  0.1166492E+001  0.1484799E+01  0.7818608E-02  0.3488746E+00
         11   -1    0    0    0    0  0.00000000000E+00  0.00000000000E+00  0.39999999674E+01  0.40000000000E+01  0.51100000000E-03 0.  1.
    9000002   -1    0    0    0    0 -0.00000000000E+00 -0.00000000000E+00  0.00000000000E+00  0.93800000000E+00  0.93800000000E+00 0. -1.
         11    1    1    2    0    0 -0.45102098154E+00 -0.86807483009E-01  0.13523066327E+01  0.14281767940E+01  0.51100000000E-03 0.  1.
    9000002    1    1    2    0    0  0.19543048768E+00  0.20686507370E-01  0.11709701054E+00  0.96549299168E+00  0.93800000000E+00 0. -1.
         22    1    1    2    0    0  0.25559049385E+00  0.66120975639E-01  0.25305963241E+01  0.25443302143E+01  0.00000000000E+00 0.  1.
</event>
<event>
 5    1  0.1166492E+001  0.1516412E+01  0.7818608E-02  0.3449403E+00
         11   -1    0    0    0    0  0.00000000000E+00  0.00000000000E+00  0.39999999674E+01  0.40000000000E+01  0.51100000000E-03 0. -1.
    9000002   -1    0    0    0    0 -0.00000000000E+00 -0.00000000000E+00  0.00000000000E+00  0.93800000000E+00  0.93800000000E+00 0. -1.
         11    1    1    2    0    0 -0.17237086228E+00  0.25081918010E+00  0.11667453405E+01  0.12057847760E+01  0.51100000000E-03 0. -1.
    9000002    1    1    2    0    0 -0.22946280796E+00 -0.14129137513E+00  0.11552225077E+00  0.98275420291E+00  0.93800000000E+00 0. -1.
         22    1    1    2    0    0  0.40183367024E+00 -0.10952780497E+00  0.27177323761E+01  0.27494610211E+01  0.00000000000E+00 0. -1.
</event>
<event>
 5    1  0.1166492E+001  0.1296284E+01  0.7818608E-02  0.3789069E+00
         11   -1    0    0    0    0  0.00000000000E+00  0.00000000000E+00  0.39999999674E+01  0.40000000000E+01  0.51100000000E-03 0.  1.
    9000002   -1    0    0    0    0 -0.00000000000E+00 -0.00000000000E+00  0.00000000000E+00  0.93800000000E+00  0.93800000000E+00 0.  1.
         11    1    1    2    0    0 -0.54502069560E+00 -0.24049108992E+00  0.71992308974E+00  0.93443728480E+00  0.51100000000E-03 0.  1.
    9000002    1    1    2    0    0  0.22824893498E+00  0.40287294830E-01  0.31700059686E+00  0.10168844678E+01  0.93800000000E+00 0.  1.
         22    1    1    2    0    0  0.31677176062E+00  0.20020379509E+00  0.29630762808E+01  0.29866782474E+01  0.00000000000E+00 0.  1.
</event>
<event>
 5    1  0.1166492E+001  0.1545768E+01  0.7818608E-02  0.3414414E+00
         11   -1    0    0    0    0  0.00000000000E+00  0.00000000000E+00  0.39999999674E+01  0.40000000000E+01  0.51100000000E-03 0.  1.
    9000002   -1    0    0    0    0 -0.00000000000E+00 -0.00000000000E+00  0.00000000000E+00  0.93800000000E+00  0.93800000000E+00 0. -1.
         11    1    1    2    0    0  0.21121215086E+00 -0.87808958228E-01  0.97189590526E+00  0.99845024793E+00  0.51100000000E-03 0.  1.
    9000002    1    1    2    0    0  0.64963800818E-01  0.28641288343E-01  0.43581192007E-01  0.94169206172E+00  0.93800000000E+00 0. -1.
         22    1    1    2    0    0 -0.27617595168E+00  0.59167669885E-01  0.29845228701E+01  0.29978576903E+01  0.00000000000E+00 0.  1.
</event>
<event>
 5    1  0.1166492E+001  0.1471008E+01  0.7818608E-02  0.3506483E+00
         11   -1    0    0    0    0  0.00000000000E+00  0.00000000000E+00  0.39999999674E+01  0.40000000000E+01  0.51100000000E-03 0. -1.
    9000002   -1    0    0    0    0 -0.00000000000E+00 -0.00000000000E+00  0.00000000000E+00  0.93800000000E+00  0.93800000000E+00 0.  1.
         11    1    1    2    0    0  0.85202674280E-01  0.33407125342E+00  0.43490006342E+00  0.55497876027E+00  0.51100000000E-03 0. -1.
    9000002    1    1    2    0    0  0.24216993581E+00 -0.14276917380E+00  0.20354797647E+00  0.10001525351E+01  0.93800000000E+00 0.  1.
         22    1    1    2    0    0 -0.32737261009E+00 -0.19130207962E+00  0.33615519275E+01  0.33828687046E+01  0.00000000000E+00 0. -1.
</event>
<event>
 5    1  0.1166492E+001  0.1569656E+01  0.7818608E-02  0.3386970E+00
         11   -1    0    0    0    0  0.00000000000E+00  0.00000000000E+00  0.39999999674E+01  0.40000000000E+01  0.51100000000E-03 0.  1.
    9000002   -1    0    0    0    0 -0.00000000000E+00 -0.00000000000E+00  0.00000000000E+00  0.93800000000E+00  0.93800000000E+00 0.  1.
         11    1    1    2    0    0  0.20339954498E+00 -0.12194246718E+00  0.11338248932E+01  0.11583611224E+01  0.51100000000E-03 0.  1.
    9000002    1    1    2    0    0 -0.32194666343E+00 -0.11344139469E+00  0.10250304659E+00  0.10034288608E+01  0.93800000000E+00 0.  1.
         22    1    1    2    0    0  0.11854711845E+00  0.23538386187E+00  0.27636720275E+01  0.27762100168E+01  0.00000000000E+00 0.  1.
</event>
<event>
 5    1  0.1166492E+001  0.1559907E+01  0.7818608E-02  0.3398062E+00
         11   -1    0    0    0    0  0.00000000000E+00  0.00000000000E+00  0.39999999674E+01  0.40000000000E+01  0.51100000000E-03 0. -1.
    9000002   -1    0    0    0    0 -0.00000000000E+00 -0.00000000000E+00  0.00000000000E+00  0.93800000000E+00  0.93800000000E+00 0.  1.
         11    1    1    2    0    0  0.10863297300E+00  0.17138315274E+00  0.14759725065E+01  0.14898551637E+01  0.51100000000E-03 0. -1.
    9000002    1    1    2    0    0  0.31362991683E-01  0.72482910402E-01  0.33626608701E-01  0.94191940120E+00  0.93800000000E+00 0.  1.
         22    1    1    2    0    0 -0.13999596468E+00 -0.24386606315E+00  0.24904008522E+01  0.25062254351E+01  0.00000000000E+00 0. -1.
</event>
<event>
 5    1  0.1166492E+001  0.1512378E+01  0.7818608E-02  0.3454324E+00
         11   -1    0    0    0    0  0.00000000000E+00  0.00000000000E+00  0.39999999674E+01  0.40000000000E+01  0.51100000000E-03 0.  1.
    9000002   -1    0    0    0    0 -0.00000000000E+00 -0.00000000000E+00  0.00000000000E+00  0.93800000000E+00  0.93800000000E+00 0. -1.
         11    1    1    2    0    0  0.54431151463E+00 -0.17060351822E+00  0.10213566854E+01  0.11698505568E+01  0.51100000000E-03 0.  1.
    9000002    1    1    2    0    0 -0.12381423922E+00  0.43748093212E+00  0.36035356694E+00  0.11029135166E+01  0.93800000000E+00 0. -1.
         22    1    1    2    0    0 -0.42049727541E+00 -0.26687741390E+00  0.26182897151E+01  0.26652359266E+01  0.00000000000E+00 0. -1.
</event>
<event>
 5    1  0.1166492E+001  0.1533604E+01  0.7818608E-02  0.3428737E+00
         11   -1    0    0    0    0  0.00000000000E+00  0.00000000000E+00  0.39999999674E+01  0.40000000000E+01  0.51100000000E-03 0.  1.
    9000002   -1    0    0    0    0 -0.00000000000E+00 -0.00000000000E+00  0.00000000000E+00  0.93800000000E+00  0.93800000000E+00 0.  1.
         11    1    1    2    0    0  0.23463603707E+00  0.14202667781E+00  0.98112547689E+00  0.10187409433E+01  0.51100000000E-03 0.  1.
    9000002    1    1    2    0    0  0.72367730915E-01 -0.19892412547E+00  0.81169456568E-01  0.96500796725E+00  0.93800000000E+00 0.  1.
         22    1    1    2    0    0 -0.30700376799E+00  0.56897447661E-01  0.29377050339E+01  0.29542510894E+01  0.00000000000E+00 0.  1.
</event>
<event>
 5    1  0.1166492E+001  0.1527745E+01  0.7818608E-02  0.3435725E+00
         11   -1    0    0    0    0  0.00000000000E+00  0.00000000000E+00  0.39999999674E+01  0.40000000000E+01  0.51100000000E-03 0.  1.
    9000002   -1    0    0    0    0 -0.00000000000E+00 -0.00000000000E+00  0.00000000000E+00  0.93800000000E+00  0.93800000000E+00 0.  1.
         11    1    1    2    0    0 -0.22153327179E+00 -0.86330334754E-01  0.11560031274E+01  0.11802005799E+01  0.51100000000E-03 0.  1.
    9000002    1    1    2    0    0 -0.23894567131E+00  0.16186099812E+00  0.11375354671E+00  0.98796654090E+00  0.93800000000E+00 0.  1.
         22    1    1    2    0    0  0.46047894310E+00 -0.75530663365E-01  0.27302432933E+01  0.27698328792E+01  0.00000000000E+00 0.  1.
</event>
<event>
 5    1  0.1166492E+001  0.1170647E+01  0.7818608E-02  0.4063838E+00
         11   -1    0    0    0    0  0.00000000000E+00  0.00000000000E+00  0.39999999674E+01  0.40000000000E+01  0.51100000000E-03 0.  1.
    9000002   -1    0    0    0    0 -0.00000000000E+00 -0.00000000000E+00  0.00000000000E+00  0.93800000000E+00  0.93800000000E+00 0. -1.
         11    1    1    2    0    0  0.75233198077E+00 -0.81114128476E-01  0.98631352355E+00  0.12431401928E+01  0.51100000000E-03 0.  1.
    9000002    1    1    2    0    0 -0.12492622424E+00 -0.67197141014E-01  0.44747291032E+00  0.10489032476E+01  0.93800000000E+00 0. -1.
         22    1    1    2    0    0 -0.62740575653E+00  0.14831126949E+00  0.25662135335E+01  0.26459565596E+01  0.00000000000E+00 0. -1.
</event>
<event>
 5    1  0.1166492E+001  0.1537075E+01  0.7818608E-02  0.3424626E+00
         11   -1    0    0    0    0  0.00000000000E+00  0.00000000000E+00  0.39999999674E+01  0.40000000000E+01  0.51100000000E-03 0.  1.
    9000002   -1    0    0    0    0 -0.00000000000E+00 -0.00000000000E+00  0.00000000000E+00  0.93800000000E+00  0.93800000000E+00 0. -1.
         11    1    1    2    0    0 -0.13066080362E+00 -0.23784684588E+00  0.10731694117E+01  0.11069490571E+01  0.51100000000E-03 0.  1.
    9000002    1    1    2    0    0 -0.40921255169E-01  0.35526313147E-01  0.48810980600E-01  0.94083111124E+00  0.93800000000E+00 0. -1.
         22    1    1    2    0    0  0.17158205879E+00  0.20232053273E+00  0.28780195750E+01  0.28902198316E+01  0.00000000000E+00 0.  1.
</event>
<event>
 5    1  0.1166492E+001  0.1462618E+01  0.7818608E-02  0.3517450E+00
         11   -1    0    0    0    0  0.00000000000E+00  0.00000000000E+00  0.39999999674E+01  0.40000000000E+01  0.51100000000E-03 0.  1.
    9000002   -1    0    0    0    0 -0.00000000000E+00 -0.00000000000E+00  0.00000000000E+00  0.93800000000E+00  0.93800000000E+00 0.  1.
         11    1    1    2    0    0  0.43087766875E+00 -0.26010700925E+00  0.12908462130E+01  0.13854946511E+01  0.51100000000E-03 0.  1.
    9000002    1    1    2    0    0 -0.22420914862E+00  0.84159633513E-01  0.15076405283E+00  0.97975833034E+00  0.93800000000E+00 0.  1.
         22    1    1    2    0    0 -0.20666852013E+00  0.17594737574E+00  0.25583897016E+01  0.25727470185E+01  0.00000000000E+00 0.  1.
</event>
<event>
 5    1  0.1166492E+001  0.1428837E+01  0.7818608E-02  0.3563031E+00
         11   -1    0    0    0    0  0.00000000000E+00  0.00000000000E+00  0.39999999674E+01  0.40000000000E+01  0.51100000000E-03 0.  1.
    9000002   -1    0    0    0    0 -0.00000000000E+00 -0.00000000000E+00  0.00000000000E+00  0.93800000000E+00  0.93800000000E+00 0. -1.
         11    1    1    2    0    0  0.62663925340E+00 -0.55735614085E-01  0.95421648557E+00  0.11429403200E+01  0.51100000000E-03 0.  1.
    9000002    1    1    2    0    0 -0.59240745985E+00  0.34600439759E+00  0.55616581716E+00  0.12883439206E+01  0.93800000000E+00 0. -1.
         22    1    1    2    0    0 -0.34231793546E-01 -0.29026878350E+00  0.24896176646E+01  0.25067157594E+01  0.00000000000E+00 0.  1.
</event>
<event>
 5    1  0.1166492E+001  0.1470443E+01  0.7818608E-02  0.3507216E+00
         11   -1    0    0    0    0  0.00000000000E+00  0.00000000000E+00  0.39999999674E+01  0.40000000000E+01  0.51100000000E-03 0.  1.
    9000002   -1    0    0    0    0 -0.00000000000E+00 -0.00000000000E+00  0.00000000000E+00  0.93800000000E+00  0.93800000000E+00 0. -1.
         11    1    1    2    0    0  0.15037778730E-01  0.49755814564E+00  0.93165690839E+00  0.10563025604E+01  0.51100000000E-03 0.  1.
    9000002    1    1    2    0    0 -0.88260402049E-01 -0.22918728092E+00  0.18765730254E+00  0.98761124513E+00  0.93800000000E+00 0. -1.
         22    1    1    2    0    0  0.73222623319E-01 -0.26837086473E+00  0.28806857564E+01  0.28940861945E+01  0.00000000000E+00 0. -1.
</event>
<event>
 5    1  0.1166492E+001  0.1587483E+01  0.7818608E-02  0.3367062E+00
         11   -1    0    0    0    0  0.00000000000E+00  0.00000000000E+00  0.39999999674E+01  0.40000000000E+01  0.51100000000E-03 0.  1.
    9000002   -1    0    0    0    0 -0.00000000000E+00 -0.00000000000E+00  0.00000000000E+00  0.93800000000E+00  0.93800000000E+00 0.  1.
         11    1    1    2    0    0  0.32866324214E-01 -0.45078644786E-01  0.73485935703E+00  0.73697409400E+00  0.51100000000E-03 0.  1.
    9000002    1    1    2    0    0  0.18747249093E+00 -0.17764232305E+00  0.53750649582E-01  0.97438999488E+00  0.93800000000E+00 0.  1.
         22    1    1    2    0    0 -0.22033881514E+00  0.22272096783E+00  0.32113899607E+01  0.32266359111E+01  0.00000000000E+00 0.  1.
</event>
<event>
 5    1  0.1166492E+001  0.1527858E+01  0.7818608E-02  0.3435589E+00
         11   -1    0    0    0    0  0.00000000000E+00  0.00000000000E+00  0.39999999674E+01  0.40000000000E+01  0.51100000000E-03 0.  1.
    9000002   -1    0    0    0    0 -0.00000000000E+00 -0.00000000000E+00  0.00000000000E+00  0.93800000000E+00  0.93800000000E+00 0. -1.
         11    1    1    2    0    0  0.12468749278E+00  0.30194938042E+00  0.10829168234E+01  0.11311186970E+01  0.51100000000E-03 0.  1.
    9000002    1    1    2    0    0  0.13601234939E+00 -0.21991895530E+00  0.10172871191E+00  0.97829261314E+00  0.93800000000E+00 0. -1.
         22    1    1    2    0    0 -0.26069984218E+00 -0.82030425117E-01  0.28153544321E+01  0.28285886899E+01  0.00000000000E+00 0.  1.
</event>
<event>
 5    1  0.1166492E+001  0.1546065E+01  0.7818608E-02  0.3414067E+00
         11   -1    0    0    0    0  0.00000000000E+00  0.00000000000E+00  0.39999999674E+01  0.40000000000E+01  0.51100000000E-03 0. -1.
    9000002   -1    0    0    0    0 -0.00000000000E+00 -0.00000000000E+00  0.00000000000E+00  0.93800000000E+00  0.93800000000E+00 0. -1.
         11    1    1    2    0    0 -0.16732488832E+00 -0.22819797142E+00  0.12257222015E+01  0.12579614894E+01  0.51100000000E-03 0. -1.
    9000002    1    1    2    0    0 -0.79896485445E-01  0.17659094664E+00  0.66082520567E-01  0.96009307379E+00  0.93800000000E+00 0. -1.
         22    1    1    2    0    0  0.24722137376E+00  0.51607024778E-01  0.27081952452E+01  0.27199454368E+01  0.00000000000E+00 0. -1.
</event>
<event>
 5    1  0.1166492E+001  0.1484115E+01  0.7818608E-02  0.3489617E+00
         11   -1    0    0    0    0  0.00000000000E+00  0.00000000000E+00  0.39999999674E+01  0.40000000000E+01  0.51100000000E-03 0. -1.
    9000002   -1    0    0    0    0 -0.00000000000E+00 -0.00000000000E+00  0.00000000000E+00  0.93800000000E+00  0.93800000000E+00 0. -1.
         11    1    1    2    0    0 -0.12630965930E+00  0.38351779063E+00  0.10509441777E+01  0.11258436621E+01  0.51100000000E-03 0. -1.
    9000002    1    1    2    0    0 -0.15149975786E+00 -0.20769692363E+00  0.13846127241E+00  0.98239794008E+00  0.93800000000E+00 0. -1.
         22    1    1    2    0    0  0.27780941716E+00 -0.17582086700E+00  0.28105945173E+01  0.28297583978E+01  0.00000000000E+00 0. -1.
</event>
<event>
 5    1  0.1166492E+001  0.1581359E+01  0.7818608E-02  0.3373848E+00
         11   -1    0    0    0    0  0.00000000000E+00  0.00000000000E+00  0.39999999674E+01  0.40000000000E+01  0.51100000000E-03 0. -1.
    9000002   -1    0    0    0    0 -0.00000000000E+00 -0.00000000000E+00  0.00000000000E+00  0.93800000000E+00  0.93800000000E+00 0. -1.
         11    1    1    2    0    0 -0.14000603744E+00 -0.17602902577E+00  0.92961427884E+00  0.95643655147E+00  0.51100000000E-03 0. -1.
    9000002    1    1    2    0    0  0.78646597495E-01  0.43411001436E+00  0.14790807509E+00  0.10470709577E+01  0.93800000000E+00 0. -1.
         22    1    1    2    0    0  0.61359439949E-01 -0.25808098859E+00  0.29224776134E+01  0.29344924908E+01  0.00000000000E+00 0. -1.
</event>
<event>
 5    1  0.1166492E+001  0.1554469E+01  0.7818608E-02  0.3404314E+00
         11   -1    0    0    0    0  0.00000000000E+00  0.00000000000E+00  0.39999999674E+01  0.40000000000E+01  0.51100000000E-03 0.  1.
    9000002   -1    0    0    0    0 -0.00000000000E+00 -0.00000000000E+00  0.00000000000E+00  0.93800000000E+00  0.93800000000E+00 0.  1.
         11    1    1    2    0    0 -0.24978608367E+00  0.49872120413E-01  0.13684196445E+01  0.13919241720E+01  0.51100000000E-03 0.  1.
    9000002    1    1    2    0    0  0.18587254595E-01 -0.18745677950E+00  0.58014877381E-01  0.95848591863E+00  0.93800000000E+00 0.  1.
         22    1    1    2    0    0  0.23119882907E+00  0.13758465908E+00  0.25735654455E+01  0.25875899094E+01  0.00000000000E+00 0.  1.
</event>
<event>
 5    1  0.1166492E+001  0.1528043E+01  0.7818608E-02  0.3435368E+00
         11   -1    0    0    0    0  0.00000000000E+00  0.00000000000E+00  0.39999999674E+01  0.40000000000E+01  0.51100000000E-03 0. -1.
    9000002   -1    0    0    0    0 -0.00000000000E+00 -0.00000000000E+00  0.00000000000E+00  0.93800000000E+00  0.93800000000E+00 0. -1.
         11    1    1    2    0    0  0.94191077864E-01  0.23844250160E+00  0.98850122312E+00  0.10212060100E+01  0.51100000000E-03 0. -1.
    9000002    1    1    2    0    0  0.37947681798E-01  0.85782851407E-01  0.59983218313E-01  0.94458494093E+00  0.93800000000E+00 0. -1.
         22    1    1    2    0    0 -0.13213875966E+00 -0.32422535301E+00  0.29515155259E+01  0.29722090490E+01  0.00000000000E+00 0. -1.
</event>
<event>
 5    1  0.1166492E+001  0.1595766E+01  0.7818608E-02  0.3357972E+00
         11   -1    0    0    0    0  0.00000000000E+00  0.00000000000E+00  0.39999999674E+01  0.40000000000E+01  0.51100000000E-03 0. -1.
    9000002   -1    0    0    0    0 -0.00000000000E+00 -0.00000000000E+00  0.00000000000E+00  0.93800000000E+00  0.93800000000E+00 0. -1.
         11    1    1    2    0    0  0.19444082482E-01 -0.59575750643E-01  0.14462810346E+01  0.14476382264E+01  0.51100000000E-03 0. -1.
    9000002    1    1    2    0    0  0.13348687682E+00  0.22951108787E+00  0.49901979486E-01  0.97612924006E+00  0.93800000000E+00 0. -1.
         22    1    1    2    0    0 -0.15293095930E+00 -0.16993533723E+00  0.25038169533E+01  0.25142325336E+01  0.00000000000E+00 0. -1.
</event>
<event>
 5    1  0.1166492E+001  0.1588780E+01  0.7818608E-02  0.3365632E+00
         11   -1    0    0    0    0  0.00000000000E+00  0.00000000000E+00  0.39999999674E+01  0.40000000000E+01  0.51100000000E-03 0. -1.
    9000002   -1    0    0    0    0 -0.00000000000E+00 -0.00000000000E+00  0.00000000000E+00  0.93800000000E+00  0.93800000000E+00 0.  1.
         11    1    1    2    0    0  0.35867217592E-01  0.41111908951E-01  0.13356534401E+01  0.13367673768E+01  0.51100000000E-03 0. -1.
    9000002    1    1    2    0    0  0.13196572941E+00  0.13777139729E+00  0.32266680815E-01  0.95774790542E+00  0.93800000000E+00 0.  1.
         22    1    1    2    0    0 -0.16783294701E+00 -0.17888330624E+00  0.26320798464E+01  0.26434847178E+01  0.00000000000E+00 0. -1.
</event>
<event>
 5    1  0.1166492E+001  0.1567016E+01  0.7818608E-02  0.3389960E+00
         11   -1    0    0    0    0  0.00000000000E+00  0.00000000000E+00  0.39999999674E+01  0.40000000000E+01  0.51100000000E-03 0.  1.
    9000002   -1    0    0    0    0 -0.00000000000E+00 -0.00000000000E+00  0.00000000000E+00  0.93800000000E+00  0.93800000000E+00 0. -1.
         11    1    1    2    0    0 -0.13778008769E+00  0.11631288532E+00  0.12356465604E+01  0.12487332474E+01  0.51100000000E-03 0.  1.
    9000002    1    1    2    0    0 -0.42606288467E-01  0.54397498983E-01  0.27267978397E-01  0.94093672814E+00  0.93800000000E+00 0. -1.
         22    1    1    2    0    0  0.18038637616E+00 -0.17071038431E+00  0.27370854286E+01  0.27483300245E+01  0.00000000000E+00 0. -1.
</event>
<event>
 5    1  0.1166492E+001  0.1525758E+01  0.7818608E-02  0.3438107E+00
         11   -1    0    0    0    0  0.00000000000E+00  0.00000000000E+00  0.39999999674E+01  0.40000000000E+01  0.51100000000E-03 0. -1.
    9000002   -1    0    0    0    0 -0.00000000000E+00 -0.00000000000E+00  0.00000000000E+00  0.93800000000E+00  0.93800000000E+00 0. -1.
         11    1    1    2    0    0 -0.47862780660E-01  0.28074032435E+00  0.11265946695E+01  0.11620334703E+01  0.51100000000E-03 0. -1.
    9000002    1    1    2    0    0 -0.22467563492E+00 -0.20944046148E-01  0.91938888307E-01  0.96913082356E+00  0.93800000000E+00 0. -1.
         22    1    1    2    0    0  0.27253841558E+00 -0.25979627820E+00  0.27814664095E+01  0.28068357062E+01  0.00000000000E+00 0. -1.
</event>
<event>
 5    1  0.1166492E+001  0.1517159E+01  0.7818608E-02  0.3448495E+00
         11   -1    0    0    0    0  0.00000000000E+00  0.00000000000E+00  0.39999999674E+01  0.40000000000E+01  0.51100000000E-03 0.  1.
    9000002   -1    0    0    0    0 -0.00000000000E+00 -0.00000000000E+00  0.00000000000E+00  0.93800000000E+00  0.93800000000E+00 0.  1.
         11    1    1    2    0    0 -0.35481355586E+00  0.16109128957E-02  0.12121583784E+01  0.12630215556E+01  0.51100000000E-03 0.  1.
    9000002    1    1    2    0    0  0.11129894155E+00  0.48853163154E-01  0.72874975056E-01  0.94864579688E+00  0.93800000000E+00 0.  1.
         22    1    1    2    0    0  0.24351461430E+00 -0.50464076050E-01  0.27149666139E+01  0.27263326475E+01  0.00000000000E+00 0.  1.
</event>
<event>
 5    1  0.1166492E+001  0.1564222E+01  0.7818608E-02  0.3393135E+00
         11   -1    0    0    0    0  0.00000000000E+00  0.00000000000E+00  0.39999999674E+01  0.40000000000E+01  0.51100000000E-03 0. -1.
    9000002   -1    0    0    0    0 -0.00000000000E+00 -0.00000000000E+00  0.00000000000E+00  0.93800000000E+00  0.93800000000E+00 0.  1.
         11    1    1    2    0    0 -0.57807375104E-01 -0.94685234062E-01  0.41496330362E+00  0.42953671628E+00  0.51100000000E-03 0. -1.
    9000002    1    1    2    0    0 -0.13886094541E+00 -0.23470435065E+00  0.77389055800E-01  0.97989875004E+00  0.93800000000E+00 0.  1.
         22    1    1    2    0    0  0.19666832051E+00  0.32938958471E+00  0.35076476079E+01  0.35285645337E+01  0.00000000000E+00 0. -1.
</event>
<event>
 5    1  0.1166492E+001  0.1590157E+01  0.7818608E-02  0.3364116E+00
         11   -1    0    0    0    0  0.00000000000E+00  0.00000000000E+00  0.39999999674E+01  0.40000000000E+01  0.51100000000E-03 0.  1.
    9000002   -1    0    0    0    0 -0.00000000000E+00 -0.00000000000E+00  0.00000000000E+00  0.93800000000E+00  0.93800000000E+00 0. -1.
         11    1    1    2    0    0 -0.25102615896E-01  0.58738266831E-01  0.11545098811E+01  0.11562757681E+01  0.51100000000E-03 0.  1.
    9000002    1    1    2    0    0 -0.22780672728E+00 -0.13191559410E-01  0.41778556910E-01  0.96626050838E+00  0.93800000000E+00 0. -1.
         22    1    1    2    0    0  0.25290934317E+00 -0.45546707421E-01  0.28037115294E+01  0.28154637235E+01  0.00000000000E+00 0.  1.
</event>
<event>
 5    1  0.1166492E+001  0.1506544E+01  0.7818608E-02  0.3461493E+00
         11   -1    0    0    0    0  0.00000000000E+00  0.00000000000E+00  0.39999999674E+01  0.40000000000E+01  0.51100000000E-03 0.  1.
    9000002   -1    0    0    0    0 -0.00000000000E+00 -0.00000000000E+00  0.00000000000E+00  0.93800000000E+00  0.93800000000E+00 0.  1.
         11    1    1    2    0    0 -0.24212170299E+00 -0.33111395473E+00  0.11436614292E+01  0.12149983934E+01  0.51100000000E-03 0.  1.
    9000002    1    1    2    0    0  0.38956278258E+00  0.52337553130E-01  0.18574107291E+00  0.10338482128E+01  0.93800000000E+00 0.  1.
         22    1    1    2    0    0 -0.14744107958E+00  0.27877640160E+00  0.26705974652E+01  0.26891533938E+01  0.00000000000E+00 0.  1.
</event>
<event>
 5    1  0.1166492E+001  0.1566160E+01  0.7818608E-02  0.3390932E+00
         11   -1    0    0    0    0  0.00000000000E+00  0.00000000000E+00  0.39999999674E+01  0.40000000000E+01  0.51100000000E-03 0. -1.
    9000002   -1    0    0    0    0 -0.00000000000E+00 -0.00000000000E+00  0.00000000000E+00  0.93800000000E+00  0.93800000000E+00 0.  1.
         11    1    1    2    0    0  0.35459605537E-01  0.10427965426E+00  0.91943708536E+00  0.92601103933E+00  0.51100000000E-03 0. -1.
    9000002    1    1    2    0    0  0.29934691758E+00  0.21083896970E+00  0.11783796219E+00  0.10138004900E+01  0.93800000000E+00 0.  1.
         22    1    1    2    0    0 -0.33480652312E+00 -0.31511862396E+00  0.29627249198E+01  0.29981884707E+01  0.00000000000E+00 0. -1.
</event>
<event>
 5    1  0.1166492E+001  0.1475285E+01  0.7818608E-02  0.3500944E+00
         11   -1    0    0    0    0  0.00000000000E+00  0.00000000000E+00  0.39999999674E+01  0.40000000000E+01  0.51100000000E-03 0. -1.
    9000002   -1    0    0    0    0 -0.00000000000E+00 -0.00000000000E+00  0.00000000000E+00  0.93800000000E+00  0.93800000000E+00 0. -1.
         11    1    1    2    0    0 -0.24438987433E+00 -0.30843686757E+00  0.11318167326E+01  0.11982775510E+01  0.51100000000E-03 0. -1.
    9000002    1    1    2    0    0 -0.31172560053E-01  0.53964767658E-01  0.99016745586E-01  0.94526834315E+00  0.93800000000E+00 0. -1.
         22    1    1    2    0    0  0.27556243439E+00  0.25447209991E+00  0.27691664892E+01  0.27944541058E+01  0.00000000000E+00 0. -1.
</event>
<event>
 5    1  0.1166492E+001  0.1594282E+01  0.7818608E-02  0.3359593E+00
         11   -1    0    0    0    0  0.00000000000E+00  0.00000000000E+00  0.39999999674E+01  0.40000000000E+01  0.51100000000E-03 0.  1.
    9000002   -1    0    0    0    0 -0.00000000000E+00 -0.00000000000E+00  0.00000000000E+00  0.93800000000E+00  0.93800000000E+00 0. -1.
         11    1    1    2    0    0 -0.48306624150E-01 -0.31202214984E-01  0.52577476429E+00  0.52891064656E+00  0.51100000000E-03 0.  1.
    9000002    1    1    2    0    0 -0.54100963495E-01  0.40557873438E+00  0.11759528276E+00  0.10300940125E+01  0.93800000000E+00 0. -1.
         22    1    1    2    0    0  0.10240758765E+00 -0.37437651940E+00  0.33566299203E+01  0.33789953410E+01  0.00000000000E+00 0.  1.
</event>
<event>
 5    1  0.1166492E+001  0.1476182E+01  0.7818608E-02  0.3499787E+00
         11   -1    0    0    0    0  0.00000000000E+00  0.00000000000E+00  0.39999999674E+01  0.40000000000E+01  0.51100000000E-03 0.  1.
    9000002   -1    0    0    0    0 -0.00000000000E+00 -0.00000000000E+00  0.00000000000E+00  0.93800000000E+00  0.93800000000E+00 0. -1.
         11    1    1    2    0    0  0.28722022108E+00  0.21343851490E+00  0.71350352355E+00  0.79820986857E+00  0.51100000000E-03 0.  1.
    9000002    1    1    2    0    0  0.11700090549E+00 -0.41572711413E+00  0.24029826095E+00  0.10602384164E+01  0.93800000000E+00 0. -1.
         22    1    1    2    0    0 -0.40422112657E+00  0.20228859923E+00  0.30461981829E+01  0.30795517151E+01  0.00000000000E+00 0.  1.
</event>
<event>
 5    1  0.1166492E+001  0.1575746E+01  0.7818608E-02  0.3380116E+00
         11   -1    0    0    0    0  0.00000000000E+00  0.00000000000E+00  0.39999999674E+01  0.40000000000E+01  0.51100000000E-03 0. -1.
    9000002   -1    0    0    0    0 -0.00000000000E+00 -0.00000000000E+00  0.00000000000E+00  0.93800000000E+00  0.93800000000E+00 0.  1.
         11    1    1    2    0    0 -0.33403907481E-01  0.12016569136E+00  0.11564392264E+01  0.11631455455E+01  0.51100000000E-03 0. -1.
    9000002    1    1    2    0    0 -0.20886635782E+00  0.69623968295E-01  0.50420338886E-01  0.96481027304E+00  0.93800000000E+00 0.  1.
         22    1    1    2    0    0  0.24227026530E+00 -0.18978965966E+00  0.27931404020E+01  0.28100441815E+01  0.00000000000E+00 0. -1.
</event>
<event>
 5    1  0.1166492E+001  0.1532927E+01  0.7818608E-02  0.3429542E+00
         11   -1    0    0    0    0  0.00000000000E+00  0.00000000000E+00  0.39999999674E+01  0.40000000000E+01  0.51100000000E-03 0.  1.
    9000002   -1    0    0    0    0 -0.00000000000E+00 -0.00000000000E+00  0.00000000000E+00  0.93800000000E+00  0.93800000000E+00 0.  1.
         11    1    1    2    0    0 -0.28538688930E+00 -0.14921821443E+00  0.13507217493E+01  0.13885824633E+01  0.51100000000E-03 0.  1.
    9000002    1    1    2    0    0  0.88493501941E-01 -0.13709817103E-02  0.55476126088E-01  0.94379795510E+00  0.93800000000E+00 0.  1.
         22    1    1    2    0    0  0.19689338735E+00  0.15058919614E+00  0.25938020919E+01  0.26056195816E+01  0.00000000000E+00 0. -1.
</event>
<event>
 5    1  0.1166492E+001  0.1589747E+01  0.7818608E-02  0.3364568E+00
         11   -1    0    0    0    0  0.00000000000E+00  0.00000000000E+00  0.39999999674E+01  0.40000000000E+01  0.51100000000E-03 0. -1.
    9000002   -1    0    0    0    0 -0.00000000000E+00 -0.00000000000E+00  0.00000000000E+00  0.93800000000E+00  0.93800000000E+00 0. -1.
         11    1    1    2    0    0 -0.18782770512E+00 -0.57282500007E-01  0.12304167173E+01  0.12459879979E+01  0.51100000000E-03 0. -1.
    9000002    1    1    2    0    0  0.25799295812E+00  0.29077002055E+00  0.11002413909E+00  0.10213015629E+01  0.93800000000E+00 0. -1.
         22    1    1    2    0    0 -0.70165252999E-01 -0.23348752054E+00  0.26595591109E+01  0.26707104391E+01  0.00000000000E+00 0. -1.
</event>
<event>
 5    1  0.1166492E+001  0.1554145E+01  0.7818608E-02  0.3404688E+00
         11   -1    0    0    0    0  0.00000000000E+00  0.00000000000E+00  0.39999999674E+01  0.40000000000E+01  0.51100000000E-03 0. -1.
    9000002   -1    0    0    0    0 -0.00000000000E+00 -0.00000000000E+00  0.00000000000E+00  0.93800000000E+00  0.93800000000E+00 0.  1.
         11    1    1    2    0    0  0.14845796953E-01  0.24505682227E+00  0.13870974014E+01  0.14086563477E+01  0.51100000000E-03 0. -1.
    9000002    1    1    2    0    0  0.60667418172E-01 -0.74784096275E-02  0.36279834327E-01  0.94068947513E+00  0.93800000000E+00 0.  1.
         22    1    1    2    0    0 -0.75513215126E-01 -0.23757841264E+00  0.25766227316E+01  0.25886541772E+01  0.00000000000E+00 0. -1.
</event>
<event>
 5    1  0.1166492E+001  0.1566222E+01  0.7818608E-02  0.3390861E+00
         11   -1    0    0    0    0  0.00000000000E+00  0.00000000000E+00  0.39999999674E+01  0.40000000000E+01  0.51100000000E-03 0. -1.
    9000002   -1    0    0    0    0 -0.00000000000E+00 -0.00000000000E+00  0.00000000000E+00  0.93800000000E+00  0.93800000000E+00 0.  1.
         11    1    1    2    0    0  0.69525782549E-01 -0.18212386517E-01  0.14271282795E+01  0.14289369870E+01  0.51100000000E-03 0. -1.
    9000002    1    1    2    0    0  0.35989292599E+00  0.22523051925E+00  0.15088478975E+00  0.10406065177E+01  0.93800000000E+00 0.  1.
         22    1    1    2    0    0 -0.42941870854E+00 -0.20701813273E+00  0.24219868981E+01  0.24684564953E+01  0.00000000000E+00 0. -1.
</event>
<event>
 5    1  0.1166492E+001  0.1529407E+01  0.7818608E-02  0.3433736E+00
         11   -1    0    0    0    0  0.00000000000E+00  0.00000000000E+00  0.39999999674E+01  0.40000000000E+01  0.51100000000E-03 0.  1.
    9000002   -1    0    0    0    0 -0.00000000000E+00 -0.00000000000E+00  0.00000000000E+00  0.93800000000E+00  0.93800000000E+00 0. -1.
         11    1    1    2    0    0 -0.23645746494E+00  0.57226190849E-01  0.86690070481E+00  0.90039106102E+00  0.51100000000E-03 0.  1.
    9000002    1    1    2    0    0 -0.89900041481E-01  0.50128826584E-01  0.60184298284E-01  0.94554802441E+00  0.93800000000E+00 0. -1.
         22    1    1    2    0    0  0.32635750642E+00 -0.10735501743E+00  0.30729149643E+01  0.30920609146E+01  0.00000000000E+00 0. -1.
</event>
<event>
 5    1  0.1166492E+001  0.1523403E+01  0.7818608E-02  0.3440939E+00
         11   -1    0    0    0    0  0.00000000000E+00  0.00000000000E+00  0.39999999674E+01  0.40000000000E+01  0.51100000000E-03 0.  1.
    9000002   -1    0    0    0    0 -0.00000000000E+00 -0.00000000000E+00  0.00000000000E+00  0.93800000000E+00  0.93800000000E+00 0. -1.
         11    1    1    2    0    0  0.29446959425E+00  0.55706779237E-01  0.12260148169E+01  0.12621125860E+01  0.51100000000E-03 0.  1.
    9000002    1    1    2    0    0  0.13049166451E-02  0.11069470616E+00  0.66101071440E-01  0.94682013731E+00  0.93800000000E+00 0. -1.
         22    1    1    2    0    0 -0.29577451090E+00 -0.16640148539E+00  0.27078840790E+01  0.27290672767E+01  0.00000000000E+00 0.  1.
</event>
<event>
 5    1  0.1166492E+001  0.1561545E+01  0.7818608E-02  0.3396189E+00
         11   -1    0    0    0    0  0.00000000000E+00  0.00000000000E+00  0.39999999674E+01  0.40000000000E+01  0.51100000000E-03 0.  1.
    9000002   -1    0    0    0    0 -0.00000000000E+00 -0.00000000000E+00  0.00000000000E+00  0.93800000000E+00  0.93800000000E+00 0.  1.
         11    1    1    2    0    0  0.26990632410E+00  0.48757136764E-02  0.12041126915E+01  0.12340019576E+01  0.51100000000E-03 0.  1.
    9000002    1    1    2    0    0 -0.21762303696E+00  0.24215637908E+00  0.10179770720E+00  0.99810133320E+00  0.93800000000E+00 0.  1.
         22    1    1    2    0    0 -0.52283287144E-01 -0.24703209275E+00  0.26940895686E+01  0.27058967092E+01  0.00000000000E+00 0.  1.
</event>
<event>
 5    1  0.1166492E+001  0.1454391E+01  0.7818608E-02  0.3528338E+00
         11   -1    0    0    0    0  0.00000000000E+00  0.00000000000E+00  0.39999999674E+01  0.40000000000E+01  0.51100000000E-03 0.  1.
    9000002   -1    0    0    0    0 -0.00000000000E+00 -0.00000000000E+00  0.00000000000E+00  0.93800000000E+00  0.93800000000E+00 0. -1.
         11    1    1    2    0    0 -0.42450848816E+00 -0.20985174777E+00  0.10850741542E+01  0.11839051456E+01  0.51100000000E-03 0.  1.
    9000002    1    1    2    0    0  0.94133964788E-01  0.11548128842E+00  0.14241658745E+00  0.96037680922E+00  0.93800000000E+00 0. -1.
         22    1    1    2    0    0  0.33037452337E+00  0.94370459349E-01  0.27725092258E+01  0.27937180452E+01  0.00000000000E+00 0.  1.
</event>
<event>
 5    1  0.1166492E+001  0.1574890E+01  0.7818608E-02  0.3381076E+00
         11   -1    0    0    0    0  0.00000000000E+00  0.00000000000E+00  0.39999999674E+01  0.40000000000E+01  0.51100000000E-03 0.  1.
    9000002   -1    0    0    0    0 -0.00000000000E+00 -0.00000000000E+00  0.00000000000E+00  0.93800000000E+00  0.93800000000E+00 0.  1.
         11    1    1    2    0    0  0.11398558012E+00 -0.10328047852E+00  0.13231496432E+01  0.13320603624E+01  0.51100000000E-03 0.  1.
    9000002    1    1    2    0    0  0.13248224770E+00  0.60746405796E-01  0.32524984655E-01  0.94981237431E+00  0.93800000000E+00 0.  1.
         22    1    1    2    0    0 -0.24646782783E+00  0.42534072719E-01  0.26443253395E+01  0.26561272633E+01  0.00000000000E+00 0.  1.
</event>
<event>
 5    1  0.1166492E+001  0.1530439E+01  0.7818608E-02  0.3432505E+00
         11   -1    0    0    0    0  0.00000000000E+00  0.00000000000E+00  0.39999999674E+01  0.40000000000E+01  0.51100000000E-03 0. -1.
    9000002   -1    0    0    0    0 -0.00000000000E+00 -0.00000000000E+00  0.00000000000E+00  0.93800000000E+00  0.93800000000E+00 0. -1.
         11    1    1    2    0    0 -0.26853151678E+00 -0.93648992773E-01  0.98014113932E+00  0.10205666188E+01  0.51100000000E-03 0. -1.
    9000002    1    1    2    0    0  0.15574858335E+00 -0.23826222891E+00  0.10983815981E+00  0.98637464094E+00  0.93800000000E+00 0. -1.
         22    1    1    2    0    0  0.11278293343E+00  0.33191122168E+00  0.29100206682E+01  0.29310587402E+01  0.00000000000E+00 0. -1.
</event>
<event>
 5    1  0.1166492E+001  0.1504301E+01  0.7818608E-02  0.3464265E+00
         11   -1    0    0    0    0  0.00000000000E+00  0.00000000000E+00  0.39999999674E+01  0.40000000000E+01  0.51100000000E-03 0.  1.
    9000002   -1    0    0    0    0 -0.00000000000E+00 -0.00000000000E+00  0.00000000000E+00  0.93800000000E+00  0.93800000000E+00 0.  1.
         11    1    1    2    0    0 -0.45691384781E+00  0.38111157837E-01  0.10322474915E+01  0.11294945195E+01  0.51100000000E-03 0.  1.
    9000002    1    1    2    0    0  0.43333151143E+00 -0.29899229459E+00  0.28468603688E+00  0.11126826729E+01  0.93800000000E+00 0.  1.
         22    1    1    2    0    0  0.23582336379E-01  0.26088113675E+00  0.26830664389E+01  0.26958228076E+01  0.00000000000E+00 0.  1.
</event>
<event>
 5    1  0.1166492E+001  0.1449703E+01  0.7818608E-02  0.3534603E+00
         11   -1    0    0    0    0  0.00000000000E+00  0.00000000000E+00  0.39999999674E+01  0.40000000000E+01  0.51100000000E-03 0. -1.
    9000002   -1    0    0    0    0 -0.00000000000E+00 -0.00000000000E+00  0.00000000000E+00  0.93800000000E+00  0.93800000000E+00 0. -1.
         11    1    1    2    0    0 -0.22062552369E+00 -0.35931242335E+00  0.11094768029E+01  0.11868951413E+01  0.51100000000E-03 0. -1.
    9000002    1    1    2    0    0 -0.45738170910E-01  0.21140826420E-01  0.11959166864E+00  0.94693457114E+00  0.93800000000E+00 0.  1.
         22    1    1    2    0    0  0.26636369460E+00  0.33817159692E+00  0.27709314958E+01  0.28041702875E+01  0.00000000000E+00 0. -1.
</event>
<event>
 5    1  0.1166492E+001  0.1551902E+01  0.7818608E-02  0.3407281E+00
         11   -1    0    0    0    0  0.00000000000E+00  0.00000000000E+00  0.39999999674E+01  0.40000000000E+01  0.51100000000E-03 0.  1.
    9000002   -1    0    0    0    0 -0.00000000000E+00 -0.00000000000E+00  0.00000000000E+00  0.93800000000E+00  0.93800000000E+00 0.  1.
         11    1    1    2    0    0 -0.19249711963E+00  0.28548766026E-01  0.11661760369E+01  0.11823015619E+01  0.51100000000E-03 0.  1.
    9000002    1    1    2    0    0 -0.15904763268E+00 -0.15430205409E+00  0.69552129557E-01  0.96632643143E+00  0.93800000000E+00 0.  1.
         22    1    1    2    0    0  0.35154475230E+00  0.12575328806E+00  0.27642718009E+01  0.27893720067E+01  0.00000000000E+00 0.  1.
</event>
<event>
 5    1  0.1166492E+001  0.1468222E+01  0.7818608E-02  0.3510109E+00
         11   -1    0    0    0    0  0.00000000000E+00  0.00000000000E+00  0.39999999674E+01  0.40000000000E+01  0.51100000000E-03 0.  1.
    9000002   -1    0    0    0    0 -0.00000000000E+00 -0.00000000000E+00  0.00000000000E+00  0.93800000000E+00  0.93800000000E+00 0. -1.
         11    1    1    2    0    0  0.30134853045E-02 -0.35554013748E+00  0.66469982919E+00  0.75381960342E+00  0.51100000000E-03 0.  1.
    9000002    1    1    2    0    0  0.27426474177E+00  0.12393439489E+00  0.17162079220E+00  0.99993928772E+00  0.93800000000E+00 0. -1.
         22    1    1    2    0    0 -0.27727822708E+00  0.23160574258E+00  0.31636793460E+01  0.31842411089E+01  0.00000000000E+00 0.  1.
</event>
<event>
 5    1  0.1166492E+001  0.1574985E+01  0.7818608E-02  0.3380970E+00
         11   -1    0    0    0    0  0.00000000000E+00  0.00000000000E+00  0.39999999674E+01  0.40000000000E+01  0.51100000000E-03 0.  1.
    9000002   -1    0    0    0    0 -0.00000000000E+00 -0.00000000000E+00  0.00000000000E+00  0.93800000000E+00  0.93800000000E+00 0. -1.
         11    1    1    2    0    0 -0.56524649813E-01 -0.16737686032E+00  0.11588370167E+01  0.11722258919E+01  0.51100000000E-03 0.  1.
    9000002    1    1    2    0    0 -0.19910473843E+00  0.13277382052E+00  0.57040220503E-01  0.96972633822E+00  0.93800000000E+00 0. -1.
         22    1    1    2    0    0  0.25562938825E+00  0.34603039801E-01  0.27841227302E+01  0.27960477698E+01  0.00000000000E+00 0.  1.
</event>
<event>
 5    1  0.1166492E+001  0.1541232E+01  0.7818608E-02  0.3419726E+00
         11   -1    0    0    0    0  0.00000000000E+00  0.00000000000E+00  0.39999999674E+01  0.40000000000E+01  0.51100000000E-03 0.  1.
    9000002   -1    0    0    0    0 -0.00000000000E+00 -0.00000000000E+00  0.00000000000E+00  0.93800000000E+00  0.93800000000E+00 0.  1.
         11    1    1    2    0    0 -0.11163892554E+00 -0.30256685933E+00  0.14033398965E+01  0.14399212063E+01  0.51100000000E-03 0.  1.
    9000002    1    1    2    0    0  0.55346908647E+00  0.10030681992E+00  0.27725544249E+00  0.11283191340E+01  0.93800000000E+00 0.  1.
         22    1    1    2    0    0 -0.44183016093E+00  0.20226003942E+00  0.23194046283E+01  0.23697596597E+01  0.00000000000E+00 0. -1.
</event>
<event>
 5    1  0.1166492E+001  0.1487200E+01  0.7818608E-02  0.3485694E+00
         11   -1    0    0    0    0  0.00000000000E+00  0.00000000000E+00  0.39999999674E+01  0.40000000000E+01  0.51100000000E-03 0.  1.
    9000002   -1    0    0    0    0 -0.00000000000E+00 -0.00000000000E+00  0.00000000000E+00  0.93800000000E+00  0.93800000000E+00 0.  1.
         11    1    1    2    0    0 -0.31047494809E+00 -0.96806514914E-01  0.46561107239E+00  0.56794377061E+00  0.51100000000E-03 0.  1.
    9000002    1    1    2    0    0  0.50141296786E+00 -0.33543290357E+00  0.37661188307E+00  0.11771196658E+01  0.93800000000E+00 0.  1.
         22    1    1    2    0    0 -0.19093801977E+00  0.43223941848E+00  0.31577770119E+01  0.31929365636E+01  0.00000000000E+00 0.  1.
</event>
<event>
 5    1  0.1166492E+001  0.1404691E+01  0.7818608E-02  0.3599384E+00
         11   -1    0    0    0    0  0.00000000000E+00  0.00000000000E+00  0.39999999674E+01  0.40000000000E+01  0.51100000000E-03 0.  1.
    9000002   -1    0    0    0    0 -0.00000000000E+00 -0.00000000000E+00  0.00000000000E+00  0.93800000000E+00  0.93800000000E+00 0.  1.
         11    1    1    2    0    0  0.30496349265E+00 -0.54353583854E+00  0.11051311343E+01  0.12687588521E+01  0.51100000000E-03 0.  1.
    9000002    1    1    2    0    0 -0.10609319851E+00  0.41778755119E+00  0.31589120432E+00  0.10795524340E+01  0.93800000000E+00 0.  1.
         22    1    1    2    0    0 -0.19887029414E+00  0.12574828735E+00  0.25789776287E+01  0.25896887139E+01  0.00000000000E+00 0.  1.
</event>
<event>
 5    1  0.1166492E+001  0.1493805E+01  0.7818608E-02  0.3477355E+00
         11   -1    0    0    0    0  0.00000000000E+00  0.00000000000E+00  0.39999999674E+01  0.40000000000E+01  0.51100000000E-03 0. -1.
    9000002   -1    0    0    0    0 -0.00000000000E+00 -0.00000000000E+00  0.00000000000E+00  0.93800000000E+00  0.93800000000E+00 0.  1.
         11    1    1    2    0    0 -0.19711630677E+00 -0.17274408248E+00  0.63401221693E+00  0.68605182659E+00  0.51100000000E-03 0. -1.
    9000002    1    1    2    0    0 -0.19518468177E+00 -0.50033286427E-01  0.11094627104E+00  0.96579162598E+00  0.93800000000E+00 0.  1.
         22    1    1    2    0    0  0.39230098855E+00  0.22277736891E+00  0.32550414794E+01  0.32861565474E+01  0.00000000000E+00 0. -1.
</event>
<event>
 5    1  0.1166492E+001  0.1517426E+01  0.7818608E-02  0.3448170E+00
         11   -1    0    0    0    0  0.00000000000E+00  0.00000000000E+00  0.39999999674E+01  0.40000000000E+01  0.51100000000E-03 0. -1.
    9000002   -1    0    0    0    0 -0.00000000000E+00 -0.00000000000E+00  0.00000000000E+00  0.93800000000E+00  0.93800000000E+00 0. -1.
         11    1    1    2    0    0 -0.25585466187E+00 -0.40310705403E+00  0.13812687038E+01  0.14614583122E+01  0.51100000000E-03 0. -1.
    9000002    1    1    2    0    0  0.44113725318E+00  0.21907705466E+00  0.24360094272E+00  0.10870980873E+01  0.93800000000E+00 0. -1.
         22    1    1    2    0    0 -0.18528259131E+00  0.18402999937E+00  0.23751303208E+01  0.23894436006E+01  0.00000000000E+00 0. -1.
</event>
<event>
 5    1  0.1166492E+001  0.1305815E+01  0.7818608E-02  0.3770869E+00
         11   -1    0    0    0    0  0.00000000000E+00  0.00000000000E+00  0.39999999674E+01  0.40000000000E+01  0.51100000000E-03 0.  1.
    9000002   -1    0    0    0    0 -0.00000000000E+00 -0.00000000000E+00  0.00000000000E+00  0.93800000000E+00  0.93800000000E+00 0.  1.
         11    1    1    2    0    0  0.56020826004E+00 -0.21943818562E+00  0.59028975267E+00  0.84286930491E+00  0.51100000000E-03 0.  1.
    9000002    1    1    2    0    0 -0.47624765083E+00 -0.32043156123E-01  0.48571176778E+00  0.11591369678E+01  0.93800000000E+00 0.  1.
         22    1    1    2    0    0 -0.83960609215E-01  0.25148134175E+00  0.29239984469E+01  0.29359937273E+01  0.00000000000E+00 0.  1.
</event>
<event>
 5    1  0.1166492E+001  0.1569060E+01  0.7818608E-02  0.3387644E+00
         11   -1    0    0    0    0  0.00000000000E+00  0.00000000000E+00  0.39999999674E+01  0.40000000000E+01  0.51100000000E-03 0.  1.
    9000002   -1    0    0    0    0 -0.00000000000E+00 -0.00000000000E+00  0.00000000000E+00  0.93800000000E+00  0.93800000000E+00 0. -1.
         11    1    1    2    0    0 -0.81398693357E-02 -0.15468933021E+00  0.12500201225E+01  0.12595815234E+01  0.51100000000E-03 0.  1.
    9000002    1    1    2    0    0 -0.12582489898E+00 -0.11113939123E+00  0.41687962613E-01  0.95381641615E+00  0.93800000000E+00 0. -1.
         22    1    1    2    0    0  0.13396476832E+00  0.26582872143E+00  0.27082918823E+01  0.27246020605E+01  0.00000000000E+00 0. -1.
</event>
<event>
 5    1  0.1166492E+001  0.1338879E+01  0.7818608E-02  0.3710152E+00
         11   -1    0    0    0    0  0.00000000000E+00  0.00000000000E+00  0.39999999674E+01  0.40000000000E+01  0.51100000000E-03 0. -1.
    9000002   -1    0    0    0    0 -0.00000000000E+00 -0.00000000000E+00  0.00000000000E+00  0.93800000000E+00  0.93800000000E+00 0. -1.
         11    1    1    2    0    0  0.58244815904E+00 -0.42689172389E+00  0.11191790525E+01  0.13319325863E+01  0.51100000000E-03 0. -1.
    9000002    1    1    2    0    0 -0.29762254084E+00  0.33433029198E+00  0.41017779787E+00  0.11173386894E+01  0.93800000000E+00 0. -1.
         22    1    1    2    0    0 -0.28482561820E+00  0.92561431906E-01  0.24706431170E+01  0.24887287243E+01  0.00000000000E+00 0. -1.
</event>
<event>
 5    1  0.1166492E+001  0.1551342E+01  0.7818608E-02  0.3407930E+00
         11   -1    0    0    0    0  0.00000000000E+00  0.00000000000E+00  0.39999999674E+01  0.40000000000E+01  0.51100000000E-03 0.  1.
    9000002   -1    0    0    0    0 -0.00000000000E+00 -0.00000000000E+00  0.00000000000E+00  0.93800000000E+00  0.93800000000E+00 0. -1.
         11    1    1    2    0    0  0.11016088369E+00  0.23054854571E+00  0.13627676053E+01  0.13865150051E+01  0.51100000000E-03 0.  1.
    9000002    1    1    2    0    0  0.48780353422E-01 -0.38753964713E-01  0.38513452192E-01  0.94085529103E+00  0.93800000000E+00 0. -1.
         22    1    1    2    0    0 -0.15894123711E+00 -0.19179458100E+00  0.25987189099E+01  0.26106297039E+01  0.00000000000E+00 0.  1.
</event>
<event>
 5    1  0.1166492E+001  0.1462581E+01  0.7818608E-02  0.3517499E+00
         11   -1    0    0    0    0  0.00000000000E+00  0.00000000000E+00  0.39999999674E+01  0.40000000000E+01  0.51100000000E-03 0.  1.
    9000002   -1    0    0    0    0 -0.00000000000E+00 -0.00000000000E+00  0.00000000000E+00  0.93800000000E+00  0.93800000000E+00 0.  1.
         11    1    1    2    0    0  0.20813462088E+00  0.24173564538E+00  0.52362517530E+00  0.61313924029E+00  0.51100000000E-03 0.  1.
    9000002    1    1    2    0    0 -0.15899856227E+00  0.79343833607E-01  0.13085468115E+00  0.96360932660E+00  0.93800000000E+00 0.  1.
         22    1    1    2    0    0 -0.49136058613E-01 -0.32107947898E+00  0.33455201109E+01  0.33612514331E+01  0.00000000000E+00 0.  1.
</event>
<event>
 5    1  0.1166492E+001  0.1574980E+01  0.7818608E-02  0.3380975E+00
         11   -1    0    0    0    0  0.00000000000E+00  0.00000000000E+00  0.39999999674E+01  0.40000000000E+01  0.51100000000E-03 0.  1.
    9000002   -1    0    0    0    0 -0.00000000000E+00 -0.00000000000E+00  0.00000000000E+00  0.93800000000E+00  0.93800000000E+00 0. -1.
         11    1    1    2    0    0 -0.19571677765E+00  0.13679117003E+00  0.73673163803E+00  0.77446152186E+00  0.51100000000E-03 0.  1.
    9000002    1    1    2    0    0  0.23025032626E+00 -0.55351686315E+00  0.27569345761E+00  0.11468421919E+01  0.93800000000E+00 0. -1.
         22    1    1    2    0    0 -0.34533548612E-01  0.41672569313E+00  0.29875748717E+01  0.30166962862E+01  0.00000000000E+00 0.  1.
</event>
<event>
 5    1  0.1166492E+001  0.1490154E+01  0.7818608E-02  0.3481956E+00
         11   -1    0    0    0    0  0.00000000000E+00  0.00000000000E+00  0.39999999674E+01  0.40000000000E+01  0.51100000000E-03 0.  1.
    9000002   -1    0    0    0    0 -0.00000000000E+00 -0.00000000000E+00  0.00000000000E+00  0.93800000000E+00  0.93800000000E+00 0.  1.
         11    1    1    2    0    0 -0.25312391735E+00  0.29097956990E+00  0.10484429310E+01  0.11171274181E+01  0.51100000000E-03 0.  1.
    9000002    1    1    2    0    0  0.58769288717E-01 -0.95746805994E-01  0.93220964456E-01  0.94929206695E+00  0.93800000000E+00 0.  1.
         22    1    1    2    0    0  0.19435462864E+00 -0.19523276391E+00  0.28583360719E+01  0.28715805150E+01  0.00000000000E+00 0.  1.
</event>
<event>
 5    1  0.1166492E+001  0.1482904E+01  0.7818608E-02  0.3491163E+00
         11   -1    0    0    0    0  0.00000000000E+00  0.00000000000E+00  0.39999999674E+01  0.40000000000E+01  0.51100000000E-03 0. -1.
    9000002   -1    0    0    0    0 -0.00000000000E+00 -0.00000000000E+00  0.00000000000E+00  0.93800000000E+00  0.93800000000E+00 0. -1.
         11    1    1    2    0    0 -0.85725672216E-02 -0.35135573557E+00  0.10906386535E+01  0.11458696590E+01  0.51100000000E-03 0. -1.
    9000002    1    1    2    0    0 -0.89936330564E-01 -0.62392429821E-01  0.98742067141E-01  0.94951321985E+00  0.93800000000E+00 0. -1.
         22    1    1    2    0    0  0.98508897786E-01  0.41374816539E+00  0.28106192467E+01  0.28426171211E+01  0.00000000000E+00 0. -1.
</event>
<event>
 5    1  0.1166492E+001  0.1567884E+01  0.7818608E-02  0.3388977E+00
         11   -1    0    0    0    0  0.00000000000E+00  0.00000000000E+00  0.39999999674E+01  0.40000000000E+01  0.51100000000E-03 0. -1.
    9000002   -1    0    0    0    0 -0.00000000000E+00 -0.00000000000E+00  0.00000000000E+00  0.93800000000E+00  0.93800000000E+00 0.  1.
         11    1    1    2    0    0  0.14507880320E+00 -0.12861552603E+00  0.13518019991E+01  0.13656349141E+01  0.51100000000E-03 0. -1.
    9000002    1    1    2    0    0  0.10291053472E+00  0.99840170729E-01  0.37373121443E-01  0.94963118528E+00  0.93800000000E+00 0.  1.
         22    1    1    2    0    0 -0.24798933792E+00  0.28775355301E-01  0.26108248468E+01  0.26227339007E+01  0.00000000000E+00 0. -1.
</event>
<event>
 5    1  0.1166492E+001  0.1490990E+01  0.7818608E-02  0.3480900E+00
         11   -1    0    0    0    0  0.00000000000E+00  0.00000000000E+00  0.39999999674E+01  0.40000000000E+01  0.51100000000E-03 0. -1.
    9000002   -1    0    0    0    0 -0.00000000000E+00 -0.00000000000E+00  0.00000000000E+00  0.93800000000E+00  0.93800000000E+00 0. -1.
         11    1    1    2    0    0  0.12550120395E+00 -0.36901530670E+00  0.10088370280E+01  0.10815152606E+01  0.51100000000E-03 0. -1.
    9000002    1    1    2    0    0  0.13787645762E+00  0.21623435840E+00  0.13221962302E+00  0.98137314210E+00  0.93800000000E+00 0. -1.
         22    1    1    2    0    0 -0.26337766158E+00  0.15278094830E+00  0.28589433163E+01  0.28751115973E+01  0.00000000000E+00 0. -1.
</event>
<event>
 5    1  0.1166492E+001  0.1535375E+01  0.7818608E-02  0.3426638E+00
         11   -1    0    0    0    0  0.00000000000E+00  0.00000000000E+00  0.39999999674E+01  0.40000000000E+01  0.51100000000E-03 0.  1.
    9000002   -1    0    0    0    0 -0.00000000000E+00 -0.00000000000E+00  0.00000000000E+00  0.93800000000E+00  0.93800000000E+00 0.  1.
         11    1    1    2    0    0 -0.29037257561E+00  0.35155646341E-01  0.12488965321E+01  0.12826905165E+01  0.51100000000E-03 0.  1.
    9000002    1    1    2    0    0  0.18811619743E-01 -0.13944696490E+00  0.62002089434E-01  0.95051964322E+00  0.93800000000E+00 0.  1.
         22    1    1    2    0    0  0.27156095587E+00  0.10429131856E+00  0.26891013458E+01  0.27047898403E+01  0.00000000000E+00 0.  1.
</event>
<event>
 5    1  0.1166492E+001  0.1549851E+01  0.7818608E-02  0.3409659E+00
         11   -1    0    0    0    0  0.00000000000E+00  0.00000000000E+00  0.39999999674E+01  0.40000000000E+01  0.51100000000E-03 0.  1.
    9000002   -1    0    0    0    0 -0.00000000000E+00 -0.00000000000E+00  0.00000000000E+00  0.93800000000E+00  0.93800000000E+00 0.  1.
         11    1    1    2    0    0  0.14083164844E+00 -0.11432539960E+00  0.14015177842E+01  0.14132077734E+01  0.51100000000E-03 0.  1.
    9000002    1    1    2    0    0  0.64256062607E-01 -0.23588917577E+00  0.78691254131E-01  0.97252704760E+00  0.93800000000E+00 0.  1.
         22    1    1    2    0    0 -0.20508771105E+00  0.35021457538E+00  0.25197909290E+01  0.25522651790E+01  0.00000000000E+00 0.  1.
</event>
<event>
 5    1  0.1166492E+001  0.1564563E+01  0.7818608E-02  0.3392747E+00
         11   -1    0    0    0    0  0.00000000000E+00  0.00000000000E+00  0.39999999674E+01  0.40000000000E+01  0.51100000000E-03 0.  1.
    9000002   -1    0    0    0    0 -0.00000000000E+00 -0.00000000000E+00  0.00000000000E+00  0.93800000000E+00  0.93800000000E+00 0. -1.
         11    1    1    2    0    0  0.11447364029E+00  0.15401025975E+00  0.11864777232E+01  0.12018955958E+01  0.51100000000E-03 0.  1.
    9000002    1    1    2    0    0 -0.99259679007E-01  0.11522727705E+00  0.41666990922E-01  0.95116241904E+00  0.93800000000E+00 0. -1.
         22    1    1    2    0    0 -0.15213961281E-01 -0.26923753680E+00  0.27718552533E+01  0.27849419852E+01  0.00000000000E+00 0.  1.
</event>
<event>
 5    1  0.1166492E+001  0.1505592E+01  0.7818608E-02  0.3462668E+00
         11   -1    0    0    0    0  0.00000000000E+00  0.00000000000E+00  0.39999999674E+01  0.40000000000E+01  0.51100000000E-03 0. -1.
    9000002   -1    0    0    0    0 -0.00000000000E+00 -0.00000000000E+00  0.00000000000E+00  0.93800000000E+00  0.93800000000E+00 0.  1.
         11    1    1    2    0    0  0.28486659394E+00 -0.85812351166E-01  0.86815501534E+00  0.91771789115E+00  0.51100000000E-03 0. -1.
    9000002    1    1    2    0    0  0.51950840079E-01  0.48929600674E-02  0.73433275832E-01  0.94231591138E+00  0.93800000000E+00 0.  1.
         22    1    1    2    0    0 -0.33681743402E+00  0.80919391099E-01  0.30584116762E+01  0.30779661975E+01  0.00000000000E+00 0. -1.
</event>
<event>
 5    1  0.1166492E+001  0.1543084E+01  0.7818608E-02  0.3417554E+00
         11   -1    0    0    0    0  0.00000000000E+00  0.00000000000E+00  0.39999999674E+01  0.40000000000E+01  0.51100000000E-03 0. -1.
    9000002   -1    0    0    0    0 -0.00000000000E+00 -0.00000000000E+00  0.00000000000E+00  0.93800000000E+00  0.93800000000E+00 0. -1.
         11    1    1    2    0    0 -0.61545323208E-01 -0.20122613007E+00  0.75016390976E+00  0.77911869113E+00  0.51100000000E-03 0. -1.
    9000002    1    1    2    0    0  0.18424142143E+00 -0.12149014106E+00  0.76308991763E-01  0.96662910052E+00  0.93800000000E+00 0. -1.
         22    1    1    2    0    0 -0.12269609822E+00  0.32271627113E+00  0.31735270658E+01  0.31922522084E+01  0.00000000000E+00 0. -1.
</event>
<event>
 5    1  0.1166492E+001  0.1479039E+01  0.7818608E-02  0.3496110E+00
         11   -1    0    0    0    0  0.00000000000E+00  0.00000000000E+00  0.39999999674E+01  0.40000000000E+01  0.51100000000E-03 0. -1.
    9000002   -1    0    0    0    0 -0.00000000000E+00 -0.00000000000E+00  0.00000000000E+00  0.93800000000E+00  0.93800000000E+00 0. -1.
         11    1    1    2    0    0  0.37129517323E+00  0.10174521577E+00  0.93794342936E+00  0.10138788549E+01  0.51100000000E-03 0. -1.
    9000002    1    1    2    0    0 -0.73341639412E-01 -0.11130309168E+00  0.10629842774E+00  0.95336809787E+00  0.93800000000E+00 0. -1.
         22    1    1    2    0    0 -0.29795353382E+00  0.95578759122E-02  0.29557581103E+01  0.29707530472E+01  0.00000000000E+00 0. -1.
</event>
<event>
 5    1  0.1166492E+001  0.1476315E+01  0.7818608E-02  0.3499614E+00
         11   -1    0    0    0    0  0.00000000000E+00  0.00000000000E+00  0.39999999674E+01  0.40000000000E+01  0.51100000000E-03 0.  1.
    9000002   -1    0    0    0    0 -0.00000000000E+00 -0.00000000000E+00  0.00000000000E+00  0.93800000000E+00  0.93800000000E+00 0.  1.
         11    1    1    2    0    0 -0.24075364486E+00 -0.30858476600E+00  0.13296163975E+01  0.13860255773E+01  0.51100000000E-03 0.  1.
    9000002    1    1    2    0    0  0.82927168259E-01 -0.94328960005E-01  0.10708862590E+00  0.95241106762E+00  0.93800000000E+00 0.  1.
         22    1    1    2    0    0  0.15782647660E+00  0.40291372601E+00  0.25632949440E+01  0.25995633551E+01  0.00000000000E+00 0. -1.
</event>
<event>
 5    1  0.1166492E+001  0.1570188E+01  0.7818608E-02  0.3386370E+00
         11   -1    0    0    0    0  0.00000000000E+00  0.00000000000E+00  0.39999999674E+01  0.40000000000E+01  0.51100000000E-03 0. -1.
    9000002   -1    0    0    0    0 -0.00000000000E+00 -0.00000000000E+00  0.00000000000E+00  0.93800000000E+00  0.93800000000E+00 0. -1.
         11    1    1    2    0    0 -0.13641577147E+00 -0.44793191670E-01  0.75755260594E+00  0.77103949615E+00  0.51100000000E-03 0. -1.
    9000002    1    1    2    0    0 -0.13600094402E+00  0.17081942689E+00  0.54185913116E-01  0.96460128891E+00  0.93800000000E+00 0. -1.
         22    1    1    2    0    0  0.27241671549E+00 -0.12602623522E+00  0.31882614483E+01  0.32023592149E+01  0.00000000000E+00 0. -1.
</event>
<event>
 5    1  0.1166492E+001  0.1463627E+01  0.7818608E-02  0.3516124E+00
         11   -1    0    0    0    0  0.00000000000E+00  0.00000000000E+00  0.39999999674E+01  0.40000000000E+01  0.51100000000E-03 0.  1.
    9000002   -1    0    0    0    0 -0.00000000000E+00 -0.00000000000E+00  0.00000000000E+00  0.93800000000E+00  0.93800000000E+00 0.  1.
         11    1    1    2    0    0  0.49847675858E-01 -0.51302772131E+00  0.12346493195E+01  0.13379243016E+01  0.51100000000E-03 0.  1.
    9000002    1    1    2    0    0 -0.13601720454E+00  0.15022067485E+00  0.16573065444E+00  0.97384679540E+00  0.93800000000E+00 0.  1.
         22    1    1    2    0    0  0.86169528681E-01  0.36280704645E+00  0.25996199935E+01  0.26262289030E+01  0.00000000000E+00 0.  1.
</event>
<event>
 5    1  0.1166492E+001  0.1544250E+01  0.7818608E-02  0.3416188E+00
         11   -1    0    0    0    0  0.00000000000E+00  0.00000000000E+00  0.39999999674E+01  0.40000000000E+01  0.51100000000E-03 0.  1.
    9000002   -1    0    0    0    0 -0.00000000000E+00 -0.00000000000E+00  0.00000000000E+00  0.93800000000E+00  0.93800000000E+00 0. -1.
         11    1    1    2    0    0 -0.59162087634E-01  0.39205207598E+00  0.11017062653E+01  0.11708808390E+01  0.51100000000E-03 0.  1.
    9000002    1    1    2    0    0 -0.15980155187E+00 -0.51783178203E+00  0.25645341947E+00  0.11132379111E+01  0.93800000000E+00 0. -1.
         22    1    1    2    0    0  0.21896363950E+00  0.12577970605E+00  0.26418402826E+01  0.26538812499E+01  0.00000000000E+00 0.  1.
</event>
<event>
 5    1  0.1166492E+001  0.1573486E+01  0.7818608E-02  0.3382653E+00
         11   -1    0    0    0    0  0.00000000000E+00  0.00000000000E+00  0.39999999674E+01  0.40000000000E+01  0.51100000000E-03 0. -1.
    9000002   -1    0    0    0    0 -0.00000000000E+00 -0.00000000000E+00  0.00000000000E+00  0.93800000000E+00  0.93800000000E+00 0. -1.
         11    1    1    2    0    0 -0.96264339578E-01 -0.91338799467E-01  0.12479457776E+01  0.12549814836E+01  0.51100000000E-03 0. -1.
    9000002    1    1    2    0    0 -0.15299087827E+00 -0.55741254650E-01  0.37171701155E-01  0.95275339499E+00  0.93800000000E+00 0. -1.
         22    1    1    2    0    0  0.24925521785E+00  0.14708005412E+00  0.27148824886E+01  0.27302651214E+01  0.00000000000E+00 0. -1.
</event>
<event>
 5    1  0.1166492E+001  0.1495914E+01  0.7818608E-02  0.3474709E+00
         11   -1    0    0    0    0  0.00000000000E+00  0.00000000000E+00  0.39999999674E+01  0.40000000000E+01  0.51100000000E-03 0. -1.
    9000002   -1    0    0    0    0 -0.00000000000E+00 -0.00000000000E+00  0.00000000000E+00  0.93800000000E+00  0.93800000000E+00 0.  1.
         11    1    1    2    0    0 -0.27380772737E+00  0.31948656209E-01  0.64245359130E+00  0.69909818073E+00  0.51100000000E-03 0. -1.
    9000002    1    1    2    0    0 -0.10462525423E+00 -0.18300919218E+00  0.11202389482E+00  0.96790090467E+00  0.93800000000E+00 0.  1.
         22    1    1    2    0    0  0.37843298160E+00  0.15106053597E+00  0.32455224812E+01  0.32710009146E+01  0.00000000000E+00 0. -1.
</event>
<event>
 5    1  0.1166492E+001  0.1553620E+01  0.7818608E-02  0.3405294E+00
         11   -1    0    0    0    0  0.00000000000E+00  0.00000000000E+00  0.39999999674E+01  0.40000000000E+01  0.51100000000E-03 0.  1.
    9000002   -1    0    0    0    0 -0.00000000000E+00 -0.00000000000E+00  0.00000000000E+00  0.93800000000E+00  0.93800000000E+00 0.  1.
         11    1    1    2    0    0  0.12063219505E+00 -0.25760659989E+00  0.10879252522E+01  0.11244976222E+01  0.51100000000E-03 0.  1.
    9000002    1    1    2    0    0  0.13878865041E+00  0.31312824130E+00  0.11647932134E+00  0.10053472123E+01  0.93800000000E+00 0.  1.
         22    1    1    2    0    0 -0.25942084545E+00 -0.55521641415E-01  0.27955953938E+01  0.28081551655E+01  0.00000000000E+00 0.  1.
</event>
<event>
 5    1  0.1166492E+001  0.1592225E+01  0.7818608E-02  0.3361845E+00
         11   -1    0    0    0    0  0.00000000000E+00  0.00000000000E+00  0.39999999674E+01  0.40000000000E+01  0.51100000000E-03 0.  1.
    9000002   -1    0    0    0    0 -0.00000000000E+00 -0.00000000000E+00  0.00000000000E+00  0.93800000000E+00  0.93800000000E+00 0.  1.
         11    1    1    2    0    0  0.25866618935E-01  0.44892525045E-01  0.12812874225E+01  0.12823346446E+01  0.51100000000E-03 0.  1.
    9000002    1    1    2    0    0  0.22002792227E+00 -0.14773069556E+00  0.52468076577E-01  0.97613192963E+00  0.93800000000E+00 0.  1.
         22    1    1    2    0    0 -0.24589454120E+00  0.10283817051E+00  0.26662444683E+01  0.26795334257E+01  0.00000000000E+00 0.  1.
</event>
<event>
 5    1  0.1166492E+001  0.1483082E+01  0.7818608E-02  0.3490935E+00
         11   -1    0    0    0    0  0.00000000000E+00  0.00000000000E+00  0.39999999674E+01  0.40000000000E+01  0.51100000000E-03 0. -1.
    9000002   -1    0    0    0    0 -0.00000000000E+00 -0.00000000000E+00  0.00000000000E+00  0.93800000000E+00  0.93800000000E+00 0.  1.
         11    1    1    2    0    0  0.10481960097E+00  0.34601179628E+00  0.10957475655E+01  0.11538519404E+01  0.51100000000E-03 0. -1.
    9000002    1    1    2    0    0 -0.14715086155E+00  0.69624911748E-01  0.10945121661E+00  0.95829253008E+00  0.93800000000E+00 0.  1.
         22    1    1    2    0    0  0.42331260575E-01 -0.41563670803E+00  0.27948011853E+01  0.28258555296E+01  0.00000000000E+00 0. -1.
</event>
<event>
 5    1  0.1166492E+001  0.1575041E+01  0.7818608E-02  0.3380907E+00
         11   -1    0    0    0    0  0.00000000000E+00  0.00000000000E+00  0.39999999674E+01  0.40000000000E+01  0.51100000000E-03 0. -1.
    9000002   -1    0    0    0    0 -0.00000000000E+00 -0.00000000000E+00  0.00000000000E+00  0.93800000000E+00  0.93800000000E+00 0. -1.
         11    1    1    2    0    0 -0.15181665614E+00 -0.40516206346E-01  0.10385884463E+01  0.10504075790E+01  0.51100000000E-03 0. -1.
    9000002    1    1    2    0    0 -0.52079273472E-01  0.21898917440E+00  0.52469298833E-01  0.96605669427E+00  0.93800000000E+00 0. -1.
         22    1    1    2    0    0  0.20389592961E+00 -0.17847296805E+00  0.29089422222E+01  0.29215357267E+01  0.00000000000E+00 0. -1.
</event>
<event>
 5    1  0.1166492E+001  0.1567259E+01  0.7818608E-02  0.3389684E+00
         11   -1    0    0    0    0  0.00000000000E+00  0.00000000000E+00  0.39999999674E+01  0.40000000000E+01  0.51100000000E-03 0. -1.
    9000002   -1    0    0    0    0 -0.00000000000E+00 -0.00000000000E+00  0.00000000000E+00  0.93800000000E+00  0.93800000000E+00 0. -1.
         11    1    1    2    0    0 -0.16325214630E+00  0.96316517538E-01  0.13064312765E+01  0.13201102516E+01  0.51100000000E-03 0. -1.
    9000002    1    1    2    0    0 -0.86828904617E-01 -0.84517508799E-01  0.33835160444E-01  0.94639911562E+00  0.93800000000E+00 0. -1.
         22    1    1    2    0    0  0.25008105092E+00 -0.11799008739E-01  0.26597335304E+01  0.26714906328E+01  0.00000000000E+00 0. -1.
</event>
<event>
 5    1  0.1166492E+001  0.1572892E+01  0.7818608E-02  0.3383321E+00
         11   -1    0    0    0    0  0.00000000000E+00  0.00000000000E+00  0.39999999674E+01  0.40000000000E+01  0.51100000000E-03 0. -1.
    9000002   -1    0    0    0    0 -0.00000000000E+00 -0.00000000000E+00  0.00000000000E+00  0.93800000000E+00  0.93800000000E+00 0. -1.
         11    1    1    2    0    0  0.56262750666E-01  0.13895564035E+00  0.11842008451E+01  0.11936524074E+01  0.51100000000E-03 0. -1.
    9000002    1    1    2    0    0  0.95870167506E-01  0.67113638258E-01  0.28911925704E-01  0.94571413699E+00  0.93800000000E+00 0. -1.
         22    1    1    2    0    0 -0.15213291817E+00 -0.20606927861E+00  0.27868871966E+01  0.27986334556E+01  0.00000000000E+00 0. -1.
</event>
<event>
 5    1  0.1166492E+001  0.1558319E+01  0.7818608E-02  0.3399883E+00
         11   -1    0    0    0    0  0.00000000000E+00  0.00000000000E+00  0.39999999674E+01  0.40000000000E+01  0.51100000000E-03 0.  1.
    9000002   -1    0    0    0    0 -0.00000000000E+00 -0.00000000000E+00  0.00000000000E+00  0.93800000000E+00  0.93800000000E+00 0.  1.
         11    1    1    2    0    0  0.26828384382E+00  0.10773912981E-03  0.10738508975E+01  0.11068569210E+01  0.51100000000E-03 0.  1.
    9000002    1    1    2    0    0 -0.22364306104E+00 -0.27380383373E+00  0.11799807506E+00  0.10093326032E+01  0.93800000000E+00 0.  1.
         22    1    1    2    0    0 -0.44640782785E-01  0.27369609460E+00  0.28081509948E+01  0.28218104758E+01  0.00000000000E+00 0.  1.
</event>
<event>
 5    1  0.1166492E+001  0.1522685E+01  0.7818608E-02  0.3441805E+00
         11   -1    0    0    0    0  0.00000000000E+00  0.00000000000E+00  0.39999999674E+01  0.40000000000E+01  0.51100000000E-03 0.  1.
    9000002   -1    0    0    0    0 -0.00000000000E+00 -0.00000000000E+00  0.00000000000E+00  0.93800000000E+00  0.93800000000E+00 0. -1.
         11    1    1    2    0    0  0.22477678241E+00  0.21503742518E+00  0.11307367165E+01  0.11727452747E+01  0.51100000000E-03 0.  1.
    9000002    1    1    2    0    0  0.74718761337E-01 -0.13144644126E+00  0.74256674641E-01  0.95300530636E+00  0.93800000000E+00 0. -1.
         22    1    1    2    0    0 -0.29949554375E+00 -0.83590983925E-01  0.27950065762E+01  0.28122494189E+01  0.00000000000E+00 0.  1.
</event>
<event>
 5    1  0.1166492E+001  0.1515503E+01  0.7818608E-02  0.3450509E+00
         11   -1    0    0    0    0  0.00000000000E+00  0.00000000000E+00  0.39999999674E+01  0.40000000000E+01  0.51100000000E-03 0. -1.
    9000002   -1    0    0    0    0 -0.00000000000E+00 -0.00000000000E+00  0.00000000000E+00  0.93800000000E+00  0.93800000000E+00 0. -1.
         11    1    1    2    0    0  0.28643935361E+00  0.31248738463E+00  0.10689439608E+01  0.11499292680E+01  0.51100000000E-03 0. -1.
    9000002    1    1    2    0    0 -0.44881350408E+00 -0.12624626280E+00  0.22578369609E+00  0.10715381271E+01  0.93800000000E+00 0. -1.
         22    1    1    2    0    0  0.16237415047E+00 -0.18624112182E+00  0.27052723104E+01  0.27165326050E+01  0.00000000000E+00 0. -1.
</event>
<event>
 5    1  0.1166492E+001  0.1493609E+01  0.7818608E-02  0.3477602E+00
         11   -1    0    0    0    0  0.00000000000E+00  0.00000000000E+00  0.39999999674E+01  0.40000000000E+01  0.51100000000E-03 0. -1.
    9000002   -1    0    0    0    0 -0.00000000000E+00 -0.00000000000E+00  0.00000000000E+00  0.93800000000E+00  0.93800000000E+00 0. -1.
         11    1    1    2    0    0 -0.79521524087E-01 -0.35157236802E+00  0.10489760721E+01  0.11091789142E+01  0.51100000000E-03 0. -1.
    9000002    1    1    2    0    0  0.90247963050E-01  0.24670080052E-01  0.87531934541E-01  0.94670964252E+00  0.93800000000E+00 0. -1.
         22    1    1    2    0    0 -0.10726438962E-01  0.32690228797E+00  0.28634919607E+01  0.28821114432E+01  0.00000000000E+00 0. -1.
</event>
<event>
 5    1  0.1166492E+001  0.1559938E+01  0.7818608E-02  0.3398028E+00
         11   -1    0    0    0    0  0.00000000000E+00  0.00000000000E+00  0.39999999674E+01  0.40000000000E+01  0.51100000000E-03 0.  1.
    9000002   -1    0    0    0    0 -0.00000000000E+00 -0.00000000000E+00  0.00000000000E+00  0.93800000000E+00  0.93800000000E+00 0. -1.
         11    1    1    2    0    0 -0.12372137802E+00 -0.16403970937E+00  0.12353864525E+01  0.12523561610E+01  0.51100000000E-03 0.  1.
    9000002    1    1    2    0    0  0.82404327773E-01 -0.11409314774E+00  0.42926721424E-01  0.94947060145E+00  0.93800000000E+00 0. -1.
         22    1    1    2    0    0  0.41317050242E-01  0.27813285711E+00  0.27216867934E+01  0.27361732376E+01  0.00000000000E+00 0.  1.
</event>
<event>
 5    1  0.1166492E+001  0.1492457E+01  0.7818608E-02  0.3479050E+00
         11   -1    0    0    0    0  0.00000000000E+00  0.00000000000E+00  0.39999999674E+01  0.40000000000E+01  0.51100000000E-03 0.  1.
    9000002   -1    0    0    0    0 -0.00000000000E+00 -0.00000000000E+00  0.00000000000E+00  0.93800000000E+00  0.93800000000E+00 0. -1.
         11    1    1    2    0    0  0.27192452088E+00  0.20826505710E+00  0.95222618672E+00  0.10119546684E+01  0.51100000000E-03 0.  1.
    9000002    1    1    2    0    0 -0.22770601007E-01  0.15207953649E-01  0.82583967248E-01  0.94202648252E+00  0.93800000000E+00 0. -1.
         22    1    1    2    0    0 -0.24915391988E+00 -0.22347301075E+00  0.29651898134E+01  0.29840188491E+01  0.00000000000E+00 0.  1.
</event>
<event>
 5    1  0.1166492E+001  0.1545756E+01  0.7818608E-02  0.3414427E+00
         11   -1    0    0    0    0  0.00000000000E+00  0.00000000000E+00  0.39999999674E+01  0.40000000000E+01  0.51100000000E-03 0. -1.
    9000002   -1    0    0    0    0 -0.00000000000E+00 -0.00000000000E+00  0.00000000000E+00  0.93800000000E+00  0.93800000000E+00 0.  1.
         11    1    1    2    0    0 -0.79404990505E-01 -0.22025766142E+00  0.11141031331E+01  0.11384395646E+01  0.51100000000E-03 0. -1.
    9000002    1    1    2    0    0  0.32144913374E-01 -0.75992890959E-01  0.44819358340E-01  0.94268817210E+00  0.93800000000E+00 0.  1.
         22    1    1    2    0    0  0.47260077130E-01  0.29625055238E+00  0.28410774759E+01  0.28568722633E+01  0.00000000000E+00 0. -1.
</event>
<event>
 5    1  0.1166492E+001  0.1563718E+01  0.7818608E-02  0.3393709E+00
         11   -1    0    0    0    0  0.00000000000E+00  0.00000000000E+00  0.39999999674E+01  0.40000000000E+01  0.51100000000E-03 0.  1.
    9000002   -1    0    0    0    0 -0.00000000000E+00 -0.00000000000E+00  0.00000000000E+00  0.93800000000E+00  0.93800000000E+00 0. -1.
         11    1    1    2    0    0 -0.25078552539E-02  0.20080622372E+00  0.98517889370E+00  0.10054387811E+01  0.51100000000E-03 0.  1.
    9000002    1    1    2    0    0  0.25011165844E+00 -0.48021571269E-01  0.71165055739E-01  0.97456163384E+00  0.93800000000E+00 0. -1.
         22    1    1    2    0    0 -0.24760380319E+00 -0.15278465245E+00  0.29436560179E+01  0.29579995851E+01  0.00000000000E+00 0.  1.
</event>
<event>
 5    1  0.1166492E+001  0.1520538E+01  0.7818608E-02  0.3444397E+00
         11   -1    0    0    0    0  0.00000000000E+00  0.00000000000E+00  0.39999999674E+01  0.40000000000E+01  0.51100000000E-03 0.  1.
    9000002   -1    0    0    0    0 -0.00000000000E+00 -0.00000000000E+00  0.00000000000E+00  0.93800000000E+00  0.93800000000E+00 0. -1.
         11    1    1    2    0    0 -0.22939892949E+00 -0.20422554002E+00  0.14249112924E+01  0.14576365777E+01  0.51100000000E-03 0.  1.
    9000002    1    1    2    0    0  0.10777767021E-02 -0.74983484619E-01  0.63634136437E-01  0.94314208256E+00  0.93800000000E+00 0. -1.
         22    1    1    2    0    0  0.22832115279E+00  0.27920902464E+00  0.25114545385E+01  0.25372213398E+01  0.00000000000E+00 0.  1.
</event>
<event>
 5    1  0.1166492E+001  0.1558453E+01  0.7818608E-02  0.3399729E+00
         11   -1    0    0    0    0  0.00000000000E+00  0.00000000000E+00  0.39999999674E+01  0.40000000000E+01  0.51100000000E-03 0. -1.
    9000002   -1    0    0    0    0 -0.00000000000E+00 -0.00000000000E+00  0.00000000000E+00  0.93800000000E+00  0.93800000000E+00 0. -1.
         11    1    1    2    0    0 -0.36136972110E-01 -0.13049462482E+00  0.95794731445E+00  0.96746992007E+00  0.51100000000E-03 0. -1.
    9000002    1    1    2    0    0  0.13198006646E+00 -0.32473885708E+00  0.11637659153E+00  0.10080979984E+01  0.93800000000E+00 0. -1.
         22    1    1    2    0    0 -0.95843094352E-01  0.45523348190E+00  0.29256760614E+01  0.29624320816E+01  0.00000000000E+00 0. -1.
</event>
<event>
 5    1  0.1166492E+001  0.1449416E+01  0.7818608E-02  0.3534987E+00
         11   -1    0    0    0    0  0.00000000000E+00  0.00000000000E+00  0.39999999674E+01  0.40000000000E+01  0.51100000000E-03 0.  1.
    9000002   -1    0    0    0    0 -0.00000000000E+00 -0.00000000000E+00  0.00000000000E+00  0.93800000000E+00  0.93800000000E+00 0.  1.
         11    1    1    2    0    0  0.30804956194E+00  0.33311246347E+00  0.89718958760E+00  0.10053894087E+01  0.51100000000E-03 0.  1.
    9000002    1    1    2    0    0 -0.72998747199E-01 -0.20786119748E+00  0.15873466651E+00  0.97651205259E+00  0.93800000000E+00 0.  1.
         22    1    1    2    0    0 -0.23505081474E+00 -0.12525126599E+00  0.29440757132E+01  0.29560985387E+01  0.00000000000E+00 0. -1.
</event>
<event>
 5    1  0.1166492E+001  0.1584182E+01  0.7818608E-02  0.3370712E+00
         11   -1    0    0    0    0  0.00000000000E+00  0.00000000000E+00  0.39999999674E+01  0.40000000000E+01  0.51100000000E-03 0.  1.
    9000002   -1    0    0    0    0 -0.00000000000E+00 -0.00000000000E+00  0.00000000000E+00  0.93800000000E+00  0.93800000000E+00 0. -1.
         11    1    1    2    0    0  0.13281909464E+00  0.68910534263E-02  0.55181563235E+00  0.56761708197E+00  0.51100000000E-03 0.  1.
    9000002    1    1    2    0    0 -0.29038701883E+00  0.32000954973E+00  0.13981726417E+00  0.10421725385E+01  0.93800000000E+00 0. -1.
         22    1    1    2    0    0  0.15756792419E+00 -0.32690060316E+00  0.33083670708E+01  0.33282103795E+01  0.00000000000E+00 0.  1.
</event>
<event>
 5    1  0.1166492E+001  0.1555340E+01  0.7818608E-02  0.3403310E+00
         11   -1    0    0    0    0  0.00000000000E+00  0.00000000000E+00  0.39999999674E+01  0.40000000000E+01  0.51100000000E-03 0.  1.
    9000002   -1    0    0    0    0 -0.00000000000E+00 -0.00000000000E+00  0.00000000000E+00  0.93800000000E+00  0.93800000000E+00 0.  1.
         11    1    1    2    0    0  0.16052705138E+00 -0.14578884624E+00  0.52160611671E+00  0.56488629301E+00  0.51100000000E-03 0.  1.
    9000002    1    1    2    0    0  0.15402918714E-02  0.50378448788E+00  0.21509275599E+00  0.10862366576E+01  0.93800000000E+00 0.  1.
         22    1    1    2    0    0 -0.16206734326E+00 -0.35799564163E+00  0.32633010947E+01  0.32868770493E+01  0.00000000000E+00 0.  1.
</event>
<event>
 5    1  0.1166492E+001  0.1563448E+01  0.7818608E-02  0.3394017E+00
         11   -1    0    0    0    0  0.00000000000E+00  0.00000000000E+00  0.39999999674E+01  0.40000000000E+01  0.51100000000E-03 0. -1.
    9000002   -1    0    0    0    0 -0.00000000000E+00 -0.00000000000E+00  0.00000000000E+00  0.93800000000E+00  0.93800000000E+00 0. -1.
         11    1    1    2    0    0 -0.15736611729E+00 -0.17874065788E+00  0.12822356251E+01  0.13041628645E+01  0.51100000000E-03 0. -1.
    9000002    1    1    2    0    0 -0.92954785840E-01  0.22651511190E+00  0.67962209837E-01  0.97180890616E+00  0.93800000000E+00 0. -1.
         22    1    1    2    0    0  0.25032090313E+00 -0.47774454019E-01  0.26498021324E+01  0.26620282294E+01  0.00000000000E+00 0. -1.
</event>
<event>
 5    1  0.1166492E+001  0.1491679E+01  0.7818608E-02  0.3480031E+00
         11   -1    0    0    0    0  0.00000000000E+00  0.00000000000E+00  0.39999999674E+01  0.40000000000E+01  0.51100000000E-03 0. -1.
    9000002   -1    0    0    0    0 -0.00000000000E+00 -0.00000000000E+00  0.00000000000E+00  0.93800000000E+00  0.93800000000E+00 0. -1.
         11    1    1    2    0    0 -0.27726835379E+00 -0.73264406196E-01  0.39352576807E+00  0.48693757761E+00  0.51100000000E-03 0. -1.
    9000002    1    1    2    0    0  0.22572306490E+00  0.39540793425E+00  0.24143954392E+00  0.10702501529E+01  0.93800000000E+00 0. -1.
         22    1    1    2    0    0  0.51545288893E-01 -0.32214352805E+00  0.33650346554E+01  0.33808122695E+01  0.00000000000E+00 0. -1.
</event>
<event>
 5    1  0.1166492E+001  0.1460755E+01  0.7818608E-02  0.3519904E+00
         11   -1    0    0    0    0  0.00000000000E+00  0.00000000000E+00  0.39999999674E+01  0.40000000000E+01  0.51100000000E-03 0.  1.
    9000002   -1    0    0    0    0 -0.00000000000E+00 -0.00000000000E+00  0.00000000000E+00  0.93800000000E+00  0.93800000000E+00 0. -1.
         11    1    1    2    0    0 -0.37548924029E+00 -0.29529662097E+00  0.12666685755E+01  0.13537510130E+01  0.51100000000E-03 0.  1.
    9000002    1    1    2    0    0  0.26443959032E+00 -0.50784684304E-01  0.16428178345E+00  0.98961602931E+00  0.93800000000E+00 0. -1.
         22    1    1    2    0    0  0.11104964997E+00  0.34608130528E+00  0.25690496085E+01  0.25946329577E+01  0.00000000000E+00 0.  1.
</event>
<event>
 5    1  0.1166492E+001  0.1493753E+01  0.7818608E-02  0.3477420E+00
         11   -1    0    0    0    0  0.00000000000E+00  0.00000000000E+00  0.39999999674E+01  0.40000000000E+01  0.51100000000E-03 0. -1.
    9000002   -1    0    0    0    0 -0.00000000000E+00 -0.00000000000E+00  0.00000000000E+00  0.93800000000E+00  0.93800000000E+00 0. -1.
         11    1    1    2    0    0  0.26968151424E+00 -0.28001373875E+00  0.26637416929E+00  0.47126560685E+00  0.51100000000E-03 0. -1.
    9000002    1    1    2    0    0 -0.90086382170E+00  0.55588469472E+00  0.12440903641E+01  0.18836582103E+01  0.93800000000E+00 0. -1.
         22    1    1    2    0    0  0.63118230746E+00 -0.27587095597E+00  0.24895354340E+01  0.25830761829E+01  0.00000000000E+00 0. -1.
</event>
<event>
 5    1  0.1166492E+001  0.1533556E+01  0.7818608E-02  0.3428795E+00
         11   -1    0    0    0    0  0.00000000000E+00  0.00000000000E+00  0.39999999674E+01  0.40000000000E+01  0.51100000000E-03 0.  1.
    9000002   -1    0    0    0    0 -0.00000000000E+00 -0.00000000000E+00  0.00000000000E+00  0.93800000000E+00  0.93800000000E+00 0. -1.
         11    1    1    2    0    0  0.26789089093E+00 -0.18384776195E+00  0.14541973664E+01  0.14900522711E+01  0.51100000000E-03 0.  1.
    9000002    1    1    2    0    0 -0.11876398528E+00 -0.38778115011E-01  0.60471957698E-01  0.94821383879E+00  0.93800000000E+00 0. -1.
         22    1    1    2    0    0 -0.14912690564E+00  0.22262587696E+00  0.24853306433E+01  0.24997338901E+01  0.00000000000E+00 0.  1.
</event>
<event>
 5    1  0.1166492E+001  0.1476202E+01  0.7818608E-02  0.3499761E+00
         11   -1    0    0    0    0  0.00000000000E+00  0.00000000000E+00  0.39999999674E+01  0.40000000000E+01  0.51100000000E-03 0.  1.
    9000002   -1    0    0    0    0 -0.00000000000E+00 -0.00000000000E+00  0.00000000000E+00  0.93800000000E+00  0.93800000000E+00 0.  1.
         11    1    1    2    0    0 -0.38694173607E+00  0.86262463757E-01  0.89244026414E+00  0.97653213257E+00  0.51100000000E-03 0.  1.
    9000002    1    1    2    0    0  0.10980149962E+00 -0.26986246517E+00  0.15991701575E+00  0.99513796599E+00  0.93800000000E+00 0.  1.
         22    1    1    2    0    0  0.27714023645E+00  0.18360000141E+00  0.29476426875E+01  0.29663299014E+01  0.00000000000E+00 0.  1.
</event>
<event>
 5    1  0.1166492E+001  0.1563595E+01  0.7818608E-02  0.3393850E+00
         11   -1    0    0    0    0  0.00000000000E+00  0.00000000000E+00  0.39999999674E+01  0.40000000000E+01  0.51100000000E-03 0. -1.
    9000002   -1    0    0    0    0 -0.00000000000E+00 -0.00000000000E+00  0.00000000000E+00  0.93800000000E+00  0.93800000000E+00 0. -1.
         11    1    1    2    0    0 -0.57237902095E+00  0.26045447347E-01  0.65213969609E+00  0.86809132773E+00  0.51100000000E-03 0. -1.
    9000002    1    1    2    0    0  0.36676903019E+00  0.21092122353E+00  0.39781258263E+00  0.11032253328E+01  0.93800000000E+00 0. -1.
         22    1    1    2    0    0  0.20560999076E+00 -0.23696667088E+00  0.29500476886E+01  0.29666833395E+01  0.00000000000E+00 0. -1.
</event>
<event>
 5    1  0.1166492E+001  0.1551022E+01  0.7818608E-02  0.3408300E+00
         11   -1    0    0    0    0  0.00000000000E+00  0.00000000000E+00  0.39999999674E+01  0.40000000000E+01  0.51100000000E-03 0.  1.
    9000002   -1    0    0    0    0 -0.00000000000E+00 -0.00000000000E+00  0.00000000000E+00  0.93800000000E+00  0.93800000000E+00 0. -1.
         11    1    1    2    0    0 -0.16340899489E+00 -0.34945415867E-02  0.55654569760E+00  0.58005007203E+00  0.51100000000E-03 0.  1.
    9000002    1    1    2    0    0 -0.15534315790E+00 -0.52778442431E-01  0.54739946140E-01  0.95381210015E+00  0.93800000000E+00 0. -1.
         22    1    1    2    0    0  0.31875215279E+00  0.56272984017E-01  0.33887143236E+01  0.34041378278E+01  0.00000000000E+00 0.  1.
</event>
<event>
 5    1  0.1166492E+001  0.1463656E+01  0.7818608E-02  0.3516085E+00
         11   -1    0    0    0    0  0.00000000000E+00  0.00000000000E+00  0.39999999674E+01  0.40000000000E+01  0.51100000000E-03 0.  1.
    9000002   -1    0    0    0    0 -0.00000000000E+00 -0.00000000000E+00  0.00000000000E+00  0.93800000000E+00  0.93800000000E+00 0.  1.
         11    1    1    2    0    0  0.42224699664E+00 -0.33975929169E-01  0.12978676470E+01  0.13652500064E+01  0.51100000000E-03 0.  1.
    9000002    1    1    2    0    0 -0.69909780820E-02  0.99978675592E-01  0.11344317485E+00  0.95013576044E+00  0.93800000000E+00 0.  1.
         22    1    1    2    0    0 -0.41525601856E+00 -0.66002746422E-01  0.25886891455E+01  0.26226142331E+01  0.00000000000E+00 0.  1.
</event>
<event>
 5    1  0.1166492E+001  0.1540411E+01  0.7818608E-02  0.3420692E+00
         11   -1    0    0    0    0  0.00000000000E+00  0.00000000000E+00  0.39999999674E+01  0.40000000000E+01  0.51100000000E-03 0.  1.
    9000002   -1    0    0    0    0 -0.00000000000E+00 -0.00000000000E+00  0.00000000000E+00  0.93800000000E+00  0.93800000000E+00 0.  1.
         11    1    1    2    0    0  0.36371779107E-01  0.14454891951E+00  0.31473187739E+00  0.34824375402E+00  0.51100000000E-03 0.  1.
    9000002    1    1    2    0    0 -0.82186181143E-01  0.18055194208E+00  0.71831312580E-01  0.96143502621E+00  0.93800000000E+00 0.  1.
         22    1    1    2    0    0  0.45814402036E-01 -0.32510086159E+00  0.36134367774E+01  0.36283212198E+01  0.00000000000E+00 0.  1.
</event>
<event>
 5    1  0.1166492E+001  0.1529152E+01  0.7818608E-02  0.3434041E+00
         11   -1    0    0    0    0  0.00000000000E+00  0.00000000000E+00  0.39999999674E+01  0.40000000000E+01  0.51100000000E-03 0. -1.
    9000002   -1    0    0    0    0 -0.00000000000E+00 -0.00000000000E+00  0.00000000000E+00  0.93800000000E+00  0.93800000000E+00 0. -1.
         11    1    1    2    0    0  0.14540242209E+00  0.19622163317E+00  0.70182999400E+00  0.74310860261E+00  0.51100000000E-03 0. -1.
    9000002    1    1    2    0    0  0.15164300771E+00 -0.10932387848E+00  0.77715486935E-01  0.95959940033E+00  0.93800000000E+00 0. -1.
         22    1    1    2    0    0 -0.29704542980E+00 -0.86897754690E-01  0.32204544864E+01  0.32352919971E+01  0.00000000000E+00 0. -1.
</event>
<event>
 5    1  0.1166492E+001  0.1477244E+01  0.7818608E-02  0.3498418E+00
         11   -1    0    0    0    0  0.00000000000E+00  0.00000000000E+00  0.39999999674E+01  0.40000000000E+01  0.51100000000E-03 0. -1.
    9000002   -1    0    0    0    0 -0.00000000000E+00 -0.00000000000E+00  0.00000000000E+00  0.93800000000E+00  0.93800000000E+00 0.  1.
         11    1    1    2    0    0  0.20474900013E+00 -0.24607841638E+00  0.63426181585E+00  0.71046819227E+00  0.51100000000E-03 0. -1.
    9000002    1    1    2    0    0 -0.10032657432E+00 -0.53217086641E-01  0.10414637558E+00  0.95057243142E+00  0.93800000000E+00 0.  1.
         22    1    1    2    0    0 -0.10442242581E+00  0.29929550302E+00  0.32615917759E+01  0.32769593763E+01  0.00000000000E+00 0. -1.
</event>
<event>
 5    1  0.1166492E+001  0.1493347E+01  0.7818608E-02  0.3477931E+00
         11   -1    0    0    0    0  0.00000000000E+00  0.00000000000E+00  0.39999999674E+01  0.40000000000E+01  0.51100000000E-03 0.  1.
    9000002   -1    0    0    0    0 -0.00000000000E+00 -0.00000000000E+00  0.00000000000E+00  0.93800000000E+00  0.93800000000E+00 0. -1.
         11    1    1    2    0    0  0.17600422301E+00 -0.28020657539E+00  0.90585903207E+00  0.96440347289E+00  0.51100000000E-03 0.  1.
    9000002    1    1    2    0    0  0.95772237352E-01  0.51774604349E-01  0.90029219816E-01  0.94857903810E+00  0.93800000000E+00 0. -1.
         22    1    1    2    0    0 -0.27177646036E+00  0.22843197104E+00  0.30041117155E+01  0.30250174890E+01  0.00000000000E+00 0. -1.
</event>
<event>
 5    1  0.1166492E+001  0.1454971E+01  0.7818608E-02  0.3527566E+00
         11   -1    0    0    0    0  0.00000000000E+00  0.00000000000E+00  0.39999999674E+01  0.40000000000E+01  0.51100000000E-03 0.  1.
    9000002   -1    0    0    0    0 -0.00000000000E+00 -0.00000000000E+00  0.00000000000E+00  0.93800000000E+00  0.93800000000E+00 0.  1.
         11    1    1    2    0    0 -0.38549262450E+00  0.76201504631E-01  0.96630486864E+00  0.10431474455E+01  0.51100000000E-03 0.  1.
    9000002    1    1    2    0    0 -0.87651331531E-01  0.76431321883E-01  0.13611532521E+00  0.95493239794E+00  0.93800000000E+00 0.  1.
         22    1    1    2    0    0  0.47314395603E+00 -0.15263282651E+00  0.28975797735E+01  0.29399201565E+01  0.00000000000E+00 0.  1.
</event>
<event>
 5    1  0.1166492E+001  0.1553672E+01  0.7818608E-02  0.3405234E+00
         11   -1    0    0    0    0  0.00000000000E+00  0.00000000000E+00  0.39999999674E+01  0.40000000000E+01  0.51100000000E-03 0. -1.
    9000002   -1    0    0    0    0 -0.00000000000E+00 -0.00000000000E+00  0.00000000000E+00  0.93800000000E+00  0.93800000000E+00 0. -1.
         11    1    1    2    0    0 -0.13154235011E+00 -0.19829630546E+00  0.74724600862E+00  0.78422042383E+00  0.51100000000E-03 0. -1.
    9000002    1    1    2    0    0 -0.18964402509E+00  0.40693634640E+00  0.17771781474E+00  0.10549832548E+01  0.93800000000E+00 0. -1.
         22    1    1    2    0    0  0.32118637520E+00 -0.20864004094E+00  0.30750361440E+01  0.30987963214E+01  0.00000000000E+00 0. -1.
</event>
<event>
 5    1  0.1166492E+001  0.1533935E+01  0.7818608E-02  0.3428344E+00
         11   -1    0    0    0    0  0.00000000000E+00  0.00000000000E+00  0.39999999674E+01  0.40000000000E+01  0.51100000000E-03 0. -1.
    9000002   -1    0    0    0    0 -0.00000000000E+00 -0.00000000000E+00  0.00000000000E+00  0.93800000000E+00  0.93800000000E+00 0.  1.
         11    1    1    2    0    0  0.86967067603E-01 -0.51452057534E+00  0.12960529266E+01  0.13971571647E+01  0.51100000000E-03 0. -1.
    9000002    1    1    2    0    0 -0.45118353174E+00  0.60267786189E+00  0.49549766737E+00  0.13008263231E+01  0.93800000000E+00 0.  1.
         22    1    1    2    0    0  0.36421646413E+00 -0.88157286546E-01  0.22084493734E+01  0.22400165122E+01  0.00000000000E+00 0. -1.
</event>
<event>
 5    1  0.1166492E+001  0.1477556E+01  0.7818608E-02  0.3498017E+00
         11   -1    0    0    0    0  0.00000000000E+00  0.00000000000E+00  0.39999999674E+01  0.40000000000E+01  0.51100000000E-03 0.  1.
    9000002   -1    0    0    0    0 -0.00000000000E+00 -0.00000000000E+00  0.00000000000E+00  0.93800000000E+00  0.93800000000E+00 0. -1.
         11    1    1    2    0    0  0.36167031073E+00  0.10896736970E+00  0.10300065826E+01  0.10970839178E+01  0.51100000000E-03 0.  1.
    9000002    1    1    2    0    0  0.13278959969E-02 -0.69521248349E-01  0.97843121990E-01  0.94564911241E+00  0.93800000000E+00 0. -1.
         22    1    1    2    0    0 -0.36299820673E+00 -0.39446121349E-01  0.28721502627E+01  0.28952669698E+01  0.00000000000E+00 0. -1.
</event>
<event>
 5    1  0.1166492E+001  0.1387604E+01  0.7818608E-02  0.3626950E+00
         11   -1    0    0    0    0  0.00000000000E+00  0.00000000000E+00  0.39999999674E+01  0.40000000000E+01  0.51100000000E-03 0.  1.
    9000002   -1    0    0    0    0 -0.00000000000E+00 -0.00000000000E+00  0.00000000000E+00  0.93800000000E+00  0.93800000000E+00 0. -1.
         11    1    1    2    0    0  0.50119543443E-01  0.59281716761E+00  0.11237879962E+01  0.12715517623E+01  0.51100000000E-03 0.  1.
    9000002    1    1    2    0    0 -0.12963393582E+00 -0.25538706306E+00  0.24285639874E+00  0.10103715850E+01  0.93800000000E+00 0. -1.
         22    1    1    2    0    0  0.79514392378E-01 -0.33743010455E+00  0.26333555725E+01  0.26560766527E+01  0.00000000000E+00 0.  1.
</event>
<event>
 5    1  0.1166492E+001  0.1594600E+01  0.7818608E-02  0.3359246E+00
         11   -1    0    0    0    0  0.00000000000E+00  0.00000000000E+00  0.39999999674E+01  0.40000000000E+01  0.51100000000E-03 0.  1.
    9000002   -1    0    0    0    0 -0.00000000000E+00 -0.00000000000E+00  0.00000000000E+00  0.93800000000E+00  0.93800000000E+00 0.  1.
         11    1    1    2    0    0  0.77985667205E-02  0.12229701067E-01  0.47552731635E+00  0.47574874982E+00  0.51100000000E-03 0.  1.
    9000002    1    1    2    0    0  0.20363949001E+00  0.27518896499E+00  0.82597360518E-01  0.10019303031E+01  0.93800000000E+00 0.  1.
         22    1    1    2    0    0 -0.21143805673E+00 -0.28741866605E+00  0.34418752905E+01  0.34603209471E+01  0.00000000000E+00 0.  1.
</event>
<event>
 5    1  0.1166492E+001  0.1503851E+01  0.7818608E-02  0.3464822E+00
         11   -1    0    0    0    0  0.00000000000E+00  0.00000000000E+00  0.39999999674E+01  0.40000000000E+01  0.51100000000E-03 0.  1.
    9000002   -1    0    0    0    0 -0.00000000000E+00 -0.00000000000E+00  0.00000000000E+00  0.93800000000E+00  0.93800000000E+00 0. -1.
         11    1    1    2    0    0 -0.47388231201E+00  0.11162238550E+00  0.76922932521E+00  0.91035049210E+00  0.51100000000E-03 0.  1.
    9000002    1    1    2    0    0  0.16478618849E+00 -0.10540016373E-01  0.19207038712E+00  0.97159693982E+00  0.93800000000E+00 0. -1.
         22    1    1    2    0    0  0.30909612352E+00 -0.10108236913E+00  0.30387002550E+01  0.30560525681E+01  0.00000000000E+00 0.  1.
</event>
<event>
 5    1  0.1166492E+001  0.1497832E+01  0.7818608E-02  0.3472309E+00
         11   -1    0    0    0    0  0.00000000000E+00  0.00000000000E+00  0.39999999674E+01  0.40000000000E+01  0.51100000000E-03 0.  1.
    9000002   -1    0    0    0    0 -0.00000000000E+00 -0.00000000000E+00  0.00000000000E+00  0.93800000000E+00  0.93800000000E+00 0.  1.
         11    1    1    2    0    0  0.18778694117E+00 -0.19988994324E+00  0.71121709968E+00  0.76226632399E+00  0.51100000000E-03 0.  1.
    9000002    1    1    2    0    0  0.46513894555E-01 -0.13851066676E+00  0.93337712964E-01  0.95388923668E+00  0.93800000000E+00 0.  1.
         22    1    1    2    0    0 -0.23430083573E+00  0.33840061000E+00  0.31954451547E+01  0.32218444393E+01  0.00000000000E+00 0.  1.
</event>
<event>
 5    1  0.1166492E+001  0.1566199E+01  0.7818608E-02  0.3390887E+00
         11   -1    0    0    0    0  0.00000000000E+00  0.00000000000E+00  0.39999999674E+01  0.40000000000E+01  0.51100000000E-03 0.  1.
    9000002   -1    0    0    0    0 -0.00000000000E+00 -0.00000000000E+00  0.00000000000E+00  0.93800000000E+00  0.93800000000E+00 0. -1.
         11    1    1    2    0    0 -0.81806246711E-01  0.18344062642E+00  0.14173951695E+01  0.14315558156E+01  0.51100000000E-03 0.  1.
    9000002    1    1    2    0    0 -0.15177475732E+00 -0.61587589934E-01  0.42950726066E-01  0.95316177696E+00  0.93800000000E+00 0. -1.
         22    1    1    2    0    0  0.23358100403E+00 -0.12185303649E+00  0.25396540718E+01  0.25532824074E+01  0.00000000000E+00 0.  1.
</event>
<event>
 5    1  0.1166492E+001  0.1487886E+01  0.7818608E-02  0.3484824E+00
         11   -1    0    0    0    0  0.00000000000E+00  0.00000000000E+00  0.39999999674E+01  0.40000000000E+01  0.51100000000E-03 0. -1.
    9000002   -1    0    0    0    0 -0.00000000000E+00 -0.00000000000E+00  0.00000000000E+00  0.93800000000E+00  0.93800000000E+00 0. -1.
         11    1    1    2    0    0  0.47844667435E+00 -0.26737204172E+00  0.38087118007E+00  0.66742950626E+00  0.51100000000E-03 0. -1.
    9000002    1    1    2    0    0 -0.96536700552E+00  0.56912364184E+00  0.15787727493E+01  0.21513257701E+01  0.93800000000E+00 0. -1.
         22    1    1    2    0    0  0.48692033117E+00 -0.30175160013E+00  0.20403560379E+01  0.21192447236E+01  0.00000000000E+00 0. -1.
</event>
<event>
 5    1  0.1166492E+001  0.1599181E+01  0.7818608E-02  0.3354253E+00
         11   -1    0    0    0    0  0.00000000000E+00  0.00000000000E+00  0.39999999674E+01  0.40000000000E+01  0.51100000000E-03 0.  1.
    9000002   -1    0    0    0    0 -0.00000000000E+00 -0.00000000000E+00  0.00000000000E+00  0.93800000000E+00  0.93800000000E+00 0.  1.
         11    1    1    2    0    0 -0.19941300381E-01  0.99883998815E-01  0.13277567614E+01  0.13316578942E+01  0.51100000000E-03 0.  1.
    9000002    1    1    2    0    0  0.10163478814E+00 -0.35541147347E+00  0.92232605663E-01  0.10124217497E+01  0.93800000000E+00 0.  1.
         22    1    1    2    0    0 -0.81693487763E-01  0.25552747465E+00  0.25800106003E+01  0.25939203562E+01  0.00000000000E+00 0.  1.
</event>
<event>
 5    1  0.1166492E+001  0.1589633E+01  0.7818608E-02  0.3364693E+00
         11   -1    0    0    0    0  0.00000000000E+00  0.00000000000E+00  0.39999999674E+01  0.40000000000E+01  0.51100000000E-03 0. -1.
    9000002   -1    0    0    0    0 -0.00000000000E+00 -0.00000000000E+00  0.00000000000E+00  0.93800000000E+00  0.93800000000E+00 0. -1.
         11    1    1    2    0    0 -0.85534022928E-01  0.69714134218E-01  0.36211654034E+00  0.37855617746E+00  0.51100000000E-03 0. -1.
    9000002    1    1    2    0    0  0.46843070613E+00 -0.11709443600E+00  0.16811462227E+00  0.10682906719E+01  0.93800000000E+00 0. -1.
         22    1    1    2    0    0 -0.38289668320E+00  0.47380301781E-01  0.34697688048E+01  0.34911531507E+01  0.00000000000E+00 0. -1.
</event>
<event>
 5    1  0.1166492E+001  0.1552608E+01  0.7818608E-02  0.3406464E+00
         11   -1    0    0    0    0  0.00000000000E+00  0.00000000000E+00  0.39999999674E+01  0.40000000000E+01  0.51100000000E-03 0. -1.
    9000002   -1    0    0    0    0 -0.00000000000E+00 -0.00000000000E+00  0.00000000000E+00  0.93800000000E+00  0.93800000000E+00 0.  1.
         11    1    1    2    0    0  0.26506802449E+00 -0.19947719288E+00  0.11746513368E+01  0.12205974899E+01  0.51100000000E-03 0. -1.
    9000002    1    1    2    0    0 -0.11785978687E+00  0.39549076561E+00  0.15570605204E+00  0.10365289430E+01  0.93800000000E+00 0.  1.
         22    1    1    2    0    0 -0.14720823761E+00 -0.19601357273E+00  0.26696425785E+01  0.26808735671E+01  0.00000000000E+00 0. -1.
</event>
<event>
 5    1  0.1166492E+001  0.1428913E+01  0.7818608E-02  0.3562926E+00
         11   -1    0    0    0    0  0.00000000000E+00  0.00000000000E+00  0.39999999674E+01  0.40000000000E+01  0.51100000000E-03 0. -1.
    9000002   -1    0    0    0    0 -0.00000000000E+00 -0.00000000000E+00  0.00000000000E+00  0.93800000000E+00  0.93800000000E+00 0.  1.
         11    1    1    2    0    0  0.59373998819E+00  0.39498294287E-02  0.13044228783E+01  0.14331999446E+01  0.51100000000E-03 0. -1.
    9000002    1    1    2    0    0 -0.33074578394E+00 -0.37923577508E-01  0.22552856687E+00  0.10205577425E+01  0.93800000000E+00 0.  1.
         22    1    1    2    0    0 -0.26299420426E+00  0.33973748080E-01  0.24700485222E+01  0.24842423128E+01  0.00000000000E+00 0. -1.
</event>
<event>
 5    1  0.1166492E+001  0.1525729E+01  0.7818608E-02  0.3438142E+00
         11   -1    0    0    0    0  0.00000000000E+00  0.00000000000E+00  0.39999999674E+01  0.40000000000E+01  0.51100000000E-03 0.  1.
    9000002   -1    0    0    0    0 -0.00000000000E+00 -0.00000000000E+00  0.00000000000E+00  0.93800000000E+00  0.93800000000E+00 0. -1.
         11    1    1    2    0    0 -0.29478545305E-01  0.25365746868E+00  0.14279215114E+01  0.14505761613E+01  0.51100000000E-03 0.  1.
    9000002    1    1    2    0    0 -0.12324183220E+00  0.14371107601E+00  0.81115759129E-01  0.96034639009E+00  0.93800000000E+00 0. -1.
         22    1    1    2    0    0  0.15272037750E+00 -0.39736854469E+00  0.24909626969E+01  0.25270774486E+01  0.00000000000E+00 0.  1.
</event>
<event>
 5    1  0.1166492E+001  0.1526586E+01  0.7818608E-02  0.3437114E+00
         11   -1    0    0    0    0  0.00000000000E+00  0.00000000000E+00  0.39999999674E+01  0.40000000000E+01  0.51100000000E-03 0.  1.
    9000002   -1    0    0    0    0 -0.00000000000E+00 -0.00000000000E+00  0.00000000000E+00  0.93800000000E+00  0.93800000000E+00 0.  1.
         11    1    1    2    0    0  0.20266253625E-01 -0.27984044265E+00  0.10304771563E+01  0.10679910229E+01  0.51100000000E-03 0.  1.
    9000002    1    1    2    0    0 -0.99574940960E-01 -0.26807721660E-01  0.62432131642E-01  0.94571432995E+00  0.93800000000E+00 0.  1.
         22    1    1    2    0    0  0.79308687334E-01  0.30664816431E+00  0.29070906795E+01  0.29242946471E+01  0.00000000000E+00 0.  1.
</event>
<event>
 5    1  0.1166492E+001  0.1551575E+01  0.7818608E-02  0.3407659E+00
         11   -1    0    0    0    0  0.00000000000E+00  0.00000000000E+00  0.39999999674E+01  0.40000000000E+01  0.51100000000E-03 0. -1.
    9000002   -1    0    0    0    0 -0.00000000000E+00 -0.00000000000E+00  0.00000000000E+00  0.93800000000E+00  0.93800000000E+00 0. -1.
         11    1    1    2    0    0 -0.20112300106E-01 -0.22901997890E+00  0.11809311871E+01  0.12031015689E+01  0.51100000000E-03 0. -1.
    9000002    1    1    2    0    0  0.54748299763E-01 -0.42450766515E-01  0.38969724836E-01  0.94136182383E+00  0.93800000000E+00 0. -1.
         22    1    1    2    0    0 -0.34635999657E-01  0.27147074542E+00  0.27800990555E+01  0.27935366073E+01  0.00000000000E+00 0. -1.
</event>
<event>
 5    1  0.1166492E+001  0.1162910E+01  0.7818608E-02  0.4083231E+00
         11   -1    0    0    0    0  0.00000000000E+00  0.00000000000E+00  0.39999999674E+01  0.40000000000E+01  0.51100000000E-03 0.  1.
    9000002   -1    0    0    0    0 -0.00000000000E+00 -0.00000000000E+00  0.00000000000E+00  0.93800000000E+00  0.93800000000E+00 0.  1.
         11    1    1    2    0    0 -0.35158309205E+00 -0.47317346930E+00  0.38861555689E+00  0.70606381783E+00  0.51100000000E-03 0.  1.
    9000002    1    1    2    0    0 -0.31222408230E-02  0.20618819874E+00  0.48820968696E+00  0.10773653141E+01  0.93800000000E+00 0. -1.
         22    1    1    2    0    0  0.35470533287E+00  0.26698527056E+00  0.31231747235E+01  0.31545708680E+01  0.00000000000E+00 0.  1.
</event>
<event>
 5    1  0.1166492E+001  0.1531607E+01  0.7818608E-02  0.3431113E+00
         11   -1    0    0    0    0  0.00000000000E+00  0.00000000000E+00  0.39999999674E+01  0.40000000000E+01  0.51100000000E-03 0.  1.
    9000002   -1    0    0    0    0 -0.00000000000E+00 -0.00000000000E+00  0.00000000000E+00  0.93800000000E+00  0.93800000000E+00 0. -1.
         11    1    1    2    0    0 -0.28888057101E+00 -0.22988212616E-01  0.12783140084E+01  0.13107507037E+01  0.51100000000E-03 0.  1.
    9000002    1    1    2    0    0 -0.25360782435E-02 -0.89043004574E-01  0.56579060213E-01  0.94391751674E+00  0.93800000000E+00 0. -1.
         22    1    1    2    0    0  0.29141664926E+00  0.11203121719E+00  0.26651068988E+01  0.26833317795E+01  0.00000000000E+00 0.  1.
</event>
