<event>
 5    1  0.5849602E+001  0.1541954E+01  0.7818608E-02  0.3418879E+00
         11   -1    0    0    0    0  0.00000000000E+00  0.00000000000E+00  0.39999999674E+01  0.40000000000E+01  0.51100000000E-03 0. -1.
    9000002   -1    0    0    0    0 -0.00000000000E+00 -0.00000000000E+00  0.00000000000E+00  0.93800000000E+00  0.93800000000E+00 0.  1.
         11    1    1    2    0    0 -0.19875452390E+00 -0.42525842733E-01  0.43363845898E+00  0.47890957633E+00  0.51100000000E-03 0. -1.
    9000002    1    1    2    0    0  0.29333479090E+00 -0.41385980279E+00  0.23073424881E+00  0.10910579863E+01  0.93800000000E+00 0.  1.
         22    1    1    2    0    0 -0.94580267003E-01  0.45638564553E+00  0.33356272596E+01  0.33680324374E+01  0.00000000000E+00 0.  1.
</event>
<event>
 5    1  0.5849602E+001  0.1576117E+01  0.7818608E-02  0.3379700E+00
         11   -1    0    0    0    0  0.00000000000E+00  0.00000000000E+00  0.39999999674E+01  0.40000000000E+01  0.51100000000E-03 0. -1.
    9000002   -1    0    0    0    0 -0.00000000000E+00 -0.00000000000E+00  0.00000000000E+00  0.93800000000E+00  0.93800000000E+00 0.  1.
         11    1    1    2    0    0 -0.53274799915E-01  0.99697444733E-01  0.11070770036E+01  0.11128331132E+01  0.51100000000E-03 0. -1.
    9000002    1    1    2    0    0 -0.35757703817E+00 -0.13538981686E+00  0.11802008155E+00  0.10197864876E+01  0.93800000000E+00 0.  1.
         22    1    1    2    0    0  0.41085183809E+00  0.35692372123E-01  0.27749028822E+01  0.28053803992E+01  0.00000000000E+00 0. -1.
</event>
<event>
 5    1  0.5849602E+001  0.1599611E+01  0.7818608E-02  0.3353785E+00
         11   -1    0    0    0    0  0.00000000000E+00  0.00000000000E+00  0.39999999674E+01  0.40000000000E+01  0.51100000000E-03 0.  1.
    9000002   -1    0    0    0    0 -0.00000000000E+00 -0.00000000000E+00  0.00000000000E+00  0.93800000000E+00  0.93800000000E+00 0.  1.
         11    1    1    2    0    0  0.72086360990E-01  0.10780250443E+00  0.91377360723E+00  0.92293027353E+00  0.51100000000E-03 0.  1.
    9000002    1    1    2    0    0 -0.27341689007E+00 -0.47061271665E+00  0.20444923762E+00  0.11035744722E+01  0.93800000000E+00 0.  1.
         22    1    1    2    0    0  0.20133052908E+00  0.36281021222E+00  0.28817771225E+01  0.29114952543E+01  0.00000000000E+00 0.  1.
</event>
<event>
 5    1  0.5849602E+001  0.1598523E+01  0.7818608E-02  0.3354968E+00
         11   -1    0    0    0    0  0.00000000000E+00  0.00000000000E+00  0.39999999674E+01  0.40000000000E+01  0.51100000000E-03 0. -1.
    9000002   -1    0    0    0    0 -0.00000000000E+00 -0.00000000000E+00  0.00000000000E+00  0.93800000000E+00  0.93800000000E+00 0.  1.
         11    1    1    2    0    0  0.19591400283E-01 -0.20645813851E-01  0.35040694428E+00  0.35156131800E+00  0.51100000000E-03 0. -1.
    9000002    1    1    2    0    0 -0.60752645246E-01  0.43536886232E+00  0.13203395187E+00  0.10442767328E+01  0.93800000000E+00 0.  1.
         22    1    1    2    0    0  0.41161244964E-01 -0.41472304847E+00  0.35175590712E+01  0.35421619492E+01  0.00000000000E+00 0. -1.
</event>
<event>
 5    1  0.5849602E+001  0.1599674E+01  0.7818608E-02  0.3353717E+00
         11   -1    0    0    0    0  0.00000000000E+00  0.00000000000E+00  0.39999999674E+01  0.40000000000E+01  0.51100000000E-03 0. -1.
    9000002   -1    0    0    0    0 -0.00000000000E+00 -0.00000000000E+00  0.00000000000E+00  0.93800000000E+00  0.93800000000E+00 0.  1.
         11    1    1    2    0    0 -0.16402197856E+00  0.46643050521E-01  0.99737117502E+00  0.10118440124E+01  0.51100000000E-03 0. -1.
    9000002    1    1    2    0    0  0.60744187835E+00 -0.16921116410E+00  0.27930517780E+00  0.11642480131E+01  0.93800000000E+00 0.  1.
         22    1    1    2    0    0 -0.44341989979E+00  0.12256811358E+00  0.27233236145E+01  0.27619079745E+01  0.00000000000E+00 0. -1.
</event>
<event>
 5    1  0.5849602E+001  0.1599411E+01  0.7818608E-02  0.3354003E+00
         11   -1    0    0    0    0  0.00000000000E+00  0.00000000000E+00  0.39999999674E+01  0.40000000000E+01  0.51100000000E-03 0.  1.
    9000002   -1    0    0    0    0 -0.00000000000E+00 -0.00000000000E+00  0.00000000000E+00  0.93800000000E+00  0.93800000000E+00 0.  1.
         11    1    1    2    0    0 -0.15551513604E+00  0.93011872501E-01  0.13403137236E+01  0.13525077837E+01  0.51100000000E-03 0.  1.
    9000002    1    1    2    0    0  0.44384986522E+00 -0.21244122705E+00  0.16577403990E+00  0.10721282620E+01  0.93800000000E+00 0.  1.
         22    1    1    2    0    0 -0.28833472918E+00  0.11942935455E+00  0.24939122038E+01  0.25133639544E+01  0.00000000000E+00 0.  1.
</event>
<event>
 5    1  0.5849602E+001  0.1500782E+01  0.7818608E-02  0.3468631E+00
         11   -1    0    0    0    0  0.00000000000E+00  0.00000000000E+00  0.39999999674E+01  0.40000000000E+01  0.51100000000E-03 0.  1.
    9000002   -1    0    0    0    0 -0.00000000000E+00 -0.00000000000E+00  0.00000000000E+00  0.93800000000E+00  0.93800000000E+00 0. -1.
         11    1    1    2    0    0 -0.73026172671E-01  0.24148671042E+00  0.81178369988E+00  0.85008334280E+00  0.51100000000E-03 0.  1.
    9000002    1    1    2    0    0  0.18348253188E+00  0.31397316686E+00  0.17400599584E+00  0.10209637974E+01  0.93800000000E+00 0. -1.
         22    1    1    2    0    0 -0.11045635921E+00 -0.55545987728E+00  0.30142102716E+01  0.30669528598E+01  0.00000000000E+00 0.  1.
</event>
<event>
 5    1  0.5849602E+001  0.1599677E+01  0.7818608E-02  0.3353714E+00
         11   -1    0    0    0    0  0.00000000000E+00  0.00000000000E+00  0.39999999674E+01  0.40000000000E+01  0.51100000000E-03 0. -1.
    9000002   -1    0    0    0    0 -0.00000000000E+00 -0.00000000000E+00  0.00000000000E+00  0.93800000000E+00  0.93800000000E+00 0.  1.
         11    1    1    2    0    0  0.22859914609E+00 -0.87907583504E-01  0.14713502422E+01  0.14915954911E+01  0.51100000000E-03 0. -1.
    9000002    1    1    2    0    0 -0.57876013023E+00  0.22384997195E+00  0.26987535334E+00  0.11566109132E+01  0.93800000000E+00 0.  1.
         22    1    1    2    0    0  0.35016098414E+00 -0.13594238844E+00  0.22587743718E+01  0.22897935956E+01  0.00000000000E+00 0. -1.
</event>
<event>
 5    1  0.5849602E+001  0.1599666E+01  0.7818608E-02  0.3353726E+00
         11   -1    0    0    0    0  0.00000000000E+00  0.00000000000E+00  0.39999999674E+01  0.40000000000E+01  0.51100000000E-03 0. -1.
    9000002   -1    0    0    0    0 -0.00000000000E+00 -0.00000000000E+00  0.00000000000E+00  0.93800000000E+00  0.93800000000E+00 0.  1.
         11    1    1    2    0    0 -0.74574571867E-02  0.44742514504E-02  0.66288308605E-01  0.66858309674E-01  0.51100000000E-03 0.  1.
    9000002    1    1    2    0    0  0.40517745286E+00 -0.30594166525E+00  0.17669846175E+00  0.10811269200E+01  0.93800000000E+00 0.  1.
         22    1    1    2    0    0 -0.39771999568E+00  0.30146741380E+00  0.37570131970E+01  0.37900147703E+01  0.00000000000E+00 0. -1.
</event>
<event>
 5    1  0.5849602E+001  0.1598797E+01  0.7818608E-02  0.3354670E+00
         11   -1    0    0    0    0  0.00000000000E+00  0.00000000000E+00  0.39999999674E+01  0.40000000000E+01  0.51100000000E-03 0. -1.
    9000002   -1    0    0    0    0 -0.00000000000E+00 -0.00000000000E+00  0.00000000000E+00  0.93800000000E+00  0.93800000000E+00 0.  1.
         11    1    1    2    0    0 -0.31813736919E-01 -0.17667368572E+00  0.11101951822E+01  0.11246151826E+01  0.51100000000E-03 0. -1.
    9000002    1    1    2    0    0  0.18460953690E+00  0.52168563713E+00  0.21248807667E+00  0.11096088355E+01  0.93800000000E+00 0.  1.
         22    1    1    2    0    0 -0.15279579998E+00 -0.34501195140E+00  0.26773167085E+01  0.27037759819E+01  0.00000000000E+00 0. -1.
</event>
<event>
 5    1  0.5849602E+001  0.1471960E+01  0.7818608E-02  0.3505247E+00
         11   -1    0    0    0    0  0.00000000000E+00  0.00000000000E+00  0.39999999674E+01  0.40000000000E+01  0.51100000000E-03 0. -1.
    9000002   -1    0    0    0    0 -0.00000000000E+00 -0.00000000000E+00  0.00000000000E+00  0.93800000000E+00  0.93800000000E+00 0. -1.
         11    1    1    2    0    0 -0.26890027303E+00  0.38023934721E+00  0.11574807497E+01  0.12476583126E+01  0.51100000000E-03 0. -1.
    9000002    1    1    2    0    0  0.26759478902E-01 -0.26137763211E+00  0.15147327454E+00  0.98581057469E+00  0.93800000000E+00 0. -1.
         22    1    1    2    0    0  0.24214079413E+00 -0.11886171511E+00  0.26910459431E+01  0.27045311127E+01  0.00000000000E+00 0. -1.
</event>
<event>
 5    1  0.6606114E+001  0.1584868E+01  0.7818608E-02  0.3369952E+00
         11   -1    0    0    0    0  0.00000000000E+00  0.00000000000E+00  0.39999999674E+01  0.40000000000E+01  0.51100000000E-03 0.  1.
    9000002   -1    0    0    0    0 -0.00000000000E+00 -0.00000000000E+00  0.00000000000E+00  0.93800000000E+00  0.93800000000E+00 0.  1.
         11    1    1    2    0    0  0.94085280773E-01 -0.24446158174E-01  0.13345090682E+01  0.13380449801E+01  0.51100000000E-03 0.  1.
    9000002    1    1    2    0    0  0.12089062122E+00  0.16579054177E+00  0.39081931622E-01  0.96097473610E+00  0.93800000000E+00 0.  1.
         22    1    1    2    0    0 -0.21497590199E+00 -0.14134438359E+00  0.26264089676E+01  0.26389802838E+01  0.00000000000E+00 0. -1.
</event>
<event>
 5    1  0.5849602E+001  0.1556209E+01  0.7818608E-02  0.3402309E+00
         11   -1    0    0    0    0  0.00000000000E+00  0.00000000000E+00  0.39999999674E+01  0.40000000000E+01  0.51100000000E-03 0. -1.
    9000002   -1    0    0    0    0 -0.00000000000E+00 -0.00000000000E+00  0.00000000000E+00  0.93800000000E+00  0.93800000000E+00 0.  1.
         11    1    1    2    0    0  0.22683635625E+00  0.64125097454E-01  0.13350513242E+01  0.13557024231E+01  0.51100000000E-03 0. -1.
    9000002    1    1    2    0    0 -0.74640821681E-01  0.18211764199E+00  0.58915634208E-01  0.96023598128E+00  0.93800000000E+00 0.  1.
         22    1    1    2    0    0 -0.15219553457E+00 -0.24624273944E+00  0.26060330089E+01  0.26220615956E+01  0.00000000000E+00 0. -1.
</event>
<event>
 5    1  0.5849602E+001  0.1599667E+01  0.7818608E-02  0.3353724E+00
         11   -1    0    0    0    0  0.00000000000E+00  0.00000000000E+00  0.39999999674E+01  0.40000000000E+01  0.51100000000E-03 0. -1.
    9000002   -1    0    0    0    0 -0.00000000000E+00 -0.00000000000E+00  0.00000000000E+00  0.93800000000E+00  0.93800000000E+00 0. -1.
         11    1    1    2    0    0 -0.13480963840E-01  0.67358988977E-03  0.91906149752E-01  0.92893442140E-01  0.51100000000E-03 0. -1.
    9000002    1    1    2    0    0  0.55701203460E+00 -0.70288480057E-01  0.21819949091E+00  0.11147456638E+01  0.93800000000E+00 0. -1.
         22    1    1    2    0    0 -0.54353107076E+00  0.69614890168E-01  0.36898943267E+01  0.37303608941E+01  0.00000000000E+00 0. -1.
</event>
<event>
 5    1  0.5849602E+001  0.1599633E+01  0.7818608E-02  0.3353762E+00
         11   -1    0    0    0    0  0.00000000000E+00  0.00000000000E+00  0.39999999674E+01  0.40000000000E+01  0.51100000000E-03 0.  1.
    9000002   -1    0    0    0    0 -0.00000000000E+00 -0.00000000000E+00  0.00000000000E+00  0.93800000000E+00  0.93800000000E+00 0. -1.
         11    1    1    2    0    0  0.11001649645E+00  0.92188469277E-01  0.11113371896E+01  0.11205681387E+01  0.51100000000E-03 0.  1.
    9000002    1    1    2    0    0 -0.35650217530E+00 -0.31249953283E+00  0.15324593448E+00  0.10621101993E+01  0.93800000000E+00 0. -1.
         22    1    1    2    0    0  0.24648567885E+00  0.22031106355E+00  0.27354168433E+01  0.27553216620E+01  0.00000000000E+00 0.  1.
</event>
<event>
 5    1  0.5849602E+001  0.1475665E+01  0.7818608E-02  0.3500453E+00
         11   -1    0    0    0    0  0.00000000000E+00  0.00000000000E+00  0.39999999674E+01  0.40000000000E+01  0.51100000000E-03 0.  1.
    9000002   -1    0    0    0    0 -0.00000000000E+00 -0.00000000000E+00  0.00000000000E+00  0.93800000000E+00  0.93800000000E+00 0. -1.
         11    1    1    2    0    0 -0.30451297154E+00 -0.15068572096E+00  0.10122741607E+01  0.10677703751E+01  0.51100000000E-03 0.  1.
    9000002    1    1    2    0    0 -0.17635072342E+00  0.83617036376E-01  0.12451627903E+00  0.96614682640E+00  0.93800000000E+00 0. -1.
         22    1    1    2    0    0  0.48086369496E+00  0.67068684583E-01  0.28632095276E+01  0.29040827985E+01  0.00000000000E+00 0.  1.
</event>
<event>
 5    1  0.5849602E+001  0.1599640E+01  0.7818608E-02  0.3353754E+00
         11   -1    0    0    0    0  0.00000000000E+00  0.00000000000E+00  0.39999999674E+01  0.40000000000E+01  0.51100000000E-03 0.  1.
    9000002   -1    0    0    0    0 -0.00000000000E+00 -0.00000000000E+00  0.00000000000E+00  0.93800000000E+00  0.93800000000E+00 0.  1.
         11    1    1    2    0    0 -0.15542511247E+00  0.32369604067E+00  0.10482549430E+01  0.11080499894E+01  0.51100000000E-03 0.  1.
    9000002    1    1    2    0    0  0.46989436563E+00 -0.95426603940E+00  0.94785589548E+00  0.17057840389E+01  0.93800000000E+00 0.  1.
         22    1    1    2    0    0 -0.31446925316E+00  0.63056999873E+00  0.20038891289E+01  0.21241659717E+01  0.00000000000E+00 0. -1.
</event>
<event>
 5    1  0.5849602E+001  0.1536900E+01  0.7818608E-02  0.3424833E+00
         11   -1    0    0    0    0  0.00000000000E+00  0.00000000000E+00  0.39999999674E+01  0.40000000000E+01  0.51100000000E-03 0.  1.
    9000002   -1    0    0    0    0 -0.00000000000E+00 -0.00000000000E+00  0.00000000000E+00  0.93800000000E+00  0.93800000000E+00 0. -1.
         11    1    1    2    0    0  0.21620122457E+00  0.18239414157E+00  0.12412019573E+01  0.12730251970E+01  0.51100000000E-03 0.  1.
    9000002    1    1    2    0    0  0.60581661098E-01 -0.94164289642E-01  0.55688009225E-01  0.94629921562E+00  0.93800000000E+00 0. -1.
         22    1    1    2    0    0 -0.27678288567E+00 -0.88229851924E-01  0.27031100009E+01  0.27186755874E+01  0.00000000000E+00 0.  1.
</event>
<event>
 5    1  0.5849602E+001  0.1599668E+01  0.7818608E-02  0.3353724E+00
         11   -1    0    0    0    0  0.00000000000E+00  0.00000000000E+00  0.39999999674E+01  0.40000000000E+01  0.51100000000E-03 0. -1.
    9000002   -1    0    0    0    0 -0.00000000000E+00 -0.00000000000E+00  0.00000000000E+00  0.93800000000E+00  0.93800000000E+00 0. -1.
         11    1    1    2    0    0  0.31148177411E-01 -0.39606788429E-02  0.27681104059E+00  0.27858662790E+00  0.51100000000E-03 0. -1.
    9000002    1    1    2    0    0 -0.44485851271E+00  0.78825156042E-01  0.13867469893E+00  0.10503271746E+01  0.93800000000E+00 0. -1.
         22    1    1    2    0    0  0.41371033530E+00 -0.74864477199E-01  0.35845142278E+01  0.36090861975E+01  0.00000000000E+00 0. -1.
</event>
<event>
 5    1  0.5849602E+001  0.1503534E+01  0.7818608E-02  0.3465215E+00
         11   -1    0    0    0    0  0.00000000000E+00  0.00000000000E+00  0.39999999674E+01  0.40000000000E+01  0.51100000000E-03 0. -1.
    9000002   -1    0    0    0    0 -0.00000000000E+00 -0.00000000000E+00  0.00000000000E+00  0.93800000000E+00  0.93800000000E+00 0. -1.
         11    1    1    2    0    0 -0.13422249096E+00  0.25943746880E+00  0.10088616359E+01  0.10502978334E+01  0.51100000000E-03 0. -1.
    9000002    1    1    2    0    0 -0.36712434493E+00 -0.93771753806E-01  0.18015290242E+00  0.10275565652E+01  0.93800000000E+00 0. -1.
         22    1    1    2    0    0  0.50134683589E+00 -0.16566571499E+00  0.28109854290E+01  0.28601456014E+01  0.00000000000E+00 0. -1.
</event>
<event>
 5    1  0.5849602E+001  0.1581430E+01  0.7818608E-02  0.3373769E+00
         11   -1    0    0    0    0  0.00000000000E+00  0.00000000000E+00  0.39999999674E+01  0.40000000000E+01  0.51100000000E-03 0. -1.
    9000002   -1    0    0    0    0 -0.00000000000E+00 -0.00000000000E+00  0.00000000000E+00  0.93800000000E+00  0.93800000000E+00 0. -1.
         11    1    1    2    0    0 -0.86178150821E-01 -0.16458426562E-01  0.87388892236E+00  0.87828222300E+00  0.51100000000E-03 0. -1.
    9000002    1    1    2    0    0 -0.22031917604E+00  0.81186560345E-01  0.50568293731E-01  0.96826285132E+00  0.93800000000E+00 0. -1.
         22    1    1    2    0    0  0.30649732686E+00 -0.64728133783E-01  0.30755427513E+01  0.30914549257E+01  0.00000000000E+00 0. -1.
</event>
<event>
 5    1  0.5849602E+001  0.1470818E+01  0.7818608E-02  0.3506730E+00
         11   -1    0    0    0    0  0.00000000000E+00  0.00000000000E+00  0.39999999674E+01  0.40000000000E+01  0.51100000000E-03 0.  1.
    9000002   -1    0    0    0    0 -0.00000000000E+00 -0.00000000000E+00  0.00000000000E+00  0.93800000000E+00  0.93800000000E+00 0.  1.
         11    1    1    2    0    0 -0.18861376019E+00 -0.42378531459E-01  0.60200924429E-01  0.20247346217E+00  0.51100000000E-03 0.  1.
    9000002    1    1    2    0    0  0.10411661269E+00  0.53500630365E+00  0.39325438079E+00  0.11539345831E+01  0.93800000000E+00 0.  1.
         22    1    1    2    0    0  0.84497147499E-01 -0.49262777219E+00  0.35465446621E+01  0.35815919548E+01  0.00000000000E+00 0.  1.
</event>
<event>
 5    1  0.5849602E+001  0.1599500E+01  0.7818608E-02  0.3353906E+00
         11   -1    0    0    0    0  0.00000000000E+00  0.00000000000E+00  0.39999999674E+01  0.40000000000E+01  0.51100000000E-03 0.  1.
    9000002   -1    0    0    0    0 -0.00000000000E+00 -0.00000000000E+00  0.00000000000E+00  0.93800000000E+00  0.93800000000E+00 0. -1.
         11    1    1    2    0    0  0.17180727498E-01 -0.28051766932E-01  0.23308155497E+00  0.23539191025E+00  0.51100000000E-03 0.  1.
    9000002    1    1    2    0    0 -0.19697124551E+00  0.37558225998E+00  0.12185799628E+00  0.10366065198E+01  0.93800000000E+00 0. -1.
         22    1    1    2    0    0  0.17979051801E+00 -0.34753049305E+00  0.36450604161E+01  0.36660015700E+01  0.00000000000E+00 0.  1.
</event>
<event>
 5    1  0.5849602E+001  0.1599628E+01  0.7818608E-02  0.3353767E+00
         11   -1    0    0    0    0  0.00000000000E+00  0.00000000000E+00  0.39999999674E+01  0.40000000000E+01  0.51100000000E-03 0.  1.
    9000002   -1    0    0    0    0 -0.00000000000E+00 -0.00000000000E+00  0.00000000000E+00  0.93800000000E+00  0.93800000000E+00 0. -1.
         11    1    1    2    0    0 -0.12420095389E+00 -0.21381543595E-01  0.12680515755E+01  0.12742990648E+01  0.51100000000E-03 0.  1.
    9000002    1    1    2    0    0  0.36868211519E+00  0.45895628797E-01  0.92820314735E-01  0.10131596723E+01  0.93800000000E+00 0. -1.
         22    1    1    2    0    0 -0.24448116130E+00 -0.24514085202E-01  0.26391280771E+01  0.26505412628E+01  0.00000000000E+00 0.  1.
</event>
<event>
 5    1  0.5849602E+001  0.1599677E+01  0.7818608E-02  0.3353714E+00
         11   -1    0    0    0    0  0.00000000000E+00  0.00000000000E+00  0.39999999674E+01  0.40000000000E+01  0.51100000000E-03 0.  1.
    9000002   -1    0    0    0    0 -0.00000000000E+00 -0.00000000000E+00  0.00000000000E+00  0.93800000000E+00  0.93800000000E+00 0.  1.
         11    1    1    2    0    0 -0.83693487744E-01 -0.15044981233E-01  0.84326227998E+00  0.84753907598E+00  0.51100000000E-03 0.  1.
    9000002    1    1    2    0    0  0.38854760456E+00  0.68513519065E-01  0.10492534539E+00  0.10229939743E+01  0.93800000000E+00 0.  1.
         22    1    1    2    0    0 -0.30485411681E+00 -0.53468537832E-01  0.30518123420E+01  0.30674669497E+01  0.00000000000E+00 0.  1.
</event>
<event>
 5    1  0.5849602E+001  0.1599676E+01  0.7818608E-02  0.3353715E+00
         11   -1    0    0    0    0  0.00000000000E+00  0.00000000000E+00  0.39999999674E+01  0.40000000000E+01  0.51100000000E-03 0. -1.
    9000002   -1    0    0    0    0 -0.00000000000E+00 -0.00000000000E+00  0.00000000000E+00  0.93800000000E+00  0.93800000000E+00 0.  1.
         11    1    1    2    0    0 -0.69510810920E-01  0.28485133482E-02  0.44612397777E+00  0.45151603684E+00  0.51100000000E-03 0.  1.
    9000002    1    1    2    0    0  0.58930366473E+00 -0.24941397273E-01  0.24220986559E+00  0.11342003798E+01  0.93800000000E+00 0.  1.
         22    1    1    2    0    0 -0.51979285381E+00  0.22092883925E-01  0.33116661240E+01  0.33522835834E+01  0.00000000000E+00 0. -1.
</event>
<event>
 5    1  0.5849602E+001  0.1468209E+01  0.7818608E-02  0.3510126E+00
         11   -1    0    0    0    0  0.00000000000E+00  0.00000000000E+00  0.39999999674E+01  0.40000000000E+01  0.51100000000E-03 0. -1.
    9000002   -1    0    0    0    0 -0.00000000000E+00 -0.00000000000E+00  0.00000000000E+00  0.93800000000E+00  0.93800000000E+00 0.  1.
         11    1    1    2    0    0  0.42442065110E+00 -0.43632953021E-01  0.10840640830E+01  0.11650029703E+01  0.51100000000E-03 0. -1.
    9000002    1    1    2    0    0 -0.10387126409E+00  0.16365577858E+00  0.13056792272E+00  0.96667700697E+00  0.93800000000E+00 0.  1.
         22    1    1    2    0    0 -0.32054938701E+00 -0.12002282556E+00  0.27853679616E+01  0.28063200227E+01  0.00000000000E+00 0. -1.
</event>
<event>
 5    1  0.5849602E+001  0.1599672E+01  0.7818608E-02  0.3353720E+00
         11   -1    0    0    0    0  0.00000000000E+00  0.00000000000E+00  0.39999999674E+01  0.40000000000E+01  0.51100000000E-03 0. -1.
    9000002   -1    0    0    0    0 -0.00000000000E+00 -0.00000000000E+00  0.00000000000E+00  0.93800000000E+00  0.93800000000E+00 0.  1.
         11    1    1    2    0    0  0.24716194024E-01 -0.52973936474E-02  0.29396318240E+00  0.29504841357E+00  0.51100000000E-03 0. -1.
    9000002    1    1    2    0    0 -0.34338163110E+00  0.83013200352E-01  0.83715858984E-01  0.10058103604E+01  0.93800000000E+00 0.  1.
         22    1    1    2    0    0  0.31866543707E+00 -0.77715806704E-01  0.36223209260E+01  0.36371412260E+01  0.00000000000E+00 0. -1.
</event>
<event>
 5    1  0.5849602E+001  0.1599543E+01  0.7818608E-02  0.3353859E+00
         11   -1    0    0    0    0  0.00000000000E+00  0.00000000000E+00  0.39999999674E+01  0.40000000000E+01  0.51100000000E-03 0. -1.
    9000002   -1    0    0    0    0 -0.00000000000E+00 -0.00000000000E+00  0.00000000000E+00  0.93800000000E+00  0.93800000000E+00 0.  1.
         11    1    1    2    0    0  0.41087819478E-01 -0.10400562159E+00  0.98742206987E+00  0.99373436261E+00  0.51100000000E-03 0. -1.
    9000002    1    1    2    0    0 -0.16848016997E+00  0.36246121275E+00  0.10787111147E+00  0.10253018459E+01  0.93800000000E+00 0.  1.
         22    1    1    2    0    0  0.12739235049E+00 -0.25845559116E+00  0.29047067860E+01  0.29189637915E+01  0.00000000000E+00 0. -1.
</event>
<event>
 5    1  0.5849602E+001  0.1599644E+01  0.7818608E-02  0.3353750E+00
         11   -1    0    0    0    0  0.00000000000E+00  0.00000000000E+00  0.39999999674E+01  0.40000000000E+01  0.51100000000E-03 0. -1.
    9000002   -1    0    0    0    0 -0.00000000000E+00 -0.00000000000E+00  0.00000000000E+00  0.93800000000E+00  0.93800000000E+00 0.  1.
         11    1    1    2    0    0 -0.11335847321E+00  0.36891426850E-01  0.75105167628E+00  0.76045381345E+00  0.51100000000E-03 0. -1.
    9000002    1    1    2    0    0  0.58744628279E+00 -0.19666551313E+00  0.26893302121E+00  0.11558284601E+01  0.93800000000E+00 0.  1.
         22    1    1    2    0    0 -0.47408780959E+00  0.15977408628E+00  0.29800152699E+01  0.30217177265E+01  0.00000000000E+00 0. -1.
</event>
<event>
 5    1  0.5849602E+001  0.1599677E+01  0.7818608E-02  0.3353714E+00
         11   -1    0    0    0    0  0.00000000000E+00  0.00000000000E+00  0.39999999674E+01  0.40000000000E+01  0.51100000000E-03 0. -1.
    9000002   -1    0    0    0    0 -0.00000000000E+00 -0.00000000000E+00  0.00000000000E+00  0.93800000000E+00  0.93800000000E+00 0. -1.
         11    1    1    2    0    0 -0.16564593676E+00 -0.16861294414E+00  0.10725131650E+01  0.10982502682E+01  0.51100000000E-03 0. -1.
    9000002    1    1    2    0    0  0.54921235921E+00  0.55707578217E+00  0.44814473451E+00  0.13010170428E+01  0.93800000000E+00 0. -1.
         22    1    1    2    0    0 -0.38356642245E+00 -0.38846283803E+00  0.24793420679E+01  0.25387326890E+01  0.00000000000E+00 0. -1.
</event>
<event>
 5    1  0.5849602E+001  0.1599676E+01  0.7818608E-02  0.3353715E+00
         11   -1    0    0    0    0  0.00000000000E+00  0.00000000000E+00  0.39999999674E+01  0.40000000000E+01  0.51100000000E-03 0. -1.
    9000002   -1    0    0    0    0 -0.00000000000E+00 -0.00000000000E+00  0.00000000000E+00  0.93800000000E+00  0.93800000000E+00 0.  1.
         11    1    1    2    0    0  0.18041619759E+00  0.59577752166E-02  0.10679899252E+01  0.10831381449E+01  0.51100000000E-03 0. -1.
    9000002    1    1    2    0    0 -0.63055099376E+00 -0.18058131296E-01  0.27953120529E+00  0.11644321992E+01  0.93800000000E+00 0.  1.
         22    1    1    2    0    0  0.45013479617E+00  0.12100356079E-01  0.26524788369E+01  0.26904296559E+01  0.00000000000E+00 0. -1.
</event>
<event>
 5    1  0.5849602E+001  0.1485011E+01  0.7818608E-02  0.3488477E+00
         11   -1    0    0    0    0  0.00000000000E+00  0.00000000000E+00  0.39999999674E+01  0.40000000000E+01  0.51100000000E-03 0. -1.
    9000002   -1    0    0    0    0 -0.00000000000E+00 -0.00000000000E+00  0.00000000000E+00  0.93800000000E+00  0.93800000000E+00 0. -1.
         11    1    1    2    0    0  0.48654568495E-01 -0.12279154945E+00 -0.15343323360E-01  0.13296883223E+00  0.51100000000E-03 0. -1.
    9000002    1    1    2    0    0  0.59296774221E+00  0.21442026815E+00  0.50947555756E+00  0.12397564835E+01  0.93800000000E+00 0. -1.
         22    1    1    2    0    0 -0.64162231071E+00 -0.91628718699E-01  0.35058677332E+01  0.35652746842E+01  0.00000000000E+00 0. -1.
</event>
<event>
 5    1  0.5849602E+001  0.1598797E+01  0.7818608E-02  0.3354670E+00
         11   -1    0    0    0    0  0.00000000000E+00  0.00000000000E+00  0.39999999674E+01  0.40000000000E+01  0.51100000000E-03 0. -1.
    9000002   -1    0    0    0    0 -0.00000000000E+00 -0.00000000000E+00  0.00000000000E+00  0.93800000000E+00  0.93800000000E+00 0. -1.
         11    1    1    2    0    0 -0.83693570304E-01 -0.13353095310E-01  0.11339435253E+01  0.11371064587E+01  0.51100000000E-03 0. -1.
    9000002    1    1    2    0    0  0.33236162508E+00 -0.57329304508E-01  0.76869691812E-01  0.99975189347E+00  0.93800000000E+00 0. -1.
         22    1    1    2    0    0 -0.24866805477E+00  0.70682399818E-01  0.27891867503E+01  0.28011416478E+01  0.00000000000E+00 0. -1.
</event>
<event>
 5    1  0.5849602E+001  0.1592821E+01  0.7818608E-02  0.3361192E+00
         11   -1    0    0    0    0  0.00000000000E+00  0.00000000000E+00  0.39999999674E+01  0.40000000000E+01  0.51100000000E-03 0. -1.
    9000002   -1    0    0    0    0 -0.00000000000E+00 -0.00000000000E+00  0.00000000000E+00  0.93800000000E+00  0.93800000000E+00 0. -1.
         11    1    1    2    0    0 -0.27399962574E+00  0.12571925625E+00  0.13108084478E+01  0.13450279455E+01  0.51100000000E-03 0. -1.
    9000002    1    1    2    0    0  0.58052336940E+00 -0.54457285541E+00  0.47494271667E+00  0.13187045012E+01  0.93800000000E+00 0. -1.
         22    1    1    2    0    0 -0.30652374365E+00  0.41885359916E+00  0.22142488029E+01  0.22742675533E+01  0.00000000000E+00 0. -1.
</event>
<event>
 5    1  0.5849602E+001  0.1599655E+01  0.7818608E-02  0.3353737E+00
         11   -1    0    0    0    0  0.00000000000E+00  0.00000000000E+00  0.39999999674E+01  0.40000000000E+01  0.51100000000E-03 0. -1.
    9000002   -1    0    0    0    0 -0.00000000000E+00 -0.00000000000E+00  0.00000000000E+00  0.93800000000E+00  0.93800000000E+00 0. -1.
         11    1    1    2    0    0  0.12007577954E+00 -0.22561545287E-01  0.10297495378E+01  0.10369723178E+01  0.51100000000E-03 0. -1.
    9000002    1    1    2    0    0 -0.46700635224E+00  0.82258822735E-01  0.15330512048E+00  0.10621713171E+01  0.93800000000E+00 0. -1.
         22    1    1    2    0    0  0.34693057271E+00 -0.59697277448E-01  0.28169453090E+01  0.28388563650E+01  0.00000000000E+00 0. -1.
</event>
<event>
 5    1  0.5849602E+001  0.1596629E+01  0.7818608E-02  0.3357031E+00
         11   -1    0    0    0    0  0.00000000000E+00  0.00000000000E+00  0.39999999674E+01  0.40000000000E+01  0.51100000000E-03 0. -1.
    9000002   -1    0    0    0    0 -0.00000000000E+00 -0.00000000000E+00  0.00000000000E+00  0.93800000000E+00  0.93800000000E+00 0. -1.
         11    1    1    2    0    0  0.72154838553E-01  0.28304584119E-01  0.22683981370E+00  0.23971656683E+00  0.51100000000E-03 0. -1.
    9000002    1    1    2    0    0 -0.69955952382E+00 -0.17509446135E+00  0.37735450236E+00  0.12418864756E+01  0.93800000000E+00 0. -1.
         22    1    1    2    0    0  0.62740468527E+00  0.14678987723E+00  0.33958056513E+01  0.34563969576E+01  0.00000000000E+00 0. -1.
</event>
<event>
 5    1  0.5849602E+001  0.1579063E+01  0.7818608E-02  0.3376406E+00
         11   -1    0    0    0    0  0.00000000000E+00  0.00000000000E+00  0.39999999674E+01  0.40000000000E+01  0.51100000000E-03 0.  1.
    9000002   -1    0    0    0    0 -0.00000000000E+00 -0.00000000000E+00  0.00000000000E+00  0.93800000000E+00  0.93800000000E+00 0.  1.
         11    1    1    2    0    0 -0.60983789715E-01 -0.13364376948E-01  0.85688987068E+00  0.85916130079E+00  0.51100000000E-03 0.  1.
    9000002    1    1    2    0    0 -0.62715018456E-01 -0.48981161281E+00  0.18546244818E+00  0.10761453941E+01  0.93800000000E+00 0.  1.
         22    1    1    2    0    0  0.12369880817E+00  0.50317598976E+00  0.29576476485E+01  0.30026933051E+01  0.00000000000E+00 0.  1.
</event>
<event>
 5    1  0.5849602E+001  0.1599553E+01  0.7818608E-02  0.3353849E+00
         11   -1    0    0    0    0  0.00000000000E+00  0.00000000000E+00  0.39999999674E+01  0.40000000000E+01  0.51100000000E-03 0. -1.
    9000002   -1    0    0    0    0 -0.00000000000E+00 -0.00000000000E+00  0.00000000000E+00  0.93800000000E+00  0.93800000000E+00 0. -1.
         11    1    1    2    0    0 -0.14593001224E+00  0.42605281687E-01  0.87482003371E+00  0.88793081431E+00  0.51100000000E-03 0. -1.
    9000002    1    1    2    0    0  0.57648135017E+00 -0.17418939885E+00  0.25328053524E+00  0.11430956755E+01  0.93800000000E+00 0. -1.
         22    1    1    2    0    0 -0.43055133793E+00  0.13158411716E+00  0.28718993984E+01  0.29069735102E+01  0.00000000000E+00 0. -1.
</event>
<event>
 5    1  0.5849602E+001  0.1547891E+01  0.7818608E-02  0.3411938E+00
         11   -1    0    0    0    0  0.00000000000E+00  0.00000000000E+00  0.39999999674E+01  0.40000000000E+01  0.51100000000E-03 0. -1.
    9000002   -1    0    0    0    0 -0.00000000000E+00 -0.00000000000E+00  0.00000000000E+00  0.93800000000E+00  0.93800000000E+00 0.  1.
         11    1    1    2    0    0  0.20579475616E+00  0.47628622519E-01  0.14408174899E+01  0.14562195122E+01  0.51100000000E-03 0. -1.
    9000002    1    1    2    0    0  0.13932110641E+00  0.34798527256E-01  0.52788685906E-01  0.95039568262E+00  0.93800000000E+00 0.  1.
         22    1    1    2    0    0 -0.34511586257E+00 -0.82427149775E-01  0.25063937915E+01  0.25313848052E+01  0.00000000000E+00 0. -1.
</event>
<event>
 5    1  0.5849602E+001  0.1599673E+01  0.7818608E-02  0.3353718E+00
         11   -1    0    0    0    0  0.00000000000E+00  0.00000000000E+00  0.39999999674E+01  0.40000000000E+01  0.51100000000E-03 0.  1.
    9000002   -1    0    0    0    0 -0.00000000000E+00 -0.00000000000E+00  0.00000000000E+00  0.93800000000E+00  0.93800000000E+00 0.  1.
         11    1    1    2    0    0  0.10343944007E+00  0.65576880326E-01  0.10271772103E+01  0.10344531539E+01  0.51100000000E-03 0.  1.
    9000002    1    1    2    0    0 -0.39006338002E+00 -0.23879986323E+00  0.14222719326E+00  0.10532081416E+01  0.93800000000E+00 0.  1.
         22    1    1    2    0    0  0.28662393994E+00  0.17322298290E+00  0.28305955638E+01  0.28503387045E+01  0.00000000000E+00 0.  1.
</event>
<event>
 5    1  0.5849602E+001  0.1599168E+01  0.7818608E-02  0.3354267E+00
         11   -1    0    0    0    0  0.00000000000E+00  0.00000000000E+00  0.39999999674E+01  0.40000000000E+01  0.51100000000E-03 0.  1.
    9000002   -1    0    0    0    0 -0.00000000000E+00 -0.00000000000E+00  0.00000000000E+00  0.93800000000E+00  0.93800000000E+00 0. -1.
         11    1    1    2    0    0 -0.54073530761E-02  0.11705646828E+00  0.68839112252E+00  0.69829367384E+00  0.51100000000E-03 0.  1.
    9000002    1    1    2    0    0  0.14110208567E+00 -0.61125990830E+00  0.27676104328E+00  0.11618903344E+01  0.93800000000E+00 0. -1.
         22    1    1    2    0    0 -0.13569473259E+00  0.49420344003E+00  0.30348478016E+01  0.30778159918E+01  0.00000000000E+00 0.  1.
</event>
<event>
 5    1  0.5849602E+001  0.1599506E+01  0.7818608E-02  0.3353899E+00
         11   -1    0    0    0    0  0.00000000000E+00  0.00000000000E+00  0.39999999674E+01  0.40000000000E+01  0.51100000000E-03 0.  1.
    9000002   -1    0    0    0    0 -0.00000000000E+00 -0.00000000000E+00  0.00000000000E+00  0.93800000000E+00  0.93800000000E+00 0. -1.
         11    1    1    2    0    0  0.65162792811E-01  0.42607129252E-01  0.87205129805E+00  0.87552000810E+00  0.51100000000E-03 0.  1.
    9000002    1    1    2    0    0 -0.33096713596E+00 -0.14693583800E+00  0.88182040457E-01  0.10093311933E+01  0.93800000000E+00 0. -1.
         22    1    1    2    0    0  0.26580434315E+00  0.10432870875E+00  0.30397666288E+01  0.30531487986E+01  0.00000000000E+00 0.  1.
</event>
<event>
 5    1  0.5849602E+001  0.1507683E+01  0.7818608E-02  0.3460089E+00
         11   -1    0    0    0    0  0.00000000000E+00  0.00000000000E+00  0.39999999674E+01  0.40000000000E+01  0.51100000000E-03 0. -1.
    9000002   -1    0    0    0    0 -0.00000000000E+00 -0.00000000000E+00  0.00000000000E+00  0.93800000000E+00  0.93800000000E+00 0. -1.
         11    1    1    2    0    0 -0.66503963580E-02 -0.16523133658E+00  0.15330575757E-01  0.16607501327E+00  0.51100000000E-03 0. -1.
    9000002    1    1    2    0    0 -0.22736160212E+00 -0.90797565700E-01  0.22357546491E+00  0.99487058684E+00  0.93800000000E+00 0. -1.
         22    1    1    2    0    0  0.23401199848E+00  0.25602890228E+00  0.37610939267E+01  0.37770543999E+01  0.00000000000E+00 0. -1.
</event>
<event>
 5    1  0.5849602E+001  0.1599674E+01  0.7818608E-02  0.3353718E+00
         11   -1    0    0    0    0  0.00000000000E+00  0.00000000000E+00  0.39999999674E+01  0.40000000000E+01  0.51100000000E-03 0. -1.
    9000002   -1    0    0    0    0 -0.00000000000E+00 -0.00000000000E+00  0.00000000000E+00  0.93800000000E+00  0.93800000000E+00 0.  1.
         11    1    1    2    0    0 -0.29541583188E-01  0.90565352111E-01  0.67850219517E+00  0.68515711929E+00  0.51100000000E-03 0. -1.
    9000002    1    1    2    0    0  0.17464246896E+00 -0.50840070042E+00  0.19913197047E+00  0.10993037823E+01  0.93800000000E+00 0.  1.
         22    1    1    2    0    0 -0.14510088577E+00  0.41783534831E+00  0.31223658017E+01  0.31535390984E+01  0.00000000000E+00 0. -1.
</event>
<event>
 5    1  0.5849602E+001  0.1599573E+01  0.7818608E-02  0.3353827E+00
         11   -1    0    0    0    0  0.00000000000E+00  0.00000000000E+00  0.39999999674E+01  0.40000000000E+01  0.51100000000E-03 0.  1.
    9000002   -1    0    0    0    0 -0.00000000000E+00 -0.00000000000E+00  0.00000000000E+00  0.93800000000E+00  0.93800000000E+00 0.  1.
         11    1    1    2    0    0 -0.51496368435E-01 -0.14361550785E-01  0.39446387145E+00  0.39807051775E+00  0.51100000000E-03 0.  1.
    9000002    1    1    2    0    0  0.56176742903E+00  0.11720043653E+00  0.22862418774E+00  0.11231347229E+01  0.93800000000E+00 0.  1.
         22    1    1    2    0    0 -0.51027106060E+00 -0.10283888574E+00  0.33769119082E+01  0.34167947593E+01  0.00000000000E+00 0.  1.
</event>
<event>
 5    1  0.5849602E+001  0.1599676E+01  0.7818608E-02  0.3353715E+00
         11   -1    0    0    0    0  0.00000000000E+00  0.00000000000E+00  0.39999999674E+01  0.40000000000E+01  0.51100000000E-03 0. -1.
    9000002   -1    0    0    0    0 -0.00000000000E+00 -0.00000000000E+00  0.00000000000E+00  0.93800000000E+00  0.93800000000E+00 0. -1.
         11    1    1    2    0    0  0.94938791721E-01 -0.72899200372E-01  0.56298461868E+00  0.57556894425E+00  0.51100000000E-03 0. -1.
    9000002    1    1    2    0    0 -0.60038042008E+00  0.46689218056E+00  0.42068854273E+00  0.12787759018E+01  0.93800000000E+00 0. -1.
         22    1    1    2    0    0  0.50544162836E+00 -0.39399298019E+00  0.30163268059E+01  0.30836551539E+01  0.00000000000E+00 0. -1.
</event>
<event>
 5    1  0.5849602E+001  0.1599656E+01  0.7818608E-02  0.3353737E+00
         11   -1    0    0    0    0  0.00000000000E+00  0.00000000000E+00  0.39999999674E+01  0.40000000000E+01  0.51100000000E-03 0. -1.
    9000002   -1    0    0    0    0 -0.00000000000E+00 -0.00000000000E+00  0.00000000000E+00  0.93800000000E+00  0.93800000000E+00 0.  1.
         11    1    1    2    0    0 -0.13206016525E+00  0.12551263066E+00  0.12189373987E+01  0.12324779717E+01  0.51100000000E-03 0. -1.
    9000002    1    1    2    0    0  0.39411756653E+00 -0.39152322927E+00  0.21340935904E+00  0.11108585193E+01  0.93800000000E+00 0.  1.
         22    1    1    2    0    0 -0.26205740129E+00  0.26601059861E+00  0.25676532096E+01  0.25946635090E+01  0.00000000000E+00 0. -1.
</event>
<event>
 5    1  0.5849602E+001  0.1599674E+01  0.7818608E-02  0.3353717E+00
         11   -1    0    0    0    0  0.00000000000E+00  0.00000000000E+00  0.39999999674E+01  0.40000000000E+01  0.51100000000E-03 0. -1.
    9000002   -1    0    0    0    0 -0.00000000000E+00 -0.00000000000E+00  0.00000000000E+00  0.93800000000E+00  0.93800000000E+00 0. -1.
         11    1    1    2    0    0 -0.13228304701E+00 -0.14217341502E+00  0.98992998211E+00  0.10087981538E+01  0.51100000000E-03 0. -1.
    9000002    1    1    2    0    0  0.49127544393E+00  0.52319002366E+00  0.36990931207E+00  0.12376414108E+01  0.93800000000E+00 0. -1.
         22    1    1    2    0    0 -0.35899239692E+00 -0.38101660864E+00  0.26401606732E+01  0.26915604354E+01  0.00000000000E+00 0. -1.
</event>
<event>
 5    1  0.5849602E+001  0.1599646E+01  0.7818608E-02  0.3353748E+00
         11   -1    0    0    0    0  0.00000000000E+00  0.00000000000E+00  0.39999999674E+01  0.40000000000E+01  0.51100000000E-03 0.  1.
    9000002   -1    0    0    0    0 -0.00000000000E+00 -0.00000000000E+00  0.00000000000E+00  0.93800000000E+00  0.93800000000E+00 0.  1.
         11    1    1    2    0    0  0.14289926196E-01  0.81234306612E-01  0.76386796893E+00  0.76830836884E+00  0.51100000000E-03 0.  1.
    9000002    1    1    2    0    0 -0.57778853184E-01 -0.43440746129E+00  0.13024019270E+00  0.10434820296E+01  0.93800000000E+00 0.  1.
         22    1    1    2    0    0  0.43488926987E-01  0.35317315468E+00  0.31058918057E+01  0.31262096016E+01  0.00000000000E+00 0. -1.
</event>
<event>
 5    1  0.5849602E+001  0.1521978E+01  0.7818608E-02  0.3442658E+00
         11   -1    0    0    0    0  0.00000000000E+00  0.00000000000E+00  0.39999999674E+01  0.40000000000E+01  0.51100000000E-03 0.  1.
    9000002   -1    0    0    0    0 -0.00000000000E+00 -0.00000000000E+00  0.00000000000E+00  0.93800000000E+00  0.93800000000E+00 0. -1.
         11    1    1    2    0    0 -0.13764486469E+00  0.21439999358E+00  0.87487321305E+00  0.91121724416E+00  0.51100000000E-03 0.  1.
    9000002    1    1    2    0    0  0.12446907264E+00  0.19561763375E+00  0.97104484427E-01  0.97109839335E+00  0.93800000000E+00 0. -1.
         22    1    1    2    0    0  0.13175792051E-01 -0.41001762734E+00  0.30280222699E+01  0.30556843625E+01  0.00000000000E+00 0.  1.
</event>
<event>
 5    1  0.5849602E+001  0.1598323E+01  0.7818608E-02  0.3355186E+00
         11   -1    0    0    0    0  0.00000000000E+00  0.00000000000E+00  0.39999999674E+01  0.40000000000E+01  0.51100000000E-03 0.  1.
    9000002   -1    0    0    0    0 -0.00000000000E+00 -0.00000000000E+00  0.00000000000E+00  0.93800000000E+00  0.93800000000E+00 0. -1.
         11    1    1    2    0    0  0.11677648185E+00  0.18914523142E-01  0.14229430864E+01  0.14278521612E+01  0.51100000000E-03 0.  1.
    9000002    1    1    2    0    0 -0.40650892854E+00 -0.12781602355E+00  0.12405997713E+00  0.10377000158E+01  0.93800000000E+00 0. -1.
         22    1    1    2    0    0  0.28973244669E+00  0.10890150040E+00  0.24529969038E+01  0.24724478230E+01  0.00000000000E+00 0.  1.
</event>
<event>
 5    1  0.5849602E+001  0.1599674E+01  0.7818608E-02  0.3353717E+00
         11   -1    0    0    0    0  0.00000000000E+00  0.00000000000E+00  0.39999999674E+01  0.40000000000E+01  0.51100000000E-03 0. -1.
    9000002   -1    0    0    0    0 -0.00000000000E+00 -0.00000000000E+00  0.00000000000E+00  0.93800000000E+00  0.93800000000E+00 0.  1.
         11    1    1    2    0    0 -0.31267100148E-01 -0.21274107408E-02  0.24211701225E+00  0.24413739199E+00  0.51100000000E-03 0. -1.
    9000002    1    1    2    0    0  0.49314823598E+00  0.19753353757E-01  0.16657126768E+00  0.10729284062E+01  0.93800000000E+00 0.  1.
         22    1    1    2    0    0 -0.46188113583E+00 -0.17625943016E-01  0.35913116874E+01  0.36209342018E+01  0.00000000000E+00 0. -1.
</event>
<event>
 5    1  0.5849602E+001  0.1599672E+01  0.7818608E-02  0.3353719E+00
         11   -1    0    0    0    0  0.00000000000E+00  0.00000000000E+00  0.39999999674E+01  0.40000000000E+01  0.51100000000E-03 0.  1.
    9000002   -1    0    0    0    0 -0.00000000000E+00 -0.00000000000E+00  0.00000000000E+00  0.93800000000E+00  0.93800000000E+00 0. -1.
         11    1    1    2    0    0  0.44479441397E-01  0.12880393959E+00  0.12312677680E+01  0.12387854750E+01  0.51100000000E-03 0.  1.
    9000002    1    1    2    0    0 -0.13490385366E+00 -0.40036756147E+00  0.12076051171E+00  0.10358186787E+01  0.93800000000E+00 0. -1.
         22    1    1    2    0    0  0.90424412267E-01  0.27156362188E+00  0.26479716877E+01  0.26633958463E+01  0.00000000000E+00 0.  1.
</event>
<event>
 5    1  0.5849602E+001  0.1599675E+01  0.7818608E-02  0.3353716E+00
         11   -1    0    0    0    0  0.00000000000E+00  0.00000000000E+00  0.39999999674E+01  0.40000000000E+01  0.51100000000E-03 0. -1.
    9000002   -1    0    0    0    0 -0.00000000000E+00 -0.00000000000E+00  0.00000000000E+00  0.93800000000E+00  0.93800000000E+00 0.  1.
         11    1    1    2    0    0 -0.16822238186E+00 -0.14365362204E+00  0.13759522740E+01  0.13936212018E+01  0.51100000000E-03 0. -1.
    9000002    1    1    2    0    0  0.45408785731E+00  0.39346876259E+00  0.25192627607E+00  0.11420701808E+01  0.93800000000E+00 0.  1.
         22    1    1    2    0    0 -0.28586547545E+00 -0.24981514055E+00  0.23721214173E+01  0.24023086174E+01  0.00000000000E+00 0. -1.
</event>
<event>
 5    1  0.5849602E+001  0.1599662E+01  0.7818608E-02  0.3353730E+00
         11   -1    0    0    0    0  0.00000000000E+00  0.00000000000E+00  0.39999999674E+01  0.40000000000E+01  0.51100000000E-03 0.  1.
    9000002   -1    0    0    0    0 -0.00000000000E+00 -0.00000000000E+00  0.00000000000E+00  0.93800000000E+00  0.93800000000E+00 0. -1.
         11    1    1    2    0    0  0.24643875758E+00 -0.50052160403E-01  0.12666746460E+01  0.12913954467E+01  0.51100000000E-03 0.  1.
    9000002    1    1    2    0    0 -0.69518391847E+00  0.14271790773E+00  0.36091119006E+00  0.12303454673E+01  0.93800000000E+00 0. -1.
         22    1    1    2    0    0  0.44874516089E+00 -0.92665747325E-01  0.23724141314E+01  0.24162590860E+01  0.00000000000E+00 0. -1.
</event>
<event>
 5    1  0.5849602E+001  0.1599674E+01  0.7818608E-02  0.3353717E+00
         11   -1    0    0    0    0  0.00000000000E+00  0.00000000000E+00  0.39999999674E+01  0.40000000000E+01  0.51100000000E-03 0.  1.
    9000002   -1    0    0    0    0 -0.00000000000E+00 -0.00000000000E+00  0.00000000000E+00  0.93800000000E+00  0.93800000000E+00 0. -1.
         11    1    1    2    0    0  0.12291577356E+00 -0.26174986277E-01  0.13645058160E+01  0.13702809202E+01  0.51100000000E-03 0.  1.
    9000002    1    1    2    0    0 -0.35771649112E+00  0.75826509537E-01  0.89815666795E-01  0.10107529874E+01  0.93800000000E+00 0. -1.
         22    1    1    2    0    0  0.23480071757E+00 -0.49651523260E-01  0.25456784846E+01  0.25569660924E+01  0.00000000000E+00 0.  1.
</event>
<event>
 5    1  0.5849602E+001  0.1599676E+01  0.7818608E-02  0.3353715E+00
         11   -1    0    0    0    0  0.00000000000E+00  0.00000000000E+00  0.39999999674E+01  0.40000000000E+01  0.51100000000E-03 0. -1.
    9000002   -1    0    0    0    0 -0.00000000000E+00 -0.00000000000E+00  0.00000000000E+00  0.93800000000E+00  0.93800000000E+00 0. -1.
         11    1    1    2    0    0 -0.17960835850E-01 -0.98868233843E-01  0.83818192849E+00  0.84418405911E+00  0.51100000000E-03 0. -1.
    9000002    1    1    2    0    0  0.84749917877E-01  0.45033527778E+00  0.14279459397E+00  0.10536691640E+01  0.93800000000E+00 0. -1.
         22    1    1    2    0    0 -0.66789082027E-01 -0.35146704394E+00  0.30190234449E+01  0.30401467769E+01  0.00000000000E+00 0. -1.
</event>
<event>
 5    1  0.5849602E+001  0.1599662E+01  0.7818608E-02  0.3353731E+00
         11   -1    0    0    0    0  0.00000000000E+00  0.00000000000E+00  0.39999999674E+01  0.40000000000E+01  0.51100000000E-03 0.  1.
    9000002   -1    0    0    0    0 -0.00000000000E+00 -0.00000000000E+00  0.00000000000E+00  0.93800000000E+00  0.93800000000E+00 0. -1.
         11    1    1    2    0    0 -0.53562827727E-01 -0.94835957001E-01  0.85007071551E+00  0.85702002179E+00  0.51100000000E-03 0.  1.
    9000002    1    1    2    0    0  0.25550082946E+00  0.41701945769E+00  0.16345367177E+00  0.10703957234E+01  0.93800000000E+00 0. -1.
         22    1    1    2    0    0 -0.20193800174E+00 -0.32218350069E+00  0.29864755801E+01  0.30105842548E+01  0.00000000000E+00 0.  1.
</event>
<event>
 5    1  0.5849602E+001  0.1599676E+01  0.7818608E-02  0.3353716E+00
         11   -1    0    0    0    0  0.00000000000E+00  0.00000000000E+00  0.39999999674E+01  0.40000000000E+01  0.51100000000E-03 0.  1.
    9000002   -1    0    0    0    0 -0.00000000000E+00 -0.00000000000E+00  0.00000000000E+00  0.93800000000E+00  0.93800000000E+00 0.  1.
         11    1    1    2    0    0  0.88379380145E-01  0.99575270868E-02  0.54190062359E+00  0.54915081184E+00  0.51100000000E-03 0.  1.
    9000002    1    1    2    0    0 -0.61064318448E+00 -0.62321679890E-01  0.26366270367E+00  0.11515776621E+01  0.93800000000E+00 0.  1.
         22    1    1    2    0    0  0.52226380433E+00  0.52364152803E-01  0.31944366401E+01  0.32372715261E+01  0.00000000000E+00 0.  1.
</event>
<event>
 5    1  0.5849602E+001  0.1565343E+01  0.7818608E-02  0.3391860E+00
         11   -1    0    0    0    0  0.00000000000E+00  0.00000000000E+00  0.39999999674E+01  0.40000000000E+01  0.51100000000E-03 0. -1.
    9000002   -1    0    0    0    0 -0.00000000000E+00 -0.00000000000E+00  0.00000000000E+00  0.93800000000E+00  0.93800000000E+00 0. -1.
         11    1    1    2    0    0 -0.26291281310E+00  0.65911685788E-01  0.90571048050E+00  0.94539898097E+00  0.51100000000E-03 0. -1.
    9000002    1    1    2    0    0  0.42525298378E+00  0.14982867766E+00  0.16839088909E+00  0.10542714188E+01  0.93800000000E+00 0. -1.
         22    1    1    2    0    0 -0.16234017068E+00 -0.21574036345E+00  0.29258985978E+01  0.29383296003E+01  0.00000000000E+00 0. -1.
</event>
<event>
 5    1  0.5849602E+001  0.1599677E+01  0.7818608E-02  0.3353715E+00
         11   -1    0    0    0    0  0.00000000000E+00  0.00000000000E+00  0.39999999674E+01  0.40000000000E+01  0.51100000000E-03 0.  1.
    9000002   -1    0    0    0    0 -0.00000000000E+00 -0.00000000000E+00  0.00000000000E+00  0.93800000000E+00  0.93800000000E+00 0. -1.
         11    1    1    2    0    0  0.34521437398E-01 -0.68721394609E-01  0.82562660924E+00  0.82920077106E+00  0.51100000000E-03 0.  1.
    9000002    1    1    2    0    0 -0.16324009981E+00  0.32279066671E+00  0.87846322486E-01  0.10091591158E+01  0.93800000000E+00 0. -1.
         22    1    1    2    0    0  0.12871866241E+00 -0.25406927210E+00  0.30865270356E+01  0.30996401131E+01  0.00000000000E+00 0.  1.
</event>
<event>
 5    1  0.5849602E+001  0.1592214E+01  0.7818608E-02  0.3361858E+00
         11   -1    0    0    0    0  0.00000000000E+00  0.00000000000E+00  0.39999999674E+01  0.40000000000E+01  0.51100000000E-03 0. -1.
    9000002   -1    0    0    0    0 -0.00000000000E+00 -0.00000000000E+00  0.00000000000E+00  0.93800000000E+00  0.93800000000E+00 0. -1.
         11    1    1    2    0    0 -0.19518672527E-01  0.50564020914E-01  0.71956295067E+00  0.72160155202E+00  0.51100000000E-03 0. -1.
    9000002    1    1    2    0    0  0.27774948754E+00  0.12830075977E+00  0.68363371367E-01  0.98900122009E+00  0.93800000000E+00 0. -1.
         22    1    1    2    0    0 -0.25823081502E+00 -0.17886478069E+00  0.32120736453E+01  0.32273972279E+01  0.00000000000E+00 0. -1.
</event>
<event>
 5    1  0.5849602E+001  0.1599458E+01  0.7818608E-02  0.3353952E+00
         11   -1    0    0    0    0  0.00000000000E+00  0.00000000000E+00  0.39999999674E+01  0.40000000000E+01  0.51100000000E-03 0.  1.
    9000002   -1    0    0    0    0 -0.00000000000E+00 -0.00000000000E+00  0.00000000000E+00  0.93800000000E+00  0.93800000000E+00 0. -1.
         11    1    1    2    0    0 -0.44176156448E-01  0.64324270507E-01  0.46140711466E+00  0.46795932639E+00  0.51100000000E-03 0.  1.
    9000002    1    1    2    0    0  0.31414867962E+00 -0.59893508950E+00  0.32511895719E+00  0.12012322717E+01  0.93800000000E+00 0. -1.
         22    1    1    2    0    0 -0.26997252317E+00  0.53461081899E+00  0.32134738955E+01  0.32688084019E+01  0.00000000000E+00 0.  1.
</event>
<event>
 5    1  0.5849602E+001  0.1599592E+01  0.7818608E-02  0.3353807E+00
         11   -1    0    0    0    0  0.00000000000E+00  0.00000000000E+00  0.39999999674E+01  0.40000000000E+01  0.51100000000E-03 0. -1.
    9000002   -1    0    0    0    0 -0.00000000000E+00 -0.00000000000E+00  0.00000000000E+00  0.93800000000E+00  0.93800000000E+00 0. -1.
         11    1    1    2    0    0  0.11108643794E+00  0.32057584726E-01  0.82037895986E+00  0.82848644186E+00  0.51100000000E-03 0. -1.
    9000002    1    1    2    0    0 -0.47877734055E+00 -0.13404504910E+00  0.16921634952E+00  0.10750227858E+01  0.93800000000E+00 0. -1.
         22    1    1    2    0    0  0.36769090261E+00  0.10198746437E+00  0.30104046580E+01  0.30344907724E+01  0.00000000000E+00 0. -1.
</event>
<event>
 5    1  0.5849602E+001  0.1598698E+01  0.7818608E-02  0.3354778E+00
         11   -1    0    0    0    0  0.00000000000E+00  0.00000000000E+00  0.39999999674E+01  0.40000000000E+01  0.51100000000E-03 0. -1.
    9000002   -1    0    0    0    0 -0.00000000000E+00 -0.00000000000E+00  0.00000000000E+00  0.93800000000E+00  0.93800000000E+00 0.  1.
         11    1    1    2    0    0 -0.12058008195E+00 -0.46953916490E-01  0.10014028667E+01  0.10097287700E+01  0.51100000000E-03 0. -1.
    9000002    1    1    2    0    0  0.38729753087E+00  0.83216488033E-01  0.10660952811E+00  0.10237841339E+01  0.93800000000E+00 0.  1.
         22    1    1    2    0    0 -0.26671744892E+00 -0.36262571543E-01  0.28919875726E+01  0.29044870962E+01  0.00000000000E+00 0. -1.
</event>
<event>
 5    1  0.5849602E+001  0.1480121E+01  0.7818608E-02  0.3494722E+00
         11   -1    0    0    0    0  0.00000000000E+00  0.00000000000E+00  0.39999999674E+01  0.40000000000E+01  0.51100000000E-03 0.  1.
    9000002   -1    0    0    0    0 -0.00000000000E+00 -0.00000000000E+00  0.00000000000E+00  0.93800000000E+00  0.93800000000E+00 0.  1.
         11    1    1    2    0    0  0.12968058957E+00 -0.32178605642E+00  0.89621959410E+00  0.96102712937E+00  0.51100000000E-03 0.  1.
    9000002    1    1    2    0    0  0.82495947915E-01  0.80061719947E-02  0.97236082129E-01  0.94666178537E+00  0.93800000000E+00 0.  1.
         22    1    1    2    0    0 -0.21217653748E+00  0.31377988442E+00  0.30065442911E+01  0.30303110853E+01  0.00000000000E+00 0.  1.
</event>
<event>
 5    1  0.5849602E+001  0.1599467E+01  0.7818608E-02  0.3353942E+00
         11   -1    0    0    0    0  0.00000000000E+00  0.00000000000E+00  0.39999999674E+01  0.40000000000E+01  0.51100000000E-03 0.  1.
    9000002   -1    0    0    0    0 -0.00000000000E+00 -0.00000000000E+00  0.00000000000E+00  0.93800000000E+00  0.93800000000E+00 0.  1.
         11    1    1    2    0    0 -0.34971341041E-01 -0.15535589661E+00  0.10148516631E+01  0.10272694917E+01  0.51100000000E-03 0.  1.
    9000002    1    1    2    0    0  0.17673639079E+00  0.54406008176E+00  0.22719870409E+00  0.11219181679E+01  0.93800000000E+00 0.  1.
         22    1    1    2    0    0 -0.14176504975E+00 -0.38870418515E+00  0.27579496002E+01  0.27888123404E+01  0.00000000000E+00 0.  1.
</event>
<event>
 5    1  0.5849602E+001  0.1598465E+01  0.7818608E-02  0.3355031E+00
         11   -1    0    0    0    0  0.00000000000E+00  0.00000000000E+00  0.39999999674E+01  0.40000000000E+01  0.51100000000E-03 0.  1.
    9000002   -1    0    0    0    0 -0.00000000000E+00 -0.00000000000E+00  0.00000000000E+00  0.93800000000E+00  0.93800000000E+00 0. -1.
         11    1    1    2    0    0 -0.88830006397E-01 -0.15238927650E+00  0.91269795355E+00  0.92958650871E+00  0.51100000000E-03 0.  1.
    9000002    1    1    2    0    0  0.27176040981E+00  0.51224100607E+00  0.23479297903E+00  0.11274822888E+01  0.93800000000E+00 0. -1.
         22    1    1    2    0    0 -0.18293040342E+00 -0.35985172957E+00  0.28525090348E+01  0.28809312025E+01  0.00000000000E+00 0.  1.
</event>
<event>
 5    1  0.5849602E+001  0.1599639E+01  0.7818608E-02  0.3353755E+00
         11   -1    0    0    0    0  0.00000000000E+00  0.00000000000E+00  0.39999999674E+01  0.40000000000E+01  0.51100000000E-03 0.  1.
    9000002   -1    0    0    0    0 -0.00000000000E+00 -0.00000000000E+00  0.00000000000E+00  0.93800000000E+00  0.93800000000E+00 0. -1.
         11    1    1    2    0    0  0.67703467065E-01  0.84185345867E-01  0.12656514427E+01  0.12702538201E+01  0.51100000000E-03 0.  1.
    9000002    1    1    2    0    0 -0.22276023685E+00 -0.27728325045E+00  0.84909223125E-01  0.10067580148E+01  0.93800000000E+00 0. -1.
         22    1    1    2    0    0  0.15505676978E+00  0.19309790458E+00  0.26494393015E+01  0.26609881652E+01  0.00000000000E+00 0.  1.
</event>
<event>
 5    1  0.5849602E+001  0.1499397E+01  0.7818608E-02  0.3470356E+00
         11   -1    0    0    0    0  0.00000000000E+00  0.00000000000E+00  0.39999999674E+01  0.40000000000E+01  0.51100000000E-03 0. -1.
    9000002   -1    0    0    0    0 -0.00000000000E+00 -0.00000000000E+00  0.00000000000E+00  0.93800000000E+00  0.93800000000E+00 0.  1.
         11    1    1    2    0    0 -0.20309192624E+00  0.43937079158E-01  0.33601508119E+00  0.39507365558E+00  0.51100000000E-03 0. -1.
    9000002    1    1    2    0    0 -0.12993297752E+00  0.68990804619E-01  0.92266440579E-01  0.95393888999E+00  0.93800000000E+00 0.  1.
         22    1    1    2    0    0  0.33302490377E+00 -0.11292788378E+00  0.35717184456E+01  0.35889874544E+01  0.00000000000E+00 0. -1.
</event>
<event>
 5    1  0.5849602E+001  0.1592120E+01  0.7818608E-02  0.3361960E+00
         11   -1    0    0    0    0  0.00000000000E+00  0.00000000000E+00  0.39999999674E+01  0.40000000000E+01  0.51100000000E-03 0. -1.
    9000002   -1    0    0    0    0 -0.00000000000E+00 -0.00000000000E+00  0.00000000000E+00  0.93800000000E+00  0.93800000000E+00 0. -1.
         11    1    1    2    0    0  0.91584530771E-01 -0.11755673118E+00  0.98276492245E+00  0.99399922799E+00  0.51100000000E-03 0. -1.
    9000002    1    1    2    0    0 -0.38163349983E+00  0.10543778531E+00  0.11197985346E+00  0.10242776686E+01  0.93800000000E+00 0. -1.
         22    1    1    2    0    0  0.29004896906E+00  0.12118945873E-01  0.29052551914E+01  0.29197231034E+01  0.00000000000E+00 0. -1.
</event>
<event>
 5    1  0.5849602E+001  0.1599675E+01  0.7818608E-02  0.3353716E+00
         11   -1    0    0    0    0  0.00000000000E+00  0.00000000000E+00  0.39999999674E+01  0.40000000000E+01  0.51100000000E-03 0.  1.
    9000002   -1    0    0    0    0 -0.00000000000E+00 -0.00000000000E+00  0.00000000000E+00  0.93800000000E+00  0.93800000000E+00 0. -1.
         11    1    1    2    0    0 -0.92270661380E-01 -0.42731126948E-01  0.10087404007E+01  0.10138526922E+01  0.51100000000E-03 0.  1.
    9000002    1    1    2    0    0  0.36109276887E+00  0.16561135076E+00  0.10641343621E+00  0.10241986754E+01  0.93800000000E+00 0. -1.
         22    1    1    2    0    0 -0.26882210749E+00 -0.12288022382E+00  0.28848461304E+01  0.28999486325E+01  0.00000000000E+00 0.  1.
</event>
<event>
 5    1  0.5849602E+001  0.1599549E+01  0.7818608E-02  0.3353853E+00
         11   -1    0    0    0    0  0.00000000000E+00  0.00000000000E+00  0.39999999674E+01  0.40000000000E+01  0.51100000000E-03 0.  1.
    9000002   -1    0    0    0    0 -0.00000000000E+00 -0.00000000000E+00  0.00000000000E+00  0.93800000000E+00  0.93800000000E+00 0.  1.
         11    1    1    2    0    0  0.61967593466E-01  0.11492121103E+00  0.10948304710E+01  0.11025882680E+01  0.51100000000E-03 0.  1.
    9000002    1    1    2    0    0 -0.19303705175E+00 -0.43897260672E+00  0.15700783065E+00  0.10651083098E+01  0.93800000000E+00 0.  1.
         22    1    1    2    0    0  0.13106945828E+00  0.32405139569E+00  0.27481616657E+01  0.27703034221E+01  0.00000000000E+00 0.  1.
</event>
<event>
 5    1  0.5849602E+001  0.1599677E+01  0.7818608E-02  0.3353714E+00
         11   -1    0    0    0    0  0.00000000000E+00  0.00000000000E+00  0.39999999674E+01  0.40000000000E+01  0.51100000000E-03 0.  1.
    9000002   -1    0    0    0    0 -0.00000000000E+00 -0.00000000000E+00  0.00000000000E+00  0.93800000000E+00  0.93800000000E+00 0.  1.
         11    1    1    2    0    0  0.75339897681E-01 -0.10418240284E-01  0.63907081856E+00  0.64358092900E+00  0.51100000000E-03 0.  1.
    9000002    1    1    2    0    0 -0.45600596568E+00  0.61169203221E-01  0.14398911711E+00  0.10546373680E+01  0.93800000000E+00 0.  1.
         22    1    1    2    0    0  0.38066606799E+00 -0.50750962937E-01  0.32169400317E+01  0.32397817030E+01  0.00000000000E+00 0.  1.
</event>
<event>
 5    1  0.5849602E+001  0.1599677E+01  0.7818608E-02  0.3353715E+00
         11   -1    0    0    0    0  0.00000000000E+00  0.00000000000E+00  0.39999999674E+01  0.40000000000E+01  0.51100000000E-03 0. -1.
    9000002   -1    0    0    0    0 -0.00000000000E+00 -0.00000000000E+00  0.00000000000E+00  0.93800000000E+00  0.93800000000E+00 0. -1.
         11    1    1    2    0    0  0.10892539983E+00 -0.15135435834E+00  0.12747122305E+01  0.12882796343E+01  0.51100000000E-03 0. -1.
    9000002    1    1    2    0    0 -0.32327954527E+00  0.44773645135E+00  0.21073886937E+00  0.11087075653E+01  0.93800000000E+00 0. -1.
         22    1    1    2    0    0  0.21435414544E+00 -0.29638209300E+00  0.25145488675E+01  0.25410128004E+01  0.00000000000E+00 0.  1.
</event>
<event>
 5    1  0.5849602E+001  0.1599214E+01  0.7818608E-02  0.3354217E+00
         11   -1    0    0    0    0  0.00000000000E+00  0.00000000000E+00  0.39999999674E+01  0.40000000000E+01  0.51100000000E-03 0.  1.
    9000002   -1    0    0    0    0 -0.00000000000E+00 -0.00000000000E+00  0.00000000000E+00  0.93800000000E+00  0.93800000000E+00 0.  1.
         11    1    1    2    0    0 -0.17895257078E+00  0.11104514892E+00  0.12537947129E+01  0.12713600949E+01  0.51100000000E-03 0.  1.
    9000002    1    1    2    0    0  0.47376846179E+00 -0.37224378135E+00  0.25387815286E+00  0.11433809971E+01  0.93800000000E+00 0.  1.
         22    1    1    2    0    0 -0.29481589100E+00  0.26119863243E+00  0.24923271016E+01  0.25232589079E+01  0.00000000000E+00 0.  1.
</event>
<event>
 5    1  0.5849602E+001  0.1599676E+01  0.7818608E-02  0.3353715E+00
         11   -1    0    0    0    0  0.00000000000E+00  0.00000000000E+00  0.39999999674E+01  0.40000000000E+01  0.51100000000E-03 0.  1.
    9000002   -1    0    0    0    0 -0.00000000000E+00 -0.00000000000E+00  0.00000000000E+00  0.93800000000E+00  0.93800000000E+00 0.  1.
         11    1    1    2    0    0 -0.11414689728E+00  0.68424682498E-01  0.11476266766E+01  0.11553175760E+01  0.51100000000E-03 0.  1.
    9000002    1    1    2    0    0  0.38191349010E+00 -0.23367336597E+00  0.13610566979E+00  0.10482508809E+01  0.93800000000E+00 0.  1.
         22    1    1    2    0    0 -0.26776659283E+00  0.16524868347E+00  0.27162676209E+01  0.27344315432E+01  0.00000000000E+00 0.  1.
</event>
<event>
 5    1  0.5849602E+001  0.1599484E+01  0.7818608E-02  0.3353923E+00
         11   -1    0    0    0    0  0.00000000000E+00  0.00000000000E+00  0.39999999674E+01  0.40000000000E+01  0.51100000000E-03 0. -1.
    9000002   -1    0    0    0    0 -0.00000000000E+00 -0.00000000000E+00  0.00000000000E+00  0.93800000000E+00  0.93800000000E+00 0. -1.
         11    1    1    2    0    0  0.65395404907E-01  0.57539256628E-01  0.10709986346E+01  0.10745350909E+01  0.51100000000E-03 0. -1.
    9000002    1    1    2    0    0 -0.27472533540E+00 -0.25073414553E+00  0.93149412246E-01  0.10133422100E+01  0.93800000000E+00 0. -1.
         22    1    1    2    0    0  0.20932993049E+00  0.19319488890E+00  0.28358519205E+01  0.28501226991E+01  0.00000000000E+00 0. -1.
</event>
<event>
 5    1  0.5849602E+001  0.1596108E+01  0.7818608E-02  0.3357598E+00
         11   -1    0    0    0    0  0.00000000000E+00  0.00000000000E+00  0.39999999674E+01  0.40000000000E+01  0.51100000000E-03 0.  1.
    9000002   -1    0    0    0    0 -0.00000000000E+00 -0.00000000000E+00  0.00000000000E+00  0.93800000000E+00  0.93800000000E+00 0. -1.
         11    1    1    2    0    0 -0.68516996224E-01 -0.11545200349E+00  0.64907159102E+00  0.66281063304E+00  0.51100000000E-03 0.  1.
    9000002    1    1    2    0    0  0.26562954431E+00  0.39290867368E+00  0.15648946283E+00  0.10626708016E+01  0.93800000000E+00 0. -1.
         22    1    1    2    0    0 -0.19711254809E+00 -0.27745667019E+00  0.31944389135E+01  0.32125185653E+01  0.00000000000E+00 0.  1.
</event>
<event>
 5    1  0.5849602E+001  0.1599673E+01  0.7818608E-02  0.3353719E+00
         11   -1    0    0    0    0  0.00000000000E+00  0.00000000000E+00  0.39999999674E+01  0.40000000000E+01  0.51100000000E-03 0.  1.
    9000002   -1    0    0    0    0 -0.00000000000E+00 -0.00000000000E+00  0.00000000000E+00  0.93800000000E+00  0.93800000000E+00 0. -1.
         11    1    1    2    0    0 -0.87279809168E-01 -0.18208982706E+00  0.11168286576E+01  0.11349365541E+01  0.51100000000E-03 0.  1.
    9000002    1    1    2    0    0  0.28154262820E+00  0.60447317586E+00  0.31506797926E+00  0.11932166205E+01  0.93800000000E+00 0. -1.
         22    1    1    2    0    0 -0.19426281903E+00 -0.42238334880E+00  0.25681033305E+01  0.26098468254E+01  0.00000000000E+00 0.  1.
</event>
<event>
 5    1  0.5849602E+001  0.1549869E+01  0.7818608E-02  0.3409639E+00
         11   -1    0    0    0    0  0.00000000000E+00  0.00000000000E+00  0.39999999674E+01  0.40000000000E+01  0.51100000000E-03 0. -1.
    9000002   -1    0    0    0    0 -0.00000000000E+00 -0.00000000000E+00  0.00000000000E+00  0.93800000000E+00  0.93800000000E+00 0.  1.
         11    1    1    2    0    0  0.99144628914E-01  0.18407959658E+00  0.75704128046E+00  0.78538316557E+00  0.51100000000E-03 0. -1.
    9000002    1    1    2    0    0  0.18140464696E+00 -0.98432372077E-01  0.66601619977E-01  0.96274417869E+00  0.93800000000E+00 0.  1.
         22    1    1    2    0    0 -0.28054927588E+00 -0.85647224505E-01  0.31763570669E+01  0.31898726557E+01  0.00000000000E+00 0. -1.
</event>
<event>
 5    1  0.5849602E+001  0.1599677E+01  0.7818608E-02  0.3353714E+00
         11   -1    0    0    0    0  0.00000000000E+00  0.00000000000E+00  0.39999999674E+01  0.40000000000E+01  0.51100000000E-03 0.  1.
    9000002   -1    0    0    0    0 -0.00000000000E+00 -0.00000000000E+00  0.00000000000E+00  0.93800000000E+00  0.93800000000E+00 0. -1.
         11    1    1    2    0    0 -0.41812962426E-01 -0.11972901135E+00  0.12901566644E+01  0.12963748839E+01  0.51100000000E-03 0.  1.
    9000002    1    1    2    0    0  0.12430798319E+00  0.36203336610E+00  0.98618617299E-01  0.10178851922E+01  0.93800000000E+00 0. -1.
         22    1    1    2    0    0 -0.82495020759E-01 -0.24230435475E+00  0.26112246857E+01  0.26237399238E+01  0.00000000000E+00 0.  1.
</event>
<event>
 5    1  0.5849602E+001  0.1598483E+01  0.7818608E-02  0.3355011E+00
         11   -1    0    0    0    0  0.00000000000E+00  0.00000000000E+00  0.39999999674E+01  0.40000000000E+01  0.51100000000E-03 0.  1.
    9000002   -1    0    0    0    0 -0.00000000000E+00 -0.00000000000E+00  0.00000000000E+00  0.93800000000E+00  0.93800000000E+00 0.  1.
         11    1    1    2    0    0 -0.83889865374E-01  0.20589158139E-01  0.89528562655E+00  0.89944318174E+00  0.51100000000E-03 0.  1.
    9000002    1    1    2    0    0  0.31169742033E+00 -0.23217752648E+00  0.10273443868E+00  0.10205195003E+01  0.93800000000E+00 0.  1.
         22    1    1    2    0    0 -0.22780755495E+00  0.21158836834E+00  0.30019799021E+01  0.30180373179E+01  0.00000000000E+00 0.  1.
</event>
<event>
 5    1  0.5849602E+001  0.1599672E+01  0.7818608E-02  0.3353720E+00
         11   -1    0    0    0    0  0.00000000000E+00  0.00000000000E+00  0.39999999674E+01  0.40000000000E+01  0.51100000000E-03 0.  1.
    9000002   -1    0    0    0    0 -0.00000000000E+00 -0.00000000000E+00  0.00000000000E+00  0.93800000000E+00  0.93800000000E+00 0. -1.
         11    1    1    2    0    0 -0.18790172327E+00 -0.23116479624E-01  0.14395439780E+01  0.14519395838E+01  0.51100000000E-03 0.  1.
    9000002    1    1    2    0    0  0.49393199229E+00  0.65292703206E-01  0.16988295654E+00  0.10756096732E+01  0.93800000000E+00 0. -1.
         22    1    1    2    0    0 -0.30603026902E+00 -0.42176223582E-01  0.23905730328E+01  0.24104507430E+01  0.00000000000E+00 0.  1.
</event>
<event>
 5    1  0.5849602E+001  0.1539150E+01  0.7818608E-02  0.3422177E+00
         11   -1    0    0    0    0  0.00000000000E+00  0.00000000000E+00  0.39999999674E+01  0.40000000000E+01  0.51100000000E-03 0. -1.
    9000002   -1    0    0    0    0 -0.00000000000E+00 -0.00000000000E+00  0.00000000000E+00  0.93800000000E+00  0.93800000000E+00 0. -1.
         11    1    1    2    0    0  0.12713517015E+00 -0.12814032736E+00  0.13973894630E+01  0.14089999530E+01  0.51100000000E-03 0. -1.
    9000002    1    1    2    0    0  0.39361245255E+00  0.10398870979E+00  0.16438662740E+00  0.10356695312E+01  0.93800000000E+00 0. -1.
         22    1    1    2    0    0 -0.52074762270E+00  0.24151617574E-01  0.24382238769E+01  0.24933305158E+01  0.00000000000E+00 0. -1.
</event>
<event>
 5    1  0.5849602E+001  0.1598958E+01  0.7818608E-02  0.3354495E+00
         11   -1    0    0    0    0  0.00000000000E+00  0.00000000000E+00  0.39999999674E+01  0.40000000000E+01  0.51100000000E-03 0. -1.
    9000002   -1    0    0    0    0 -0.00000000000E+00 -0.00000000000E+00  0.00000000000E+00  0.93800000000E+00  0.93800000000E+00 0. -1.
         11    1    1    2    0    0 -0.17753703790E-02  0.46145610883E-01  0.41264132118E+00  0.41521764222E+00  0.51100000000E-03 0. -1.
    9000002    1    1    2    0    0 -0.15711862679E+00 -0.49261596684E+00  0.18421505419E+00  0.10868007820E+01  0.93800000000E+00 0. -1.
         22    1    1    2    0    0  0.15889399717E+00  0.44647035596E+00  0.34031435920E+01  0.34359815757E+01  0.00000000000E+00 0. -1.
</event>
<event>
 5    1  0.5849602E+001  0.1583813E+01  0.7818608E-02  0.3371122E+00
         11   -1    0    0    0    0  0.00000000000E+00  0.00000000000E+00  0.39999999674E+01  0.40000000000E+01  0.51100000000E-03 0.  1.
    9000002   -1    0    0    0    0 -0.00000000000E+00 -0.00000000000E+00  0.00000000000E+00  0.93800000000E+00  0.93800000000E+00 0.  1.
         11    1    1    2    0    0 -0.36874710233E-01 -0.80209193486E-01  0.44842300721E+00  0.45703032010E+00  0.51100000000E-03 0.  1.
    9000002    1    1    2    0    0  0.26866489388E+00 -0.14169442297E+00  0.74115063832E-01  0.98873412877E+00  0.93800000000E+00 0.  1.
         22    1    1    2    0    0 -0.23179018365E+00  0.22190361646E+00  0.34774618963E+01  0.34922355511E+01  0.00000000000E+00 0.  1.
</event>
<event>
 5    1  0.5849602E+001  0.1599674E+01  0.7818608E-02  0.3353717E+00
         11   -1    0    0    0    0  0.00000000000E+00  0.00000000000E+00  0.39999999674E+01  0.40000000000E+01  0.51100000000E-03 0.  1.
    9000002   -1    0    0    0    0 -0.00000000000E+00 -0.00000000000E+00  0.00000000000E+00  0.93800000000E+00  0.93800000000E+00 0.  1.
         11    1    1    2    0    0 -0.34457635481E-01 -0.96096682928E-03  0.21352753978E+00  0.21629268010E+00  0.51100000000E-03 0.  1.
    9000002    1    1    2    0    0  0.59731528493E+00  0.27964463807E-01  0.24936902344E+00  0.11399984521E+01  0.93800000000E+00 0.  1.
         22    1    1    2    0    0 -0.56285764945E+00 -0.27003496978E-01  0.35371034041E+01  0.35817088678E+01  0.00000000000E+00 0.  1.
</event>
<event>
 5    1  0.5849602E+001  0.1464801E+01  0.7818608E-02  0.3514582E+00
         11   -1    0    0    0    0  0.00000000000E+00  0.00000000000E+00  0.39999999674E+01  0.40000000000E+01  0.51100000000E-03 0. -1.
    9000002   -1    0    0    0    0 -0.00000000000E+00 -0.00000000000E+00  0.00000000000E+00  0.93800000000E+00  0.93800000000E+00 0. -1.
         11    1    1    2    0    0 -0.69457600991E-01 -0.37694643536E+00  0.97773819017E+00  0.10501834140E+01  0.51100000000E-03 0. -1.
    9000002    1    1    2    0    0 -0.58364240256E+00  0.20209805119E+00  0.41982651177E+00  0.11989913996E+01  0.93800000000E+00 0. -1.
         22    1    1    2    0    0  0.65310000355E+00  0.17484838417E+00  0.26024352654E+01  0.26888251864E+01  0.00000000000E+00 0. -1.
</event>
<event>
 5    1  0.5849602E+001  0.1599676E+01  0.7818608E-02  0.3353715E+00
         11   -1    0    0    0    0  0.00000000000E+00  0.00000000000E+00  0.39999999674E+01  0.40000000000E+01  0.51100000000E-03 0.  1.
    9000002   -1    0    0    0    0 -0.00000000000E+00 -0.00000000000E+00  0.00000000000E+00  0.93800000000E+00  0.93800000000E+00 0. -1.
         11    1    1    2    0    0 -0.70893612417E-01 -0.10759778257E+00  0.11173859410E+01  0.11247909981E+01  0.51100000000E-03 0.  1.
    9000002    1    1    2    0    0  0.24566633168E+00  0.37476728340E+00  0.13634443794E+00  0.10484446905E+01  0.93800000000E+00 0. -1.
         22    1    1    2    0    0 -0.17477271926E+00 -0.26716950084E+00  0.27462695884E+01  0.27647643115E+01  0.00000000000E+00 0.  1.
</event>
<event>
 5    1  0.5849602E+001  0.1599561E+01  0.7818608E-02  0.3353840E+00
         11   -1    0    0    0    0  0.00000000000E+00  0.00000000000E+00  0.39999999674E+01  0.40000000000E+01  0.51100000000E-03 0.  1.
    9000002   -1    0    0    0    0 -0.00000000000E+00 -0.00000000000E+00  0.00000000000E+00  0.93800000000E+00  0.93800000000E+00 0.  1.
         11    1    1    2    0    0  0.66990705906E-01 -0.12392915353E-01  0.83541995935E+00  0.83819335993E+00  0.51100000000E-03 0.  1.
    9000002    1    1    2    0    0 -0.35994398682E+00  0.76343004346E-01  0.91058937471E-01  0.10116934605E+01  0.93800000000E+00 0.  1.
         22    1    1    2    0    0  0.29295328091E+00 -0.63950088994E-01  0.30735210705E+01  0.30881131796E+01  0.00000000000E+00 0.  1.
</event>
<event>
 5    1  0.5849602E+001  0.1569529E+01  0.7818608E-02  0.3387114E+00
         11   -1    0    0    0    0  0.00000000000E+00  0.00000000000E+00  0.39999999674E+01  0.40000000000E+01  0.51100000000E-03 0.  1.
    9000002   -1    0    0    0    0 -0.00000000000E+00 -0.00000000000E+00  0.00000000000E+00  0.93800000000E+00  0.93800000000E+00 0.  1.
         11    1    1    2    0    0 -0.19091201294E+00  0.41462341382E-01  0.47145608790E+00  0.51033089890E+00  0.51100000000E-03 0.  1.
    9000002    1    1    2    0    0  0.48070294257E+00  0.84512341629E-01  0.19013984443E+00  0.10743438999E+01  0.93800000000E+00 0.  1.
         22    1    1    2    0    0 -0.28979092963E+00 -0.12597468301E+00  0.33384040350E+01  0.33533252012E+01  0.00000000000E+00 0.  1.
</event>
<event>
 5    1  0.5849602E+001  0.1599670E+01  0.7818608E-02  0.3353722E+00
         11   -1    0    0    0    0  0.00000000000E+00  0.00000000000E+00  0.39999999674E+01  0.40000000000E+01  0.51100000000E-03 0.  1.
    9000002   -1    0    0    0    0 -0.00000000000E+00 -0.00000000000E+00  0.00000000000E+00  0.93800000000E+00  0.93800000000E+00 0. -1.
         11    1    1    2    0    0  0.72205001065E-02  0.17174530307E-01  0.15765841949E+00  0.15875622341E+00  0.51100000000E-03 0.  1.
    9000002    1    1    2    0    0 -0.19494186297E+00 -0.43999667731E+00  0.15806226155E+00  0.10660333412E+01  0.93800000000E+00 0. -1.
         22    1    1    2    0    0  0.18772136286E+00  0.42282214700E+00  0.36842792863E+01  0.37132104354E+01  0.00000000000E+00 0.  1.
</event>
<event>
 5    1  0.7005799E+001  0.1576117E+01  0.7818608E-02  0.3379700E+00
         11   -1    0    0    0    0  0.00000000000E+00  0.00000000000E+00  0.39999999674E+01  0.40000000000E+01  0.51100000000E-03 0.  1.
    9000002   -1    0    0    0    0 -0.00000000000E+00 -0.00000000000E+00  0.00000000000E+00  0.93800000000E+00  0.93800000000E+00 0.  1.
         11    1    1    2    0    0  0.14249335577E+00 -0.12655749274E-01  0.14631866147E+01  0.14701632069E+01  0.51100000000E-03 0.  1.
    9000002    1    1    2    0    0  0.63164356300E-01 -0.14295761264E+00  0.33757824473E-01  0.95153045439E+00  0.93800000000E+00 0.  1.
         22    1    1    2    0    0 -0.20565771207E+00  0.15561336191E+00  0.25030555282E+01  0.25163063387E+01  0.00000000000E+00 0.  1.
</event>
<event>
 5    1  0.5849602E+001  0.1599368E+01  0.7818608E-02  0.3354050E+00
         11   -1    0    0    0    0  0.00000000000E+00  0.00000000000E+00  0.39999999674E+01  0.40000000000E+01  0.51100000000E-03 0.  1.
    9000002   -1    0    0    0    0 -0.00000000000E+00 -0.00000000000E+00  0.00000000000E+00  0.93800000000E+00  0.93800000000E+00 0.  1.
         11    1    1    2    0    0  0.11824807856E+00 -0.10474756134E+00  0.10839538901E+01  0.10954044717E+01  0.51100000000E-03 0.  1.
    9000002    1    1    2    0    0 -0.38918728560E+00  0.30870593729E+00  0.16911149753E+00  0.10748064000E+01  0.93800000000E+00 0.  1.
         22    1    1    2    0    0  0.27093920703E+00 -0.20395837595E+00  0.27469345797E+01  0.27677891282E+01  0.00000000000E+00 0.  1.
</event>
<event>
 5    1  0.5849602E+001  0.1599458E+01  0.7818608E-02  0.3353952E+00
         11   -1    0    0    0    0  0.00000000000E+00  0.00000000000E+00  0.39999999674E+01  0.40000000000E+01  0.51100000000E-03 0.  1.
    9000002   -1    0    0    0    0 -0.00000000000E+00 -0.00000000000E+00  0.00000000000E+00  0.93800000000E+00  0.93800000000E+00 0.  1.
         11    1    1    2    0    0  0.12112356236E-01  0.10929145411E+00  0.12044827860E+01  0.12094917834E+01  0.51100000000E-03 0.  1.
    9000002    1    1    2    0    0 -0.35428778205E-01 -0.40608696700E+00  0.11237403782E+00  0.10288992893E+01  0.93800000000E+00 0.  1.
         22    1    1    2    0    0  0.23316421968E-01  0.29679551289E+00  0.26831431435E+01  0.26996089273E+01  0.00000000000E+00 0. -1.
</event>
<event>
 5    1  0.5849602E+001  0.1599677E+01  0.7818608E-02  0.3353714E+00
         11   -1    0    0    0    0  0.00000000000E+00  0.00000000000E+00  0.39999999674E+01  0.40000000000E+01  0.51100000000E-03 0.  1.
    9000002   -1    0    0    0    0 -0.00000000000E+00 -0.00000000000E+00  0.00000000000E+00  0.93800000000E+00  0.93800000000E+00 0.  1.
         11    1    1    2    0    0 -0.33001938681E-02  0.14868728566E+00  0.12307664537E+01  0.12397197767E+01  0.51100000000E-03 0.  1.
    9000002    1    1    2    0    0  0.11348085811E-01 -0.46435749630E+00  0.14685844222E+00  0.10569617143E+01  0.93800000000E+00 0.  1.
         22    1    1    2    0    0 -0.80478919433E-02  0.31567021064E+00  0.26223750715E+01  0.26413185090E+01  0.00000000000E+00 0.  1.
</event>
<event>
 5    1  0.5849602E+001  0.1599641E+01  0.7818608E-02  0.3353753E+00
         11   -1    0    0    0    0  0.00000000000E+00  0.00000000000E+00  0.39999999674E+01  0.40000000000E+01  0.51100000000E-03 0. -1.
    9000002   -1    0    0    0    0 -0.00000000000E+00 -0.00000000000E+00  0.00000000000E+00  0.93800000000E+00  0.93800000000E+00 0. -1.
         11    1    1    2    0    0 -0.11104655074E-01  0.15490196723E+00  0.87016722938E+00  0.88391696501E+00  0.51100000000E-03 0. -1.
    9000002    1    1    2    0    0  0.64547596396E-01 -0.67341753388E+00  0.32510865565E+00  0.12013314302E+01  0.93800000000E+00 0. -1.
         22    1    1    2    0    0 -0.53442941322E-01  0.51851556665E+00  0.28047240823E+01  0.28527516048E+01  0.00000000000E+00 0. -1.
</event>
<event>
 5    1  0.5849602E+001  0.1599591E+01  0.7818608E-02  0.3353807E+00
         11   -1    0    0    0    0  0.00000000000E+00  0.00000000000E+00  0.39999999674E+01  0.40000000000E+01  0.51100000000E-03 0. -1.
    9000002   -1    0    0    0    0 -0.00000000000E+00 -0.00000000000E+00  0.00000000000E+00  0.93800000000E+00  0.93800000000E+00 0. -1.
         11    1    1    2    0    0  0.12815832926E+00 -0.55702736433E-01  0.13275519497E+01  0.13348864343E+01  0.51100000000E-03 0. -1.
    9000002    1    1    2    0    0 -0.35603873256E+00  0.18728155621E+00  0.10926668809E+00  0.10264605056E+01  0.93800000000E+00 0. -1.
         22    1    1    2    0    0  0.22788040329E+00 -0.13157881977E+00  0.25631813296E+01  0.25766530602E+01  0.00000000000E+00 0. -1.
</event>
<event>
 5    1  0.5849602E+001  0.1599677E+01  0.7818608E-02  0.3353714E+00
         11   -1    0    0    0    0  0.00000000000E+00  0.00000000000E+00  0.39999999674E+01  0.40000000000E+01  0.51100000000E-03 0. -1.
    9000002   -1    0    0    0    0 -0.00000000000E+00 -0.00000000000E+00  0.00000000000E+00  0.93800000000E+00  0.93800000000E+00 0. -1.
         11    1    1    2    0    0  0.94638784847E-01  0.13541015431E+00  0.13776915747E+01  0.13875614385E+01  0.51100000000E-03 0. -1.
    9000002    1    1    2    0    0 -0.26335304400E+00 -0.37990980583E+00  0.14539965258E+00  0.10557799701E+01  0.93800000000E+00 0. -1.
         22    1    1    2    0    0  0.16871425916E+00  0.24449965152E+00  0.24769087401E+01  0.24946585914E+01  0.00000000000E+00 0. -1.
</event>
<event>
 5    1  0.5849602E+001  0.1599675E+01  0.7818608E-02  0.3353716E+00
         11   -1    0    0    0    0  0.00000000000E+00  0.00000000000E+00  0.39999999674E+01  0.40000000000E+01  0.51100000000E-03 0. -1.
    9000002   -1    0    0    0    0 -0.00000000000E+00 -0.00000000000E+00  0.00000000000E+00  0.93800000000E+00  0.93800000000E+00 0. -1.
         11    1    1    2    0    0  0.76422305241E-01  0.56124181414E-02  0.83386332074E+00  0.83737695619E+00  0.51100000000E-03 0. -1.
    9000002    1    1    2    0    0 -0.35853180234E+00 -0.32048936543E-01  0.86977827314E-01  0.10084549222E+01  0.93800000000E+00 0. -1.
         22    1    1    2    0    0  0.28210949710E+00  0.26436518402E-01  0.30791588193E+01  0.30921681216E+01  0.00000000000E+00 0. -1.
</event>
<event>
 5    1  0.5849602E+001  0.1599677E+01  0.7818608E-02  0.3353714E+00
         11   -1    0    0    0    0  0.00000000000E+00  0.00000000000E+00  0.39999999674E+01  0.40000000000E+01  0.51100000000E-03 0. -1.
    9000002   -1    0    0    0    0 -0.00000000000E+00 -0.00000000000E+00  0.00000000000E+00  0.93800000000E+00  0.93800000000E+00 0. -1.
         11    1    1    2    0    0  0.13452087512E+00  0.68610256509E-01  0.13823830600E+01  0.13906064932E+01  0.51100000000E-03 0. -1.
    9000002    1    1    2    0    0 -0.37710530813E+00 -0.19425940972E+00  0.12176781689E+00  0.10366371269E+01  0.93800000000E+00 0. -1.
         22    1    1    2    0    0  0.24258443301E+00  0.12564915322E+00  0.24958490904E+01  0.25107563799E+01  0.00000000000E+00 0. -1.
</event>
<event>
 5    1  0.5849602E+001  0.1599418E+01  0.7818608E-02  0.3353995E+00
         11   -1    0    0    0    0  0.00000000000E+00  0.00000000000E+00  0.39999999674E+01  0.40000000000E+01  0.51100000000E-03 0. -1.
    9000002   -1    0    0    0    0 -0.00000000000E+00 -0.00000000000E+00  0.00000000000E+00  0.93800000000E+00  0.93800000000E+00 0. -1.
         11    1    1    2    0    0 -0.12661693336E-01 -0.19363707946E-01  0.27425999114E+00  0.27523458272E+00  0.51100000000E-03 0. -1.
    9000002    1    1    2    0    0  0.83871232542E-01  0.37809178536E+00  0.10122139642E+00  0.10198419254E+01  0.93800000000E+00 0. -1.
         22    1    1    2    0    0 -0.71209539205E-01 -0.35872807742E+00  0.36245185798E+01  0.36429234918E+01  0.00000000000E+00 0. -1.
</event>
<event>
 5    1  0.5849602E+001  0.1581046E+01  0.7818608E-02  0.3374196E+00
         11   -1    0    0    0    0  0.00000000000E+00  0.00000000000E+00  0.39999999674E+01  0.40000000000E+01  0.51100000000E-03 0.  1.
    9000002   -1    0    0    0    0 -0.00000000000E+00 -0.00000000000E+00  0.00000000000E+00  0.93800000000E+00  0.93800000000E+00 0. -1.
         11    1    1    2    0    0  0.22333339733E+00 -0.10450017918E+00  0.11670517708E+01  0.11928152374E+01  0.51100000000E-03 0.  1.
    9000002    1    1    2    0    0 -0.23818313371E+00  0.39150574055E+00  0.15919156498E+00  0.10560274165E+01  0.93800000000E+00 0. -1.
         22    1    1    2    0    0  0.14849736385E-01 -0.28700556137E+00  0.26737566316E+01  0.26891573461E+01  0.00000000000E+00 0.  1.
</event>
<event>
 5    1  0.5849602E+001  0.1591506E+01  0.7818608E-02  0.3362634E+00
         11   -1    0    0    0    0  0.00000000000E+00  0.00000000000E+00  0.39999999674E+01  0.40000000000E+01  0.51100000000E-03 0. -1.
    9000002   -1    0    0    0    0 -0.00000000000E+00 -0.00000000000E+00  0.00000000000E+00  0.93800000000E+00  0.93800000000E+00 0. -1.
         11    1    1    2    0    0  0.12531580770E+00  0.30255404357E+00  0.13096458280E+01  0.13499686873E+01  0.51100000000E-03 0. -1.
    9000002    1    1    2    0    0 -0.29716358082E+00 -0.56275886527E+00  0.29338539499E+00  0.11708640930E+01  0.93800000000E+00 0. -1.
         22    1    1    2    0    0  0.17184777312E+00  0.26020482170E+00  0.23969687444E+01  0.24171672197E+01  0.00000000000E+00 0. -1.
</event>
<event>
 5    1  0.5849602E+001  0.1598817E+01  0.7818608E-02  0.3354648E+00
         11   -1    0    0    0    0  0.00000000000E+00  0.00000000000E+00  0.39999999674E+01  0.40000000000E+01  0.51100000000E-03 0.  1.
    9000002   -1    0    0    0    0 -0.00000000000E+00 -0.00000000000E+00  0.00000000000E+00  0.93800000000E+00  0.93800000000E+00 0.  1.
         11    1    1    2    0    0 -0.10211275982E+00  0.82314137213E-01  0.12825157554E+01  0.12892050097E+01  0.51100000000E-03 0.  1.
    9000002    1    1    2    0    0  0.40138969625E+00 -0.21318480228E+00  0.14113232058E+00  0.10518192716E+01  0.93800000000E+00 0.  1.
         22    1    1    2    0    0 -0.29927693644E+00  0.13087066507E+00  0.25763518914E+01  0.25969757187E+01  0.00000000000E+00 0.  1.
</event>
<event>
 5    1  0.5849602E+001  0.1549786E+01  0.7818608E-02  0.3409735E+00
         11   -1    0    0    0    0  0.00000000000E+00  0.00000000000E+00  0.39999999674E+01  0.40000000000E+01  0.51100000000E-03 0. -1.
    9000002   -1    0    0    0    0 -0.00000000000E+00 -0.00000000000E+00  0.00000000000E+00  0.93800000000E+00  0.93800000000E+00 0.  1.
         11    1    1    2    0    0  0.16261639530E+00  0.66629426565E-01  0.78943595779E+00  0.80876014063E+00  0.51100000000E-03 0. -1.
    9000002    1    1    2    0    0  0.47360201772E-01  0.31704523597E+00  0.10928392307E+00  0.99727009692E+00  0.93800000000E+00 0.  1.
         22    1    1    2    0    0 -0.20997659707E+00 -0.38367466253E+00  0.31012800865E+01  0.31319697625E+01  0.00000000000E+00 0. -1.
</event>
<event>
 5    1  0.5849602E+001  0.1589342E+01  0.7818608E-02  0.3365013E+00
         11   -1    0    0    0    0  0.00000000000E+00  0.00000000000E+00  0.39999999674E+01  0.40000000000E+01  0.51100000000E-03 0.  1.
    9000002   -1    0    0    0    0 -0.00000000000E+00 -0.00000000000E+00  0.00000000000E+00  0.93800000000E+00  0.93800000000E+00 0.  1.
         11    1    1    2    0    0  0.90842974324E-01  0.71281973362E-01  0.13446734046E+01  0.13496223146E+01  0.51100000000E-03 0.  1.
    9000002    1    1    2    0    0 -0.26824097437E+00  0.13093199186E+00  0.67555715132E-01  0.98666315502E+00  0.93800000000E+00 0.  1.
         22    1    1    2    0    0  0.17739800004E+00 -0.20221396522E+00  0.25877708476E+01  0.26017145304E+01  0.00000000000E+00 0. -1.
</event>
<event>
 5    1  0.5849602E+001  0.1599673E+01  0.7818608E-02  0.3353719E+00
         11   -1    0    0    0    0  0.00000000000E+00  0.00000000000E+00  0.39999999674E+01  0.40000000000E+01  0.51100000000E-03 0. -1.
    9000002   -1    0    0    0    0 -0.00000000000E+00 -0.00000000000E+00  0.00000000000E+00  0.93800000000E+00  0.93800000000E+00 0. -1.
         11    1    1    2    0    0  0.73525582234E-01  0.48594013635E-01  0.83806452450E+00  0.84268606120E+00  0.51100000000E-03 0. -1.
    9000002    1    1    2    0    0 -0.33646592253E+00 -0.21780715971E+00  0.10837588066E+00  0.10257868235E+01  0.93800000000E+00 0. -1.
         22    1    1    2    0    0  0.26294034029E+00  0.16921314607E+00  0.30535595622E+01  0.30695271153E+01  0.00000000000E+00 0. -1.
</event>
<event>
 5    1  0.5849602E+001  0.1520956E+01  0.7818608E-02  0.3443892E+00
         11   -1    0    0    0    0  0.00000000000E+00  0.00000000000E+00  0.39999999674E+01  0.40000000000E+01  0.51100000000E-03 0. -1.
    9000002   -1    0    0    0    0 -0.00000000000E+00 -0.00000000000E+00  0.00000000000E+00  0.93800000000E+00  0.93800000000E+00 0. -1.
         11    1    1    2    0    0  0.92801090936E-01 -0.32195643050E+00  0.29320320775E+00  0.44523742854E+00  0.51100000000E-03 0. -1.
    9000002    1    1    2    0    0  0.22155649853E+00  0.62092873105E-01  0.23091041112E+00  0.99302891443E+00  0.93800000000E+00 0. -1.
         22    1    1    2    0    0 -0.31435758947E+00  0.25986355739E+00  0.34758863485E+01  0.34997336570E+01  0.00000000000E+00 0. -1.
</event>
<event>
 5    1  0.5849602E+001  0.1599662E+01  0.7818608E-02  0.3353731E+00
         11   -1    0    0    0    0  0.00000000000E+00  0.00000000000E+00  0.39999999674E+01  0.40000000000E+01  0.51100000000E-03 0. -1.
    9000002   -1    0    0    0    0 -0.00000000000E+00 -0.00000000000E+00  0.00000000000E+00  0.93800000000E+00  0.93800000000E+00 0.  1.
         11    1    1    2    0    0  0.34263823236E-01 -0.12434273558E-01  0.36398368575E+00  0.36580459996E+00  0.51100000000E-03 0. -1.
    9000002    1    1    2    0    0 -0.34274752175E+00  0.14866752384E+00  0.93854275479E-01  0.10140170222E+01  0.93800000000E+00 0.  1.
         22    1    1    2    0    0  0.30848369852E+00 -0.13623325028E+00  0.35421620061E+01  0.35581783778E+01  0.00000000000E+00 0. -1.
</event>
<event>
 5    1  0.5849602E+001  0.1596210E+01  0.7818608E-02  0.3357488E+00
         11   -1    0    0    0    0  0.00000000000E+00  0.00000000000E+00  0.39999999674E+01  0.40000000000E+01  0.51100000000E-03 0.  1.
    9000002   -1    0    0    0    0 -0.00000000000E+00 -0.00000000000E+00  0.00000000000E+00  0.93800000000E+00  0.93800000000E+00 0.  1.
         11    1    1    2    0    0 -0.18901149132E+00  0.10987298069E+00 -0.35757419985E-02  0.21865603762E+00  0.51100000000E-03 0.  1.
    9000002    1    1    2    0    0 -0.19372692078E+00 -0.25883911650E+00  0.36423273748E+00  0.10568998510E+01  0.93800000000E+00 0.  1.
         22    1    1    2    0    0  0.38273841210E+00  0.14896613582E+00  0.36393429719E+01  0.36624441113E+01  0.00000000000E+00 0.  1.
</event>
<event>
 5    1  0.5849602E+001  0.1599675E+01  0.7818608E-02  0.3353716E+00
         11   -1    0    0    0    0  0.00000000000E+00  0.00000000000E+00  0.39999999674E+01  0.40000000000E+01  0.51100000000E-03 0. -1.
    9000002   -1    0    0    0    0 -0.00000000000E+00 -0.00000000000E+00  0.00000000000E+00  0.93800000000E+00  0.93800000000E+00 0. -1.
         11    1    1    2    0    0  0.13299596748E+00 -0.19202878787E+00  0.12268817265E+01  0.12489203396E+01  0.51100000000E-03 0. -1.
    9000002    1    1    2    0    0 -0.39215116089E+00  0.57037586165E+00  0.34169764906E+00  0.12147890516E+01  0.93800000000E+00 0. -1.
         22    1    1    2    0    0  0.25915519341E+00 -0.37834707378E+00  0.24314205918E+01  0.24742906088E+01  0.00000000000E+00 0. -1.
</event>
<event>
 5    1  0.5849602E+001  0.1582892E+01  0.7818608E-02  0.3372143E+00
         11   -1    0    0    0    0  0.00000000000E+00  0.00000000000E+00  0.39999999674E+01  0.40000000000E+01  0.51100000000E-03 0. -1.
    9000002   -1    0    0    0    0 -0.00000000000E+00 -0.00000000000E+00  0.00000000000E+00  0.93800000000E+00  0.93800000000E+00 0. -1.
         11    1    1    2    0    0 -0.99987865453E-01 -0.63467947977E-01  0.14632095548E+01  0.14679946240E+01  0.51100000000E-03 0. -1.
    9000002    1    1    2    0    0  0.54065690027E+00 -0.11044419873E+00  0.22644519524E+00  0.11115886070E+01  0.93800000000E+00 0. -1.
         22    1    1    2    0    0 -0.44066903482E+00  0.17391214670E+00  0.23103452173E+01  0.23584167690E+01  0.00000000000E+00 0. -1.
</event>
<event>
 5    1  0.5849602E+001  0.1599670E+01  0.7818608E-02  0.3353722E+00
         11   -1    0    0    0    0  0.00000000000E+00  0.00000000000E+00  0.39999999674E+01  0.40000000000E+01  0.51100000000E-03 0. -1.
    9000002   -1    0    0    0    0 -0.00000000000E+00 -0.00000000000E+00  0.00000000000E+00  0.93800000000E+00  0.93800000000E+00 0.  1.
         11    1    1    2    0    0 -0.95356895894E-01 -0.10231484251E-02  0.87896779521E+00  0.88412591330E+00  0.51100000000E-03 0. -1.
    9000002    1    1    2    0    0  0.43202692084E+00  0.55740534366E-02  0.12646803137E+00  0.10404405285E+01  0.93800000000E+00 0.  1.
         22    1    1    2    0    0 -0.33667002495E+00 -0.45509050116E-02  0.29945641408E+01  0.30134335582E+01  0.00000000000E+00 0. -1.
</event>
<event>
 5    1  0.5849602E+001  0.1599676E+01  0.7818608E-02  0.3353715E+00
         11   -1    0    0    0    0  0.00000000000E+00  0.00000000000E+00  0.39999999674E+01  0.40000000000E+01  0.51100000000E-03 0.  1.
    9000002   -1    0    0    0    0 -0.00000000000E+00 -0.00000000000E+00  0.00000000000E+00  0.93800000000E+00  0.93800000000E+00 0.  1.
         11    1    1    2    0    0  0.33617995032E-01  0.11025655263E+00  0.12095823354E+01  0.12150622882E+01  0.51100000000E-03 0.  1.
    9000002    1    1    2    0    0 -0.10565489229E+00 -0.35406144782E+00  0.91743747277E-01  0.10123158501E+01  0.93800000000E+00 0.  1.
         22    1    1    2    0    0  0.72036897260E-01  0.24380489520E+00  0.26986738847E+01  0.27106218617E+01  0.00000000000E+00 0.  1.
</event>
<event>
 5    1  0.5849602E+001  0.1597729E+01  0.7818608E-02  0.3355832E+00
         11   -1    0    0    0    0  0.00000000000E+00  0.00000000000E+00  0.39999999674E+01  0.40000000000E+01  0.51100000000E-03 0. -1.
    9000002   -1    0    0    0    0 -0.00000000000E+00 -0.00000000000E+00  0.00000000000E+00  0.93800000000E+00  0.93800000000E+00 0. -1.
         11    1    1    2    0    0 -0.13919938372E+00 -0.20604608624E-01  0.11137478092E+01  0.11226020942E+01  0.51100000000E-03 0. -1.
    9000002    1    1    2    0    0  0.47844183277E+00  0.23556670590E+00  0.19763583477E+00  0.10969513132E+01  0.93800000000E+00 0. -1.
         22    1    1    2    0    0 -0.33924244905E+00 -0.21496209727E+00  0.26886163234E+01  0.27184465926E+01  0.00000000000E+00 0. -1.
</event>
<event>
 5    1  0.5849602E+001  0.1599582E+01  0.7818608E-02  0.3353818E+00
         11   -1    0    0    0    0  0.00000000000E+00  0.00000000000E+00  0.39999999674E+01  0.40000000000E+01  0.51100000000E-03 0.  1.
    9000002   -1    0    0    0    0 -0.00000000000E+00 -0.00000000000E+00  0.00000000000E+00  0.93800000000E+00  0.93800000000E+00 0. -1.
         11    1    1    2    0    0  0.15877878972E-01 -0.74709527207E-01  0.61430805074E+00  0.61903817558E+00  0.51100000000E-03 0.  1.
    9000002    1    1    2    0    0 -0.63325264253E-01  0.43075237082E+00  0.12855427232E+00  0.10420786415E+01  0.93800000000E+00 0. -1.
         22    1    1    2    0    0  0.47447385280E-01 -0.35604284362E+00  0.32571376443E+01  0.32768831830E+01  0.00000000000E+00 0.  1.
</event>
<event>
 5    1  0.5849602E+001  0.1599353E+01  0.7818608E-02  0.3354066E+00
         11   -1    0    0    0    0  0.00000000000E+00  0.00000000000E+00  0.39999999674E+01  0.40000000000E+01  0.51100000000E-03 0.  1.
    9000002   -1    0    0    0    0 -0.00000000000E+00 -0.00000000000E+00  0.00000000000E+00  0.93800000000E+00  0.93800000000E+00 0. -1.
         11    1    1    2    0    0  0.19690836903E-01  0.36998076093E-01  0.50850028455E+00  0.51022483985E+00  0.51100000000E-03 0.  1.
    9000002    1    1    2    0    0 -0.26058980689E+00 -0.25936036060E+00  0.91081705299E-01  0.10115901943E+01  0.93800000000E+00 0. -1.
         22    1    1    2    0    0  0.24089896998E+00  0.22236228451E+00  0.34004179775E+01  0.34161849659E+01  0.00000000000E+00 0.  1.
</event>
<event>
 5    1  0.5849602E+001  0.1599650E+01  0.7818608E-02  0.3353743E+00
         11   -1    0    0    0    0  0.00000000000E+00  0.00000000000E+00  0.39999999674E+01  0.40000000000E+01  0.51100000000E-03 0. -1.
    9000002   -1    0    0    0    0 -0.00000000000E+00 -0.00000000000E+00  0.00000000000E+00  0.93800000000E+00  0.93800000000E+00 0. -1.
         11    1    1    2    0    0 -0.14540117675E+00  0.46741756425E-01  0.10476715824E+01  0.10587456256E+01  0.51100000000E-03 0. -1.
    9000002    1    1    2    0    0  0.50826530638E+00 -0.16404873148E+00  0.19646117157E+00  0.10971265196E+01  0.93800000000E+00 0. -1.
         22    1    1    2    0    0 -0.36286412963E+00  0.11730697506E+00  0.27558672134E+01  0.27821278549E+01  0.00000000000E+00 0. -1.
</event>
<event>
 5    1  0.5849602E+001  0.1595668E+01  0.7818608E-02  0.3358079E+00
         11   -1    0    0    0    0  0.00000000000E+00  0.00000000000E+00  0.39999999674E+01  0.40000000000E+01  0.51100000000E-03 0. -1.
    9000002   -1    0    0    0    0 -0.00000000000E+00 -0.00000000000E+00  0.00000000000E+00  0.93800000000E+00  0.93800000000E+00 0. -1.
         11    1    1    2    0    0  0.24907652741E+00  0.19193499545E+00  0.12552763537E+01  0.12940622645E+01  0.51100000000E-03 0. -1.
    9000002    1    1    2    0    0 -0.77534691137E+00 -0.34765948835E+00  0.54713091320E+00  0.13788495890E+01  0.93800000000E+00 0. -1.
         22    1    1    2    0    0  0.52627038395E+00  0.15572449290E+00  0.21975927004E+01  0.22650881466E+01  0.00000000000E+00 0. -1.
</event>
<event>
 5    1  0.5849602E+001  0.1599673E+01  0.7818608E-02  0.3353718E+00
         11   -1    0    0    0    0  0.00000000000E+00  0.00000000000E+00  0.39999999674E+01  0.40000000000E+01  0.51100000000E-03 0.  1.
    9000002   -1    0    0    0    0 -0.00000000000E+00 -0.00000000000E+00  0.00000000000E+00  0.93800000000E+00  0.93800000000E+00 0. -1.
         11    1    1    2    0    0 -0.34414778081E-01  0.89406351048E-01  0.88158680837E+00  0.88677699246E+00  0.51100000000E-03 0.  1.
    9000002    1    1    2    0    0  0.15887134605E+00 -0.38932011596E+00  0.11958865914E+00  0.10348698975E+01  0.93800000000E+00 0. -1.
         22    1    1    2    0    0 -0.12445656796E+00  0.29991376491E+00  0.29988244999E+01  0.30163531101E+01  0.00000000000E+00 0.  1.
</event>
<event>
 5    1  0.5849602E+001  0.1582198E+01  0.7818608E-02  0.3372914E+00
         11   -1    0    0    0    0  0.00000000000E+00  0.00000000000E+00  0.39999999674E+01  0.40000000000E+01  0.51100000000E-03 0. -1.
    9000002   -1    0    0    0    0 -0.00000000000E+00 -0.00000000000E+00  0.00000000000E+00  0.93800000000E+00  0.93800000000E+00 0. -1.
         11    1    1    2    0    0 -0.37345139035E-01  0.91733399258E-02  0.96359752151E+00  0.96436468940E+00  0.51100000000E-03 0. -1.
    9000002    1    1    2    0    0  0.22164538537E+00  0.50445421937E+00  0.22644344605E+00  0.11111801702E+01  0.93800000000E+00 0. -1.
         22    1    1    2    0    0 -0.18430024633E+00 -0.51362755930E+00  0.28099589998E+01  0.28624551404E+01  0.00000000000E+00 0. -1.
</event>
<event>
 5    1  0.5849602E+001  0.1568366E+01  0.7818608E-02  0.3388431E+00
         11   -1    0    0    0    0  0.00000000000E+00  0.00000000000E+00  0.39999999674E+01  0.40000000000E+01  0.51100000000E-03 0.  1.
    9000002   -1    0    0    0    0 -0.00000000000E+00 -0.00000000000E+00  0.00000000000E+00  0.93800000000E+00  0.93800000000E+00 0. -1.
         11    1    1    2    0    0 -0.32118625960E-01 -0.70088527181E-02  0.11809029147E-01  0.34934859959E-01  0.51100000000E-03 0.  1.
    9000002    1    1    2    0    0  0.95089403505E-01 -0.34846749945E+00  0.11343190259E+00  0.10115247844E+01  0.93800000000E+00 0. -1.
         22    1    1    2    0    0 -0.62970777545E-01  0.35547635217E+00  0.38747590356E+01  0.38915403557E+01  0.00000000000E+00 0.  1.
</event>
<event>
 5    1  0.5849602E+001  0.1599676E+01  0.7818608E-02  0.3353715E+00
         11   -1    0    0    0    0  0.00000000000E+00  0.00000000000E+00  0.39999999674E+01  0.40000000000E+01  0.51100000000E-03 0.  1.
    9000002   -1    0    0    0    0 -0.00000000000E+00 -0.00000000000E+00  0.00000000000E+00  0.93800000000E+00  0.93800000000E+00 0. -1.
         11    1    1    2    0    0  0.20472639907E+00 -0.12293260638E+00  0.84524080537E+00  0.87832659323E+00  0.51100000000E-03 0.  1.
    9000002    1    1    2    0    0 -0.80125606009E+00  0.48495912717E+00  0.68268893328E+00  0.14910079840E+01  0.93800000000E+00 0. -1.
         22    1    1    2    0    0  0.59652966103E+00 -0.36202652079E+00  0.24720702287E+01  0.25686654227E+01  0.00000000000E+00 0.  1.
</event>
<event>
 5    1  0.5849602E+001  0.1589164E+01  0.7818608E-02  0.3365209E+00
         11   -1    0    0    0    0  0.00000000000E+00  0.00000000000E+00  0.39999999674E+01  0.40000000000E+01  0.51100000000E-03 0.  1.
    9000002   -1    0    0    0    0 -0.00000000000E+00 -0.00000000000E+00  0.00000000000E+00  0.93800000000E+00  0.93800000000E+00 0. -1.
         11    1    1    2    0    0  0.80510873919E-01 -0.14138446614E+00  0.89424858335E+00  0.90892923708E+00  0.51100000000E-03 0.  1.
    9000002    1    1    2    0    0  0.82384644186E-01  0.47214997411E+00  0.16607945437E+00  0.10663672973E+01  0.93800000000E+00 0. -1.
         22    1    1    2    0    0 -0.16289551810E+00 -0.33076550797E+00  0.29396719296E+01  0.29627034656E+01  0.00000000000E+00 0.  1.
</event>
<event>
 5    1  0.5849602E+001  0.1558523E+01  0.7818608E-02  0.3399649E+00
         11   -1    0    0    0    0  0.00000000000E+00  0.00000000000E+00  0.39999999674E+01  0.40000000000E+01  0.51100000000E-03 0. -1.
    9000002   -1    0    0    0    0 -0.00000000000E+00 -0.00000000000E+00  0.00000000000E+00  0.93800000000E+00  0.93800000000E+00 0.  1.
         11    1    1    2    0    0 -0.62310421874E-01 -0.10345261914E+00  0.35352717298E+00  0.37358634375E+00  0.51100000000E-03 0. -1.
    9000002    1    1    2    0    0 -0.20486584724E+00 -0.13066352936E+00  0.71241317620E-01  0.97157722215E+00  0.93800000000E+00 0.  1.
         22    1    1    2    0    0  0.26717626911E+00  0.23411614849E+00  0.35752314768E+01  0.35928364341E+01  0.00000000000E+00 0. -1.
</event>
<event>
 5    1  0.5849602E+001  0.1599672E+01  0.7818608E-02  0.3353720E+00
         11   -1    0    0    0    0  0.00000000000E+00  0.00000000000E+00  0.39999999674E+01  0.40000000000E+01  0.51100000000E-03 0.  1.
    9000002   -1    0    0    0    0 -0.00000000000E+00 -0.00000000000E+00  0.00000000000E+00  0.93800000000E+00  0.93800000000E+00 0. -1.
         11    1    1    2    0    0 -0.16141537288E+00  0.75823601018E-01  0.13291922042E+01  0.13411026501E+01  0.51100000000E-03 0.  1.
    9000002    1    1    2    0    0  0.45812089572E+00 -0.21413827874E+00  0.17523488997E+00  0.10799450098E+01  0.93800000000E+00 0. -1.
         22    1    1    2    0    0 -0.29670552284E+00  0.13831467772E+00  0.24955728731E+01  0.25169523401E+01  0.00000000000E+00 0.  1.
</event>
<event>
 5    1  0.5849602E+001  0.1596951E+01  0.7818608E-02  0.3356680E+00
         11   -1    0    0    0    0  0.00000000000E+00  0.00000000000E+00  0.39999999674E+01  0.40000000000E+01  0.51100000000E-03 0.  1.
    9000002   -1    0    0    0    0 -0.00000000000E+00 -0.00000000000E+00  0.00000000000E+00  0.93800000000E+00  0.93800000000E+00 0.  1.
         11    1    1    2    0    0 -0.32506824274E-02  0.25738310934E-02  0.27925426383E-02  0.50250331470E-02  0.51100000000E-03 0.  1.
    9000002    1    1    2    0    0 -0.75847522087E-02 -0.36860740794E+00  0.93559721793E-01  0.10121889009E+01  0.93800000000E+00 0.  1.
         22    1    1    2    0    0  0.10835434636E-01  0.36603357685E+00  0.39036477029E+01  0.39207860659E+01  0.00000000000E+00 0.  1.
</event>
<event>
 5    1  0.5849602E+001  0.1591222E+01  0.7818608E-02  0.3362946E+00
         11   -1    0    0    0    0  0.00000000000E+00  0.00000000000E+00  0.39999999674E+01  0.40000000000E+01  0.51100000000E-03 0.  1.
    9000002   -1    0    0    0    0 -0.00000000000E+00 -0.00000000000E+00  0.00000000000E+00  0.93800000000E+00  0.93800000000E+00 0.  1.
         11    1    1    2    0    0  0.34538381284E-01  0.15512053610E-01  0.67837914275E+00  0.67943509332E+00  0.51100000000E-03 0.  1.
    9000002    1    1    2    0    0  0.27171624925E+00  0.21687878410E-01  0.56003026349E-01  0.97840708457E+00  0.93800000000E+00 0.  1.
         22    1    1    2    0    0 -0.30625463053E+00 -0.37199932020E-01  0.32656177983E+01  0.32801578221E+01  0.00000000000E+00 0.  1.
</event>
<event>
 5    1  0.5849602E+001  0.1599599E+01  0.7818608E-02  0.3353799E+00
         11   -1    0    0    0    0  0.00000000000E+00  0.00000000000E+00  0.39999999674E+01  0.40000000000E+01  0.51100000000E-03 0. -1.
    9000002   -1    0    0    0    0 -0.00000000000E+00 -0.00000000000E+00  0.00000000000E+00  0.93800000000E+00  0.93800000000E+00 0.  1.
         11    1    1    2    0    0  0.23387570038E-01  0.14220954919E-02  0.25178878705E+00  0.25287715436E+00  0.51100000000E-03 0. -1.
    9000002    1    1    2    0    0 -0.38580246325E+00 -0.98886427332E-01  0.10703495803E+00  0.10246572834E+01  0.93800000000E+00 0.  1.
         22    1    1    2    0    0  0.36241489321E+00  0.97464331840E-01  0.36411762223E+01  0.36604655623E+01  0.00000000000E+00 0. -1.
</event>
<event>
 5    1  0.5849602E+001  0.1599675E+01  0.7818608E-02  0.3353716E+00
         11   -1    0    0    0    0  0.00000000000E+00  0.00000000000E+00  0.39999999674E+01  0.40000000000E+01  0.51100000000E-03 0.  1.
    9000002   -1    0    0    0    0 -0.00000000000E+00 -0.00000000000E+00  0.00000000000E+00  0.93800000000E+00  0.93800000000E+00 0. -1.
         11    1    1    2    0    0 -0.23804739094E+00  0.20487959776E-02  0.12724484989E+01  0.12945254734E+01  0.51100000000E-03 0.  1.
    9000002    1    1    2    0    0  0.68322470007E+00 -0.28170329790E-02  0.33214155791E+00  0.12070484418E+01  0.93800000000E+00 0. -1.
         22    1    1    2    0    0 -0.44517730913E+00  0.76823700143E-03  0.23954099106E+01  0.24364260847E+01  0.00000000000E+00 0.  1.
</event>
<event>
 5    1  0.5849602E+001  0.1598200E+01  0.7818608E-02  0.3355319E+00
         11   -1    0    0    0    0  0.00000000000E+00  0.00000000000E+00  0.39999999674E+01  0.40000000000E+01  0.51100000000E-03 0. -1.
    9000002   -1    0    0    0    0 -0.00000000000E+00 -0.00000000000E+00  0.00000000000E+00  0.93800000000E+00  0.93800000000E+00 0. -1.
         11    1    1    2    0    0 -0.16638131664E-01  0.67805730210E-01  0.34304487744E+00  0.35007783925E+00  0.51100000000E-03 0. -1.
    9000002    1    1    2    0    0  0.26097248287E+00 -0.46538667426E+00  0.19740886477E+00  0.10970440526E+01  0.93800000000E+00 0. -1.
         22    1    1    2    0    0 -0.24433435120E+00  0.39758094405E+00  0.34595462251E+01  0.34908781082E+01  0.00000000000E+00 0. -1.
</event>
<event>
 5    1  0.5849602E+001  0.1599677E+01  0.7818608E-02  0.3353714E+00
         11   -1    0    0    0    0  0.00000000000E+00  0.00000000000E+00  0.39999999674E+01  0.40000000000E+01  0.51100000000E-03 0. -1.
    9000002   -1    0    0    0    0 -0.00000000000E+00 -0.00000000000E+00  0.00000000000E+00  0.93800000000E+00  0.93800000000E+00 0. -1.
         11    1    1    2    0    0  0.47693506166E-01  0.59280504806E-01  0.75816501326E+00  0.76197329168E+00  0.51100000000E-03 0. -1.
    9000002    1    1    2    0    0 -0.24578303151E+00 -0.30306390713E+00  0.10257334551E+00  0.10210887922E+01  0.93800000000E+00 0. -1.
         22    1    1    2    0    0  0.19808952535E+00  0.24378340232E+00  0.31392616086E+01  0.31549379161E+01  0.00000000000E+00 0. -1.
</event>
<event>
 5    1  0.5849602E+001  0.1599676E+01  0.7818608E-02  0.3353716E+00
         11   -1    0    0    0    0  0.00000000000E+00  0.00000000000E+00  0.39999999674E+01  0.40000000000E+01  0.51100000000E-03 0.  1.
    9000002   -1    0    0    0    0 -0.00000000000E+00 -0.00000000000E+00  0.00000000000E+00  0.93800000000E+00  0.93800000000E+00 0.  1.
         11    1    1    2    0    0 -0.50341742130E-01 -0.23987433537E-01  0.57795464306E+00  0.58063888823E+00  0.51100000000E-03 0.  1.
    9000002    1    1    2    0    0  0.34045900474E+00  0.16842593780E+00  0.97076452455E-01  0.10166353663E+01  0.93800000000E+00 0.  1.
         22    1    1    2    0    0 -0.29011726261E+00 -0.14443850426E+00  0.33249688718E+01  0.33407257454E+01  0.00000000000E+00 0.  1.
</event>
<event>
 5    1  0.5849602E+001  0.1599646E+01  0.7818608E-02  0.3353748E+00
         11   -1    0    0    0    0  0.00000000000E+00  0.00000000000E+00  0.39999999674E+01  0.40000000000E+01  0.51100000000E-03 0. -1.
    9000002   -1    0    0    0    0 -0.00000000000E+00 -0.00000000000E+00  0.00000000000E+00  0.93800000000E+00  0.93800000000E+00 0. -1.
         11    1    1    2    0    0 -0.39831218327E-01 -0.11166986804E+00  0.10794406516E+01  0.10859323491E+01  0.51100000000E-03 0. -1.
    9000002    1    1    2    0    0  0.12160386851E+00  0.40216760495E+00  0.11941416443E+00  0.10347125330E+01  0.93800000000E+00 0. -1.
         22    1    1    2    0    0 -0.81772650179E-01 -0.29049773691E+00  0.28011451514E+01  0.28173551179E+01  0.00000000000E+00 0. -1.
</event>
<event>
 5    1  0.5849602E+001  0.1599658E+01  0.7818608E-02  0.3353735E+00
         11   -1    0    0    0    0  0.00000000000E+00  0.00000000000E+00  0.39999999674E+01  0.40000000000E+01  0.51100000000E-03 0. -1.
    9000002   -1    0    0    0    0 -0.00000000000E+00 -0.00000000000E+00  0.00000000000E+00  0.93800000000E+00  0.93800000000E+00 0.  1.
         11    1    1    2    0    0 -0.98754211108E-01  0.63544405174E-01  0.78210108802E+00  0.79086829412E+00  0.51100000000E-03 0. -1.
    9000002    1    1    2    0    0  0.45990024906E+00 -0.31741650161E+00  0.21606188692E+00  0.11130086314E+01  0.93800000000E+00 0.  1.
         22    1    1    2    0    0 -0.36114603795E+00  0.25387209644E+00  0.30018369924E+01  0.30341230745E+01  0.00000000000E+00 0. -1.
</event>
<event>
 5    1  0.5849602E+001  0.1599626E+01  0.7818608E-02  0.3353770E+00
         11   -1    0    0    0    0  0.00000000000E+00  0.00000000000E+00  0.39999999674E+01  0.40000000000E+01  0.51100000000E-03 0.  1.
    9000002   -1    0    0    0    0 -0.00000000000E+00 -0.00000000000E+00  0.00000000000E+00  0.93800000000E+00  0.93800000000E+00 0. -1.
         11    1    1    2    0    0 -0.40800051743E-01  0.15417931060E+00  0.14531195839E+01  0.14618456452E+01  0.51100000000E-03 0.  1.
    9000002    1    1    2    0    0  0.13101279398E+00 -0.41016772494E+00  0.12561484877E+00  0.10397235233E+01  0.93800000000E+00 0. -1.
         22    1    1    2    0    0 -0.90212742242E-01  0.25598841434E+00  0.24212655347E+01  0.24364308314E+01  0.00000000000E+00 0.  1.
</event>
<event>
 5    1  0.5849602E+001  0.1599677E+01  0.7818608E-02  0.3353714E+00
         11   -1    0    0    0    0  0.00000000000E+00  0.00000000000E+00  0.39999999674E+01  0.40000000000E+01  0.51100000000E-03 0. -1.
    9000002   -1    0    0    0    0 -0.00000000000E+00 -0.00000000000E+00  0.00000000000E+00  0.93800000000E+00  0.93800000000E+00 0. -1.
         11    1    1    2    0    0 -0.48218710659E-01  0.11143691136E+00  0.13464872488E+01  0.13519509612E+01  0.51100000000E-03 0.  1.
    9000002    1    1    2    0    0  0.14041784790E+00 -0.32445025944E+00  0.83836689025E-01  0.10059113944E+01  0.93800000000E+00 0. -1.
         22    1    1    2    0    0 -0.92199137239E-01  0.21301334809E+00  0.25696760296E+01  0.25801376444E+01  0.00000000000E+00 0. -1.
</event>
<event>
 5    1  0.5849602E+001  0.1599438E+01  0.7818608E-02  0.3353973E+00
         11   -1    0    0    0    0  0.00000000000E+00  0.00000000000E+00  0.39999999674E+01  0.40000000000E+01  0.51100000000E-03 0.  1.
    9000002   -1    0    0    0    0 -0.00000000000E+00 -0.00000000000E+00  0.00000000000E+00  0.93800000000E+00  0.93800000000E+00 0.  1.
         11    1    1    2    0    0 -0.11721646163E-02 -0.68670419522E-01  0.50710956792E+00  0.51173955826E+00  0.51100000000E-03 0.  1.
    9000002    1    1    2    0    0  0.36694439786E-01  0.43207802293E+00  0.12761482501E+00  0.10412336161E+01  0.93800000000E+00 0.  1.
         22    1    1    2    0    0 -0.35522275169E-01 -0.36340760340E+00  0.33652755744E+01  0.33850268256E+01  0.00000000000E+00 0.  1.
</event>
<event>
 5    1  0.5849602E+001  0.1599675E+01  0.7818608E-02  0.3353716E+00
         11   -1    0    0    0    0  0.00000000000E+00  0.00000000000E+00  0.39999999674E+01  0.40000000000E+01  0.51100000000E-03 0.  1.
    9000002   -1    0    0    0    0 -0.00000000000E+00 -0.00000000000E+00  0.00000000000E+00  0.93800000000E+00  0.93800000000E+00 0. -1.
         11    1    1    2    0    0 -0.53739228698E-02  0.10952850527E-01  0.11134654284E+00  0.11201409601E+00  0.51100000000E-03 0. -1.
    9000002    1    1    2    0    0  0.17899972931E+00 -0.38397893613E+00  0.12144569575E+00  0.10363753102E+01  0.93800000000E+00 0. -1.
         22    1    1    2    0    0 -0.17362580644E+00  0.37302608560E+00  0.37672077288E+01  0.37896105938E+01  0.00000000000E+00 0.  1.
</event>
<event>
 5    1  0.5849602E+001  0.1599676E+01  0.7818608E-02  0.3353716E+00
         11   -1    0    0    0    0  0.00000000000E+00  0.00000000000E+00  0.39999999674E+01  0.40000000000E+01  0.51100000000E-03 0.  1.
    9000002   -1    0    0    0    0 -0.00000000000E+00 -0.00000000000E+00  0.00000000000E+00  0.93800000000E+00  0.93800000000E+00 0.  1.
         11    1    1    2    0    0 -0.17333446044E+00  0.12778194800E-01  0.96404509463E+00  0.97958732283E+00  0.51100000000E-03 0.  1.
    9000002    1    1    2    0    0  0.66543102823E+00 -0.45004119766E-01  0.31519537012E+00  0.11933213924E+01  0.93800000000E+00 0.  1.
         22    1    1    2    0    0 -0.49209656780E+00  0.32225924966E-01  0.27207595026E+01  0.27650912848E+01  0.00000000000E+00 0.  1.
</event>
<event>
 5    1  0.5849602E+001  0.1599254E+01  0.7818608E-02  0.3354173E+00
         11   -1    0    0    0    0  0.00000000000E+00  0.00000000000E+00  0.39999999674E+01  0.40000000000E+01  0.51100000000E-03 0.  1.
    9000002   -1    0    0    0    0 -0.00000000000E+00 -0.00000000000E+00  0.00000000000E+00  0.93800000000E+00  0.93800000000E+00 0.  1.
         11    1    1    2    0    0 -0.15343669724E-01  0.34175465006E-01  0.22040347121E+00  0.22356507297E+00  0.51100000000E-03 0.  1.
    9000002    1    1    2    0    0  0.26641366815E+00 -0.39411503733E+00  0.15467867293E+00  0.10630486335E+01  0.93800000000E+00 0.  1.
         22    1    1    2    0    0 -0.25106999843E+00  0.35993957232E+00  0.36249178232E+01  0.36513862936E+01  0.00000000000E+00 0.  1.
</event>
<event>
 5    1  0.5849602E+001  0.1599675E+01  0.7818608E-02  0.3353716E+00
         11   -1    0    0    0    0  0.00000000000E+00  0.00000000000E+00  0.39999999674E+01  0.40000000000E+01  0.51100000000E-03 0.  1.
    9000002   -1    0    0    0    0 -0.00000000000E+00 -0.00000000000E+00  0.00000000000E+00  0.93800000000E+00  0.93800000000E+00 0.  1.
         11    1    1    2    0    0 -0.12023544594E+00 -0.14028111175E-01  0.10927762597E+01  0.10994605793E+01  0.51100000000E-03 0.  1.
    9000002    1    1    2    0    0  0.42758822711E+00  0.44874004210E-01  0.12518446969E+00  0.10394039252E+01  0.93800000000E+00 0.  1.
         22    1    1    2    0    0 -0.30735278117E+00 -0.30845893036E-01  0.27820392379E+01  0.27991354956E+01  0.00000000000E+00 0.  1.
</event>
<event>
 5    1  0.5849602E+001  0.1599674E+01  0.7818608E-02  0.3353717E+00
         11   -1    0    0    0    0  0.00000000000E+00  0.00000000000E+00  0.39999999674E+01  0.40000000000E+01  0.51100000000E-03 0. -1.
    9000002   -1    0    0    0    0 -0.00000000000E+00 -0.00000000000E+00  0.00000000000E+00  0.93800000000E+00  0.93800000000E+00 0.  1.
         11    1    1    2    0    0  0.21830297938E-02 -0.12690506275E+00  0.98251716119E+00  0.99068152992E+00  0.51100000000E-03 0. -1.
    9000002    1    1    2    0    0 -0.44876935214E-02  0.50036468890E+00  0.17141635886E+00  0.10768530677E+01  0.93800000000E+00 0.  1.
         22    1    1    2    0    0  0.23046637275E-02 -0.37345962615E+00  0.28460664473E+01  0.28704654024E+01  0.00000000000E+00 0. -1.
</event>
<event>
 5    1  0.5849602E+001  0.1591801E+01  0.7818608E-02  0.3362311E+00
         11   -1    0    0    0    0  0.00000000000E+00  0.00000000000E+00  0.39999999674E+01  0.40000000000E+01  0.51100000000E-03 0.  1.
    9000002   -1    0    0    0    0 -0.00000000000E+00 -0.00000000000E+00  0.00000000000E+00  0.93800000000E+00  0.93800000000E+00 0.  1.
         11    1    1    2    0    0  0.53316370758E-01  0.69895198600E-01  0.47997540309E+00  0.48795965291E+00  0.51100000000E-03 0.  1.
    9000002    1    1    2    0    0  0.12061006826E+00 -0.41983999024E+00  0.13611328697E+00  0.10436394171E+01  0.93800000000E+00 0.  1.
         22    1    1    2    0    0 -0.17392643902E+00  0.34994479164E+00  0.33839112773E+01  0.34064009300E+01  0.00000000000E+00 0.  1.
</event>
<event>
 5    1  0.5849602E+001  0.1598836E+01  0.7818608E-02  0.3354628E+00
         11   -1    0    0    0    0  0.00000000000E+00  0.00000000000E+00  0.39999999674E+01  0.40000000000E+01  0.51100000000E-03 0. -1.
    9000002   -1    0    0    0    0 -0.00000000000E+00 -0.00000000000E+00  0.00000000000E+00  0.93800000000E+00  0.93800000000E+00 0.  1.
         11    1    1    2    0    0 -0.12049453181E+00  0.15835022333E-01  0.86647261928E+00  0.87495413664E+00  0.51100000000E-03 0. -1.
    9000002    1    1    2    0    0  0.56630066850E+00 -0.18827935579E+00  0.24914532008E+00  0.11393256573E+01  0.93800000000E+00 0.  1.
         22    1    1    2    0    0 -0.44580613669E+00  0.17244433346E+00  0.28843820280E+01  0.29237202060E+01  0.00000000000E+00 0. -1.
</event>
<event>
 5    1  0.5849602E+001  0.1387799E+01  0.7818608E-02  0.3626631E+00
         11   -1    0    0    0    0  0.00000000000E+00  0.00000000000E+00  0.39999999674E+01  0.40000000000E+01  0.51100000000E-03 0.  1.
    9000002   -1    0    0    0    0 -0.00000000000E+00 -0.00000000000E+00  0.00000000000E+00  0.93800000000E+00  0.93800000000E+00 0.  1.
         11    1    1    2    0    0  0.55427306427E+00  0.79379219489E-01  0.10580308113E+00  0.56983703228E+00  0.51100000000E-03 0.  1.
    9000002    1    1    2    0    0 -0.77995748226E+00 -0.61354802717E+00  0.23396614317E+01  0.27089914121E+01  0.93800000000E+00 0.  1.
         22    1    1    2    0    0  0.22568441799E+00  0.53416880768E+00  0.15545354545E+01  0.16591715556E+01  0.00000000000E+00 0. -1.
</event>
<event>
 5    1  0.5849602E+001  0.1599553E+01  0.7818608E-02  0.3353848E+00
         11   -1    0    0    0    0  0.00000000000E+00  0.00000000000E+00  0.39999999674E+01  0.40000000000E+01  0.51100000000E-03 0. -1.
    9000002   -1    0    0    0    0 -0.00000000000E+00 -0.00000000000E+00  0.00000000000E+00  0.93800000000E+00  0.93800000000E+00 0.  1.
         11    1    1    2    0    0  0.69389275147E-01 -0.15727935120E+00  0.14720376565E+01  0.14820414262E+01  0.51100000000E-03 0. -1.
    9000002    1    1    2    0    0 -0.21337586630E+00  0.39917490960E+00  0.13930553499E+00  0.10507710982E+01  0.93800000000E+00 0.  1.
         22    1    1    2    0    0  0.14398659115E+00 -0.24189555840E+00  0.23886567759E+01  0.24051874756E+01  0.00000000000E+00 0. -1.
</event>
<event>
 5    1  0.5849602E+001  0.1595675E+01  0.7818608E-02  0.3358071E+00
         11   -1    0    0    0    0  0.00000000000E+00  0.00000000000E+00  0.39999999674E+01  0.40000000000E+01  0.51100000000E-03 0. -1.
    9000002   -1    0    0    0    0 -0.00000000000E+00 -0.00000000000E+00  0.00000000000E+00  0.93800000000E+00  0.93800000000E+00 0.  1.
         11    1    1    2    0    0 -0.95273915182E-01 -0.44388845149E-01  0.50849619127E+00  0.51924572810E+00  0.51100000000E-03 0. -1.
    9000002    1    1    2    0    0  0.33587865462E+00  0.43641238775E+00  0.21328648247E+00  0.11084247229E+01  0.93800000000E+00 0.  1.
         22    1    1    2    0    0 -0.24060473943E+00 -0.39202354260E+00  0.32782172936E+01  0.33103295490E+01  0.00000000000E+00 0. -1.
</event>
<event>
 5    1  0.5849602E+001  0.1599194E+01  0.7818608E-02  0.3354239E+00
         11   -1    0    0    0    0  0.00000000000E+00  0.00000000000E+00  0.39999999674E+01  0.40000000000E+01  0.51100000000E-03 0. -1.
    9000002   -1    0    0    0    0 -0.00000000000E+00 -0.00000000000E+00  0.00000000000E+00  0.93800000000E+00  0.93800000000E+00 0. -1.
         11    1    1    2    0    0  0.80771189810E-01  0.91237446618E-01  0.10780324094E+01  0.10848974116E+01  0.51100000000E-03 0. -1.
    9000002    1    1    2    0    0 -0.29240275704E+00 -0.24440522979E+00  0.98128797821E-01  0.10172052643E+01  0.93800000000E+00 0. -1.
         22    1    1    2    0    0  0.21163156723E+00  0.15316778317E+00  0.28238387601E+01  0.28358973242E+01  0.00000000000E+00 0.  1.
</event>
<event>
 5    1  0.5849602E+001  0.1598274E+01  0.7818608E-02  0.3355239E+00
         11   -1    0    0    0    0  0.00000000000E+00  0.00000000000E+00  0.39999999674E+01  0.40000000000E+01  0.51100000000E-03 0.  1.
    9000002   -1    0    0    0    0 -0.00000000000E+00 -0.00000000000E+00  0.00000000000E+00  0.93800000000E+00  0.93800000000E+00 0. -1.
         11    1    1    2    0    0  0.17532023814E-05 -0.51182655786E-01  0.57599261378E+00  0.57826241146E+00  0.51100000000E-03 0.  1.
    9000002    1    1    2    0    0  0.72171423831E-01  0.53919542654E+00  0.20549312961E+00  0.11036357410E+01  0.93800000000E+00 0. -1.
         22    1    1    2    0    0 -0.72173177034E-01 -0.48801277075E+00  0.32185142240E+01  0.32561018476E+01  0.00000000000E+00 0.  1.
</event>
<event>
 5    1  0.5849602E+001  0.1599670E+01  0.7818608E-02  0.3353722E+00
         11   -1    0    0    0    0  0.00000000000E+00  0.00000000000E+00  0.39999999674E+01  0.40000000000E+01  0.51100000000E-03 0.  1.
    9000002   -1    0    0    0    0 -0.00000000000E+00 -0.00000000000E+00  0.00000000000E+00  0.93800000000E+00  0.93800000000E+00 0.  1.
         11    1    1    2    0    0  0.26815846024E-01  0.40079955753E-01  0.35726969860E+00  0.36050990431E+00  0.51100000000E-03 0.  1.
    9000002    1    1    2    0    0 -0.28290844360E+00 -0.41045352729E+00  0.17008245038E+00  0.10757701081E+01  0.93800000000E+00 0.  1.
         22    1    1    2    0    0  0.25609259757E+00  0.37037357154E+00  0.34726478184E+01  0.35017199876E+01  0.00000000000E+00 0.  1.
</event>
<event>
 5    1  0.5849602E+001  0.1599635E+01  0.7818608E-02  0.3353759E+00
         11   -1    0    0    0    0  0.00000000000E+00  0.00000000000E+00  0.39999999674E+01  0.40000000000E+01  0.51100000000E-03 0.  1.
    9000002   -1    0    0    0    0 -0.00000000000E+00 -0.00000000000E+00  0.00000000000E+00  0.93800000000E+00  0.93800000000E+00 0.  1.
         11    1    1    2    0    0  0.34974367252E-02 -0.31738264901E-01  0.35811833467E+00  0.35953936123E+00  0.51100000000E-03 0.  1.
    9000002    1    1    2    0    0 -0.18728438394E-01  0.39008222781E+00  0.10278541155E+00  0.10212363780E+01  0.93800000000E+00 0.  1.
         22    1    1    2    0    0  0.15231001669E-01 -0.35834396291E+00  0.35390962211E+01  0.35572242608E+01  0.00000000000E+00 0.  1.
</event>
<event>
 5    1  0.5849602E+001  0.1599667E+01  0.7818608E-02  0.3353725E+00
         11   -1    0    0    0    0  0.00000000000E+00  0.00000000000E+00  0.39999999674E+01  0.40000000000E+01  0.51100000000E-03 0. -1.
    9000002   -1    0    0    0    0 -0.00000000000E+00 -0.00000000000E+00  0.00000000000E+00  0.93800000000E+00  0.93800000000E+00 0.  1.
         11    1    1    2    0    0  0.77114359615E-01 -0.30766764425E-01  0.84827283998E+00  0.85232639899E+00  0.51100000000E-03 0. -1.
    9000002    1    1    2    0    0 -0.36447228127E+00  0.13102152357E+00  0.10102911603E+00  0.10198321263E+01  0.93800000000E+00 0.  1.
         22    1    1    2    0    0  0.28735792166E+00 -0.10025475915E+00  0.30506980113E+01  0.30658414748E+01  0.00000000000E+00 0. -1.
</event>
<event>
 5    1  0.5849602E+001  0.1485573E+01  0.7818608E-02  0.3487761E+00
         11   -1    0    0    0    0  0.00000000000E+00  0.00000000000E+00  0.39999999674E+01  0.40000000000E+01  0.51100000000E-03 0.  1.
    9000002   -1    0    0    0    0 -0.00000000000E+00 -0.00000000000E+00  0.00000000000E+00  0.93800000000E+00  0.93800000000E+00 0.  1.
         11    1    1    2    0    0  0.14316451012E+00 -0.81483490808E-01  0.13369796131E+00  0.21215805950E+00  0.51100000000E-03 0.  1.
    9000002    1    1    2    0    0  0.44296488143E+00  0.52632388703E+00  0.47639158805E+00  0.12569915137E+01  0.93800000000E+00 0.  1.
         22    1    1    2    0    0 -0.58612939154E+00 -0.44484039622E+00  0.33899104180E+01  0.34688504268E+01  0.00000000000E+00 0.  1.
</event>
<event>
 5    1  0.5849602E+001  0.1599663E+01  0.7818608E-02  0.3353729E+00
         11   -1    0    0    0    0  0.00000000000E+00  0.00000000000E+00  0.39999999674E+01  0.40000000000E+01  0.51100000000E-03 0. -1.
    9000002   -1    0    0    0    0 -0.00000000000E+00 -0.00000000000E+00  0.00000000000E+00  0.93800000000E+00  0.93800000000E+00 0.  1.
         11    1    1    2    0    0  0.38673809040E-01 -0.48472439933E-01  0.50009905414E+00  0.50392912796E+00  0.51100000000E-03 0. -1.
    9000002    1    1    2    0    0 -0.28119392599E+00  0.35888885081E+00  0.14131908349E+00  0.10524667760E+01  0.93800000000E+00 0.  1.
         22    1    1    2    0    0  0.24252011695E+00 -0.31041641088E+00  0.33585818297E+01  0.33816040960E+01  0.00000000000E+00 0. -1.
</event>
<event>
 5    1  0.5849602E+001  0.1544139E+01  0.7818608E-02  0.3416318E+00
         11   -1    0    0    0    0  0.00000000000E+00  0.00000000000E+00  0.39999999674E+01  0.40000000000E+01  0.51100000000E-03 0.  1.
    9000002   -1    0    0    0    0 -0.00000000000E+00 -0.00000000000E+00  0.00000000000E+00  0.93800000000E+00  0.93800000000E+00 0.  1.
         11    1    1    2    0    0  0.12525936202E+00  0.53715148284E-01  0.26502158473E+00  0.29801329907E+00  0.51100000000E-03 0.  1.
    9000002    1    1    2    0    0  0.12836549300E-01  0.28326022734E+00  0.97986554247E-01  0.98480784837E+00  0.93800000000E+00 0.  1.
         22    1    1    2    0    0 -0.13809591132E+00 -0.33697537562E+00  0.36369918284E+01  0.36551788526E+01  0.00000000000E+00 0.  1.
</event>
<event>
 5    1  0.5849602E+001  0.1549884E+01  0.7818608E-02  0.3409620E+00
         11   -1    0    0    0    0  0.00000000000E+00  0.00000000000E+00  0.39999999674E+01  0.40000000000E+01  0.51100000000E-03 0.  1.
    9000002   -1    0    0    0    0 -0.00000000000E+00 -0.00000000000E+00  0.00000000000E+00  0.93800000000E+00  0.93800000000E+00 0. -1.
         11    1    1    2    0    0 -0.58852529644E-01 -0.17121740906E+00  0.66111200803E+00  0.68545486335E+00  0.51100000000E-03 0.  1.
    9000002    1    1    2    0    0  0.13065757936E+00 -0.16015084257E+00  0.66675376998E-01  0.96281322245E+00  0.93800000000E+00 0. -1.
         22    1    1    2    0    0 -0.71805049720E-01  0.33136825162E+00  0.32722125823E+01  0.32897319142E+01  0.00000000000E+00 0.  1.
</event>
<event>
 5    1  0.5849602E+001  0.1599673E+01  0.7818608E-02  0.3353718E+00
         11   -1    0    0    0    0  0.00000000000E+00  0.00000000000E+00  0.39999999674E+01  0.40000000000E+01  0.51100000000E-03 0.  1.
    9000002   -1    0    0    0    0 -0.00000000000E+00 -0.00000000000E+00  0.00000000000E+00  0.93800000000E+00  0.93800000000E+00 0.  1.
         11    1    1    2    0    0 -0.21795001463E-01  0.36869986814E-01  0.48219501721E+00  0.48409370350E+00  0.51100000000E-03 0.  1.
    9000002    1    1    2    0    0  0.18458436090E+00 -0.30800821665E+00  0.86546668483E-01  0.10081045450E+01  0.93800000000E+00 0.  1.
         22    1    1    2    0    0 -0.16278935944E+00  0.27113822984E+00  0.34312582817E+01  0.34458017515E+01  0.00000000000E+00 0.  1.
</event>
<event>
 5    1  0.5849602E+001  0.1599650E+01  0.7818608E-02  0.3353743E+00
         11   -1    0    0    0    0  0.00000000000E+00  0.00000000000E+00  0.39999999674E+01  0.40000000000E+01  0.51100000000E-03 0.  1.
    9000002   -1    0    0    0    0 -0.00000000000E+00 -0.00000000000E+00  0.00000000000E+00  0.93800000000E+00  0.93800000000E+00 0. -1.
         11    1    1    2    0    0  0.12623834737E+00 -0.36531915134E-01  0.13109192163E+01  0.13174900963E+01  0.51100000000E-03 0.  1.
    9000002    1    1    2    0    0 -0.37388054126E+00  0.91222929514E-01  0.99734278799E-01  0.10187733842E+01  0.93800000000E+00 0. -1.
         22    1    1    2    0    0  0.24764219389E+00 -0.54691014380E-01  0.25893464723E+01  0.26017365195E+01  0.00000000000E+00 0.  1.
</event>
<event>
 5    1  0.5849602E+001  0.1599677E+01  0.7818608E-02  0.3353714E+00
         11   -1    0    0    0    0  0.00000000000E+00  0.00000000000E+00  0.39999999674E+01  0.40000000000E+01  0.51100000000E-03 0. -1.
    9000002   -1    0    0    0    0 -0.00000000000E+00 -0.00000000000E+00  0.00000000000E+00  0.93800000000E+00  0.93800000000E+00 0. -1.
         11    1    1    2    0    0  0.39588252676E-01  0.81656102966E-01  0.72825483133E+00  0.73388712305E+00  0.51100000000E-03 0.  1.
    9000002    1    1    2    0    0 -0.20811398125E+00 -0.42925672768E+00  0.15520447941E+00  0.10637223312E+01  0.93800000000E+00 0. -1.
         22    1    1    2    0    0  0.16852572857E+00  0.34760062471E+00  0.31165406566E+01  0.31403905458E+01  0.00000000000E+00 0. -1.
</event>
<event>
 5    1  0.5849602E+001  0.1547647E+01  0.7818608E-02  0.3412223E+00
         11   -1    0    0    0    0  0.00000000000E+00  0.00000000000E+00  0.39999999674E+01  0.40000000000E+01  0.51100000000E-03 0.  1.
    9000002   -1    0    0    0    0 -0.00000000000E+00 -0.00000000000E+00  0.00000000000E+00  0.93800000000E+00  0.93800000000E+00 0. -1.
         11    1    1    2    0    0 -0.15168905653E+00 -0.19313630948E+00  0.10307125032E+01  0.10595658211E+01  0.51100000000E-03 0.  1.
    9000002    1    1    2    0    0 -0.13844342531E+00  0.15505648946E+00  0.68792922519E-01  0.96321625979E+00  0.93800000000E+00 0. -1.
         22    1    1    2    0    0  0.29013248184E+00  0.38079820019E-01  0.29004945416E+01  0.29152179191E+01  0.00000000000E+00 0.  1.
</event>
<event>
 5    1  0.5849602E+001  0.1599677E+01  0.7818608E-02  0.3353715E+00
         11   -1    0    0    0    0  0.00000000000E+00  0.00000000000E+00  0.39999999674E+01  0.40000000000E+01  0.51100000000E-03 0. -1.
    9000002   -1    0    0    0    0 -0.00000000000E+00 -0.00000000000E+00  0.00000000000E+00  0.93800000000E+00  0.93800000000E+00 0. -1.
         11    1    1    2    0    0 -0.29264841309E-01  0.26306106788E+00  0.10064141967E+01  0.10406379548E+01  0.51100000000E-03 0. -1.
    9000002    1    1    2    0    0  0.10088936870E+00 -0.88581249144E+00  0.60618620049E+00  0.14290374888E+01  0.93800000000E+00 0. -1.
         22    1    1    2    0    0 -0.71624527389E-01  0.62275142357E+00  0.23873995701E+01  0.24683245564E+01  0.00000000000E+00 0. -1.
</event>
<event>
 5    1  0.5849602E+001  0.1466379E+01  0.7818608E-02  0.3512516E+00
         11   -1    0    0    0    0  0.00000000000E+00  0.00000000000E+00  0.39999999674E+01  0.40000000000E+01  0.51100000000E-03 0. -1.
    9000002   -1    0    0    0    0 -0.00000000000E+00 -0.00000000000E+00  0.00000000000E+00  0.93800000000E+00  0.93800000000E+00 0.  1.
         11    1    1    2    0    0 -0.14028083219E+00 -0.39336806526E+00  0.13135632413E+01  0.13783561937E+01  0.51100000000E-03 0. -1.
    9000002    1    1    2    0    0  0.51814984298E-01 -0.13976192009E-01  0.10570134802E+00  0.94546121100E+00  0.93800000000E+00 0.  1.
         22    1    1    2    0    0  0.88465847888E-01  0.40734425727E+00  0.25807353780E+01  0.26141825953E+01  0.00000000000E+00 0. -1.
</event>
<event>
 5    1  0.5849602E+001  0.1590346E+01  0.7818608E-02  0.3363909E+00
         11   -1    0    0    0    0  0.00000000000E+00  0.00000000000E+00  0.39999999674E+01  0.40000000000E+01  0.51100000000E-03 0.  1.
    9000002   -1    0    0    0    0 -0.00000000000E+00 -0.00000000000E+00  0.00000000000E+00  0.93800000000E+00  0.93800000000E+00 0. -1.
         11    1    1    2    0    0  0.15053183380E-01 -0.17840372238E+00  0.14216754127E+01  0.14329046467E+01  0.51100000000E-03 0.  1.
    9000002    1    1    2    0    0 -0.32601724812E+00  0.38091817527E+00  0.18059183231E+00  0.10788156989E+01  0.93800000000E+00 0. -1.
         22    1    1    2    0    0  0.31096406474E+00 -0.20251445289E+00  0.23977327224E+01  0.24262796544E+01  0.00000000000E+00 0.  1.
</event>
<event>
 5    1  0.5849602E+001  0.1599622E+01  0.7818608E-02  0.3353774E+00
         11   -1    0    0    0    0  0.00000000000E+00  0.00000000000E+00  0.39999999674E+01  0.40000000000E+01  0.51100000000E-03 0. -1.
    9000002   -1    0    0    0    0 -0.00000000000E+00 -0.00000000000E+00  0.00000000000E+00  0.93800000000E+00  0.93800000000E+00 0.  1.
         11    1    1    2    0    0 -0.16264684522E+00  0.18467880778E+00  0.12279150474E+01  0.12523321776E+01  0.51100000000E-03 0. -1.
    9000002    1    1    2    0    0  0.45994385020E+00 -0.55998796590E+00  0.37793489101E+00  0.12441115903E+01  0.93800000000E+00 0.  1.
         22    1    1    2    0    0 -0.29729700498E+00  0.37530915812E+00  0.23941500290E+01  0.24415562321E+01  0.00000000000E+00 0. -1.
</event>
<event>
 5    1  0.5849602E+001  0.1599620E+01  0.7818608E-02  0.3353776E+00
         11   -1    0    0    0    0  0.00000000000E+00  0.00000000000E+00  0.39999999674E+01  0.40000000000E+01  0.51100000000E-03 0. -1.
    9000002   -1    0    0    0    0 -0.00000000000E+00 -0.00000000000E+00  0.00000000000E+00  0.93800000000E+00  0.93800000000E+00 0.  1.
         11    1    1    2    0    0 -0.65893161988E-01 -0.82330661296E-02  0.68917462974E+00  0.69236668289E+00  0.51100000000E-03 0. -1.
    9000002    1    1    2    0    0  0.41054630951E+00  0.41265939362E-01  0.11507558270E+00  0.10311825928E+01  0.93800000000E+00 0.  1.
         22    1    1    2    0    0 -0.34465314753E+00 -0.33032873232E-01  0.31957497549E+01  0.32144507243E+01  0.00000000000E+00 0. -1.
</event>
<event>
 5    1  0.5849602E+001  0.1599657E+01  0.7818608E-02  0.3353736E+00
         11   -1    0    0    0    0  0.00000000000E+00  0.00000000000E+00  0.39999999674E+01  0.40000000000E+01  0.51100000000E-03 0.  1.
    9000002   -1    0    0    0    0 -0.00000000000E+00 -0.00000000000E+00  0.00000000000E+00  0.93800000000E+00  0.93800000000E+00 0. -1.
         11    1    1    2    0    0  0.10330150418E-02  0.53434183429E-04  0.15529228709E-01  0.15572027504E-01  0.51100000000E-03 0.  1.
    9000002    1    1    2    0    0 -0.37253359630E+00 -0.29413525898E-01  0.93905168210E-01  0.10140555293E+01  0.93800000000E+00 0. -1.
         22    1    1    2    0    0  0.37150058126E+00  0.29360091715E-01  0.38905655704E+01  0.39083724432E+01  0.00000000000E+00 0.  1.
</event>
<event>
 5    1  0.5849602E+001  0.1595120E+01  0.7818608E-02  0.3358677E+00
         11   -1    0    0    0    0  0.00000000000E+00  0.00000000000E+00  0.39999999674E+01  0.40000000000E+01  0.51100000000E-03 0.  1.
    9000002   -1    0    0    0    0 -0.00000000000E+00 -0.00000000000E+00  0.00000000000E+00  0.93800000000E+00  0.93800000000E+00 0.  1.
         11    1    1    2    0    0 -0.70666586564E-01  0.22745438636E-01  0.91030294902E+00  0.91332515653E+00  0.51100000000E-03 0.  1.
    9000002    1    1    2    0    0  0.84924100751E-01 -0.29589494157E+00  0.66856272971E-01  0.98948455297E+00  0.93800000000E+00 0.  1.
         22    1    1    2    0    0 -0.14257514187E-01  0.27314950294E+00  0.30228407454E+01  0.30351902905E+01  0.00000000000E+00 0.  1.
</event>
<event>
 5    1  0.5849602E+001  0.1559106E+01  0.7818608E-02  0.3398981E+00
         11   -1    0    0    0    0  0.00000000000E+00  0.00000000000E+00  0.39999999674E+01  0.40000000000E+01  0.51100000000E-03 0. -1.
    9000002   -1    0    0    0    0 -0.00000000000E+00 -0.00000000000E+00  0.00000000000E+00  0.93800000000E+00  0.93800000000E+00 0. -1.
         11    1    1    2    0    0  0.25517577620E+00 -0.75338060711E-02  0.57245942118E+00  0.62680258854E+00  0.51100000000E-03 0. -1.
    9000002    1    1    2    0    0 -0.50937887452E+00  0.25107233777E+00  0.26363087854E+00  0.11277630056E+01  0.93800000000E+00 0. -1.
         22    1    1    2    0    0  0.25420309833E+00 -0.24353853170E+00  0.31639096676E+01  0.31834344059E+01  0.00000000000E+00 0. -1.
</event>
<event>
 5    1  0.5849602E+001  0.1599677E+01  0.7818608E-02  0.3353714E+00
         11   -1    0    0    0    0  0.00000000000E+00  0.00000000000E+00  0.39999999674E+01  0.40000000000E+01  0.51100000000E-03 0. -1.
    9000002   -1    0    0    0    0 -0.00000000000E+00 -0.00000000000E+00  0.00000000000E+00  0.93800000000E+00  0.93800000000E+00 0. -1.
         11    1    1    2    0    0 -0.34825514257E-01  0.10924527674E+00  0.10910785212E+01  0.10970870282E+01  0.51100000000E-03 0. -1.
    9000002    1    1    2    0    0  0.12365270789E+00 -0.38698220535E+00  0.11141692415E+00  0.10282523768E+01  0.93800000000E+00 0. -1.
         22    1    1    2    0    0 -0.88827193632E-01  0.27773692861E+00  0.27975045220E+01  0.28126605950E+01  0.00000000000E+00 0.  1.
</event>
<event>
 5    1  0.5849602E+001  0.1596427E+01  0.7818608E-02  0.3357250E+00
         11   -1    0    0    0    0  0.00000000000E+00  0.00000000000E+00  0.39999999674E+01  0.40000000000E+01  0.51100000000E-03 0.  1.
    9000002   -1    0    0    0    0 -0.00000000000E+00 -0.00000000000E+00  0.00000000000E+00  0.93800000000E+00  0.93800000000E+00 0.  1.
         11    1    1    2    0    0  0.14776514173E-01 -0.17368029014E-01  0.62368332939E+00  0.62410027261E+00  0.51100000000E-03 0.  1.
    9000002    1    1    2    0    0  0.18418612667E+00  0.26112354817E+00  0.70822190536E-01  0.99346354706E+00  0.93800000000E+00 0.  1.
         22    1    1    2    0    0 -0.19896264084E+00 -0.24375551915E+00  0.33054944474E+01  0.33204361803E+01  0.00000000000E+00 0.  1.
</event>
<event>
 5    1  0.5849602E+001  0.1599399E+01  0.7818608E-02  0.3354016E+00
         11   -1    0    0    0    0  0.00000000000E+00  0.00000000000E+00  0.39999999674E+01  0.40000000000E+01  0.51100000000E-03 0.  1.
    9000002   -1    0    0    0    0 -0.00000000000E+00 -0.00000000000E+00  0.00000000000E+00  0.93800000000E+00  0.93800000000E+00 0.  1.
         11    1    1    2    0    0  0.51177148545E-01 -0.75000861303E-01  0.73257601350E+00  0.73818162156E+00  0.51100000000E-03 0.  1.
    9000002    1    1    2    0    0 -0.18759669463E+00  0.40663074684E+00  0.13640062546E+00  0.10483273414E+01  0.93800000000E+00 0.  1.
         22    1    1    2    0    0  0.13641954609E+00 -0.33162988553E+00  0.31310233284E+01  0.31514910370E+01  0.00000000000E+00 0. -1.
</event>
<event>
 5    1  0.5849602E+001  0.1547519E+01  0.7818608E-02  0.3412372E+00
         11   -1    0    0    0    0  0.00000000000E+00  0.00000000000E+00  0.39999999674E+01  0.40000000000E+01  0.51100000000E-03 0.  1.
    9000002   -1    0    0    0    0 -0.00000000000E+00 -0.00000000000E+00  0.00000000000E+00  0.93800000000E+00  0.93800000000E+00 0.  1.
         11    1    1    2    0    0 -0.25391362996E+00 -0.17688468954E+00  0.14600778014E+01  0.14925105601E+01  0.51100000000E-03 0.  1.
    9000002    1    1    2    0    0  0.19323899751E-01  0.20827953911E+00  0.69277204898E-01  0.96353365828E+00  0.93800000000E+00 0.  1.
         22    1    1    2    0    0  0.23458973021E+00 -0.31394849579E-01  0.24706449611E+01  0.24819557816E+01  0.00000000000E+00 0.  1.
</event>
<event>
 5    1  0.5849602E+001  0.1572126E+01  0.7818608E-02  0.3384184E+00
         11   -1    0    0    0    0  0.00000000000E+00  0.00000000000E+00  0.39999999674E+01  0.40000000000E+01  0.51100000000E-03 0.  1.
    9000002   -1    0    0    0    0 -0.00000000000E+00 -0.00000000000E+00  0.00000000000E+00  0.93800000000E+00  0.93800000000E+00 0. -1.
         11    1    1    2    0    0 -0.20613865727E-02  0.17577070505E+00  0.72690305673E+00  0.74785553757E+00  0.51100000000E-03 0.  1.
    9000002    1    1    2    0    0  0.36390612080E+00 -0.18025760898E+00  0.13472430522E+00  0.10309777441E+01  0.93800000000E+00 0. -1.
         22    1    1    2    0    0 -0.36184473423E+00  0.44869039306E-02  0.31383726054E+01  0.31591667184E+01  0.00000000000E+00 0.  1.
</event>
<event>
 5    1  0.5849602E+001  0.1599532E+01  0.7818608E-02  0.3353872E+00
         11   -1    0    0    0    0  0.00000000000E+00  0.00000000000E+00  0.39999999674E+01  0.40000000000E+01  0.51100000000E-03 0. -1.
    9000002   -1    0    0    0    0 -0.00000000000E+00 -0.00000000000E+00  0.00000000000E+00  0.93800000000E+00  0.93800000000E+00 0.  1.
         11    1    1    2    0    0 -0.15154469074E+00  0.51432880602E-01  0.75822280090E+00  0.77492787498E+00  0.51100000000E-03 0. -1.
    9000002    1    1    2    0    0  0.72740200766E+00 -0.29387312970E+00  0.45122572394E+00  0.13034276931E+01  0.93800000000E+00 0.  1.
         22    1    1    2    0    0 -0.57585731692E+00  0.24244024910E+00  0.27905514425E+01  0.28596444320E+01  0.00000000000E+00 0. -1.
</event>
<event>
 5    1  0.6136636E+001  0.1599676E+01  0.7818608E-02  0.3353715E+00
         11   -1    0    0    0    0  0.00000000000E+00  0.00000000000E+00  0.39999999674E+01  0.40000000000E+01  0.51100000000E-03 0. -1.
    9000002   -1    0    0    0    0 -0.00000000000E+00 -0.00000000000E+00  0.00000000000E+00  0.93800000000E+00  0.93800000000E+00 0. -1.
         11    1    1    2    0    0 -0.11238263657E-02  0.13199642863E+00  0.14210708643E+01  0.14271884888E+01  0.51100000000E-03 0. -1.
    9000002    1    1    2    0    0 -0.20286393241E-03 -0.36203212296E+00  0.88001942678E-01  0.10092847176E+01  0.93800000000E+00 0. -1.
         22    1    1    2    0    0  0.13266902981E-02  0.23003569434E+00  0.24909271604E+01  0.25015267936E+01  0.00000000000E+00 0. -1.
</event>
<event>
 5    1  0.5849602E+001  0.1587267E+01  0.7818608E-02  0.3367300E+00
         11   -1    0    0    0    0  0.00000000000E+00  0.00000000000E+00  0.39999999674E+01  0.40000000000E+01  0.51100000000E-03 0. -1.
    9000002   -1    0    0    0    0 -0.00000000000E+00 -0.00000000000E+00  0.00000000000E+00  0.93800000000E+00  0.93800000000E+00 0.  1.
         11    1    1    2    0    0 -0.33012913870E-01  0.14492064962E+00  0.11334256449E+01  0.11431298268E+01  0.51100000000E-03 0. -1.
    9000002    1    1    2    0    0 -0.29799186879E+00 -0.44021976271E+00  0.20611974038E+00  0.10976893644E+01  0.93800000000E+00 0.  1.
         22    1    1    2    0    0  0.33100478266E+00  0.29529911309E+00  0.26604545821E+01  0.26971808088E+01  0.00000000000E+00 0. -1.
</event>
<event>
 5    1  0.5849602E+001  0.1599672E+01  0.7818608E-02  0.3353719E+00
         11   -1    0    0    0    0  0.00000000000E+00  0.00000000000E+00  0.39999999674E+01  0.40000000000E+01  0.51100000000E-03 0. -1.
    9000002   -1    0    0    0    0 -0.00000000000E+00 -0.00000000000E+00  0.00000000000E+00  0.93800000000E+00  0.93800000000E+00 0. -1.
         11    1    1    2    0    0  0.38482462222E-01  0.53115051479E-01  0.60105447768E+00  0.60462290301E+00  0.51100000000E-03 0. -1.
    9000002    1    1    2    0    0 -0.25125097679E+00 -0.33169044144E+00  0.11704135899E+00  0.10328060234E+01  0.93800000000E+00 0. -1.
         22    1    1    2    0    0  0.21276851456E+00  0.27857538996E+00  0.32819041307E+01  0.33005710736E+01  0.00000000000E+00 0. -1.
</event>
<event>
 5    1  0.5849602E+001  0.1592397E+01  0.7818608E-02  0.3361657E+00
         11   -1    0    0    0    0  0.00000000000E+00  0.00000000000E+00  0.39999999674E+01  0.40000000000E+01  0.51100000000E-03 0.  1.
    9000002   -1    0    0    0    0 -0.00000000000E+00 -0.00000000000E+00  0.00000000000E+00  0.93800000000E+00  0.93800000000E+00 0. -1.
         11    1    1    2    0    0  0.65984264695E-01  0.80445308981E-01  0.40437885588E+00  0.41754986664E+00  0.51100000000E-03 0.  1.
    9000002    1    1    2    0    0 -0.16496697683E+00 -0.38020196670E+00  0.12222593980E+00  0.10327394731E+01  0.93800000000E+00 0. -1.
         22    1    1    2    0    0  0.98982712136E-01  0.29975665772E+00  0.34733951717E+01  0.34877106603E+01  0.00000000000E+00 0.  1.
</event>
<event>
 5    1  0.5849602E+001  0.1599676E+01  0.7818608E-02  0.3353715E+00
         11   -1    0    0    0    0  0.00000000000E+00  0.00000000000E+00  0.39999999674E+01  0.40000000000E+01  0.51100000000E-03 0.  1.
    9000002   -1    0    0    0    0 -0.00000000000E+00 -0.00000000000E+00  0.00000000000E+00  0.93800000000E+00  0.93800000000E+00 0.  1.
         11    1    1    2    0    0 -0.97841226121E-01  0.12874155009E+00  0.13935608107E+01  0.14029110045E+01  0.51100000000E-03 0.  1.
    9000002    1    1    2    0    0  0.27003407624E+00 -0.35474842767E+00  0.13491601912E+00  0.10472875352E+01  0.93800000000E+00 0.  1.
         22    1    1    2    0    0 -0.17219285012E+00  0.22600687758E+00  0.24715231375E+01  0.24878014602E+01  0.00000000000E+00 0.  1.
</event>
<event>
 5    1  0.5849602E+001  0.1599671E+01  0.7818608E-02  0.3353720E+00
         11   -1    0    0    0    0  0.00000000000E+00  0.00000000000E+00  0.39999999674E+01  0.40000000000E+01  0.51100000000E-03 0.  1.
    9000002   -1    0    0    0    0 -0.00000000000E+00 -0.00000000000E+00  0.00000000000E+00  0.93800000000E+00  0.93800000000E+00 0. -1.
         11    1    1    2    0    0 -0.82941640522E-01  0.13049575275E+00  0.10879393461E+01  0.10988724854E+01  0.51100000000E-03 0.  1.
    9000002    1    1    2    0    0  0.28388058570E+00 -0.44980237692E+00  0.19475554290E+00  0.10957573120E+01  0.93800000000E+00 0. -1.
         22    1    1    2    0    0 -0.20093894517E+00  0.31930662418E+00  0.27173050784E+01  0.27433702026E+01  0.00000000000E+00 0. -1.
</event>
<event>
 5    1  0.5849602E+001  0.1599677E+01  0.7818608E-02  0.3353714E+00
         11   -1    0    0    0    0  0.00000000000E+00  0.00000000000E+00  0.39999999674E+01  0.40000000000E+01  0.51100000000E-03 0. -1.
    9000002   -1    0    0    0    0 -0.00000000000E+00 -0.00000000000E+00  0.00000000000E+00  0.93800000000E+00  0.93800000000E+00 0.  1.
         11    1    1    2    0    0 -0.57258808326E-01 -0.22176867752E-01  0.60558598463E+00  0.60869124398E+00  0.51100000000E-03 0. -1.
    9000002    1    1    2    0    0  0.36611811955E+00  0.14324691857E+00  0.10416474598E+00  0.10223778418E+01  0.93800000000E+00 0.  1.
         22    1    1    2    0    0 -0.30885931122E+00 -0.12107005082E+00  0.32902492368E+01  0.33069309142E+01  0.00000000000E+00 0. -1.
</event>
<event>
 5    1  0.5849602E+001  0.1599677E+01  0.7818608E-02  0.3353714E+00
         11   -1    0    0    0    0  0.00000000000E+00  0.00000000000E+00  0.39999999674E+01  0.40000000000E+01  0.51100000000E-03 0.  1.
    9000002   -1    0    0    0    0 -0.00000000000E+00 -0.00000000000E+00  0.00000000000E+00  0.93800000000E+00  0.93800000000E+00 0.  1.
         11    1    1    2    0    0  0.11755616762E+00  0.61115559049E-01  0.86932698413E+00  0.87936581157E+00  0.51100000000E-03 0.  1.
    9000002    1    1    2    0    0 -0.51072469629E+00 -0.26316675976E+00  0.22909489082E+00  0.11235768455E+01  0.93800000000E+00 0.  1.
         22    1    1    2    0    0  0.39316852867E+00  0.20205120071E+00  0.29015780924E+01  0.29350573429E+01  0.00000000000E+00 0.  1.
</event>
<event>
 5    1  0.5849602E+001  0.1599668E+01  0.7818608E-02  0.3353724E+00
         11   -1    0    0    0    0  0.00000000000E+00  0.00000000000E+00  0.39999999674E+01  0.40000000000E+01  0.51100000000E-03 0. -1.
    9000002   -1    0    0    0    0 -0.00000000000E+00 -0.00000000000E+00  0.00000000000E+00  0.93800000000E+00  0.93800000000E+00 0.  1.
         11    1    1    2    0    0 -0.10440132515E+00 -0.10887665384E+00  0.14457689868E+01  0.14536168638E+01  0.51100000000E-03 0. -1.
    9000002    1    1    2    0    0  0.27272353732E+00  0.29792344366E+00  0.11010207656E+00  0.10271820546E+01  0.93800000000E+00 0.  1.
         22    1    1    2    0    0 -0.16832221217E+00 -0.18904678982E+00  0.24441289040E+01  0.24572010815E+01  0.00000000000E+00 0. -1.
</event>
<event>
 5    1  0.5849602E+001  0.1575106E+01  0.7818608E-02  0.3380833E+00
         11   -1    0    0    0    0  0.00000000000E+00  0.00000000000E+00  0.39999999674E+01  0.40000000000E+01  0.51100000000E-03 0.  1.
    9000002   -1    0    0    0    0 -0.00000000000E+00 -0.00000000000E+00  0.00000000000E+00  0.93800000000E+00  0.93800000000E+00 0.  1.
         11    1    1    2    0    0 -0.12236724333E-01 -0.14042273847E+00  0.49930353412E+00  0.51881842990E+00  0.51100000000E-03 0.  1.
    9000002    1    1    2    0    0 -0.36958907206E+00  0.21652260308E+00  0.14540408580E+00  0.10413762375E+01  0.93800000000E+00 0.  1.
         22    1    1    2    0    0  0.38182579640E+00 -0.76099864609E-01  0.33552923474E+01  0.33778053326E+01  0.00000000000E+00 0.  1.
</event>
<event>
 5    1  0.5849602E+001  0.1599492E+01  0.7818608E-02  0.3353915E+00
         11   -1    0    0    0    0  0.00000000000E+00  0.00000000000E+00  0.39999999674E+01  0.40000000000E+01  0.51100000000E-03 0. -1.
    9000002   -1    0    0    0    0 -0.00000000000E+00 -0.00000000000E+00  0.00000000000E+00  0.93800000000E+00  0.93800000000E+00 0.  1.
         11    1    1    2    0    0  0.18347323531E-01 -0.59023794941E-02  0.29675293545E+00  0.29737859402E+00  0.51100000000E-03 0. -1.
    9000002    1    1    2    0    0 -0.31458097469E+00  0.16639647479E+00  0.85124610157E-01  0.10068461530E+01  0.93800000000E+00 0.  1.
         22    1    1    2    0    0  0.29623365116E+00 -0.16049409530E+00  0.36181224218E+01  0.36337752530E+01  0.00000000000E+00 0. -1.
</event>
<event>
 5    1  0.5849602E+001  0.1599676E+01  0.7818608E-02  0.3353715E+00
         11   -1    0    0    0    0  0.00000000000E+00  0.00000000000E+00  0.39999999674E+01  0.40000000000E+01  0.51100000000E-03 0. -1.
    9000002   -1    0    0    0    0 -0.00000000000E+00 -0.00000000000E+00  0.00000000000E+00  0.93800000000E+00  0.93800000000E+00 0.  1.
         11    1    1    2    0    0  0.17641417258E-01  0.63711862218E-01  0.43696653035E+00  0.44193939716E+00  0.51100000000E-03 0. -1.
    9000002    1    1    2    0    0 -0.14890539229E+00 -0.54595270502E+00  0.22187055612E+00  0.11177243469E+01  0.93800000000E+00 0.  1.
         22    1    1    2    0    0  0.13126397503E+00  0.48224084280E+00  0.33411628809E+01  0.33783362559E+01  0.00000000000E+00 0. -1.
</event>
<event>
 5    1  0.5849602E+001  0.1599675E+01  0.7818608E-02  0.3353716E+00
         11   -1    0    0    0    0  0.00000000000E+00  0.00000000000E+00  0.39999999674E+01  0.40000000000E+01  0.51100000000E-03 0. -1.
    9000002   -1    0    0    0    0 -0.00000000000E+00 -0.00000000000E+00  0.00000000000E+00  0.93800000000E+00  0.93800000000E+00 0.  1.
         11    1    1    2    0    0  0.11700817443E-01  0.33506312303E-02  0.12263133237E+00  0.12323490033E+00  0.51100000000E-03 0.  1.
    9000002    1    1    2    0    0 -0.38186833170E+00 -0.10480106440E+00  0.10571670050E+00  0.10236340687E+01  0.93800000000E+00 0.  1.
         22    1    1    2    0    0  0.37016751426E+00  0.10145043317E+00  0.37716519345E+01  0.37911310310E+01  0.00000000000E+00 0. -1.
</event>
<event>
 5    1  0.5849602E+001  0.1583213E+01  0.7818608E-02  0.3371788E+00
         11   -1    0    0    0    0  0.00000000000E+00  0.00000000000E+00  0.39999999674E+01  0.40000000000E+01  0.51100000000E-03 0.  1.
    9000002   -1    0    0    0    0 -0.00000000000E+00 -0.00000000000E+00  0.00000000000E+00  0.93800000000E+00  0.93800000000E+00 0. -1.
         11    1    1    2    0    0  0.10180603566E+00  0.18156974947E-01  0.11983191978E+01  0.12027731729E+01  0.51100000000E-03 0.  1.
    9000002    1    1    2    0    0  0.10153162472E+00 -0.22675532369E+00  0.53680350061E-01  0.97182932021E+00  0.93800000000E+00 0. -1.
         22    1    1    2    0    0 -0.20333766038E+00  0.20859834874E+00  0.27480004195E+01  0.27633975069E+01  0.00000000000E+00 0.  1.
</event>
<event>
 5    1  0.5849602E+001  0.1590797E+01  0.7818608E-02  0.3363413E+00
         11   -1    0    0    0    0  0.00000000000E+00  0.00000000000E+00  0.39999999674E+01  0.40000000000E+01  0.51100000000E-03 0.  1.
    9000002   -1    0    0    0    0 -0.00000000000E+00 -0.00000000000E+00  0.00000000000E+00  0.93800000000E+00  0.93800000000E+00 0. -1.
         11    1    1    2    0    0  0.90424578751E-01 -0.14388136117E-01  0.20404820101E+00  0.22365051388E+00  0.51100000000E-03 0.  1.
    9000002    1    1    2    0    0 -0.69504952946E+00 -0.56589069157E-01  0.35728232350E+00  0.12222073596E+01  0.93800000000E+00 0. -1.
         22    1    1    2    0    0  0.60462495071E+00  0.70977205274E-01  0.34386694428E+01  0.34921421265E+01  0.00000000000E+00 0.  1.
</event>
<event>
 5    1  0.5849602E+001  0.1598443E+01  0.7818608E-02  0.3355055E+00
         11   -1    0    0    0    0  0.00000000000E+00  0.00000000000E+00  0.39999999674E+01  0.40000000000E+01  0.51100000000E-03 0.  1.
    9000002   -1    0    0    0    0 -0.00000000000E+00 -0.00000000000E+00  0.00000000000E+00  0.93800000000E+00  0.93800000000E+00 0. -1.
         11    1    1    2    0    0  0.27083936735E-01 -0.27663142782E-01  0.40573432398E+00  0.40757746733E+00  0.51100000000E-03 0.  1.
    9000002    1    1    2    0    0 -0.42079393281E-01  0.38369169757E+00  0.10133706863E+00  0.10193641134E+01  0.93800000000E+00 0. -1.
         22    1    1    2    0    0  0.14995456546E-01 -0.35602855479E+00  0.34929285748E+01  0.35110584193E+01  0.00000000000E+00 0.  1.
</event>
<event>
 5    1  0.5849602E+001  0.1599666E+01  0.7818608E-02  0.3353726E+00
         11   -1    0    0    0    0  0.00000000000E+00  0.00000000000E+00  0.39999999674E+01  0.40000000000E+01  0.51100000000E-03 0.  1.
    9000002   -1    0    0    0    0 -0.00000000000E+00 -0.00000000000E+00  0.00000000000E+00  0.93800000000E+00  0.93800000000E+00 0. -1.
         11    1    1    2    0    0  0.55773798847E-02 -0.21562300005E-01  0.18215941621E+00  0.18351663136E+00  0.51100000000E-03 0.  1.
    9000002    1    1    2    0    0 -0.10417655008E+00  0.42705823596E+00  0.13105014413E+00  0.10441501955E+01  0.93800000000E+00 0. -1.
         22    1    1    2    0    0  0.98599170199E-01 -0.40549593596E+00  0.36867904070E+01  0.37103331731E+01  0.00000000000E+00 0.  1.
</event>
<event>
 5    1  0.5849602E+001  0.1575734E+01  0.7818608E-02  0.3380129E+00
         11   -1    0    0    0    0  0.00000000000E+00  0.00000000000E+00  0.39999999674E+01  0.40000000000E+01  0.51100000000E-03 0.  1.
    9000002   -1    0    0    0    0 -0.00000000000E+00 -0.00000000000E+00  0.00000000000E+00  0.93800000000E+00  0.93800000000E+00 0. -1.
         11    1    1    2    0    0 -0.10186042187E+00 -0.11714322780E+00  0.11701133389E+01  0.11803658621E+01  0.51100000000E-03 0.  1.
    9000002    1    1    2    0    0 -0.18714012808E+00  0.17694871195E+00  0.62678765340E-01  0.97473324649E+00  0.93800000000E+00 0. -1.
         22    1    1    2    0    0  0.28900054995E+00 -0.59805484142E-01  0.27672078631E+01  0.27829008914E+01  0.00000000000E+00 0. -1.
</event>
<event>
 5    1  0.5849602E+001  0.1599646E+01  0.7818608E-02  0.3353748E+00
         11   -1    0    0    0    0  0.00000000000E+00  0.00000000000E+00  0.39999999674E+01  0.40000000000E+01  0.51100000000E-03 0. -1.
    9000002   -1    0    0    0    0 -0.00000000000E+00 -0.00000000000E+00  0.00000000000E+00  0.93800000000E+00  0.93800000000E+00 0. -1.
         11    1    1    2    0    0  0.18805528017E-01  0.15954160061E+00  0.99825249439E+00  0.10110961744E+01  0.51100000000E-03 0. -1.
    9000002    1    1    2    0    0 -0.92852242607E-01 -0.59803899731E+00  0.25586506010E+00  0.11452436903E+01  0.93800000000E+00 0. -1.
         22    1    1    2    0    0  0.74046714591E-01  0.43849739670E+00  0.27458824129E+01  0.27816601353E+01  0.00000000000E+00 0. -1.
</event>
<event>
 5    1  0.5849602E+001  0.1509774E+01  0.7818608E-02  0.3457517E+00
         11   -1    0    0    0    0  0.00000000000E+00  0.00000000000E+00  0.39999999674E+01  0.40000000000E+01  0.51100000000E-03 0.  1.
    9000002   -1    0    0    0    0 -0.00000000000E+00 -0.00000000000E+00  0.00000000000E+00  0.93800000000E+00  0.93800000000E+00 0. -1.
         11    1    1    2    0    0  0.12104973467E+00 -0.39067664683E+00  0.76599387366E+00  0.86834794653E+00  0.51100000000E-03 0.  1.
    9000002    1    1    2    0    0 -0.17867969699E+00 -0.27176540702E+00  0.26562791524E+00  0.10277086454E+01  0.93800000000E+00 0. -1.
         22    1    1    2    0    0  0.57629962321E-01  0.66244205384E+00  0.29683781785E+01  0.30419434080E+01  0.00000000000E+00 0.  1.
</event>
<event>
 5    1  0.5849602E+001  0.1599135E+01  0.7818608E-02  0.3354303E+00
         11   -1    0    0    0    0  0.00000000000E+00  0.00000000000E+00  0.39999999674E+01  0.40000000000E+01  0.51100000000E-03 0. -1.
    9000002   -1    0    0    0    0 -0.00000000000E+00 -0.00000000000E+00  0.00000000000E+00  0.93800000000E+00  0.93800000000E+00 0. -1.
         11    1    1    2    0    0  0.28058714785E-01 -0.11949978763E+00  0.13443305408E+01  0.13499230922E+01  0.51100000000E-03 0. -1.
    9000002    1    1    2    0    0 -0.15033114171E+00  0.37982158000E+00  0.11313094168E+00  0.10293233189E+01  0.93800000000E+00 0. -1.
         22    1    1    2    0    0  0.12227242693E+00 -0.26032179236E+00  0.25425384848E+01  0.25587535889E+01  0.00000000000E+00 0. -1.
</event>
<event>
 5    1  0.5849602E+001  0.1599510E+01  0.7818608E-02  0.3353895E+00
         11   -1    0    0    0    0  0.00000000000E+00  0.00000000000E+00  0.39999999674E+01  0.40000000000E+01  0.51100000000E-03 0.  1.
    9000002   -1    0    0    0    0 -0.00000000000E+00 -0.00000000000E+00  0.00000000000E+00  0.93800000000E+00  0.93800000000E+00 0. -1.
         11    1    1    2    0    0  0.14289511271E-01 -0.19351526037E-01  0.27508071303E+00  0.27613100422E+00  0.51100000000E-03 0.  1.
    9000002    1    1    2    0    0 -0.31409721463E+00  0.26228793601E+00  0.11322505614E+00  0.10296193155E+01  0.93800000000E+00 0. -1.
         22    1    1    2    0    0  0.29980770336E+00 -0.24293640997E+00  0.36116941982E+01  0.36322496802E+01  0.00000000000E+00 0.  1.
</event>
<event>
 5    1  0.5849602E+001  0.1599606E+01  0.7818608E-02  0.3353792E+00
         11   -1    0    0    0    0  0.00000000000E+00  0.00000000000E+00  0.39999999674E+01  0.40000000000E+01  0.51100000000E-03 0.  1.
    9000002   -1    0    0    0    0 -0.00000000000E+00 -0.00000000000E+00  0.00000000000E+00  0.93800000000E+00  0.93800000000E+00 0. -1.
         11    1    1    2    0    0 -0.20018655333E-02  0.82212312491E-02  0.64317578970E-01  0.64873786651E-01  0.51100000000E-03 0.  1.
    9000002    1    1    2    0    0 -0.33339951168E-01 -0.48428462820E+00  0.16098754332E+00  0.10683651728E+01  0.93800000000E+00 0. -1.
         22    1    1    2    0    0  0.35341816701E-01  0.47606339695E+00  0.37746948451E+01  0.38047610405E+01  0.00000000000E+00 0.  1.
</event>
<event>
 5    1  0.5849602E+001  0.1599623E+01  0.7818608E-02  0.3353772E+00
         11   -1    0    0    0    0  0.00000000000E+00  0.00000000000E+00  0.39999999674E+01  0.40000000000E+01  0.51100000000E-03 0.  1.
    9000002   -1    0    0    0    0 -0.00000000000E+00 -0.00000000000E+00  0.00000000000E+00  0.93800000000E+00  0.93800000000E+00 0.  1.
         11    1    1    2    0    0 -0.49972331841E-01  0.21452669470E+00  0.14448947506E+01  0.14615881904E+01  0.51100000000E-03 0.  1.
    9000002    1    1    2    0    0  0.13898264060E+00 -0.57791663037E+00  0.24625930946E+00  0.11374495389E+01  0.93800000000E+00 0.  1.
         22    1    1    2    0    0 -0.89010308756E-01  0.36338993568E+00  0.23088459073E+01  0.23389622707E+01  0.00000000000E+00 0.  1.
</event>
<event>
 5    1  0.5849602E+001  0.1598567E+01  0.7818608E-02  0.3354920E+00
         11   -1    0    0    0    0  0.00000000000E+00  0.00000000000E+00  0.39999999674E+01  0.40000000000E+01  0.51100000000E-03 0.  1.
    9000002   -1    0    0    0    0 -0.00000000000E+00 -0.00000000000E+00  0.00000000000E+00  0.93800000000E+00  0.93800000000E+00 0.  1.
         11    1    1    2    0    0  0.29118246045E-01 -0.26942624067E-01  0.42837555719E+00  0.43020885202E+00  0.51100000000E-03 0.  1.
    9000002    1    1    2    0    0 -0.11158711102E+00  0.41319634464E+00  0.12496674498E+00  0.10385776764E+01  0.93800000000E+00 0.  1.
         22    1    1    2    0    0  0.82468864970E-01 -0.38625372057E+00  0.34466576652E+01  0.34692134716E+01  0.00000000000E+00 0.  1.
</event>
<event>
 5    1  0.5849602E+001  0.1596509E+01  0.7818608E-02  0.3357161E+00
         11   -1    0    0    0    0  0.00000000000E+00  0.00000000000E+00  0.39999999674E+01  0.40000000000E+01  0.51100000000E-03 0.  1.
    9000002   -1    0    0    0    0 -0.00000000000E+00 -0.00000000000E+00  0.00000000000E+00  0.93800000000E+00  0.93800000000E+00 0. -1.
         11    1    1    2    0    0  0.99228657372E-02 -0.90574035410E-02  0.53299956068E-01  0.54969503010E-01  0.51100000000E-03 0.  1.
    9000002    1    1    2    0    0 -0.21606433525E+00 -0.37518081781E+00  0.12970136971E+00  0.10412064581E+01  0.93800000000E+00 0. -1.
         22    1    1    2    0    0  0.20614146951E+00  0.38423822135E+00  0.38169986416E+01  0.38418240389E+01  0.00000000000E+00 0.  1.
</event>
<event>
 5    1  0.6455106E+001  0.1599608E+01  0.7818608E-02  0.3353789E+00
         11   -1    0    0    0    0  0.00000000000E+00  0.00000000000E+00  0.39999999674E+01  0.40000000000E+01  0.51100000000E-03 0. -1.
    9000002   -1    0    0    0    0 -0.00000000000E+00 -0.00000000000E+00  0.00000000000E+00  0.93800000000E+00  0.93800000000E+00 0. -1.
         11    1    1    2    0    0  0.10477233034E+00 -0.45823647189E-01  0.13893565340E+01  0.13940548366E+01  0.51100000000E-03 0. -1.
    9000002    1    1    2    0    0 -0.32029377921E+00  0.13982772013E+00  0.81946669690E-01  0.10043401580E+01  0.93800000000E+00 0. -1.
         22    1    1    2    0    0  0.21552144887E+00 -0.94004072941E-01  0.25286967637E+01  0.25396050054E+01  0.00000000000E+00 0. -1.
</event>
<event>
 5    1  0.5849602E+001  0.1599655E+01  0.7818608E-02  0.3353738E+00
         11   -1    0    0    0    0  0.00000000000E+00  0.00000000000E+00  0.39999999674E+01  0.40000000000E+01  0.51100000000E-03 0. -1.
    9000002   -1    0    0    0    0 -0.00000000000E+00 -0.00000000000E+00  0.00000000000E+00  0.93800000000E+00  0.93800000000E+00 0. -1.
         11    1    1    2    0    0  0.67493863624E-01 -0.94800232610E-01  0.11240056931E+01  0.11300139667E+01  0.51100000000E-03 0. -1.
    9000002    1    1    2    0    0 -0.21626508087E+00  0.32714160297E+00  0.10365104529E+00  0.10219489972E+01  0.93800000000E+00 0. -1.
         22    1    1    2    0    0  0.14877121724E+00 -0.23234137036E+00  0.27723432290E+01  0.27860370362E+01  0.00000000000E+00 0. -1.
</event>
<event>
 5    1  0.5849602E+001  0.1597758E+01  0.7818608E-02  0.3355801E+00
         11   -1    0    0    0    0  0.00000000000E+00  0.00000000000E+00  0.39999999674E+01  0.40000000000E+01  0.51100000000E-03 0.  1.
    9000002   -1    0    0    0    0 -0.00000000000E+00 -0.00000000000E+00  0.00000000000E+00  0.93800000000E+00  0.93800000000E+00 0.  1.
         11    1    1    2    0    0  0.25218066140E-01 -0.18048665578E-01  0.10636113097E+00  0.11079104879E+00  0.51100000000E-03 0.  1.
    9000002    1    1    2    0    0 -0.40892953361E+00  0.25781275797E+00  0.16124466421E+00  0.10674898704E+01  0.93800000000E+00 0.  1.
         22    1    1    2    0    0  0.38371146747E+00 -0.23976409239E+00  0.37323941722E+01  0.37597190808E+01  0.00000000000E+00 0.  1.
</event>
<event>
 5    1  0.5849602E+001  0.1592237E+01  0.7818608E-02  0.3361832E+00
         11   -1    0    0    0    0  0.00000000000E+00  0.00000000000E+00  0.39999999674E+01  0.40000000000E+01  0.51100000000E-03 0.  1.
    9000002   -1    0    0    0    0 -0.00000000000E+00 -0.00000000000E+00  0.00000000000E+00  0.93800000000E+00  0.93800000000E+00 0. -1.
         11    1    1    2    0    0 -0.13745086911E+00 -0.35170389955E-01  0.11147480855E+01  0.11237407410E+01  0.51100000000E-03 0.  1.
    9000002    1    1    2    0    0  0.42923037658E+00 -0.20038330975E+00  0.15953445121E+00  0.10628675497E+01  0.93800000000E+00 0. -1.
         22    1    1    2    0    0 -0.29177950747E+00  0.23555369970E+00  0.27257174306E+01  0.27513917093E+01  0.00000000000E+00 0.  1.
</event>
<event>
 5    1  0.5849602E+001  0.1504474E+01  0.7818608E-02  0.3464051E+00
         11   -1    0    0    0    0  0.00000000000E+00  0.00000000000E+00  0.39999999674E+01  0.40000000000E+01  0.51100000000E-03 0. -1.
    9000002   -1    0    0    0    0 -0.00000000000E+00 -0.00000000000E+00  0.00000000000E+00  0.93800000000E+00  0.93800000000E+00 0. -1.
         11    1    1    2    0    0  0.41331674622E+00  0.84144329361E-01  0.11963309051E+01  0.12685105031E+01  0.51100000000E-03 0. -1.
    9000002    1    1    2    0    0 -0.31479853516E+00  0.19800159730E+00  0.17525370367E+00  0.10241389607E+01  0.93800000000E+00 0. -1.
         22    1    1    2    0    0 -0.98518211054E-01 -0.28214592666E+00  0.26284153586E+01  0.26453505361E+01  0.00000000000E+00 0. -1.
</event>
<event>
 5    1  0.5849602E+001  0.1215542E+01  0.7818608E-02  0.3957469E+00
         11   -1    0    0    0    0  0.00000000000E+00  0.00000000000E+00  0.39999999674E+01  0.40000000000E+01  0.51100000000E-03 0.  1.
    9000002   -1    0    0    0    0 -0.00000000000E+00 -0.00000000000E+00  0.00000000000E+00  0.93800000000E+00  0.93800000000E+00 0. -1.
         11    1    1    2    0    0 -0.37210082322E+00 -0.51860460854E+00  0.70857136354E+00  0.95366839153E+00  0.51100000000E-03 0.  1.
    9000002    1    1    2    0    0  0.71851634224E-01  0.62653514863E-01  0.37081391659E+00  0.10131313247E+01  0.93800000000E+00 0. -1.
         22    1    1    2    0    0  0.30024918899E+00  0.45595109368E+00  0.29206146872E+01  0.29712002838E+01  0.00000000000E+00 0. -1.
</event>
<event>
 5    1  0.5849602E+001  0.1599624E+01  0.7818608E-02  0.3353771E+00
         11   -1    0    0    0    0  0.00000000000E+00  0.00000000000E+00  0.39999999674E+01  0.40000000000E+01  0.51100000000E-03 0. -1.
    9000002   -1    0    0    0    0 -0.00000000000E+00 -0.00000000000E+00  0.00000000000E+00  0.93800000000E+00  0.93800000000E+00 0. -1.
         11    1    1    2    0    0 -0.12726659519E+00 -0.66681693711E-01  0.12599426182E+01  0.12681083932E+01  0.51100000000E-03 0. -1.
    9000002    1    1    2    0    0  0.40615275244E+00  0.22267011019E+00  0.14604812972E+00  0.10562746293E+01  0.93800000000E+00 0. -1.
         22    1    1    2    0    0 -0.27888615725E+00 -0.15598841648E+00  0.25940092194E+01  0.26136169775E+01  0.00000000000E+00 0. -1.
</event>
<event>
 5    1  0.5849602E+001  0.1599677E+01  0.7818608E-02  0.3353714E+00
         11   -1    0    0    0    0  0.00000000000E+00  0.00000000000E+00  0.39999999674E+01  0.40000000000E+01  0.51100000000E-03 0. -1.
    9000002   -1    0    0    0    0 -0.00000000000E+00 -0.00000000000E+00  0.00000000000E+00  0.93800000000E+00  0.93800000000E+00 0. -1.
         11    1    1    2    0    0 -0.87918688729E-01  0.10690235065E+00  0.14180687786E+01  0.14248077521E+01  0.51100000000E-03 0. -1.
    9000002    1    1    2    0    0  0.24205993892E+00 -0.29373057481E+00  0.97482136138E-01  0.10169648133E+01  0.93800000000E+00 0. -1.
         22    1    1    2    0    0 -0.15414125019E+00  0.18682822416E+00  0.24844490526E+01  0.24962274346E+01  0.00000000000E+00 0. -1.
</event>
<event>
 5    1  0.5880757E+001  0.1590629E+01  0.7818608E-02  0.3363597E+00
         11   -1    0    0    0    0  0.00000000000E+00  0.00000000000E+00  0.39999999674E+01  0.40000000000E+01  0.51100000000E-03 0.  1.
    9000002   -1    0    0    0    0 -0.00000000000E+00 -0.00000000000E+00  0.00000000000E+00  0.93800000000E+00  0.93800000000E+00 0.  1.
         11    1    1    2    0    0  0.95913240630E-01 -0.46235167598E-01  0.14447749489E+01  0.14486931885E+01  0.51100000000E-03 0.  1.
    9000002    1    1    2    0    0 -0.13022491077E-01  0.29547566223E+00  0.65432975583E-01  0.98569819242E+00  0.93800000000E+00 0.  1.
         22    1    1    2    0    0 -0.82890749553E-01 -0.24924049464E+00  0.24897920429E+01  0.25036086191E+01  0.00000000000E+00 0.  1.
</event>
<event>
 5    1  0.5849602E+001  0.1599436E+01  0.7818608E-02  0.3353976E+00
         11   -1    0    0    0    0  0.00000000000E+00  0.00000000000E+00  0.39999999674E+01  0.40000000000E+01  0.51100000000E-03 0.  1.
    9000002   -1    0    0    0    0 -0.00000000000E+00 -0.00000000000E+00  0.00000000000E+00  0.93800000000E+00  0.93800000000E+00 0. -1.
         11    1    1    2    0    0 -0.12428050786E+00 -0.67021062342E-01  0.13561992433E+01  0.13635300203E+01  0.51100000000E-03 0.  1.
    9000002    1    1    2    0    0  0.40508233755E+00  0.18679799054E+00  0.13527776141E+00  0.10474393835E+01  0.93800000000E+00 0. -1.
         22    1    1    2    0    0 -0.28080182969E+00 -0.11977692820E+00  0.25085229626E+01  0.25270305962E+01  0.00000000000E+00 0.  1.
</event>
<event>
 5    1  0.5849602E+001  0.1592400E+01  0.7818608E-02  0.3361654E+00
         11   -1    0    0    0    0  0.00000000000E+00  0.00000000000E+00  0.39999999674E+01  0.40000000000E+01  0.51100000000E-03 0. -1.
    9000002   -1    0    0    0    0 -0.00000000000E+00 -0.00000000000E+00  0.00000000000E+00  0.93800000000E+00  0.93800000000E+00 0. -1.
         11    1    1    2    0    0 -0.96581079233E-01  0.17431869492E-01  0.11714753748E+01  0.11755792572E+01  0.51100000000E-03 0. -1.
    9000002    1    1    2    0    0  0.15334769970E+00 -0.32272965159E+00  0.91583095293E-01  0.10079193462E+01  0.93800000000E+00 0. -1.
         22    1    1    2    0    0 -0.56766620466E-01  0.30529778210E+00  0.27369414972E+01  0.27545013967E+01  0.00000000000E+00 0. -1.
</event>
<event>
 5    1  0.5849602E+001  0.1599026E+01  0.7818608E-02  0.3354422E+00
         11   -1    0    0    0    0  0.00000000000E+00  0.00000000000E+00  0.39999999674E+01  0.40000000000E+01  0.51100000000E-03 0. -1.
    9000002   -1    0    0    0    0 -0.00000000000E+00 -0.00000000000E+00  0.00000000000E+00  0.93800000000E+00  0.93800000000E+00 0. -1.
         11    1    1    2    0    0 -0.15474362064E-01  0.74780301176E-02  0.28388372416E+00  0.28440395000E+00  0.51100000000E-03 0. -1.
    9000002    1    1    2    0    0  0.27018526645E+00 -0.31352971592E+00  0.11630378734E+00  0.10318292165E+01  0.93800000000E+00 0. -1.
         22    1    1    2    0    0 -0.25471090439E+00  0.30605168580E+00  0.35998124559E+01  0.36217668335E+01  0.00000000000E+00 0. -1.
</event>
<event>
 5    1  0.5849602E+001  0.1452901E+01  0.7818608E-02  0.3530324E+00
         11   -1    0    0    0    0  0.00000000000E+00  0.00000000000E+00  0.39999999674E+01  0.40000000000E+01  0.51100000000E-03 0. -1.
    9000002   -1    0    0    0    0 -0.00000000000E+00 -0.00000000000E+00  0.00000000000E+00  0.93800000000E+00  0.93800000000E+00 0. -1.
         11    1    1    2    0    0 -0.22677346936E+00  0.28312294311E+00  0.73127254387E+00  0.81629933349E+00  0.51100000000E-03 0. -1.
    9000002    1    1    2    0    0 -0.12559745064E+00 -0.81648989702E-01  0.13222838378E+00  0.95904620462E+00  0.93800000000E+00 0. -1.
         22    1    1    2    0    0  0.35237092000E+00 -0.20147395341E+00  0.31364990397E+01  0.31626544619E+01  0.00000000000E+00 0. -1.
</event>
<event>
 5    1  0.5849602E+001  0.1599661E+01  0.7818608E-02  0.3353731E+00
         11   -1    0    0    0    0  0.00000000000E+00  0.00000000000E+00  0.39999999674E+01  0.40000000000E+01  0.51100000000E-03 0.  1.
    9000002   -1    0    0    0    0 -0.00000000000E+00 -0.00000000000E+00  0.00000000000E+00  0.93800000000E+00  0.93800000000E+00 0.  1.
         11    1    1    2    0    0 -0.14660653598E-01 -0.28304461281E-01  0.21387291587E+00  0.21623589562E+00  0.51100000000E-03 0.  1.
    9000002    1    1    2    0    0  0.29470783335E+00  0.50759861664E+00  0.23971957366E+00  0.11321742519E+01  0.93800000000E+00 0. -1.
         22    1    1    2    0    0 -0.28004717975E+00 -0.47929415536E+00  0.35464074778E+01  0.35895898525E+01  0.00000000000E+00 0.  1.
</event>
<event>
 5    1  0.5849602E+001  0.1597084E+01  0.7818608E-02  0.3356534E+00
         11   -1    0    0    0    0  0.00000000000E+00  0.00000000000E+00  0.39999999674E+01  0.40000000000E+01  0.51100000000E-03 0.  1.
    9000002   -1    0    0    0    0 -0.00000000000E+00 -0.00000000000E+00  0.00000000000E+00  0.93800000000E+00  0.93800000000E+00 0. -1.
         11    1    1    2    0    0 -0.63770301503E-01  0.78934637594E-01  0.12870141852E+01  0.12910085602E+01  0.51100000000E-03 0.  1.
    9000002    1    1    2    0    0  0.77302949417E-01 -0.37010344277E+00  0.98290326241E-01  0.10160990565E+01  0.93800000000E+00 0. -1.
         22    1    1    2    0    0 -0.13532647914E-01  0.29116880518E+00  0.26146954559E+01  0.26308923833E+01  0.00000000000E+00 0. -1.
</event>
<event>
 5    1  0.5849602E+001  0.1599255E+01  0.7818608E-02  0.3354172E+00
         11   -1    0    0    0    0  0.00000000000E+00  0.00000000000E+00  0.39999999674E+01  0.40000000000E+01  0.51100000000E-03 0.  1.
    9000002   -1    0    0    0    0 -0.00000000000E+00 -0.00000000000E+00  0.00000000000E+00  0.93800000000E+00  0.93800000000E+00 0.  1.
         11    1    1    2    0    0  0.62479476291E-01 -0.23715328422E-01  0.96397478971E+00  0.96628865153E+00  0.51100000000E-03 0.  1.
    9000002    1    1    2    0    0 -0.33565834917E+00  0.66842238298E-01  0.78811445019E-01  0.10015935583E+01  0.93800000000E+00 0.  1.
         22    1    1    2    0    0  0.27317887288E+00 -0.43126909876E-01  0.29572137326E+01  0.29701177902E+01  0.00000000000E+00 0.  1.
</event>
<event>
 5    1  0.5849602E+001  0.1599519E+01  0.7818608E-02  0.3353886E+00
         11   -1    0    0    0    0  0.00000000000E+00  0.00000000000E+00  0.39999999674E+01  0.40000000000E+01  0.51100000000E-03 0. -1.
    9000002   -1    0    0    0    0 -0.00000000000E+00 -0.00000000000E+00  0.00000000000E+00  0.93800000000E+00  0.93800000000E+00 0.  1.
         11    1    1    2    0    0 -0.12921951053E-01 -0.18127851999E+00  0.14290000371E+01  0.14405104116E+01  0.51100000000E-03 0. -1.
    9000002    1    1    2    0    0  0.37897937011E-02  0.50927575282E+00  0.17798157447E+00  0.10820802169E+01  0.93800000000E+00 0.  1.
         22    1    1    2    0    0  0.91321573518E-02 -0.32799723284E+00  0.23930183558E+01  0.24154093715E+01  0.00000000000E+00 0.  1.
</event>
<event>
 5    1  0.5857055E+001  0.1531080E+01  0.7818608E-02  0.3431740E+00
         11   -1    0    0    0    0  0.00000000000E+00  0.00000000000E+00  0.39999999674E+01  0.40000000000E+01  0.51100000000E-03 0. -1.
    9000002   -1    0    0    0    0 -0.00000000000E+00 -0.00000000000E+00  0.00000000000E+00  0.93800000000E+00  0.93800000000E+00 0. -1.
         11    1    1    2    0    0  0.31321632260E+00 -0.97347569726E-01  0.13174210711E+01  0.13576374898E+01  0.51100000000E-03 0. -1.
    9000002    1    1    2    0    0 -0.90998858768E-01  0.84235821698E-02  0.57285392245E-01  0.94418079053E+00  0.93800000000E+00 0. -1.
         22    1    1    2    0    0 -0.22221746383E+00  0.88923987557E-01  0.26252935041E+01  0.26361817197E+01  0.00000000000E+00 0. -1.
</event>
<event>
 5    1  0.5849602E+001  0.1554287E+01  0.7818608E-02  0.3404524E+00
         11   -1    0    0    0    0  0.00000000000E+00  0.00000000000E+00  0.39999999674E+01  0.40000000000E+01  0.51100000000E-03 0. -1.
    9000002   -1    0    0    0    0 -0.00000000000E+00 -0.00000000000E+00  0.00000000000E+00  0.93800000000E+00  0.93800000000E+00 0.  1.
         11    1    1    2    0    0 -0.11151083435E+00 -0.95445574028E-01  0.75097816558E+00  0.76518820566E+00  0.51100000000E-03 0. -1.
    9000002    1    1    2    0    0 -0.28482039747E+00 -0.10141462737E+00  0.97455181464E-01  0.99032777294E+00  0.93800000000E+00 0.  1.
         22    1    1    2    0    0  0.39633123181E+00  0.19686020140E+00  0.31515666203E+01  0.31824840214E+01  0.00000000000E+00 0. -1.
</event>
<event>
 5    1  0.5849602E+001  0.1599595E+01  0.7818608E-02  0.3353803E+00
         11   -1    0    0    0    0  0.00000000000E+00  0.00000000000E+00  0.39999999674E+01  0.40000000000E+01  0.51100000000E-03 0.  1.
    9000002   -1    0    0    0    0 -0.00000000000E+00 -0.00000000000E+00  0.00000000000E+00  0.93800000000E+00  0.93800000000E+00 0. -1.
         11    1    1    2    0    0  0.12319270657E+00 -0.13684520575E-01  0.13637126968E+01  0.13693342505E+01  0.51100000000E-03 0.  1.
    9000002    1    1    2    0    0 -0.35469345235E+00  0.68961226867E-01  0.87721611770E-01  0.10090104941E+01  0.93800000000E+00 0. -1.
         22    1    1    2    0    0  0.23150074577E+00 -0.55276706292E-01  0.25485656587E+01  0.25596552554E+01  0.00000000000E+00 0.  1.
</event>
<event>
 5    1  0.5849602E+001  0.1587752E+01  0.7818608E-02  0.3366765E+00
         11   -1    0    0    0    0  0.00000000000E+00  0.00000000000E+00  0.39999999674E+01  0.40000000000E+01  0.51100000000E-03 0. -1.
    9000002   -1    0    0    0    0 -0.00000000000E+00 -0.00000000000E+00  0.00000000000E+00  0.93800000000E+00  0.93800000000E+00 0. -1.
         11    1    1    2    0    0  0.88669787297E-01  0.63871575786E-01  0.31940851599E+00  0.33758550114E+00  0.51100000000E-03 0. -1.
    9000002    1    1    2    0    0 -0.18679572976E+00 -0.55613802156E+00  0.25124346917E+00  0.11345260792E+01  0.93800000000E+00 0. -1.
         22    1    1    2    0    0  0.98125942461E-01  0.49226644578E+00  0.34293479822E+01  0.34658884196E+01  0.00000000000E+00 0. -1.
</event>
<event>
 5    1  0.5849602E+001  0.1594334E+01  0.7818608E-02  0.3359536E+00
         11   -1    0    0    0    0  0.00000000000E+00  0.00000000000E+00  0.39999999674E+01  0.40000000000E+01  0.51100000000E-03 0.  1.
    9000002   -1    0    0    0    0 -0.00000000000E+00 -0.00000000000E+00  0.00000000000E+00  0.93800000000E+00  0.93800000000E+00 0.  1.
         11    1    1    2    0    0  0.28155124720E-01  0.37881805291E-02  0.96123651575E+00  0.96165636362E+00  0.51100000000E-03 0.  1.
    9000002    1    1    2    0    0 -0.23063945363E+00  0.27059319640E+00  0.89144170223E-01  0.10070779109E+01  0.93800000000E+00 0.  1.
         22    1    1    2    0    0  0.20248432891E+00 -0.27438137693E+00  0.29496192814E+01  0.29692657255E+01  0.00000000000E+00 0.  1.
</event>
<event>
 5    1  0.5849602E+001  0.1599379E+01  0.7818608E-02  0.3354038E+00
         11   -1    0    0    0    0  0.00000000000E+00  0.00000000000E+00  0.39999999674E+01  0.40000000000E+01  0.51100000000E-03 0.  1.
    9000002   -1    0    0    0    0 -0.00000000000E+00 -0.00000000000E+00  0.00000000000E+00  0.93800000000E+00  0.93800000000E+00 0.  1.
         11    1    1    2    0    0 -0.54444269251E-01 -0.44375934350E-01  0.47790770664E+00  0.48304186070E+00  0.51100000000E-03 0.  1.
    9000002    1    1    2    0    0  0.35111251000E+00  0.29064792980E+00  0.14148495996E+00  0.10524344197E+01  0.93800000000E+00 0.  1.
         22    1    1    2    0    0 -0.29666824075E+00 -0.24627199545E+00  0.33806073008E+01  0.34025237196E+01  0.00000000000E+00 0.  1.
</event>
<event>
 5    1  0.5849602E+001  0.1591836E+01  0.7818608E-02  0.3362272E+00
         11   -1    0    0    0    0  0.00000000000E+00  0.00000000000E+00  0.39999999674E+01  0.40000000000E+01  0.51100000000E-03 0. -1.
    9000002   -1    0    0    0    0 -0.00000000000E+00 -0.00000000000E+00  0.00000000000E+00  0.93800000000E+00  0.93800000000E+00 0.  1.
         11    1    1    2    0    0  0.16621244451E-01  0.14288441035E+00  0.34266490580E+00  0.37163385109E+00  0.51100000000E-03 0. -1.
    9000002    1    1    2    0    0 -0.58332829419E+00 -0.86076652260E+00  0.90822019224E+00  0.16691012021E+01  0.93800000000E+00 0.  1.
         22    1    1    2    0    0  0.56670704974E+00  0.71788211225E+00  0.27491148693E+01  0.28972649468E+01  0.00000000000E+00 0. -1.
</event>
<event>
 5    1  0.5849602E+001  0.1599675E+01  0.7818608E-02  0.3353717E+00
         11   -1    0    0    0    0  0.00000000000E+00  0.00000000000E+00  0.39999999674E+01  0.40000000000E+01  0.51100000000E-03 0.  1.
    9000002   -1    0    0    0    0 -0.00000000000E+00 -0.00000000000E+00  0.00000000000E+00  0.93800000000E+00  0.93800000000E+00 0. -1.
         11    1    1    2    0    0  0.11008020155E+00  0.25943878116E-01  0.11322621581E+01  0.11378965644E+01  0.51100000000E-03 0.  1.
    9000002    1    1    2    0    0 -0.38376648896E+00 -0.86415465295E-01  0.10429226268E+00  0.10224799395E+01  0.93800000000E+00 0. -1.
         22    1    1    2    0    0  0.27368628741E+00  0.60471587179E-01  0.27634455466E+01  0.27776234960E+01  0.00000000000E+00 0.  1.
</event>
<event>
 5    1  0.5849602E+001  0.1542463E+01  0.7818608E-02  0.3418282E+00
         11   -1    0    0    0    0  0.00000000000E+00  0.00000000000E+00  0.39999999674E+01  0.40000000000E+01  0.51100000000E-03 0.  1.
    9000002   -1    0    0    0    0 -0.00000000000E+00 -0.00000000000E+00  0.00000000000E+00  0.93800000000E+00  0.93800000000E+00 0.  1.
         11    1    1    2    0    0 -0.43765641425E-01 -0.14812003147E+00  0.44492488329E+00  0.47097068697E+00  0.51100000000E-03 0.  1.
    9000002    1    1    2    0    0 -0.49295720969E-01 -0.25521539760E+00  0.90203621386E-01  0.97752015866E+00  0.93800000000E+00 0.  1.
         22    1    1    2    0    0  0.93061362393E-01  0.40333542907E+00  0.34648714627E+01  0.34895091544E+01  0.00000000000E+00 0.  1.
</event>
<event>
 5    1  0.5995754E+001  0.1599538E+01  0.7818608E-02  0.3353865E+00
         11   -1    0    0    0    0  0.00000000000E+00  0.00000000000E+00  0.39999999674E+01  0.40000000000E+01  0.51100000000E-03 0.  1.
    9000002   -1    0    0    0    0 -0.00000000000E+00 -0.00000000000E+00  0.00000000000E+00  0.93800000000E+00  0.93800000000E+00 0.  1.
         11    1    1    2    0    0 -0.13552331203E+00 -0.43763174231E-01  0.13861055527E+01  0.13934025434E+01  0.51100000000E-03 0.  1.
    9000002    1    1    2    0    0  0.41463274039E+00  0.13463377371E+00  0.12893306181E+00  0.10423599651E+01  0.93800000000E+00 0.  1.
         22    1    1    2    0    0 -0.27910942836E+00 -0.90870599483E-01  0.24849613529E+01  0.25022374915E+01  0.00000000000E+00 0.  1.
</event>
<event>
 5    1  0.5849602E+001  0.1586151E+01  0.7818608E-02  0.3368533E+00
         11   -1    0    0    0    0  0.00000000000E+00  0.00000000000E+00  0.39999999674E+01  0.40000000000E+01  0.51100000000E-03 0.  1.
    9000002   -1    0    0    0    0 -0.00000000000E+00 -0.00000000000E+00  0.00000000000E+00  0.93800000000E+00  0.93800000000E+00 0.  1.
         11    1    1    2    0    0 -0.51298837608E-01 -0.16821914094E+00  0.44215966628E+00  0.47585153327E+00  0.51100000000E-03 0.  1.
    9000002    1    1    2    0    0  0.17831056766E+00  0.65009695114E+00  0.33738872112E+00  0.12033685444E+01  0.93800000000E+00 0.  1.
         22    1    1    2    0    0 -0.12701173005E+00 -0.48187781020E+00  0.32204515800E+01  0.32587799224E+01  0.00000000000E+00 0.  1.
</event>
<event>
 5    1  0.5849602E+001  0.1599254E+01  0.7818608E-02  0.3354173E+00
         11   -1    0    0    0    0  0.00000000000E+00  0.00000000000E+00  0.39999999674E+01  0.40000000000E+01  0.51100000000E-03 0.  1.
    9000002   -1    0    0    0    0 -0.00000000000E+00 -0.00000000000E+00  0.00000000000E+00  0.93800000000E+00  0.93800000000E+00 0.  1.
         11    1    1    2    0    0 -0.54262748301E-01  0.12772946673E+00  0.10219317182E+01  0.10313117668E+01  0.51100000000E-03 0.  1.
    9000002    1    1    2    0    0  0.14153767155E+00 -0.42920382635E+00  0.13912802238E+00  0.10504520187E+01  0.93800000000E+00 0.  1.
         22    1    1    2    0    0 -0.87274923253E-01  0.30147435962E+00  0.28389402267E+01  0.28562362145E+01  0.00000000000E+00 0.  1.
</event>
<event>
 5    1  0.5849602E+001  0.1599375E+01  0.7818608E-02  0.3354042E+00
         11   -1    0    0    0    0  0.00000000000E+00  0.00000000000E+00  0.39999999674E+01  0.40000000000E+01  0.51100000000E-03 0. -1.
    9000002   -1    0    0    0    0 -0.00000000000E+00 -0.00000000000E+00  0.00000000000E+00  0.93800000000E+00  0.93800000000E+00 0. -1.
         11    1    1    2    0    0 -0.14185474628E+00  0.12158491616E+00  0.13119636578E+01  0.13251998194E+01  0.51100000000E-03 0. -1.
    9000002    1    1    2    0    0  0.46461722826E+00 -0.34224828472E+00  0.23152292366E+00  0.11253665720E+01  0.93800000000E+00 0. -1.
         22    1    1    2    0    0 -0.32276248198E+00  0.22066336856E+00  0.24565133859E+01  0.24874336086E+01  0.00000000000E+00 0. -1.
</event>
<event>
 5    1  0.5849602E+001  0.1547702E+01  0.7818608E-02  0.3412159E+00
         11   -1    0    0    0    0  0.00000000000E+00  0.00000000000E+00  0.39999999674E+01  0.40000000000E+01  0.51100000000E-03 0. -1.
    9000002   -1    0    0    0    0 -0.00000000000E+00 -0.00000000000E+00  0.00000000000E+00  0.93800000000E+00  0.93800000000E+00 0. -1.
         11    1    1    2    0    0 -0.30682654588E-01  0.17275042242E+00  0.93706687095E+00  0.95335130749E+00  0.51100000000E-03 0. -1.
    9000002    1    1    2    0    0 -0.23539488724E+00  0.18670641679E+00  0.10208951339E+00  0.99022033293E+00  0.93800000000E+00 0. -1.
         22    1    1    2    0    0  0.26607754183E+00 -0.35945683921E+00  0.29608435830E+01  0.29944283596E+01  0.00000000000E+00 0. -1.
</event>
<event>
 5    1  0.5849602E+001  0.1598645E+01  0.7818608E-02  0.3354835E+00
         11   -1    0    0    0    0  0.00000000000E+00  0.00000000000E+00  0.39999999674E+01  0.40000000000E+01  0.51100000000E-03 0. -1.
    9000002   -1    0    0    0    0 -0.00000000000E+00 -0.00000000000E+00  0.00000000000E+00  0.93800000000E+00  0.93800000000E+00 0. -1.
         11    1    1    2    0    0 -0.47182406966E-03 -0.45244304735E-01  0.78777533600E+00  0.78907383106E+00  0.51100000000E-03 0. -1.
    9000002    1    1    2    0    0 -0.42051024092E-03  0.37834620829E+00  0.97141488710E-01  0.10160839035E+01  0.93800000000E+00 0. -1.
         22    1    1    2    0    0  0.89233431058E-03 -0.33310190356E+00  0.31150831426E+01  0.31328422654E+01  0.00000000000E+00 0. -1.
</event>
<event>
 5    1  0.5849602E+001  0.1599616E+01  0.7818608E-02  0.3353781E+00
         11   -1    0    0    0    0  0.00000000000E+00  0.00000000000E+00  0.39999999674E+01  0.40000000000E+01  0.51100000000E-03 0.  1.
    9000002   -1    0    0    0    0 -0.00000000000E+00 -0.00000000000E+00  0.00000000000E+00  0.93800000000E+00  0.93800000000E+00 0.  1.
         11    1    1    2    0    0  0.51410464999E-01  0.44225417823E-01  0.58144376923E+00  0.58538537852E+00  0.51100000000E-03 0.  1.
    9000002    1    1    2    0    0 -0.30409625115E+00 -0.27401655141E+00  0.11321101090E+00  0.10296700119E+01  0.93800000000E+00 0.  1.
         22    1    1    2    0    0  0.25268578615E+00  0.22979113359E+00  0.33053451872E+01  0.33229446096E+01  0.00000000000E+00 0.  1.
</event>
<event>
 5    1  0.5933082E+001  0.1464130E+01  0.7818608E-02  0.3515463E+00
         11   -1    0    0    0    0  0.00000000000E+00  0.00000000000E+00  0.39999999674E+01  0.40000000000E+01  0.51100000000E-03 0. -1.
    9000002   -1    0    0    0    0 -0.00000000000E+00 -0.00000000000E+00  0.00000000000E+00  0.93800000000E+00  0.93800000000E+00 0.  1.
         11    1    1    2    0    0 -0.14966857098E+00 -0.11920189698E+00  0.14725825628E+00  0.24144363430E+00  0.51100000000E-03 0. -1.
    9000002    1    1    2    0    0 -0.18343925650E+00  0.19432236903E+00  0.16035962991E+00  0.98841810730E+00  0.93800000000E+00 0.  1.
         22    1    1    2    0    0  0.33310782749E+00 -0.75120472056E-01  0.36923820812E+01  0.37081382584E+01  0.00000000000E+00 0. -1.
</event>
<event>
 5    1  0.5849602E+001  0.1599676E+01  0.7818608E-02  0.3353715E+00
         11   -1    0    0    0    0  0.00000000000E+00  0.00000000000E+00  0.39999999674E+01  0.40000000000E+01  0.51100000000E-03 0.  1.
    9000002   -1    0    0    0    0 -0.00000000000E+00 -0.00000000000E+00  0.00000000000E+00  0.93800000000E+00  0.93800000000E+00 0. -1.
         11    1    1    2    0    0  0.53165164650E-01  0.59401663876E-01  0.82849201623E+00  0.83231867364E+00  0.51100000000E-03 0.  1.
    9000002    1    1    2    0    0 -0.24819734737E+00 -0.28322134513E+00  0.95381148397E-01  0.10152624375E+01  0.93800000000E+00 0. -1.
         22    1    1    2    0    0  0.19503218272E+00  0.22381968125E+00  0.30761268027E+01  0.30904188888E+01  0.00000000000E+00 0.  1.
</event>
<event>
 5    1  0.5849602E+001  0.1599675E+01  0.7818608E-02  0.3353716E+00
         11   -1    0    0    0    0  0.00000000000E+00  0.00000000000E+00  0.39999999674E+01  0.40000000000E+01  0.51100000000E-03 0. -1.
    9000002   -1    0    0    0    0 -0.00000000000E+00 -0.00000000000E+00  0.00000000000E+00  0.93800000000E+00  0.93800000000E+00 0.  1.
         11    1    1    2    0    0  0.29410546830E-01  0.21921538278E+00  0.13951012675E+01  0.14125254589E+01  0.51100000000E-03 0. -1.
    9000002    1    1    2    0    0 -0.76379986911E-01 -0.58737521665E+00  0.24438677451E+00  0.11359632226E+01  0.93800000000E+00 0.  1.
         22    1    1    2    0    0  0.46969440081E-01  0.36815983387E+00  0.23605119253E+01  0.23895113185E+01  0.00000000000E+00 0. -1.
</event>
<event>
 5    1  0.5908320E+001  0.1537059E+01  0.7818608E-02  0.3424645E+00
         11   -1    0    0    0    0  0.00000000000E+00  0.00000000000E+00  0.39999999674E+01  0.40000000000E+01  0.51100000000E-03 0.  1.
    9000002   -1    0    0    0    0 -0.00000000000E+00 -0.00000000000E+00  0.00000000000E+00  0.93800000000E+00  0.93800000000E+00 0. -1.
         11    1    1    2    0    0  0.12107257291E+00  0.22880350838E+00  0.12394646926E+01  0.12662079603E+01  0.51100000000E-03 0.  1.
    9000002    1    1    2    0    0 -0.25881515629E-01  0.86375747304E-01  0.52467551065E-01  0.94378359092E+00  0.93800000000E+00 0. -1.
         22    1    1    2    0    0 -0.95191057281E-01 -0.31517925569E+00  0.27080677236E+01  0.27280084488E+01  0.00000000000E+00 0.  1.
</event>
<event>
 5    1  0.5849602E+001  0.1593801E+01  0.7818608E-02  0.3360120E+00
         11   -1    0    0    0    0  0.00000000000E+00  0.00000000000E+00  0.39999999674E+01  0.40000000000E+01  0.51100000000E-03 0. -1.
    9000002   -1    0    0    0    0 -0.00000000000E+00 -0.00000000000E+00  0.00000000000E+00  0.93800000000E+00  0.93800000000E+00 0.  1.
         11    1    1    2    0    0 -0.49315638383E-01 -0.73902401208E-01  0.42770840776E+00  0.43683903246E+00  0.51100000000E-03 0. -1.
    9000002    1    1    2    0    0  0.40048661848E+00  0.14471733872E+00  0.12773249272E+00  0.10380232316E+01  0.93800000000E+00 0.  1.
         22    1    1    2    0    0 -0.35117098010E+00 -0.70814937511E-01  0.34445590669E+01  0.34631377359E+01  0.00000000000E+00 0. -1.
</event>
<event>
 5    1  0.5849602E+001  0.1461840E+01  0.7818608E-02  0.3518473E+00
         11   -1    0    0    0    0  0.00000000000E+00  0.00000000000E+00  0.39999999674E+01  0.40000000000E+01  0.51100000000E-03 0. -1.
    9000002   -1    0    0    0    0 -0.00000000000E+00 -0.00000000000E+00  0.00000000000E+00  0.93800000000E+00  0.93800000000E+00 0. -1.
         11    1    1    2    0    0  0.14990392895E+00  0.19295407121E+00  0.25128584734E+00  0.35049579128E+00  0.51100000000E-03 0. -1.
    9000002    1    1    2    0    0 -0.29732362364E+00  0.12782756000E+00  0.18872190576E+00  0.10100500879E+01  0.93800000000E+00 0. -1.
         22    1    1    2    0    0  0.14741969469E+00 -0.32078163121E+00  0.35599922143E+01  0.35774541209E+01  0.00000000000E+00 0. -1.
</event>
<event>
 5    1  0.5849602E+001  0.1596098E+01  0.7818608E-02  0.3357609E+00
         11   -1    0    0    0    0  0.00000000000E+00  0.00000000000E+00  0.39999999674E+01  0.40000000000E+01  0.51100000000E-03 0. -1.
    9000002   -1    0    0    0    0 -0.00000000000E+00 -0.00000000000E+00  0.00000000000E+00  0.93800000000E+00  0.93800000000E+00 0. -1.
         11    1    1    2    0    0 -0.12587500643E+00  0.24627820850E-01  0.11536404141E+01  0.11607486864E+01  0.51100000000E-03 0. -1.
    9000002    1    1    2    0    0  0.36757684751E+00  0.13122802065E+00  0.10558954913E+00  0.10214336421E+01  0.93800000000E+00 0. -1.
         22    1    1    2    0    0 -0.24170184109E+00 -0.15585584150E+00  0.27407700041E+01  0.27558176716E+01  0.00000000000E+00 0. -1.
</event>
<event>
 5    1  0.5849602E+001  0.1599553E+01  0.7818608E-02  0.3353848E+00
         11   -1    0    0    0    0  0.00000000000E+00  0.00000000000E+00  0.39999999674E+01  0.40000000000E+01  0.51100000000E-03 0.  1.
    9000002   -1    0    0    0    0 -0.00000000000E+00 -0.00000000000E+00  0.00000000000E+00  0.93800000000E+00  0.93800000000E+00 0. -1.
         11    1    1    2    0    0 -0.16686011854E-01  0.10493366629E-01  0.12436101088E+00  0.12591447845E+00  0.51100000000E-03 0.  1.
    9000002    1    1    2    0    0  0.49854350763E+00 -0.17641382601E+00  0.19252592077E+00  0.10938819393E+01  0.93800000000E+00 0. -1.
         22    1    1    2    0    0 -0.48185749578E+00  0.16592045938E+00  0.36831130357E+01  0.37182035822E+01  0.00000000000E+00 0.  1.
</event>
<event>
 5    1  0.5849602E+001  0.1534682E+01  0.7818608E-02  0.3427459E+00
         11   -1    0    0    0    0  0.00000000000E+00  0.00000000000E+00  0.39999999674E+01  0.40000000000E+01  0.51100000000E-03 0.  1.
    9000002   -1    0    0    0    0 -0.00000000000E+00 -0.00000000000E+00  0.00000000000E+00  0.93800000000E+00  0.93800000000E+00 0.  1.
         11    1    1    2    0    0  0.38519159632E-01 -0.23732510021E+00  0.12755721233E+01  0.12980336790E+01  0.51100000000E-03 0.  1.
    9000002    1    1    2    0    0  0.11033116230E+00 -0.12383031325E+00  0.68002752676E-01  0.95497397149E+00  0.93800000000E+00 0.  1.
         22    1    1    2    0    0 -0.14885032193E+00  0.36115541346E+00  0.26564250914E+01  0.26849923495E+01  0.00000000000E+00 0. -1.
</event>
<event>
 5    1  0.5849602E+001  0.1599638E+01  0.7818608E-02  0.3353757E+00
         11   -1    0    0    0    0  0.00000000000E+00  0.00000000000E+00  0.39999999674E+01  0.40000000000E+01  0.51100000000E-03 0. -1.
    9000002   -1    0    0    0    0 -0.00000000000E+00 -0.00000000000E+00  0.00000000000E+00  0.93800000000E+00  0.93800000000E+00 0. -1.
         11    1    1    2    0    0 -0.11584409469E+00  0.33583970138E-03  0.87906969002E+00  0.88667003338E+00  0.51100000000E-03 0. -1.
    9000002    1    1    2    0    0  0.50143809961E+00 -0.28864035367E-01  0.17279653804E+00  0.10779498800E+01  0.93800000000E+00 0. -1.
         22    1    1    2    0    0 -0.38559400492E+00  0.28528195665E-01  0.29481337393E+01  0.29733800866E+01  0.00000000000E+00 0. -1.
</event>
<event>
 5    1  0.5849602E+001  0.1552505E+01  0.7818608E-02  0.3406583E+00
         11   -1    0    0    0    0  0.00000000000E+00  0.00000000000E+00  0.39999999674E+01  0.40000000000E+01  0.51100000000E-03 0.  1.
    9000002   -1    0    0    0    0 -0.00000000000E+00 -0.00000000000E+00  0.00000000000E+00  0.93800000000E+00  0.93800000000E+00 0. -1.
         11    1    1    2    0    0  0.12537247631E+00 -0.99573516875E-01  0.35874609020E+00  0.39285132230E+00  0.51100000000E-03 0.  1.
    9000002    1    1    2    0    0  0.15205662289E+00  0.35632413372E+00  0.14107117858E+00  0.10246136746E+01  0.93800000000E+00 0. -1.
         22    1    1    2    0    0 -0.27742909920E+00 -0.25675061685E+00  0.35001826986E+01  0.35205350031E+01  0.00000000000E+00 0.  1.
</event>
<event>
 5    1  0.5849602E+001  0.1599027E+01  0.7818608E-02  0.3354421E+00
         11   -1    0    0    0    0  0.00000000000E+00  0.00000000000E+00  0.39999999674E+01  0.40000000000E+01  0.51100000000E-03 0. -1.
    9000002   -1    0    0    0    0 -0.00000000000E+00 -0.00000000000E+00  0.00000000000E+00  0.93800000000E+00  0.93800000000E+00 0.  1.
         11    1    1    2    0    0 -0.36586036684E-01  0.10383509649E+00  0.95857477884E+00  0.96487622682E+00  0.51100000000E-03 0. -1.
    9000002    1    1    2    0    0  0.21435759763E+00 -0.33664448779E+00  0.10796521574E+00  0.10250752063E+01  0.93800000000E+00 0.  1.
         22    1    1    2    0    0 -0.17777156095E+00  0.23280939131E+00  0.29334599728E+01  0.29480485668E+01  0.00000000000E+00 0. -1.
</event>
<event>
 5    1  0.5849602E+001  0.1595448E+01  0.7818608E-02  0.3358319E+00
         11   -1    0    0    0    0  0.00000000000E+00  0.00000000000E+00  0.39999999674E+01  0.40000000000E+01  0.51100000000E-03 0. -1.
    9000002   -1    0    0    0    0 -0.00000000000E+00 -0.00000000000E+00  0.00000000000E+00  0.93800000000E+00  0.93800000000E+00 0.  1.
         11    1    1    2    0    0  0.17245788973E-01  0.49274162069E-01  0.18334004403E+00  0.19062841643E+00  0.51100000000E-03 0. -1.
    9000002    1    1    2    0    0 -0.73057631221E+00 -0.40661634059E+00  0.52741671360E+00  0.13627512562E+01  0.93800000000E+00 0.  1.
         22    1    1    2    0    0  0.71333052324E+00  0.35734217852E+00  0.32892432097E+01  0.33846203274E+01  0.00000000000E+00 0. -1.
</event>
<event>
 5    1  0.5849602E+001  0.1545920E+01  0.7818608E-02  0.3414236E+00
         11   -1    0    0    0    0  0.00000000000E+00  0.00000000000E+00  0.39999999674E+01  0.40000000000E+01  0.51100000000E-03 0.  1.
    9000002   -1    0    0    0    0 -0.00000000000E+00 -0.00000000000E+00  0.00000000000E+00  0.93800000000E+00  0.93800000000E+00 0.  1.
         11    1    1    2    0    0 -0.59808488509E-01 -0.15964209185E+00  0.48043181838E+00  0.50978195930E+00  0.51100000000E-03 0.  1.
    9000002    1    1    2    0    0  0.57974011857E+00 -0.21842810605E+00  0.32578674440E+00  0.11703804704E+01  0.93800000000E+00 0.  1.
         22    1    1    2    0    0 -0.51993163006E+00  0.37807019791E+00  0.31937814046E+01  0.32578375703E+01  0.00000000000E+00 0.  1.
</event>
<event>
 5    1  0.5849602E+001  0.1599677E+01  0.7818608E-02  0.3353714E+00
         11   -1    0    0    0    0  0.00000000000E+00  0.00000000000E+00  0.39999999674E+01  0.40000000000E+01  0.51100000000E-03 0. -1.
    9000002   -1    0    0    0    0 -0.00000000000E+00 -0.00000000000E+00  0.00000000000E+00  0.93800000000E+00  0.93800000000E+00 0. -1.
         11    1    1    2    0    0 -0.18137435050E+00  0.20080362159E+00  0.94284352758E+00  0.98090413807E+00  0.51100000000E-03 0. -1.
    9000002    1    1    2    0    0  0.63269772539E+00 -0.70394973124E+00  0.70055646093E+00  0.15054816474E+01  0.93800000000E+00 0. -1.
         22    1    1    2    0    0 -0.45132337489E+00  0.50314610965E+00  0.23565999788E+01  0.24516142145E+01  0.00000000000E+00 0. -1.
</event>
<event>
 5    1  0.5849602E+001  0.1599363E+01  0.7818608E-02  0.3354055E+00
         11   -1    0    0    0    0  0.00000000000E+00  0.00000000000E+00  0.39999999674E+01  0.40000000000E+01  0.51100000000E-03 0. -1.
    9000002   -1    0    0    0    0 -0.00000000000E+00 -0.00000000000E+00  0.00000000000E+00  0.93800000000E+00  0.93800000000E+00 0. -1.
         11    1    1    2    0    0 -0.67953145128E-02 -0.17679581472E-02  0.77968468595E-01  0.78285664022E-01  0.51100000000E-03 0. -1.
    9000002    1    1    2    0    0  0.41053431384E+00  0.36906070711E+00  0.21086574773E+00  0.11086264438E+01  0.93800000000E+00 0. -1.
         22    1    1    2    0    0 -0.40373899933E+00 -0.36729274896E+00  0.37111657510E+01  0.37510878922E+01  0.00000000000E+00 0. -1.
</event>
<event>
 5    1  0.5849602E+001  0.1478308E+01  0.7818608E-02  0.3497050E+00
         11   -1    0    0    0    0  0.00000000000E+00  0.00000000000E+00  0.39999999674E+01  0.40000000000E+01  0.51100000000E-03 0.  1.
    9000002   -1    0    0    0    0 -0.00000000000E+00 -0.00000000000E+00  0.00000000000E+00  0.93800000000E+00  0.93800000000E+00 0.  1.
         11    1    1    2    0    0  0.22763744037E+00  0.12226950248E+00  0.22832495927E+00  0.34482050931E+00  0.51100000000E-03 0.  1.
    9000002    1    1    2    0    0  0.28101176604E+00 -0.21087241973E+00  0.24800529895E+00  0.10318844017E+01  0.93800000000E+00 0.  1.
         22    1    1    2    0    0 -0.50864920642E+00  0.88602917252E-01  0.35236697091E+01  0.35612950890E+01  0.00000000000E+00 0.  1.
</event>
<event>
 5    1  0.6589945E+001  0.1599275E+01  0.7818608E-02  0.3354151E+00
         11   -1    0    0    0    0  0.00000000000E+00  0.00000000000E+00  0.39999999674E+01  0.40000000000E+01  0.51100000000E-03 0. -1.
    9000002   -1    0    0    0    0 -0.00000000000E+00 -0.00000000000E+00  0.00000000000E+00  0.93800000000E+00  0.93800000000E+00 0.  1.
         11    1    1    2    0    0 -0.80137335633E-01  0.25540217259E-01  0.11636479894E+01  0.11666838473E+01  0.51100000000E-03 0. -1.
    9000002    1    1    2    0    0  0.32907133958E+00 -0.40294064443E-01  0.73871853369E-01  0.99760343267E+00  0.93800000000E+00 0.  1.
         22    1    1    2    0    0 -0.24893400394E+00  0.14753847184E-01  0.27624801246E+01  0.27737127200E+01  0.00000000000E+00 0. -1.
</event>
<event>
 5    1  0.5849602E+001  0.1599673E+01  0.7818608E-02  0.3353719E+00
         11   -1    0    0    0    0  0.00000000000E+00  0.00000000000E+00  0.39999999674E+01  0.40000000000E+01  0.51100000000E-03 0.  1.
    9000002   -1    0    0    0    0 -0.00000000000E+00 -0.00000000000E+00  0.00000000000E+00  0.93800000000E+00  0.93800000000E+00 0.  1.
         11    1    1    2    0    0  0.15811425763E+00 -0.33612899708E+00  0.14238906341E+01  0.14715459966E+01  0.51100000000E-03 0.  1.
    9000002    1    1    2    0    0 -0.37620497730E+00  0.80741522119E+00  0.60492938471E+00  0.14280171865E+01  0.93800000000E+00 0.  1.
         22    1    1    2    0    0  0.21809071967E+00 -0.47128622411E+00  0.19711799486E+01  0.20384368170E+01  0.00000000000E+00 0.  1.
</event>
<event>
 5    1  0.5849602E+001  0.1511183E+01  0.7818608E-02  0.3455788E+00
         11   -1    0    0    0    0  0.00000000000E+00  0.00000000000E+00  0.39999999674E+01  0.40000000000E+01  0.51100000000E-03 0. -1.
    9000002   -1    0    0    0    0 -0.00000000000E+00 -0.00000000000E+00  0.00000000000E+00  0.93800000000E+00  0.93800000000E+00 0. -1.
         11    1    1    2    0    0  0.30206249783E+00  0.92843587846E-01  0.11062783574E+01  0.11505275962E+01  0.51100000000E-03 0. -1.
    9000002    1    1    2    0    0  0.54873205245E-01 -0.11633673903E+00  0.78951975846E-01  0.95006458727E+00  0.93800000000E+00 0. -1.
         22    1    1    2    0    0 -0.35693570307E+00  0.23493151179E-01  0.28147696341E+01  0.28374078165E+01  0.00000000000E+00 0. -1.
</event>
<event>
 5    1  0.5849602E+001  0.1599094E+01  0.7818608E-02  0.3354347E+00
         11   -1    0    0    0    0  0.00000000000E+00  0.00000000000E+00  0.39999999674E+01  0.40000000000E+01  0.51100000000E-03 0.  1.
    9000002   -1    0    0    0    0 -0.00000000000E+00 -0.00000000000E+00  0.00000000000E+00  0.93800000000E+00  0.93800000000E+00 0.  1.
         11    1    1    2    0    0 -0.45698660491E-02  0.14786465223E+00  0.11226041499E+01  0.11323096650E+01  0.51100000000E-03 0.  1.
    9000002    1    1    2    0    0 -0.21417335416E-01 -0.42689877492E+00  0.12418296685E+00  0.10382517400E+01  0.93800000000E+00 0.  1.
         22    1    1    2    0    0  0.25987201465E-01  0.27903412270E+00  0.27532128506E+01  0.27674385950E+01  0.00000000000E+00 0.  1.
</event>
<event>
 5    1  0.5849602E+001  0.1593770E+01  0.7818608E-02  0.3360153E+00
         11   -1    0    0    0    0  0.00000000000E+00  0.00000000000E+00  0.39999999674E+01  0.40000000000E+01  0.51100000000E-03 0.  1.
    9000002   -1    0    0    0    0 -0.00000000000E+00 -0.00000000000E+00  0.00000000000E+00  0.93800000000E+00  0.93800000000E+00 0. -1.
         11    1    1    2    0    0 -0.19553016535E-01  0.48122838266E-01  0.18880795232E+00  0.19582347152E+00  0.51100000000E-03 0.  1.
    9000002    1    1    2    0    0  0.60123321153E+00 -0.17368008837E+00  0.28087735391E+00  0.11620594803E+01  0.93800000000E+00 0. -1.
         22    1    1    2    0    0 -0.58168019500E+00  0.12555725011E+00  0.35303146611E+01  0.35801170482E+01  0.00000000000E+00 0.  1.
</event>
<event>
 5    1  0.5849602E+001  0.1599011E+01  0.7818608E-02  0.3354438E+00
         11   -1    0    0    0    0  0.00000000000E+00  0.00000000000E+00  0.39999999674E+01  0.40000000000E+01  0.51100000000E-03 0. -1.
    9000002   -1    0    0    0    0 -0.00000000000E+00 -0.00000000000E+00  0.00000000000E+00  0.93800000000E+00  0.93800000000E+00 0.  1.
         11    1    1    2    0    0 -0.41763326861E-01  0.89618217642E-01  0.13572425146E+01  0.13608391179E+01  0.51100000000E-03 0. -1.
    9000002    1    1    2    0    0  0.83680363648E-01 -0.33591048022E+00  0.80854528469E-01  0.10031050338E+01  0.93800000000E+00 0.  1.
         22    1    1    2    0    0 -0.41917036787E-01  0.24629226258E+00  0.25619029243E+01  0.25740558483E+01  0.00000000000E+00 0. -1.
</event>
<event>
 5    1  0.5849602E+001  0.1599361E+01  0.7818608E-02  0.3354057E+00
         11   -1    0    0    0    0  0.00000000000E+00  0.00000000000E+00  0.39999999674E+01  0.40000000000E+01  0.51100000000E-03 0.  1.
    9000002   -1    0    0    0    0 -0.00000000000E+00 -0.00000000000E+00  0.00000000000E+00  0.93800000000E+00  0.93800000000E+00 0.  1.
         11    1    1    2    0    0 -0.62473588688E-01  0.14438727502E+00  0.65448438916E+00  0.67312755942E+00  0.51100000000E-03 0.  1.
    9000002    1    1    2    0    0  0.36792406214E+00 -0.69598054070E+00  0.45498705710E+00  0.13063744680E+01  0.93800000000E+00 0.  1.
         22    1    1    2    0    0 -0.30545047345E+00  0.55159326568E+00  0.28905285211E+01  0.29584979726E+01  0.00000000000E+00 0.  1.
</event>
<event>
 5    1  0.5849602E+001  0.1598938E+01  0.7818608E-02  0.3354517E+00
         11   -1    0    0    0    0  0.00000000000E+00  0.00000000000E+00  0.39999999674E+01  0.40000000000E+01  0.51100000000E-03 0. -1.
    9000002   -1    0    0    0    0 -0.00000000000E+00 -0.00000000000E+00  0.00000000000E+00  0.93800000000E+00  0.93800000000E+00 0. -1.
         11    1    1    2    0    0 -0.19100783663E-01  0.37757912239E-01  0.82643548157E+00  0.82751819690E+00  0.51100000000E-03 0. -1.
    9000002    1    1    2    0    0  0.15449145876E+00 -0.28934553923E+00  0.72558113093E-01  0.99634187490E+00  0.93800000000E+00 0. -1.
         22    1    1    2    0    0 -0.13539067509E+00  0.25158762699E+00  0.31010063727E+01  0.31141399282E+01  0.00000000000E+00 0. -1.
</event>
<event>
 5    1  0.5849602E+001  0.1599573E+01  0.7818608E-02  0.3353827E+00
         11   -1    0    0    0    0  0.00000000000E+00  0.00000000000E+00  0.39999999674E+01  0.40000000000E+01  0.51100000000E-03 0.  1.
    9000002   -1    0    0    0    0 -0.00000000000E+00 -0.00000000000E+00  0.00000000000E+00  0.93800000000E+00  0.93800000000E+00 0.  1.
         11    1    1    2    0    0 -0.11895067936E-01  0.18349236689E-01  0.29641129685E+00  0.29721726927E+00  0.51100000000E-03 0.  1.
    9000002    1    1    2    0    0  0.19968376914E+00 -0.31615596578E+00  0.94098891488E-01  0.10141631051E+01  0.93800000000E+00 0.  1.
         22    1    1    2    0    0 -0.18778870121E+00  0.29780672910E+00  0.36094897790E+01  0.36266196256E+01  0.00000000000E+00 0.  1.
</event>
<event>
 5    1  0.5849602E+001  0.1596761E+01  0.7818608E-02  0.3356887E+00
         11   -1    0    0    0    0  0.00000000000E+00  0.00000000000E+00  0.39999999674E+01  0.40000000000E+01  0.51100000000E-03 0.  1.
    9000002   -1    0    0    0    0 -0.00000000000E+00 -0.00000000000E+00  0.00000000000E+00  0.93800000000E+00  0.93800000000E+00 0. -1.
         11    1    1    2    0    0  0.95749662716E-01 -0.10839680692E+00  0.81608475389E+00  0.82880181727E+00  0.51100000000E-03 0.  1.
    9000002    1    1    2    0    0 -0.20662019885E+00  0.44549036029E+00  0.16744953222E+00  0.10719313940E+01  0.93800000000E+00 0. -1.
         22    1    1    2    0    0  0.11087053613E+00 -0.33709355337E+00  0.30164656813E+01  0.30372667887E+01  0.00000000000E+00 0.  1.
</event>
<event>
 5    1  0.5849602E+001  0.1599675E+01  0.7818608E-02  0.3353717E+00
         11   -1    0    0    0    0  0.00000000000E+00  0.00000000000E+00  0.39999999674E+01  0.40000000000E+01  0.51100000000E-03 0. -1.
    9000002   -1    0    0    0    0 -0.00000000000E+00 -0.00000000000E+00  0.00000000000E+00  0.93800000000E+00  0.93800000000E+00 0.  1.
         11    1    1    2    0    0  0.19573768184E+00  0.44746054072E-01  0.13771044536E+01  0.13916653286E+01  0.51100000000E-03 0. -1.
    9000002    1    1    2    0    0 -0.54293380751E+00 -0.12248417150E+00  0.21423666405E+00  0.11115398508E+01  0.93800000000E+00 0.  1.
         22    1    1    2    0    0  0.34719612567E+00  0.77738117423E-01  0.24086588497E+01  0.24347948206E+01  0.00000000000E+00 0. -1.
</event>
<event>
 5    1  0.7701844E+001  0.1599596E+01  0.7818608E-02  0.3353802E+00
         11   -1    0    0    0    0  0.00000000000E+00  0.00000000000E+00  0.39999999674E+01  0.40000000000E+01  0.51100000000E-03 0.  1.
    9000002   -1    0    0    0    0 -0.00000000000E+00 -0.00000000000E+00  0.00000000000E+00  0.93800000000E+00  0.93800000000E+00 0. -1.
         11    1    1    2    0    0  0.11158560071E+00 -0.45733319972E-01  0.14546777937E+01  0.14596679853E+01  0.51100000000E-03 0.  1.
    9000002    1    1    2    0    0 -0.32481355007E+00  0.13733387479E+00  0.83477179472E-01  0.10055729088E+01  0.93800000000E+00 0. -1.
         22    1    1    2    0    0  0.21322794936E+00 -0.91600554816E-01  0.24618449942E+01  0.24727591058E+01  0.00000000000E+00 0.  1.
</event>
<event>
 5    1  0.5849602E+001  0.1599664E+01  0.7818608E-02  0.3353728E+00
         11   -1    0    0    0    0  0.00000000000E+00  0.00000000000E+00  0.39999999674E+01  0.40000000000E+01  0.51100000000E-03 0.  1.
    9000002   -1    0    0    0    0 -0.00000000000E+00 -0.00000000000E+00  0.00000000000E+00  0.93800000000E+00  0.93800000000E+00 0. -1.
         11    1    1    2    0    0  0.85741547628E-02  0.85266785104E-03  0.89809474359E-01  0.90223311722E-01  0.51100000000E-03 0. -1.
    9000002    1    1    2    0    0 -0.41883910152E+00 -0.17304378102E-01  0.11884189513E+00  0.10342596533E+01  0.93800000000E+00 0. -1.
         22    1    1    2    0    0  0.41026494675E+00  0.16451710251E-01  0.37913485979E+01  0.38135170350E+01  0.00000000000E+00 0.  1.
</event>
<event>
 5    1  0.5849602E+001  0.1599674E+01  0.7818608E-02  0.3353717E+00
         11   -1    0    0    0    0  0.00000000000E+00  0.00000000000E+00  0.39999999674E+01  0.40000000000E+01  0.51100000000E-03 0.  1.
    9000002   -1    0    0    0    0 -0.00000000000E+00 -0.00000000000E+00  0.00000000000E+00  0.93800000000E+00  0.93800000000E+00 0. -1.
         11    1    1    2    0    0 -0.17076991772E-01 -0.11253732432E-02  0.11074009625E+00  0.11205587959E+00  0.51100000000E-03 0.  1.
    9000002    1    1    2    0    0  0.56734963153E+00  0.44253996811E-01  0.22451225069E+00  0.11198632824E+01  0.93800000000E+00 0. -1.
         22    1    1    2    0    0 -0.55027263976E+00 -0.43128623567E-01  0.36647476204E+01  0.37060808380E+01  0.00000000000E+00 0.  1.
</event>
<event>
 5    1  0.5849602E+001  0.1599677E+01  0.7818608E-02  0.3353714E+00
         11   -1    0    0    0    0  0.00000000000E+00  0.00000000000E+00  0.39999999674E+01  0.40000000000E+01  0.51100000000E-03 0. -1.
    9000002   -1    0    0    0    0 -0.00000000000E+00 -0.00000000000E+00  0.00000000000E+00  0.93800000000E+00  0.93800000000E+00 0. -1.
         11    1    1    2    0    0  0.23828134323E+00  0.72868663317E-02  0.13795490794E+01  0.13999953645E+01  0.51100000000E-03 0. -1.
    9000002    1    1    2    0    0 -0.64089772168E+00 -0.17976306483E-01  0.28946440647E+00  0.11724788612E+01  0.93800000000E+00 0. -1.
         22    1    1    2    0    0  0.40261637845E+00  0.10689440151E-01  0.23309864815E+01  0.23655257744E+01  0.00000000000E+00 0. -1.
</event>
<event>
 5    1  0.5849602E+001  0.1599673E+01  0.7818608E-02  0.3353718E+00
         11   -1    0    0    0    0  0.00000000000E+00  0.00000000000E+00  0.39999999674E+01  0.40000000000E+01  0.51100000000E-03 0.  1.
    9000002   -1    0    0    0    0 -0.00000000000E+00 -0.00000000000E+00  0.00000000000E+00  0.93800000000E+00  0.93800000000E+00 0. -1.
         11    1    1    2    0    0 -0.13367203904E+00 -0.13789770560E+00  0.10870078363E+01  0.11038434167E+01  0.51100000000E-03 0.  1.
    9000002    1    1    2    0    0  0.45747987333E+00  0.47487582229E+00  0.30751596637E+00  0.11870993853E+01  0.93800000000E+00 0. -1.
         22    1    1    2    0    0 -0.32380783428E+00 -0.33697811669E+00  0.26054761647E+01  0.26470571980E+01  0.00000000000E+00 0. -1.
</event>
<event>
 5    1  0.5849602E+001  0.1578540E+01  0.7818608E-02  0.3376990E+00
         11   -1    0    0    0    0  0.00000000000E+00  0.00000000000E+00  0.39999999674E+01  0.40000000000E+01  0.51100000000E-03 0.  1.
    9000002   -1    0    0    0    0 -0.00000000000E+00 -0.00000000000E+00  0.00000000000E+00  0.93800000000E+00  0.93800000000E+00 0.  1.
         11    1    1    2    0    0  0.21624500664E-01  0.14038907020E+00  0.58754952099E+00  0.60447614576E+00  0.51100000000E-03 0.  1.
    9000002    1    1    2    0    0 -0.32801721159E+00 -0.11797635006E+00  0.98667684910E-01  0.10055312140E+01  0.93800000000E+00 0.  1.
         22    1    1    2    0    0  0.30639271093E+00 -0.22412720142E-01  0.33137827615E+01  0.33279926402E+01  0.00000000000E+00 0.  1.
</event>
<event>
 5    1  0.5849602E+001  0.1584564E+01  0.7818608E-02  0.3370289E+00
         11   -1    0    0    0    0  0.00000000000E+00  0.00000000000E+00  0.39999999674E+01  0.40000000000E+01  0.51100000000E-03 0. -1.
    9000002   -1    0    0    0    0 -0.00000000000E+00 -0.00000000000E+00  0.00000000000E+00  0.93800000000E+00  0.93800000000E+00 0. -1.
         11    1    1    2    0    0 -0.36750801621E-01 -0.68224951061E-01  0.44118833496E+00  0.44794271217E+00  0.51100000000E-03 0. -1.
    9000002    1    1    2    0    0  0.31480895830E+00 -0.22615628336E+00  0.11376368010E+00  0.10212920834E+01  0.93800000000E+00 0. -1.
         22    1    1    2    0    0 -0.27805815668E+00  0.29438123442E+00  0.34450479523E+01  0.34687652044E+01  0.00000000000E+00 0. -1.
</event>
<event>
 5    1  0.5849602E+001  0.1586547E+01  0.7818608E-02  0.3368095E+00
         11   -1    0    0    0    0  0.00000000000E+00  0.00000000000E+00  0.39999999674E+01  0.40000000000E+01  0.51100000000E-03 0.  1.
    9000002   -1    0    0    0    0 -0.00000000000E+00 -0.00000000000E+00  0.00000000000E+00  0.93800000000E+00  0.93800000000E+00 0.  1.
         11    1    1    2    0    0  0.49785449437E-01 -0.16995806558E-01  0.14640007342E+01  0.14649456848E+01  0.51100000000E-03 0.  1.
    9000002    1    1    2    0    0  0.21340052041E+00 -0.46806656603E-01  0.41607448387E-01  0.96400509593E+00  0.93800000000E+00 0.  1.
         22    1    1    2    0    0 -0.26318596985E+00  0.63802463161E-01  0.24943917848E+01  0.25090492193E+01  0.00000000000E+00 0.  1.
</event>
<event>
 5    1  0.5849602E+001  0.1588621E+01  0.7818608E-02  0.3365807E+00
         11   -1    0    0    0    0  0.00000000000E+00  0.00000000000E+00  0.39999999674E+01  0.40000000000E+01  0.51100000000E-03 0.  1.
    9000002   -1    0    0    0    0 -0.00000000000E+00 -0.00000000000E+00  0.00000000000E+00  0.93800000000E+00  0.93800000000E+00 0. -1.
         11    1    1    2    0    0 -0.19905124193E+00  0.11529038941E+00  0.94379632257E+00  0.97142422783E+00  0.51100000000E-03 0.  1.
    9000002    1    1    2    0    0  0.47368335533E+00 -0.16619823977E+00  0.18260897714E+00  0.10794386571E+01  0.93800000000E+00 0. -1.
         22    1    1    2    0    0 -0.27463211339E+00  0.50907850357E-01  0.28735946677E+01  0.28871371150E+01  0.00000000000E+00 0.  1.
</event>
<event>
 5    1  0.5849602E+001  0.1565059E+01  0.7818608E-02  0.3392183E+00
         11   -1    0    0    0    0  0.00000000000E+00  0.00000000000E+00  0.39999999674E+01  0.40000000000E+01  0.51100000000E-03 0.  1.
    9000002   -1    0    0    0    0 -0.00000000000E+00 -0.00000000000E+00  0.00000000000E+00  0.93800000000E+00  0.93800000000E+00 0. -1.
         11    1    1    2    0    0  0.30421642908E+00 -0.18674555015E+00  0.11661418129E+01  0.12195525922E+01  0.51100000000E-03 0.  1.
    9000002    1    1    2    0    0 -0.30820503630E+00  0.50041306309E+00  0.27516637017E+00  0.11405981367E+01  0.93800000000E+00 0. -1.
         22    1    1    2    0    0  0.39886072137E-02 -0.31366751294E+00  0.25586917843E+01  0.25778492712E+01  0.00000000000E+00 0.  1.
</event>
<event>
 5    1  0.5849602E+001  0.1599046E+01  0.7818608E-02  0.3354400E+00
         11   -1    0    0    0    0  0.00000000000E+00  0.00000000000E+00  0.39999999674E+01  0.40000000000E+01  0.51100000000E-03 0. -1.
    9000002   -1    0    0    0    0 -0.00000000000E+00 -0.00000000000E+00  0.00000000000E+00  0.93800000000E+00  0.93800000000E+00 0.  1.
         11    1    1    2    0    0 -0.41170540748E-01  0.11537080768E+00  0.97166985820E+00  0.97936102186E+00  0.51100000000E-03 0. -1.
    9000002    1    1    2    0    0  0.19359380422E+00 -0.36042692150E+00  0.11356821644E+00  0.10296251097E+01  0.93800000000E+00 0.  1.
         22    1    1    2    0    0 -0.15242326347E+00  0.24505611382E+00  0.29147618927E+01  0.29290138684E+01  0.00000000000E+00 0. -1.
</event>
<event>
 5    1  0.5849602E+001  0.1599675E+01  0.7818608E-02  0.3353717E+00
         11   -1    0    0    0    0  0.00000000000E+00  0.00000000000E+00  0.39999999674E+01  0.40000000000E+01  0.51100000000E-03 0.  1.
    9000002   -1    0    0    0    0 -0.00000000000E+00 -0.00000000000E+00  0.00000000000E+00  0.93800000000E+00  0.93800000000E+00 0. -1.
         11    1    1    2    0    0  0.41914413461E-01  0.54641718635E-02  0.42135241317E+00  0.42346758133E+00  0.51100000000E-03 0. -1.
    9000002    1    1    2    0    0 -0.39106958342E+00 -0.40918738415E-01  0.10419940203E+00  0.10224046545E+01  0.93800000000E+00 0. -1.
         22    1    1    2    0    0  0.34915516996E+00  0.35454566552E-01  0.34744481522E+01  0.34921277641E+01  0.00000000000E+00 0.  1.
</event>
<event>
 5    1  0.5849602E+001  0.1594103E+01  0.7818608E-02  0.3359789E+00
         11   -1    0    0    0    0  0.00000000000E+00  0.00000000000E+00  0.39999999674E+01  0.40000000000E+01  0.51100000000E-03 0.  1.
    9000002   -1    0    0    0    0 -0.00000000000E+00 -0.00000000000E+00  0.00000000000E+00  0.93800000000E+00  0.93800000000E+00 0.  1.
         11    1    1    2    0    0 -0.49998152239E-01  0.14239578614E-01  0.46639344245E+00  0.46928209545E+00  0.51100000000E-03 0.  1.
    9000002    1    1    2    0    0  0.71684879195E-03 -0.37094441518E+00  0.97044910918E-01  0.10133419895E+01  0.93800000000E+00 0.  1.
         22    1    1    2    0    0  0.49281303447E-01  0.35670483657E+00  0.34365616140E+01  0.34553759150E+01  0.00000000000E+00 0.  1.
</event>
<event>
 5    1  0.5849602E+001  0.1599577E+01  0.7818608E-02  0.3353823E+00
         11   -1    0    0    0    0  0.00000000000E+00  0.00000000000E+00  0.39999999674E+01  0.40000000000E+01  0.51100000000E-03 0. -1.
    9000002   -1    0    0    0    0 -0.00000000000E+00 -0.00000000000E+00  0.00000000000E+00  0.93800000000E+00  0.93800000000E+00 0. -1.
         11    1    1    2    0    0  0.55934213529E-01  0.17606846312E+00  0.14850682753E+01  0.14965148791E+01  0.51100000000E-03 0. -1.
    9000002    1    1    2    0    0 -0.14463988062E+00 -0.42715870323E+00  0.13824287608E+00  0.10499239713E+01  0.93800000000E+00 0. -1.
         22    1    1    2    0    0  0.88705667094E-01  0.25109024010E+00  0.23766888160E+01  0.23915611496E+01  0.00000000000E+00 0. -1.
</event>
<event>
 5    1  0.5849602E+001  0.1599676E+01  0.7818608E-02  0.3353715E+00
         11   -1    0    0    0    0  0.00000000000E+00  0.00000000000E+00  0.39999999674E+01  0.40000000000E+01  0.51100000000E-03 0.  1.
    9000002   -1    0    0    0    0 -0.00000000000E+00 -0.00000000000E+00  0.00000000000E+00  0.93800000000E+00  0.93800000000E+00 0. -1.
         11    1    1    2    0    0  0.61319823545E-01 -0.45096398620E-01  0.73826785971E+00  0.74218158137E+00  0.51100000000E-03 0.  1.
    9000002    1    1    2    0    0 -0.32123175050E+00  0.24032213936E+00  0.10857724904E+00  0.10259520394E+01  0.93800000000E+00 0. -1.
         22    1    1    2    0    0  0.25991192696E+00 -0.19522574073E+00  0.31531548586E+01  0.31698663792E+01  0.00000000000E+00 0.  1.
</event>
<event>
 5    1  0.5849602E+001  0.1535738E+01  0.7818608E-02  0.3426208E+00
         11   -1    0    0    0    0  0.00000000000E+00  0.00000000000E+00  0.39999999674E+01  0.40000000000E+01  0.51100000000E-03 0. -1.
    9000002   -1    0    0    0    0 -0.00000000000E+00 -0.00000000000E+00  0.00000000000E+00  0.93800000000E+00  0.93800000000E+00 0.  1.
         11    1    1    2    0    0 -0.39212611179E+00  0.66573711556E-01  0.10918546375E+01  0.11620420634E+01  0.51100000000E-03 0. -1.
    9000002    1    1    2    0    0  0.48438718294E+00  0.19796359461E+00  0.24962180369E+00  0.11027128242E+01  0.93800000000E+00 0.  1.
         22    1    1    2    0    0 -0.92261071150E-01 -0.26453730616E+00  0.26585235262E+01  0.26732451124E+01  0.00000000000E+00 0. -1.
</event>
<event>
 5    1  0.5849602E+001  0.1599646E+01  0.7818608E-02  0.3353747E+00
         11   -1    0    0    0    0  0.00000000000E+00  0.00000000000E+00  0.39999999674E+01  0.40000000000E+01  0.51100000000E-03 0. -1.
    9000002   -1    0    0    0    0 -0.00000000000E+00 -0.00000000000E+00  0.00000000000E+00  0.93800000000E+00  0.93800000000E+00 0. -1.
         11    1    1    2    0    0 -0.46038597166E-03 -0.11604089354E-01  0.12382336909E+00  0.12436782019E+00  0.51100000000E-03 0. -1.
    9000002    1    1    2    0    0 -0.15667737358E-01  0.42860253107E+00  0.12458142102E+00  0.10388985216E+01  0.93800000000E+00 0. -1.
         22    1    1    2    0    0  0.16128123330E-01 -0.41699844172E+00  0.37515951773E+01  0.37747336583E+01  0.00000000000E+00 0. -1.
</event>
<event>
 5    1  0.5849602E+001  0.1599655E+01  0.7818608E-02  0.3353738E+00
         11   -1    0    0    0    0  0.00000000000E+00  0.00000000000E+00  0.39999999674E+01  0.40000000000E+01  0.51100000000E-03 0. -1.
    9000002   -1    0    0    0    0 -0.00000000000E+00 -0.00000000000E+00  0.00000000000E+00  0.93800000000E+00  0.93800000000E+00 0.  1.
         11    1    1    2    0    0  0.55222928957E-02 -0.96073951776E-01  0.62912711695E+00  0.63644472685E+00  0.51100000000E-03 0. -1.
    9000002    1    1    2    0    0 -0.57348495470E-01  0.58147416811E+00  0.23743315419E+00  0.11303183449E+01  0.93800000000E+00 0.  1.
         22    1    1    2    0    0  0.51826202575E-01 -0.48540021633E+00  0.31334396962E+01  0.31712369283E+01  0.00000000000E+00 0. -1.
</event>
<event>
 5    1  0.5849602E+001  0.1599663E+01  0.7818608E-02  0.3353730E+00
         11   -1    0    0    0    0  0.00000000000E+00  0.00000000000E+00  0.39999999674E+01  0.40000000000E+01  0.51100000000E-03 0.  1.
    9000002   -1    0    0    0    0 -0.00000000000E+00 -0.00000000000E+00  0.00000000000E+00  0.93800000000E+00  0.93800000000E+00 0. -1.
         11    1    1    2    0    0  0.13979903424E+00 -0.52292029070E-01  0.14433198654E+01  0.14510171334E+01  0.51100000000E-03 0.  1.
    9000002    1    1    2    0    0 -0.38770773353E+00  0.13715735283E+00  0.11426082427E+00  0.10305478941E+01  0.93800000000E+00 0. -1.
         22    1    1    2    0    0  0.24790869930E+00 -0.84865323755E-01  0.24424192777E+01  0.24564349725E+01  0.00000000000E+00 0.  1.
</event>
<event>
 5    1  0.5849602E+001  0.1474595E+01  0.7818608E-02  0.3501835E+00
         11   -1    0    0    0    0  0.00000000000E+00  0.00000000000E+00  0.39999999674E+01  0.40000000000E+01  0.51100000000E-03 0.  1.
    9000002   -1    0    0    0    0 -0.00000000000E+00 -0.00000000000E+00  0.00000000000E+00  0.93800000000E+00  0.93800000000E+00 0. -1.
         11    1    1    2    0    0 -0.20102570376E+00 -0.33442632573E-01  0.13057872017E+00  0.24203472174E+00  0.51100000000E-03 0.  1.
    9000002    1    1    2    0    0 -0.36827811460E+00  0.23353592441E+00  0.30161850207E+00  0.10774903798E+01  0.93800000000E+00 0. -1.
         22    1    1    2    0    0  0.56930381835E+00 -0.20009329184E+00  0.35678027451E+01  0.36184748985E+01  0.00000000000E+00 0.  1.
</event>
<event>
 5    1  0.5849602E+001  0.1597503E+01  0.7818608E-02  0.3356078E+00
         11   -1    0    0    0    0  0.00000000000E+00  0.00000000000E+00  0.39999999674E+01  0.40000000000E+01  0.51100000000E-03 0. -1.
    9000002   -1    0    0    0    0 -0.00000000000E+00 -0.00000000000E+00  0.00000000000E+00  0.93800000000E+00  0.93800000000E+00 0.  1.
         11    1    1    2    0    0  0.57637421112E-02  0.10253620588E-01  0.52899068753E+00  0.52912169306E+00  0.51100000000E-03 0. -1.
    9000002    1    1    2    0    0 -0.32730656415E+00 -0.72632003951E-01  0.76986247210E-01  0.99908752229E+00  0.93800000000E+00 0.  1.
         22    1    1    2    0    0  0.32154282203E+00  0.62378383362E-01  0.33940230326E+01  0.34097907847E+01  0.00000000000E+00 0. -1.
</event>
<event>
 5    1  0.5849602E+001  0.1599660E+01  0.7818608E-02  0.3353732E+00
         11   -1    0    0    0    0  0.00000000000E+00  0.00000000000E+00  0.39999999674E+01  0.40000000000E+01  0.51100000000E-03 0.  1.
    9000002   -1    0    0    0    0 -0.00000000000E+00 -0.00000000000E+00  0.00000000000E+00  0.93800000000E+00  0.93800000000E+00 0.  1.
         11    1    1    2    0    0 -0.16736797544E-01  0.12055996871E+00  0.13166556208E+01  0.13222696818E+01  0.51100000000E-03 0.  1.
    9000002    1    1    2    0    0  0.63275076644E-01 -0.36079692727E+00  0.90147691484E-01  0.10110137310E+01  0.93800000000E+00 0.  1.
         22    1    1    2    0    0 -0.46538279099E-01  0.24023695856E+00  0.25931966550E+01  0.26047165872E+01  0.00000000000E+00 0.  1.
</event>
<event>
 5    1  0.5849602E+001  0.1599670E+01  0.7818608E-02  0.3353722E+00
         11   -1    0    0    0    0  0.00000000000E+00  0.00000000000E+00  0.39999999674E+01  0.40000000000E+01  0.51100000000E-03 0. -1.
    9000002   -1    0    0    0    0 -0.00000000000E+00 -0.00000000000E+00  0.00000000000E+00  0.93800000000E+00  0.93800000000E+00 0. -1.
         11    1    1    2    0    0  0.46353402862E-01 -0.33861899782E-01  0.48969204371E+00  0.49304545938E+00  0.51100000000E-03 0. -1.
    9000002    1    1    2    0    0 -0.36991637020E+00  0.25073249467E+00  0.13558077963E+00  0.10478220520E+01  0.93800000000E+00 0. -1.
         22    1    1    2    0    0  0.32356296734E+00 -0.21687059489E+00  0.33747271440E+01  0.33971324886E+01  0.00000000000E+00 0. -1.
</event>
<event>
 5    1  0.5849602E+001  0.1599675E+01  0.7818608E-02  0.3353716E+00
         11   -1    0    0    0    0  0.00000000000E+00  0.00000000000E+00  0.39999999674E+01  0.40000000000E+01  0.51100000000E-03 0.  1.
    9000002   -1    0    0    0    0 -0.00000000000E+00 -0.00000000000E+00  0.00000000000E+00  0.93800000000E+00  0.93800000000E+00 0. -1.
         11    1    1    2    0    0 -0.53107119607E-01  0.47782052136E-01  0.51213657696E+00  0.51709537345E+00  0.51100000000E-03 0.  1.
    9000002    1    1    2    0    0  0.40145179705E+00 -0.35290671875E+00  0.19677081370E+00  0.10973921134E+01  0.93800000000E+00 0. -1.
         22    1    1    2    0    0 -0.34834467745E+00  0.30512466661E+00  0.32910925767E+01  0.33235125131E+01  0.00000000000E+00 0.  1.
</event>
<event>
 5    1  0.5849602E+001  0.1492348E+01  0.7818608E-02  0.3479188E+00
         11   -1    0    0    0    0  0.00000000000E+00  0.00000000000E+00  0.39999999674E+01  0.40000000000E+01  0.51100000000E-03 0.  1.
    9000002   -1    0    0    0    0 -0.00000000000E+00 -0.00000000000E+00  0.00000000000E+00  0.93800000000E+00  0.93800000000E+00 0.  1.
         11    1    1    2    0    0  0.11009117018E+00  0.40902310873E+00  0.13697302742E+01  0.14337298401E+01  0.51100000000E-03 0.  1.
    9000002    1    1    2    0    0 -0.77067264877E-01 -0.11497493643E+00  0.96246847002E-01  0.95302993388E+00  0.93800000000E+00 0.  1.
         22    1    1    2    0    0 -0.33023905308E-01 -0.29404817230E+00  0.25340228462E+01  0.25512402260E+01  0.00000000000E+00 0.  1.
</event>
<event>
 5    1  0.5849602E+001  0.1599676E+01  0.7818608E-02  0.3353716E+00
         11   -1    0    0    0    0  0.00000000000E+00  0.00000000000E+00  0.39999999674E+01  0.40000000000E+01  0.51100000000E-03 0.  1.
    9000002   -1    0    0    0    0 -0.00000000000E+00 -0.00000000000E+00  0.00000000000E+00  0.93800000000E+00  0.93800000000E+00 0.  1.
         11    1    1    2    0    0  0.54568224363E-01 -0.87507777802E-01  0.94827068651E+00  0.95386207509E+00  0.51100000000E-03 0.  1.
    9000002    1    1    2    0    0 -0.22668448456E+00  0.35432134646E+00  0.11966969347E+00  0.10349368617E+01  0.93800000000E+00 0.  1.
         22    1    1    2    0    0  0.17211626020E+00 -0.26681356866E+00  0.29320595874E+01  0.29492010632E+01  0.00000000000E+00 0.  1.
</event>
<event>
 5    1  0.5849602E+001  0.1586221E+01  0.7818608E-02  0.3368456E+00
         11   -1    0    0    0    0  0.00000000000E+00  0.00000000000E+00  0.39999999674E+01  0.40000000000E+01  0.51100000000E-03 0.  1.
    9000002   -1    0    0    0    0 -0.00000000000E+00 -0.00000000000E+00  0.00000000000E+00  0.93800000000E+00  0.93800000000E+00 0. -1.
         11    1    1    2    0    0  0.44836973998E-01  0.23585016243E+00  0.75875253517E+00  0.79582744619E+00  0.51100000000E-03 0.  1.
    9000002    1    1    2    0    0 -0.17414651343E+00 -0.59336118960E+00  0.28165920331E+00  0.11582661250E+01  0.93800000000E+00 0. -1.
         22    1    1    2    0    0  0.12930953943E+00  0.35751102717E+00  0.29595882289E+01  0.29839064288E+01  0.00000000000E+00 0.  1.
</event>
<event>
 5    1  0.5849602E+001  0.1599674E+01  0.7818608E-02  0.3353717E+00
         11   -1    0    0    0    0  0.00000000000E+00  0.00000000000E+00  0.39999999674E+01  0.40000000000E+01  0.51100000000E-03 0. -1.
    9000002   -1    0    0    0    0 -0.00000000000E+00 -0.00000000000E+00  0.00000000000E+00  0.93800000000E+00  0.93800000000E+00 0.  1.
         11    1    1    2    0    0  0.48334181632E-01  0.87938931374E-02  0.53079312262E+00  0.53306202811E+00  0.51100000000E-03 0. -1.
    9000002    1    1    2    0    0 -0.35377024574E+00 -0.74311542680E-01  0.87734783385E-01  0.10090673835E+01  0.93800000000E+00 0.  1.
         22    1    1    2    0    0  0.30543606410E+00  0.65517649543E-01  0.33814720614E+01  0.33958705884E+01  0.00000000000E+00 0. -1.
</event>
<event>
 5    1  0.5849602E+001  0.1599662E+01  0.7818608E-02  0.3353730E+00
         11   -1    0    0    0    0  0.00000000000E+00  0.00000000000E+00  0.39999999674E+01  0.40000000000E+01  0.51100000000E-03 0. -1.
    9000002   -1    0    0    0    0 -0.00000000000E+00 -0.00000000000E+00  0.00000000000E+00  0.93800000000E+00  0.93800000000E+00 0.  1.
         11    1    1    2    0    0  0.11451093843E+00  0.52055471771E-01  0.82191715998E+00  0.83148698496E+00  0.51100000000E-03 0. -1.
    9000002    1    1    2    0    0 -0.52767779045E+00 -0.22136288648E+00  0.22716384852E+00  0.11220039180E+01  0.93800000000E+00 0.  1.
         22    1    1    2    0    0  0.41316685202E+00  0.16930741470E+00  0.29509189589E+01  0.29845090970E+01  0.00000000000E+00 0. -1.
</event>
<event>
 5    1  0.5849602E+001  0.1597546E+01  0.7818608E-02  0.3356031E+00
         11   -1    0    0    0    0  0.00000000000E+00  0.00000000000E+00  0.39999999674E+01  0.40000000000E+01  0.51100000000E-03 0.  1.
    9000002   -1    0    0    0    0 -0.00000000000E+00 -0.00000000000E+00  0.00000000000E+00  0.93800000000E+00  0.93800000000E+00 0. -1.
         11    1    1    2    0    0  0.73867784520E-02 -0.10291328503E+00  0.98753152076E+00  0.99290708243E+00  0.51100000000E-03 0.  1.
    9000002    1    1    2    0    0  0.16091251547E+00  0.39913219305E+00  0.12724481400E+00  0.10398243062E+01  0.93800000000E+00 0. -1.
         22    1    1    2    0    0 -0.16829929393E+00 -0.29621890802E+00  0.28852236326E+01  0.29052686113E+01  0.00000000000E+00 0.  1.
</event>
<event>
 5    1  0.5849602E+001  0.1523846E+01  0.7818608E-02  0.3440406E+00
         11   -1    0    0    0    0  0.00000000000E+00  0.00000000000E+00  0.39999999674E+01  0.40000000000E+01  0.51100000000E-03 0. -1.
    9000002   -1    0    0    0    0 -0.00000000000E+00 -0.00000000000E+00  0.00000000000E+00  0.93800000000E+00  0.93800000000E+00 0.  1.
         11    1    1    2    0    0 -0.16557105476E+00 -0.14124941298E+00  0.77138610869E+00  0.80149981949E+00  0.51100000000E-03 0. -1.
    9000002    1    1    2    0    0 -0.24683993506E+00 -0.69856060041E-01  0.10430324094E+00  0.97802504505E+00  0.93800000000E+00 0.  1.
         22    1    1    2    0    0  0.41241098982E+00  0.21110547302E+00  0.31243106177E+01  0.31584751355E+01  0.00000000000E+00 0.  1.
</event>
<event>
 5    1  0.5849602E+001  0.1599653E+01  0.7818608E-02  0.3353740E+00
         11   -1    0    0    0    0  0.00000000000E+00  0.00000000000E+00  0.39999999674E+01  0.40000000000E+01  0.51100000000E-03 0.  1.
    9000002   -1    0    0    0    0 -0.00000000000E+00 -0.00000000000E+00  0.00000000000E+00  0.93800000000E+00  0.93800000000E+00 0. -1.
         11    1    1    2    0    0  0.85441591457E-01 -0.25709528258E+00  0.12767222848E+01  0.13051506823E+01  0.51100000000E-03 0.  1.
    9000002    1    1    2    0    0 -0.22414938411E+00  0.72281970700E+00  0.41606197120E+00  0.12750148388E+01  0.93800000000E+00 0. -1.
         22    1    1    2    0    0  0.13870779265E+00 -0.46572442442E+00  0.23072157114E+01  0.23578344789E+01  0.00000000000E+00 0.  1.
</event>
<event>
 5    1  0.5849602E+001  0.1598459E+01  0.7818608E-02  0.3355037E+00
         11   -1    0    0    0    0  0.00000000000E+00  0.00000000000E+00  0.39999999674E+01  0.40000000000E+01  0.51100000000E-03 0.  1.
    9000002   -1    0    0    0    0 -0.00000000000E+00 -0.00000000000E+00  0.00000000000E+00  0.93800000000E+00  0.93800000000E+00 0.  1.
         11    1    1    2    0    0  0.82613734963E-01 -0.42759106572E-01  0.13277175209E+01  0.13309723689E+01  0.51100000000E-03 0.  1.
    9000002    1    1    2    0    0 -0.33762282395E+00  0.55314643532E-01  0.79391552242E-01  0.10015966751E+01  0.93800000000E+00 0.  1.
         22    1    1    2    0    0  0.25500908899E+00 -0.12555536960E-01  0.25928908942E+01  0.26054309560E+01  0.00000000000E+00 0.  1.
</event>
<event>
 5    1  0.5849602E+001  0.1599662E+01  0.7818608E-02  0.3353730E+00
         11   -1    0    0    0    0  0.00000000000E+00  0.00000000000E+00  0.39999999674E+01  0.40000000000E+01  0.51100000000E-03 0. -1.
    9000002   -1    0    0    0    0 -0.00000000000E+00 -0.00000000000E+00  0.00000000000E+00  0.93800000000E+00  0.93800000000E+00 0. -1.
         11    1    1    2    0    0  0.20717639143E+00  0.12337471726E+00  0.13455934553E+01  0.13670279391E+01  0.51100000000E-03 0. -1.
    9000002    1    1    2    0    0 -0.57075923786E+00 -0.32666017738E+00  0.30575351381E+00  0.11856652944E+01  0.93800000000E+00 0. -1.
         22    1    1    2    0    0  0.36358284644E+00  0.20328546012E+00  0.23486529982E+01  0.23853067665E+01  0.00000000000E+00 0. -1.
</event>
<event>
 5    1  0.5849602E+001  0.1599507E+01  0.7818608E-02  0.3353898E+00
         11   -1    0    0    0    0  0.00000000000E+00  0.00000000000E+00  0.39999999674E+01  0.40000000000E+01  0.51100000000E-03 0. -1.
    9000002   -1    0    0    0    0 -0.00000000000E+00 -0.00000000000E+00  0.00000000000E+00  0.93800000000E+00  0.93800000000E+00 0. -1.
         11    1    1    2    0    0 -0.17395971381E+00 -0.20068529083E+00  0.11907730670E+01  0.12200316906E+01  0.51100000000E-03 0. -1.
    9000002    1    1    2    0    0  0.48869607036E+00  0.62978249649E+00  0.46785415438E+00  0.13168831960E+01  0.93800000000E+00 0. -1.
         22    1    1    2    0    0 -0.31473635654E+00 -0.42909720566E+00  0.23413727460E+01  0.24010851134E+01  0.00000000000E+00 0. -1.
</event>
<event>
 5    1  0.5849602E+001  0.1549771E+01  0.7818608E-02  0.3409752E+00
         11   -1    0    0    0    0  0.00000000000E+00  0.00000000000E+00  0.39999999674E+01  0.40000000000E+01  0.51100000000E-03 0. -1.
    9000002   -1    0    0    0    0 -0.00000000000E+00 -0.00000000000E+00  0.00000000000E+00  0.93800000000E+00  0.93800000000E+00 0.  1.
         11    1    1    2    0    0 -0.11556256291E+00 -0.25005434791E-01  0.25429619074E+00  0.28044035277E+00  0.51100000000E-03 0. -1.
    9000002    1    1    2    0    0 -0.21894781874E+00 -0.16052459059E+00  0.88605109793E-01  0.98051066134E+00  0.93800000000E+00 0.  1.
         22    1    1    2    0    0  0.33451038165E+00  0.18553002538E+00  0.36570986668E+01  0.36770489859E+01  0.00000000000E+00 0. -1.
</event>
<event>
 5    1  0.5849602E+001  0.1599669E+01  0.7818608E-02  0.3353723E+00
         11   -1    0    0    0    0  0.00000000000E+00  0.00000000000E+00  0.39999999674E+01  0.40000000000E+01  0.51100000000E-03 0. -1.
    9000002   -1    0    0    0    0 -0.00000000000E+00 -0.00000000000E+00  0.00000000000E+00  0.93800000000E+00  0.93800000000E+00 0. -1.
         11    1    1    2    0    0 -0.73749117701E-02 -0.38148170051E-01  0.39234046996E+00  0.39426003816E+00  0.51100000000E-03 0.  1.
    9000002    1    1    2    0    0  0.85363051766E-01  0.39480074197E+00  0.11011379315E+00  0.10271920579E+01  0.93800000000E+00 0. -1.
         22    1    1    2    0    0 -0.77988139996E-01 -0.35665257192E+00  0.34975457043E+01  0.35165479039E+01  0.00000000000E+00 0. -1.
</event>
<event>
 5    1  0.5849602E+001  0.1598196E+01  0.7818608E-02  0.3355324E+00
         11   -1    0    0    0    0  0.00000000000E+00  0.00000000000E+00  0.39999999674E+01  0.40000000000E+01  0.51100000000E-03 0.  1.
    9000002   -1    0    0    0    0 -0.00000000000E+00 -0.00000000000E+00  0.00000000000E+00  0.93800000000E+00  0.93800000000E+00 0. -1.
         11    1    1    2    0    0  0.16680842261E+00  0.25913962979E-01  0.13245226202E+01  0.13352366891E+01  0.51100000000E-03 0.  1.
    9000002    1    1    2    0    0 -0.42449711132E+00 -0.18804581878E+00  0.14801401641E+00  0.10570294114E+01  0.93800000000E+00 0. -1.
         22    1    1    2    0    0  0.25768868871E+00  0.16213185580E+00  0.25274633307E+01  0.25457338995E+01  0.00000000000E+00 0.  1.
</event>
<event>
 5    1  0.5849602E+001  0.1599565E+01  0.7818608E-02  0.3353835E+00
         11   -1    0    0    0    0  0.00000000000E+00  0.00000000000E+00  0.39999999674E+01  0.40000000000E+01  0.51100000000E-03 0.  1.
    9000002   -1    0    0    0    0 -0.00000000000E+00 -0.00000000000E+00  0.00000000000E+00  0.93800000000E+00  0.93800000000E+00 0.  1.
         11    1    1    2    0    0  0.12435682618E+00  0.23706879414E-01  0.13342272980E+01  0.13402199000E+01  0.51100000000E-03 0.  1.
    9000002    1    1    2    0    0 -0.39140966743E+00 -0.48147840467E-01  0.10491849990E+00  0.10229230831E+01  0.93800000000E+00 0.  1.
         22    1    1    2    0    0  0.26705284126E+00  0.24440961054E-01  0.25608541694E+01  0.25748570169E+01  0.00000000000E+00 0.  1.
</event>
<event>
 5    1  0.5849602E+001  0.1598428E+01  0.7818608E-02  0.3355071E+00
         11   -1    0    0    0    0  0.00000000000E+00  0.00000000000E+00  0.39999999674E+01  0.40000000000E+01  0.51100000000E-03 0. -1.
    9000002   -1    0    0    0    0 -0.00000000000E+00 -0.00000000000E+00  0.00000000000E+00  0.93800000000E+00  0.93800000000E+00 0. -1.
         11    1    1    2    0    0  0.26150011567E+00 -0.13117009752E+00  0.13682747990E+01  0.13992012335E+01  0.51100000000E-03 0. -1.
    9000002    1    1    2    0    0 -0.59364074435E+00  0.32350962445E+00  0.32597266288E+00  0.12013201020E+01  0.93800000000E+00 0. -1.
         22    1    1    2    0    0  0.33214062869E+00 -0.19233952693E+00  0.23057525055E+01  0.23374786646E+01  0.00000000000E+00 0. -1.
</event>
<event>
 5    1  0.5849602E+001  0.1599152E+01  0.7818608E-02  0.3354285E+00
         11   -1    0    0    0    0  0.00000000000E+00  0.00000000000E+00  0.39999999674E+01  0.40000000000E+01  0.51100000000E-03 0. -1.
    9000002   -1    0    0    0    0 -0.00000000000E+00 -0.00000000000E+00  0.00000000000E+00  0.93800000000E+00  0.93800000000E+00 0.  1.
         11    1    1    2    0    0 -0.12592949648E+00  0.21024445571E+00  0.12879266757E+01  0.13110363657E+01  0.51100000000E-03 0. -1.
    9000002    1    1    2    0    0  0.32529521579E+00 -0.54057812144E+00  0.28016225531E+00  0.11646358109E+01  0.93800000000E+00 0.  1.
         22    1    1    2    0    0 -0.19936571931E+00  0.33033366572E+00  0.24319110364E+01  0.24623278234E+01  0.00000000000E+00 0. -1.
</event>
<event>
 5    1  0.5849602E+001  0.1475890E+01  0.7818608E-02  0.3500163E+00
         11   -1    0    0    0    0  0.00000000000E+00  0.00000000000E+00  0.39999999674E+01  0.40000000000E+01  0.51100000000E-03 0. -1.
    9000002   -1    0    0    0    0 -0.00000000000E+00 -0.00000000000E+00  0.00000000000E+00  0.93800000000E+00  0.93800000000E+00 0.  1.
         11    1    1    2    0    0 -0.12669364337E+00 -0.28910309068E-01 -0.10568437782E-01  0.13038035987E+00  0.51100000000E-03 0. -1.
    9000002    1    1    2    0    0  0.12676369592E-01  0.48990830523E+00  0.34750346811E+00  0.11139001294E+01  0.93800000000E+00 0.  1.
         22    1    1    2    0    0  0.11401727378E+00 -0.46099799617E+00  0.36630649370E+01  0.36937195108E+01  0.00000000000E+00 0. -1.
</event>
<event>
 5    1  0.5849602E+001  0.1599673E+01  0.7818608E-02  0.3353718E+00
         11   -1    0    0    0    0  0.00000000000E+00  0.00000000000E+00  0.39999999674E+01  0.40000000000E+01  0.51100000000E-03 0.  1.
    9000002   -1    0    0    0    0 -0.00000000000E+00 -0.00000000000E+00  0.00000000000E+00  0.93800000000E+00  0.93800000000E+00 0.  1.
         11    1    1    2    0    0  0.14048393622E+00  0.86423086358E-02  0.13350936488E+01  0.13424923605E+01  0.51100000000E-03 0.  1.
    9000002    1    1    2    0    0 -0.41039218140E+00 -0.19093868361E-01  0.11401366569E+00  0.10303540335E+01  0.93800000000E+00 0.  1.
         22    1    1    2    0    0  0.26990824518E+00  0.10451559725E-01  0.25508926529E+01  0.25651536060E+01  0.00000000000E+00 0.  1.
</event>
<event>
 5    1  0.5849602E+001  0.1590874E+01  0.7818608E-02  0.3363328E+00
         11   -1    0    0    0    0  0.00000000000E+00  0.00000000000E+00  0.39999999674E+01  0.40000000000E+01  0.51100000000E-03 0.  1.
    9000002   -1    0    0    0    0 -0.00000000000E+00 -0.00000000000E+00  0.00000000000E+00  0.93800000000E+00  0.93800000000E+00 0. -1.
         11    1    1    2    0    0 -0.10332356061E+00  0.35368745344E-01  0.11989310875E+01  0.12038948127E+01  0.51100000000E-03 0.  1.
    9000002    1    1    2    0    0  0.20663025676E+00 -0.42509659268E+00  0.16004066665E+00  0.10624783250E+01  0.93800000000E+00 0. -1.
         22    1    1    2    0    0 -0.10330669615E+00  0.38972784734E+00  0.26410282132E+01  0.26716268623E+01  0.00000000000E+00 0.  1.
</event>
<event>
 5    1  0.5849602E+001  0.1599671E+01  0.7818608E-02  0.3353720E+00
         11   -1    0    0    0    0  0.00000000000E+00  0.00000000000E+00  0.39999999674E+01  0.40000000000E+01  0.51100000000E-03 0.  1.
    9000002   -1    0    0    0    0 -0.00000000000E+00 -0.00000000000E+00  0.00000000000E+00  0.93800000000E+00  0.93800000000E+00 0.  1.
         11    1    1    2    0    0  0.32421012015E-01  0.14356833215E+00  0.14574015067E+01  0.14648148009E+01  0.51100000000E-03 0.  1.
    9000002    1    1    2    0    0 -0.89840815251E-01 -0.39018301736E+00  0.10814540053E+00  0.10255991355E+01  0.93800000000E+00 0.  1.
         22    1    1    2    0    0  0.57419803236E-01  0.24661468520E+00  0.24344530602E+01  0.24475860636E+01  0.00000000000E+00 0.  1.
</event>
<event>
 5    1  0.5849602E+001  0.1599676E+01  0.7818608E-02  0.3353716E+00
         11   -1    0    0    0    0  0.00000000000E+00  0.00000000000E+00  0.39999999674E+01  0.40000000000E+01  0.51100000000E-03 0.  1.
    9000002   -1    0    0    0    0 -0.00000000000E+00 -0.00000000000E+00  0.00000000000E+00  0.93800000000E+00  0.93800000000E+00 0.  1.
         11    1    1    2    0    0 -0.12391077575E+00 -0.49709187059E-01  0.81238770437E+00  0.82328544683E+00  0.51100000000E-03 0.  1.
    9000002    1    1    2    0    0  0.56505825416E+00  0.22921538640E+00  0.25997615284E+00  0.11485913651E+01  0.93800000000E+00 0.  1.
         22    1    1    2    0    0 -0.44114747841E+00 -0.17950619934E+00  0.29276361101E+01  0.29661231881E+01  0.00000000000E+00 0.  1.
</event>
<event>
 5    1  0.5849602E+001  0.1587894E+01  0.7818608E-02  0.3366608E+00
         11   -1    0    0    0    0  0.00000000000E+00  0.00000000000E+00  0.39999999674E+01  0.40000000000E+01  0.51100000000E-03 0.  1.
    9000002   -1    0    0    0    0 -0.00000000000E+00 -0.00000000000E+00  0.00000000000E+00  0.93800000000E+00  0.93800000000E+00 0. -1.
         11    1    1    2    0    0 -0.68716589922E-01 -0.59069815080E-01  0.40937196136E+00  0.41928138124E+00  0.51100000000E-03 0.  1.
    9000002    1    1    2    0    0  0.34619474258E+00 -0.13846303239E+00  0.10314873282E+00  0.10146459837E+01  0.93800000000E+00 0. -1.
         22    1    1    2    0    0 -0.27747815266E+00  0.19753284747E+00  0.34874792732E+01  0.35040726351E+01  0.00000000000E+00 0.  1.
</event>
<event>
 5    1  0.5849602E+001  0.1581720E+01  0.7818608E-02  0.3373446E+00
         11   -1    0    0    0    0  0.00000000000E+00  0.00000000000E+00  0.39999999674E+01  0.40000000000E+01  0.51100000000E-03 0. -1.
    9000002   -1    0    0    0    0 -0.00000000000E+00 -0.00000000000E+00  0.00000000000E+00  0.93800000000E+00  0.93800000000E+00 0. -1.
         11    1    1    2    0    0 -0.25922511970E+00 -0.11896356700E+00  0.12254366455E+01  0.12581912519E+01  0.51100000000E-03 0. -1.
    9000002    1    1    2    0    0  0.35461418552E+00  0.52597300522E+00  0.30170627446E+00  0.11718658195E+01  0.93800000000E+00 0. -1.
         22    1    1    2    0    0 -0.95389065820E-01 -0.40700943822E+00  0.24728570474E+01  0.25079429286E+01  0.00000000000E+00 0. -1.
</event>
<event>
 5    1  0.5849602E+001  0.1598744E+01  0.7818608E-02  0.3354727E+00
         11   -1    0    0    0    0  0.00000000000E+00  0.00000000000E+00  0.39999999674E+01  0.40000000000E+01  0.51100000000E-03 0. -1.
    9000002   -1    0    0    0    0 -0.00000000000E+00 -0.00000000000E+00  0.00000000000E+00  0.93800000000E+00  0.93800000000E+00 0.  1.
         11    1    1    2    0    0 -0.16129039881E-01  0.13425847886E+00  0.98521361979E+00  0.99445041244E+00  0.51100000000E-03 0. -1.
    9000002    1    1    2    0    0  0.11153159271E+00 -0.41124232911E+00  0.12368332968E+00  0.10376420941E+01  0.93800000000E+00 0.  1.
         22    1    1    2    0    0 -0.95402552830E-01  0.27698385026E+00  0.28911030179E+01  0.29059074934E+01  0.00000000000E+00 0. -1.
</event>
<event>
 5    1  0.5849602E+001  0.1597751E+01  0.7818608E-02  0.3355808E+00
         11   -1    0    0    0    0  0.00000000000E+00  0.00000000000E+00  0.39999999674E+01  0.40000000000E+01  0.51100000000E-03 0.  1.
    9000002   -1    0    0    0    0 -0.00000000000E+00 -0.00000000000E+00  0.00000000000E+00  0.93800000000E+00  0.93800000000E+00 0.  1.
         11    1    1    2    0    0  0.11794352797E+00 -0.50226120083E-01  0.12981437987E+01  0.13044580953E+01  0.51100000000E-03 0.  1.
    9000002    1    1    2    0    0 -0.25618904622E+00  0.26366987388E+00  0.92373689440E-01  0.10116973501E+01  0.93800000000E+00 0.  1.
         22    1    1    2    0    0  0.13824551825E+00 -0.21344375380E+00  0.26094824792E+01  0.26218445546E+01  0.00000000000E+00 0.  1.
</event>
<event>
 5    1  0.5849602E+001  0.1570851E+01  0.7818608E-02  0.3385621E+00
         11   -1    0    0    0    0  0.00000000000E+00  0.00000000000E+00  0.39999999674E+01  0.40000000000E+01  0.51100000000E-03 0. -1.
    9000002   -1    0    0    0    0 -0.00000000000E+00 -0.00000000000E+00  0.00000000000E+00  0.93800000000E+00  0.93800000000E+00 0.  1.
         11    1    1    2    0    0 -0.16694695672E+00 -0.91866262076E-04  0.12694686723E+01  0.12803992603E+01  0.51100000000E-03 0. -1.
    9000002    1    1    2    0    0 -0.55442630550E-02  0.27777269491E+00  0.74046656197E-01  0.98107864934E+00  0.93800000000E+00 0.  1.
         22    1    1    2    0    0  0.17249121978E+00 -0.27768082865E+00  0.26564846389E+01  0.26765220903E+01  0.00000000000E+00 0.  1.
</event>
<event>
 5    1  0.5849602E+001  0.1595725E+01  0.7818608E-02  0.3358016E+00
         11   -1    0    0    0    0  0.00000000000E+00  0.00000000000E+00  0.39999999674E+01  0.40000000000E+01  0.51100000000E-03 0. -1.
    9000002   -1    0    0    0    0 -0.00000000000E+00 -0.00000000000E+00  0.00000000000E+00  0.93800000000E+00  0.93800000000E+00 0.  1.
         11    1    1    2    0    0 -0.44649961523E-01 -0.25865090820E+00  0.80283736801E+00  0.84465496622E+00  0.51100000000E-03 0. -1.
    9000002    1    1    2    0    0 -0.70642417590E-01  0.96378492843E+00  0.74470966397E+00  0.15389308701E+01  0.93800000000E+00 0.  1.
         22    1    1    2    0    0  0.11529237911E+00 -0.70513402023E+00  0.24524529354E+01  0.25544141637E+01  0.00000000000E+00 0. -1.
</event>
<event>
 5    1  0.5849602E+001  0.1599669E+01  0.7818608E-02  0.3353723E+00
         11   -1    0    0    0    0  0.00000000000E+00  0.00000000000E+00  0.39999999674E+01  0.40000000000E+01  0.51100000000E-03 0. -1.
    9000002   -1    0    0    0    0 -0.00000000000E+00 -0.00000000000E+00  0.00000000000E+00  0.93800000000E+00  0.93800000000E+00 0.  1.
         11    1    1    2    0    0 -0.54782707119E-01 -0.66506913771E-01  0.76708210070E+00  0.77190642238E+00  0.51100000000E-03 0. -1.
    9000002    1    1    2    0    0  0.27140144658E+00  0.34841383371E+00  0.13232140707E+00  0.10451812759E+01  0.93800000000E+00 0.  1.
         22    1    1    2    0    0 -0.21661873946E+00 -0.28190691993E+00  0.31005964596E+01  0.31209123017E+01  0.00000000000E+00 0. -1.
</event>
<event>
 5    1  0.5849602E+001  0.1599551E+01  0.7818608E-02  0.3353851E+00
         11   -1    0    0    0    0  0.00000000000E+00  0.00000000000E+00  0.39999999674E+01  0.40000000000E+01  0.51100000000E-03 0. -1.
    9000002   -1    0    0    0    0 -0.00000000000E+00 -0.00000000000E+00  0.00000000000E+00  0.93800000000E+00  0.93800000000E+00 0. -1.
         11    1    1    2    0    0  0.16196162375E-01 -0.68403710784E-01  0.32753783703E+00  0.33499653600E+00  0.51100000000E-03 0. -1.
    9000002    1    1    2    0    0 -0.12185387207E+00  0.69600310992E+00  0.35759482587E+00  0.12275938883E+01  0.93800000000E+00 0. -1.
         22    1    1    2    0    0  0.10565770969E+00 -0.62759939914E+00  0.33148673045E+01  0.33754095757E+01  0.00000000000E+00 0. -1.
</event>
<event>
 5    1  0.5849602E+001  0.1599415E+01  0.7818608E-02  0.3353998E+00
         11   -1    0    0    0    0  0.00000000000E+00  0.00000000000E+00  0.39999999674E+01  0.40000000000E+01  0.51100000000E-03 0. -1.
    9000002   -1    0    0    0    0 -0.00000000000E+00 -0.00000000000E+00  0.00000000000E+00  0.93800000000E+00  0.93800000000E+00 0.  1.
         11    1    1    2    0    0 -0.16575307240E+00  0.15646804136E+00  0.11890785333E+01  0.12107288501E+01  0.51100000000E-03 0. -1.
    9000002    1    1    2    0    0  0.46799173031E+00 -0.51864627260E+00  0.34892798708E+00  0.12204937345E+01  0.93800000000E+00 0.  1.
         22    1    1    2    0    0 -0.30223865791E+00  0.36217823124E+00  0.24619934470E+01  0.25067774154E+01  0.00000000000E+00 0. -1.
</event>
<event>
 5    1  0.5849602E+001  0.1599667E+01  0.7818608E-02  0.3353725E+00
         11   -1    0    0    0    0  0.00000000000E+00  0.00000000000E+00  0.39999999674E+01  0.40000000000E+01  0.51100000000E-03 0.  1.
    9000002   -1    0    0    0    0 -0.00000000000E+00 -0.00000000000E+00  0.00000000000E+00  0.93800000000E+00  0.93800000000E+00 0.  1.
         11    1    1    2    0    0 -0.37964090688E-01  0.27286655374E-01  0.43404405517E+00  0.43655507865E+00  0.51100000000E-03 0.  1.
    9000002    1    1    2    0    0  0.32488991911E+00 -0.25873647408E+00  0.11659576194E+00  0.10324420537E+01  0.93800000000E+00 0.  1.
         22    1    1    2    0    0 -0.28692582842E+00  0.23144981871E+00  0.34493601502E+01  0.34690028676E+01  0.00000000000E+00 0.  1.
</event>
<event>
 5    1  0.5849602E+001  0.1591914E+01  0.7818608E-02  0.3362187E+00
         11   -1    0    0    0    0  0.00000000000E+00  0.00000000000E+00  0.39999999674E+01  0.40000000000E+01  0.51100000000E-03 0. -1.
    9000002   -1    0    0    0    0 -0.00000000000E+00 -0.00000000000E+00  0.00000000000E+00  0.93800000000E+00  0.93800000000E+00 0. -1.
         11    1    1    2    0    0  0.59742684044E-01 -0.30792043042E-01  0.73726042493E+00  0.74031785977E+00  0.51100000000E-03 0. -1.
    9000002    1    1    2    0    0  0.64286474701E-01  0.38231599261E+00  0.10765402834E+00  0.10206525652E+01  0.93800000000E+00 0. -1.
         22    1    1    2    0    0 -0.12402915874E+00 -0.35152394957E+00  0.31550855141E+01  0.31770295750E+01  0.00000000000E+00 0. -1.
</event>
<event>
 5    1  0.5849602E+001  0.1599672E+01  0.7818608E-02  0.3353720E+00
         11   -1    0    0    0    0  0.00000000000E+00  0.00000000000E+00  0.39999999674E+01  0.40000000000E+01  0.51100000000E-03 0. -1.
    9000002   -1    0    0    0    0 -0.00000000000E+00 -0.00000000000E+00  0.00000000000E+00  0.93800000000E+00  0.93800000000E+00 0. -1.
         11    1    1    2    0    0 -0.30200366550E-01 -0.11772844508E+00  0.11901328380E+01  0.11963229004E+01  0.51100000000E-03 0. -1.
    9000002    1    1    2    0    0  0.10520426512E+00  0.38021979257E+00  0.10490971563E+00  0.10229785318E+01  0.93800000000E+00 0. -1.
         22    1    1    2    0    0 -0.75003898575E-01 -0.26249134749E+00  0.27049574137E+01  0.27186985678E+01  0.00000000000E+00 0. -1.
</event>
<event>
 5    1  0.5849602E+001  0.1598762E+01  0.7818608E-02  0.3354709E+00
         11   -1    0    0    0    0  0.00000000000E+00  0.00000000000E+00  0.39999999674E+01  0.40000000000E+01  0.51100000000E-03 0.  1.
    9000002   -1    0    0    0    0 -0.00000000000E+00 -0.00000000000E+00  0.00000000000E+00  0.93800000000E+00  0.93800000000E+00 0.  1.
         11    1    1    2    0    0 -0.27526513220E-01  0.16038261935E-01  0.16939837585E+00  0.17236880703E+00  0.51100000000E-03 0.  1.
    9000002    1    1    2    0    0  0.28510849770E+00 -0.35546877106E+00  0.14194280928E+00  0.10524431879E+01  0.93800000000E+00 0.  1.
         22    1    1    2    0    0 -0.25758198448E+00  0.33943050913E+00  0.36886587822E+01  0.37131880051E+01  0.00000000000E+00 0.  1.
</event>
<event>
 5    1  0.5849602E+001  0.1587185E+01  0.7818608E-02  0.3367391E+00
         11   -1    0    0    0    0  0.00000000000E+00  0.00000000000E+00  0.39999999674E+01  0.40000000000E+01  0.51100000000E-03 0.  1.
    9000002   -1    0    0    0    0 -0.00000000000E+00 -0.00000000000E+00  0.00000000000E+00  0.93800000000E+00  0.93800000000E+00 0.  1.
         11    1    1    2    0    0 -0.14134732996E+00 -0.13384289884E+00  0.71673451506E+00  0.74269887266E+00  0.51100000000E-03 0.  1.
    9000002    1    1    2    0    0  0.27132874375E+00  0.41332253173E+00  0.17847083885E+00  0.10752444572E+01  0.93800000000E+00 0.  1.
         22    1    1    2    0    0 -0.12998141380E+00 -0.27947963289E+00  0.31047946135E+01  0.31200566701E+01  0.00000000000E+00 0.  1.
</event>
<event>
 5    1  0.5849602E+001  0.1599558E+01  0.7818608E-02  0.3353843E+00
         11   -1    0    0    0    0  0.00000000000E+00  0.00000000000E+00  0.39999999674E+01  0.40000000000E+01  0.51100000000E-03 0.  1.
    9000002   -1    0    0    0    0 -0.00000000000E+00 -0.00000000000E+00  0.00000000000E+00  0.93800000000E+00  0.93800000000E+00 0.  1.
         11    1    1    2    0    0 -0.71766026645E-01 -0.12878165411E-01  0.68613717424E+00  0.69000050197E+00  0.51100000000E-03 0.  1.
    9000002    1    1    2    0    0  0.36325016461E+00  0.39414104630E-01  0.89768047498E-01  0.10106465535E+01  0.93800000000E+00 0.  1.
         22    1    1    2    0    0 -0.29148413797E+00 -0.26535939219E-01  0.32240947456E+01  0.32373529445E+01  0.00000000000E+00 0.  1.
</event>
<event>
 5    1  0.5849602E+001  0.1599328E+01  0.7818608E-02  0.3354093E+00
         11   -1    0    0    0    0  0.00000000000E+00  0.00000000000E+00  0.39999999674E+01  0.40000000000E+01  0.51100000000E-03 0.  1.
    9000002   -1    0    0    0    0 -0.00000000000E+00 -0.00000000000E+00  0.00000000000E+00  0.93800000000E+00  0.93800000000E+00 0. -1.
         11    1    1    2    0    0 -0.55323577392E-01  0.53262722779E-01  0.81214955937E+00  0.81577250736E+00  0.51100000000E-03 0.  1.
    9000002    1    1    2    0    0  0.34482279145E+00 -0.28501840847E+00  0.13617866473E+00  0.10481063302E+01  0.93800000000E+00 0. -1.
         22    1    1    2    0    0 -0.28949921406E+00  0.23175568569E+00  0.30516717433E+01  0.30741211624E+01  0.00000000000E+00 0.  1.
</event>
<event>
 5    1  0.5849602E+001  0.1599675E+01  0.7818608E-02  0.3353716E+00
         11   -1    0    0    0    0  0.00000000000E+00  0.00000000000E+00  0.39999999674E+01  0.40000000000E+01  0.51100000000E-03 0. -1.
    9000002   -1    0    0    0    0 -0.00000000000E+00 -0.00000000000E+00  0.00000000000E+00  0.93800000000E+00  0.93800000000E+00 0.  1.
         11    1    1    2    0    0 -0.23399368756E-02  0.56484716942E-01  0.53600252007E+00  0.53897584472E+00  0.51100000000E-03 0. -1.
    9000002    1    1    2    0    0  0.14088692487E-01 -0.40287645686E+00  0.10966050317E+00  0.10268287865E+01  0.93800000000E+00 0.  1.
         22    1    1    2    0    0 -0.11748755611E-01  0.34639173992E+00  0.33543369441E+01  0.33721953688E+01  0.00000000000E+00 0. -1.
</event>
<event>
 5    1  0.5849602E+001  0.1599676E+01  0.7818608E-02  0.3353716E+00
         11   -1    0    0    0    0  0.00000000000E+00  0.00000000000E+00  0.39999999674E+01  0.40000000000E+01  0.51100000000E-03 0.  1.
    9000002   -1    0    0    0    0 -0.00000000000E+00 -0.00000000000E+00  0.00000000000E+00  0.93800000000E+00  0.93800000000E+00 0.  1.
         11    1    1    2    0    0 -0.44233193717E-01 -0.95677342593E-01  0.93678955358E+00  0.94270125604E+00  0.51100000000E-03 0.  1.
    9000002    1    1    2    0    0  0.18354222185E+00  0.40015713818E+00  0.13144950957E+00  0.10444790357E+01  0.93800000000E+00 0.  1.
         22    1    1    2    0    0 -0.13930902814E+00 -0.30447979559E+00  0.29317609042E+01  0.29508197083E+01  0.00000000000E+00 0.  1.
</event>
<event>
 5    1  0.5849602E+001  0.1460906E+01  0.7818608E-02  0.3519704E+00
         11   -1    0    0    0    0  0.00000000000E+00  0.00000000000E+00  0.39999999674E+01  0.40000000000E+01  0.51100000000E-03 0.  1.
    9000002   -1    0    0    0    0 -0.00000000000E+00 -0.00000000000E+00  0.00000000000E+00  0.93800000000E+00  0.93800000000E+00 0.  1.
         11    1    1    2    0    0  0.27224503450E+00  0.23988497795E+00  0.10179049344E+01  0.10806446585E+01  0.51100000000E-03 0.  1.
    9000002    1    1    2    0    0  0.22361782413E+00  0.14534503424E+00  0.18744380661E+00  0.99303035748E+00  0.93800000000E+00 0.  1.
         22    1    1    2    0    0 -0.49586285863E+00 -0.38523001219E+00  0.27946512264E+01  0.28643249840E+01  0.00000000000E+00 0.  1.
</event>
<event>
 5    1  0.5849602E+001  0.1598858E+01  0.7818608E-02  0.3354603E+00
         11   -1    0    0    0    0  0.00000000000E+00  0.00000000000E+00  0.39999999674E+01  0.40000000000E+01  0.51100000000E-03 0. -1.
    9000002   -1    0    0    0    0 -0.00000000000E+00 -0.00000000000E+00  0.00000000000E+00  0.93800000000E+00  0.93800000000E+00 0. -1.
         11    1    1    2    0    0  0.10766924815E+00  0.99821660250E-01  0.12580494269E+01  0.12665881937E+01  0.51100000000E-03 0. -1.
    9000002    1    1    2    0    0 -0.42471921327E+00 -0.29209047445E+00  0.18311896163E+00  0.10858544145E+01  0.93800000000E+00 0. -1.
         22    1    1    2    0    0  0.31704996512E+00  0.19226881420E+00  0.25588315788E+01  0.25855573918E+01  0.00000000000E+00 0. -1.
</event>
<event>
 5    1  0.5849602E+001  0.1572916E+01  0.7818608E-02  0.3383295E+00
         11   -1    0    0    0    0  0.00000000000E+00  0.00000000000E+00  0.39999999674E+01  0.40000000000E+01  0.51100000000E-03 0. -1.
    9000002   -1    0    0    0    0 -0.00000000000E+00 -0.00000000000E+00  0.00000000000E+00  0.93800000000E+00  0.93800000000E+00 0.  1.
         11    1    1    2    0    0  0.19150147801E+00  0.67415683705E-01  0.10769932056E+01  0.10959618226E+01  0.51100000000E-03 0. -1.
    9000002    1    1    2    0    0 -0.26203498503E+00  0.22636296127E+00  0.10218334373E+00  0.10050810710E+01  0.93800000000E+00 0.  1.
         22    1    1    2    0    0  0.70533507023E-01 -0.29377864497E+00  0.28208234180E+01  0.28369571064E+01  0.00000000000E+00 0. -1.
</event>
<event>
 5    1  0.5849602E+001  0.1599675E+01  0.7818608E-02  0.3353716E+00
         11   -1    0    0    0    0  0.00000000000E+00  0.00000000000E+00  0.39999999674E+01  0.40000000000E+01  0.51100000000E-03 0. -1.
    9000002   -1    0    0    0    0 -0.00000000000E+00 -0.00000000000E+00  0.00000000000E+00  0.93800000000E+00  0.93800000000E+00 0.  1.
         11    1    1    2    0    0 -0.87819926247E-01  0.22342969054E-01  0.94229159616E+00  0.94663892854E+00  0.51100000000E-03 0. -1.
    9000002    1    1    2    0    0  0.35876760039E+00 -0.95707012127E-01  0.92672757208E-01  0.10130677486E+01  0.93800000000E+00 0.  1.
         22    1    1    2    0    0 -0.27094767414E+00  0.73364043073E-01  0.29650356140E+01  0.29782933229E+01  0.00000000000E+00 0. -1.
</event>
<event>
 5    1  0.5849602E+001  0.1599580E+01  0.7818608E-02  0.3353819E+00
         11   -1    0    0    0    0  0.00000000000E+00  0.00000000000E+00  0.39999999674E+01  0.40000000000E+01  0.51100000000E-03 0.  1.
    9000002   -1    0    0    0    0 -0.00000000000E+00 -0.00000000000E+00  0.00000000000E+00  0.93800000000E+00  0.93800000000E+00 0.  1.
         11    1    1    2    0    0 -0.37259957862E-01  0.42409131523E-01  0.65599851906E+00  0.65842323549E+00  0.51100000000E-03 0.  1.
    9000002    1    1    2    0    0  0.27232203444E+00 -0.26698480620E+00  0.97953696296E-01  0.10172900785E+01  0.93800000000E+00 0.  1.
         22    1    1    2    0    0 -0.23506207658E+00  0.22457567468E+00  0.32460477520E+01  0.32622866860E+01  0.00000000000E+00 0.  1.
</event>
<event>
 5    1  0.6044803E+001  0.1599676E+01  0.7818608E-02  0.3353715E+00
         11   -1    0    0    0    0  0.00000000000E+00  0.00000000000E+00  0.39999999674E+01  0.40000000000E+01  0.51100000000E-03 0. -1.
    9000002   -1    0    0    0    0 -0.00000000000E+00 -0.00000000000E+00  0.00000000000E+00  0.93800000000E+00  0.93800000000E+00 0. -1.
         11    1    1    2    0    0  0.53072180578E-01 -0.12877798523E+00  0.14366243972E+01  0.14433607815E+01  0.51100000000E-03 0. -1.
    9000002    1    1    2    0    0 -0.14151435903E+00  0.35184031600E+00  0.96758423416E-01  0.10163779387E+01  0.93800000000E+00 0. -1.
         22    1    1    2    0    0  0.88442178447E-01 -0.22306233077E+00  0.24666171468E+01  0.24782612798E+01  0.00000000000E+00 0.  1.
</event>
<event>
 5    1  0.5849602E+001  0.1581856E+01  0.7818608E-02  0.3373294E+00
         11   -1    0    0    0    0  0.00000000000E+00  0.00000000000E+00  0.39999999674E+01  0.40000000000E+01  0.51100000000E-03 0. -1.
    9000002   -1    0    0    0    0 -0.00000000000E+00 -0.00000000000E+00  0.00000000000E+00  0.93800000000E+00  0.93800000000E+00 0. -1.
         11    1    1    2    0    0 -0.31055495326E+00 -0.10116717842E+00  0.13370651024E+01  0.13763802259E+01  0.51100000000E-03 0. -1.
    9000002    1    1    2    0    0  0.44098982426E+00  0.29320571708E+00  0.20965296565E+00  0.10973786874E+01  0.93800000000E+00 0. -1.
         22    1    1    2    0    0 -0.13043487099E+00 -0.19203853866E+00  0.24532818993E+01  0.24642410867E+01  0.00000000000E+00 0.  1.
</event>
<event>
 5    1  0.5849602E+001  0.1509132E+01  0.7818608E-02  0.3458306E+00
         11   -1    0    0    0    0  0.00000000000E+00  0.00000000000E+00  0.39999999674E+01  0.40000000000E+01  0.51100000000E-03 0. -1.
    9000002   -1    0    0    0    0 -0.00000000000E+00 -0.00000000000E+00  0.00000000000E+00  0.93800000000E+00  0.93800000000E+00 0. -1.
         11    1    1    2    0    0  0.11689028768E+00 -0.22598969796E-01  0.11449105394E+00  0.16517419697E+00  0.51100000000E-03 0. -1.
    9000002    1    1    2    0    0  0.43470173903E+00 -0.19973954677E+00  0.24108728386E+00  0.10801983924E+01  0.93800000000E+00 0. -1.
         22    1    1    2    0    0 -0.55159202671E+00  0.22233851657E+00  0.36444216296E+01  0.36926274107E+01  0.00000000000E+00 0. -1.
</event>
<event>
 5    1  0.5849602E+001  0.1599670E+01  0.7818608E-02  0.3353722E+00
         11   -1    0    0    0    0  0.00000000000E+00  0.00000000000E+00  0.39999999674E+01  0.40000000000E+01  0.51100000000E-03 0.  1.
    9000002   -1    0    0    0    0 -0.00000000000E+00 -0.00000000000E+00  0.00000000000E+00  0.93800000000E+00  0.93800000000E+00 0.  1.
         11    1    1    2    0    0 -0.82840828653E-01 -0.11799348036E+00  0.11523565404E+01  0.11613401403E+01  0.51100000000E-03 0.  1.
    9000002    1    1    2    0    0  0.27294161063E+00  0.38495437876E+00  0.15175537645E+00  0.10609244510E+01  0.93800000000E+00 0.  1.
         22    1    1    2    0    0 -0.19010078198E+00 -0.26696089840E+00  0.26958880506E+01  0.27157354086E+01  0.00000000000E+00 0.  1.
</event>
<event>
 5    1  0.5849602E+001  0.1599325E+01  0.7818608E-02  0.3354096E+00
         11   -1    0    0    0    0  0.00000000000E+00  0.00000000000E+00  0.39999999674E+01  0.40000000000E+01  0.51100000000E-03 0. -1.
    9000002   -1    0    0    0    0 -0.00000000000E+00 -0.00000000000E+00  0.00000000000E+00  0.93800000000E+00  0.93800000000E+00 0. -1.
         11    1    1    2    0    0 -0.17479382139E+00 -0.78942641662E-01  0.13935344278E+01  0.14066709932E+01  0.51100000000E-03 0. -1.
    9000002    1    1    2    0    0  0.53254454414E+00  0.21004828240E+00  0.22769315579E+00  0.11222353343E+01  0.93800000000E+00 0. -1.
         22    1    1    2    0    0 -0.35775072276E+00 -0.13110564074E+00  0.23787723838E+01  0.24090936724E+01  0.00000000000E+00 0. -1.
</event>
<event>
 5    1  0.5849602E+001  0.1599673E+01  0.7818608E-02  0.3353719E+00
         11   -1    0    0    0    0  0.00000000000E+00  0.00000000000E+00  0.39999999674E+01  0.40000000000E+01  0.51100000000E-03 0. -1.
    9000002   -1    0    0    0    0 -0.00000000000E+00 -0.00000000000E+00  0.00000000000E+00  0.93800000000E+00  0.93800000000E+00 0.  1.
         11    1    1    2    0    0  0.62075569887E-01  0.93383357952E-01  0.10148173044E+01  0.10209937562E+01  0.51100000000E-03 0. -1.
    9000002    1    1    2    0    0 -0.24371058880E+00 -0.36095677994E+00  0.12856508218E+00  0.10421408870E+01  0.93800000000E+00 0.  1.
         22    1    1    2    0    0  0.18163501892E+00  0.26757342199E+00  0.28566175808E+01  0.28748653567E+01  0.00000000000E+00 0. -1.
</event>
<event>
 5    1  0.5849602E+001  0.1555141E+01  0.7818608E-02  0.3403539E+00
         11   -1    0    0    0    0  0.00000000000E+00  0.00000000000E+00  0.39999999674E+01  0.40000000000E+01  0.51100000000E-03 0.  1.
    9000002   -1    0    0    0    0 -0.00000000000E+00 -0.00000000000E+00  0.00000000000E+00  0.93800000000E+00  0.93800000000E+00 0. -1.
         11    1    1    2    0    0 -0.87305803423E-01  0.17544253241E+00  0.88591570909E+00  0.90733086039E+00  0.51100000000E-03 0.  1.
    9000002    1    1    2    0    0 -0.19402795055E+00 -0.36387546292E-01  0.59914837747E-01  0.96041901632E+00  0.93800000000E+00 0. -1.
         22    1    1    2    0    0  0.28133375398E+00 -0.13905498612E+00  0.30541694205E+01  0.30702501233E+01  0.00000000000E+00 0.  1.
</event>
<event>
 5    1  0.5849602E+001  0.1599676E+01  0.7818608E-02  0.3353715E+00
         11   -1    0    0    0    0  0.00000000000E+00  0.00000000000E+00  0.39999999674E+01  0.40000000000E+01  0.51100000000E-03 0.  1.
    9000002   -1    0    0    0    0 -0.00000000000E+00 -0.00000000000E+00  0.00000000000E+00  0.93800000000E+00  0.93800000000E+00 0. -1.
         11    1    1    2    0    0 -0.38842646301E+00  0.13558697011E+00  0.11347202683E+01  0.12070001209E+01  0.51100000000E-03 0.  1.
    9000002    1    1    2    0    0  0.10248411195E+01 -0.35583421281E+00  0.10013270501E+01  0.17491189693E+01  0.93800000000E+00 0. -1.
         22    1    1    2    0    0 -0.63641465654E+00  0.22024724270E+00  0.18639526490E+01  0.19818809098E+01  0.00000000000E+00 0.  1.
</event>
<event>
 5    1  0.5849602E+001  0.1555825E+01  0.7818608E-02  0.3402750E+00
         11   -1    0    0    0    0  0.00000000000E+00  0.00000000000E+00  0.39999999674E+01  0.40000000000E+01  0.51100000000E-03 0. -1.
    9000002   -1    0    0    0    0 -0.00000000000E+00 -0.00000000000E+00  0.00000000000E+00  0.93800000000E+00  0.93800000000E+00 0.  1.
         11    1    1    2    0    0  0.12146934725E+00 -0.22163483233E-01  0.67750189206E+00  0.68866181626E+00  0.51100000000E-03 0. -1.
    9000002    1    1    2    0    0  0.39896892605E+00  0.73458806301E-01  0.14868217621E+00  0.10327259025E+01  0.93800000000E+00 0.  1.
         22    1    1    2    0    0 -0.52043827330E+00 -0.51295323068E-01  0.31738158991E+01  0.32166122812E+01  0.00000000000E+00 0. -1.
</event>
<event>
 5    1  0.5849602E+001  0.1599650E+01  0.7818608E-02  0.3353744E+00
         11   -1    0    0    0    0  0.00000000000E+00  0.00000000000E+00  0.39999999674E+01  0.40000000000E+01  0.51100000000E-03 0. -1.
    9000002   -1    0    0    0    0 -0.00000000000E+00 -0.00000000000E+00  0.00000000000E+00  0.93800000000E+00  0.93800000000E+00 0.  1.
         11    1    1    2    0    0  0.22602236598E+00  0.19945885376E+00  0.13774173897E+01  0.14100173300E+01  0.51100000000E-03 0. -1.
    9000002    1    1    2    0    0 -0.59528299400E+00 -0.50443651606E+00  0.44558088133E+00  0.12989243101E+01  0.93800000000E+00 0.  1.
         22    1    1    2    0    0  0.36926062802E+00  0.30497766229E+00  0.21770016963E+01  0.22290583599E+01  0.00000000000E+00 0. -1.
</event>
<event>
 5    1  0.5849602E+001  0.1589191E+01  0.7818608E-02  0.3365179E+00
         11   -1    0    0    0    0  0.00000000000E+00  0.00000000000E+00  0.39999999674E+01  0.40000000000E+01  0.51100000000E-03 0.  1.
    9000002   -1    0    0    0    0 -0.00000000000E+00 -0.00000000000E+00  0.00000000000E+00  0.93800000000E+00  0.93800000000E+00 0.  1.
         11    1    1    2    0    0  0.25546129248E-01  0.21651093017E-01  0.97082704093E-01  0.10269706473E+00  0.51100000000E-03 0.  1.
    9000002    1    1    2    0    0  0.32216679661E+00 -0.98335505408E-01  0.84393439688E-01  0.10002137617E+01  0.93800000000E+00 0.  1.
         22    1    1    2    0    0 -0.34771292586E+00  0.76684412391E-01  0.38185238236E+01  0.38350891736E+01  0.00000000000E+00 0.  1.
</event>
<event>
 5    1  0.5849602E+001  0.1587860E+01  0.7818608E-02  0.3366646E+00
         11   -1    0    0    0    0  0.00000000000E+00  0.00000000000E+00  0.39999999674E+01  0.40000000000E+01  0.51100000000E-03 0.  1.
    9000002   -1    0    0    0    0 -0.00000000000E+00 -0.00000000000E+00  0.00000000000E+00  0.93800000000E+00  0.93800000000E+00 0.  1.
         11    1    1    2    0    0 -0.34697837879E-01 -0.33107452384E-01  0.29993639542E+00  0.30374684488E+00  0.51100000000E-03 0.  1.
    9000002    1    1    2    0    0 -0.19769712444E+00 -0.20112558561E+00  0.62195502227E-01  0.98145195231E+00  0.93800000000E+00 0.  1.
         22    1    1    2    0    0  0.23239496232E+00  0.23423303799E+00  0.36378680697E+01  0.36528012028E+01  0.00000000000E+00 0.  1.
</event>
<event>
 5    1  0.5849602E+001  0.1526773E+01  0.7818608E-02  0.3436889E+00
         11   -1    0    0    0    0  0.00000000000E+00  0.00000000000E+00  0.39999999674E+01  0.40000000000E+01  0.51100000000E-03 0.  1.
    9000002   -1    0    0    0    0 -0.00000000000E+00 -0.00000000000E+00  0.00000000000E+00  0.93800000000E+00  0.93800000000E+00 0.  1.
         11    1    1    2    0    0 -0.23200141479E+00 -0.29878725451E+00  0.13160025476E+01  0.13692923159E+01  0.51100000000E-03 0.  1.
    9000002    1    1    2    0    0  0.28432745546E+00  0.62063335523E-01  0.11559486940E+00  0.98888833211E+00  0.93800000000E+00 0.  1.
         22    1    1    2    0    0 -0.52326040676E-01  0.23672391898E+00  0.25684025503E+01  0.25798193520E+01  0.00000000000E+00 0.  1.
</event>
<event>
 5    1  0.5849602E+001  0.1594345E+01  0.7818608E-02  0.3359524E+00
         11   -1    0    0    0    0  0.00000000000E+00  0.00000000000E+00  0.39999999674E+01  0.40000000000E+01  0.51100000000E-03 0. -1.
    9000002   -1    0    0    0    0 -0.00000000000E+00 -0.00000000000E+00  0.00000000000E+00  0.93800000000E+00  0.93800000000E+00 0. -1.
         11    1    1    2    0    0 -0.48544464654E-03 -0.10340416424E+00  0.10145929556E+01  0.10198489023E+01  0.51100000000E-03 0. -1.
    9000002    1    1    2    0    0  0.28556707738E+00  0.31374126839E+00  0.12632197073E+00  0.10371997780E+01  0.93800000000E+00 0. -1.
         22    1    1    2    0    0 -0.28508163274E+00 -0.21033710415E+00  0.28590850410E+01  0.28809513197E+01  0.00000000000E+00 0. -1.
</event>
<event>
 5    1  0.5849602E+001  0.1599589E+01  0.7818608E-02  0.3353810E+00
         11   -1    0    0    0    0  0.00000000000E+00  0.00000000000E+00  0.39999999674E+01  0.40000000000E+01  0.51100000000E-03 0.  1.
    9000002   -1    0    0    0    0 -0.00000000000E+00 -0.00000000000E+00  0.00000000000E+00  0.93800000000E+00  0.93800000000E+00 0. -1.
         11    1    1    2    0    0 -0.49062519736E-01 -0.79139862010E-01  0.99765808208E+00  0.10019940910E+01  0.51100000000E-03 0.  1.
    9000002    1    1    2    0    0  0.22979409445E+00  0.30189963691E+00  0.96920048437E-01  0.10164576786E+01  0.93800000000E+00 0. -1.
         22    1    1    2    0    0 -0.18073157471E+00 -0.22275977490E+00  0.29054218368E+01  0.29195482304E+01  0.00000000000E+00 0.  1.
</event>
<event>
 5    1  0.5986272E+001  0.1599676E+01  0.7818608E-02  0.3353715E+00
         11   -1    0    0    0    0  0.00000000000E+00  0.00000000000E+00  0.39999999674E+01  0.40000000000E+01  0.51100000000E-03 0.  1.
    9000002   -1    0    0    0    0 -0.00000000000E+00 -0.00000000000E+00  0.00000000000E+00  0.93800000000E+00  0.93800000000E+00 0.  1.
         11    1    1    2    0    0 -0.12332231483E+00 -0.63336150500E-01  0.14475792123E+01  0.14542027707E+01  0.51100000000E-03 0.  1.
    9000002    1    1    2    0    0  0.32973712961E+00  0.17152243795E+00  0.92858996925E-01  0.10132192826E+01  0.93800000000E+00 0.  1.
         22    1    1    2    0    0 -0.20641481478E+00 -0.10818628745E+00  0.24595617582E+01  0.24705779467E+01  0.00000000000E+00 0.  1.
</event>
<event>
 5    1  0.5849602E+001  0.1507217E+01  0.7818608E-02  0.3460663E+00
         11   -1    0    0    0    0  0.00000000000E+00  0.00000000000E+00  0.39999999674E+01  0.40000000000E+01  0.51100000000E-03 0. -1.
    9000002   -1    0    0    0    0 -0.00000000000E+00 -0.00000000000E+00  0.00000000000E+00  0.93800000000E+00  0.93800000000E+00 0.  1.
         11    1    1    2    0    0 -0.12505162060E+00 -0.24524396379E+00  0.14733015617E+01  0.14987996072E+01  0.51100000000E-03 0. -1.
    9000002    1    1    2    0    0 -0.47000277445E-01 -0.21046595642E+00  0.10406243722E+00  0.96807950899E+00  0.93800000000E+00 0.  1.
         22    1    1    2    0    0  0.17205189805E+00  0.45570992021E+00  0.24226359684E+01  0.24711208838E+01  0.00000000000E+00 0. -1.
</event>
<event>
 5    1  0.5849602E+001  0.1554443E+01  0.7818608E-02  0.3404343E+00
         11   -1    0    0    0    0  0.00000000000E+00  0.00000000000E+00  0.39999999674E+01  0.40000000000E+01  0.51100000000E-03 0. -1.
    9000002   -1    0    0    0    0 -0.00000000000E+00 -0.00000000000E+00  0.00000000000E+00  0.93800000000E+00  0.93800000000E+00 0. -1.
         11    1    1    2    0    0  0.42872938835E-01  0.21513935931E+00  0.14170950074E+01  0.14339740423E+01  0.51100000000E-03 0. -1.
    9000002    1    1    2    0    0 -0.13006900456E+00  0.84583137784E-01  0.50106033145E-01  0.95206452917E+00  0.93800000000E+00 0. -1.
         22    1    1    2    0    0  0.87196065726E-01 -0.29972249710E+00  0.25327989268E+01  0.25519614286E+01  0.00000000000E+00 0. -1.
</event>
<event>
 5    1  0.5849602E+001  0.1573253E+01  0.7818608E-02  0.3382915E+00
         11   -1    0    0    0    0  0.00000000000E+00  0.00000000000E+00  0.39999999674E+01  0.40000000000E+01  0.51100000000E-03 0.  1.
    9000002   -1    0    0    0    0 -0.00000000000E+00 -0.00000000000E+00  0.00000000000E+00  0.93800000000E+00  0.93800000000E+00 0. -1.
         11    1    1    2    0    0 -0.14093810273E+00 -0.52489694978E-01  0.47655181310E+00  0.49972053047E+00  0.51100000000E-03 0.  1.
    9000002    1    1    2    0    0  0.93448151264E-01  0.36536211213E+00  0.11763247748E+00  0.10177934121E+01  0.93800000000E+00 0. -1.
         22    1    1    2    0    0  0.47489951461E-01 -0.31287241715E+00  0.34058156768E+01  0.34204860574E+01  0.00000000000E+00 0.  1.
</event>
<event>
 5    1  0.5849602E+001  0.1594736E+01  0.7818608E-02  0.3359096E+00
         11   -1    0    0    0    0  0.00000000000E+00  0.00000000000E+00  0.39999999674E+01  0.40000000000E+01  0.51100000000E-03 0. -1.
    9000002   -1    0    0    0    0 -0.00000000000E+00 -0.00000000000E+00  0.00000000000E+00  0.93800000000E+00  0.93800000000E+00 0. -1.
         11    1    1    2    0    0 -0.90402862944E-03  0.17328467774E-01  0.49109599669E+00  0.49140271891E+00  0.51100000000E-03 0. -1.
    9000002    1    1    2    0    0 -0.20578110524E+00  0.25504169271E+00  0.75773245537E-01  0.99648267072E+00  0.93800000000E+00 0. -1.
         22    1    1    2    0    0  0.20668513387E+00 -0.27237016049E+00  0.34331307251E+01  0.34501146104E+01  0.00000000000E+00 0. -1.
</event>
<event>
 5    1  0.5849602E+001  0.1599022E+01  0.7818608E-02  0.3354425E+00
         11   -1    0    0    0    0  0.00000000000E+00  0.00000000000E+00  0.39999999674E+01  0.40000000000E+01  0.51100000000E-03 0.  1.
    9000002   -1    0    0    0    0 -0.00000000000E+00 -0.00000000000E+00  0.00000000000E+00  0.93800000000E+00  0.93800000000E+00 0. -1.
         11    1    1    2    0    0 -0.14481510446E+00  0.41590312190E-01  0.13891184843E+01  0.13972657561E+01  0.51100000000E-03 0.  1.
    9000002    1    1    2    0    0  0.38562514981E+00 -0.36556261835E-01  0.10158602286E+00  0.10199053076E+01  0.93800000000E+00 0. -1.
         22    1    1    2    0    0 -0.24081004535E+00 -0.50340503548E-02  0.25092954602E+01  0.25208289363E+01  0.00000000000E+00 0.  1.
</event>
<event>
 5    1  0.5849602E+001  0.1596068E+01  0.7818608E-02  0.3357642E+00
         11   -1    0    0    0    0  0.00000000000E+00  0.00000000000E+00  0.39999999674E+01  0.40000000000E+01  0.51100000000E-03 0. -1.
    9000002   -1    0    0    0    0 -0.00000000000E+00 -0.00000000000E+00  0.00000000000E+00  0.93800000000E+00  0.93800000000E+00 0. -1.
         11    1    1    2    0    0  0.22599368650E-01  0.81744516693E-01  0.70315941382E+00  0.70825582938E+00  0.51100000000E-03 0. -1.
    9000002    1    1    2    0    0 -0.35398529444E+00 -0.24642971024E+00  0.12909001752E+00  0.10404525090E+01  0.93800000000E+00 0. -1.
         22    1    1    2    0    0  0.33138592579E+00  0.16468519355E+00  0.31677505360E+01  0.31892916617E+01  0.00000000000E+00 0. -1.
</event>
<event>
 5    1  0.5849602E+001  0.1596673E+01  0.7818608E-02  0.3356982E+00
         11   -1    0    0    0    0  0.00000000000E+00  0.00000000000E+00  0.39999999674E+01  0.40000000000E+01  0.51100000000E-03 0.  1.
    9000002   -1    0    0    0    0 -0.00000000000E+00 -0.00000000000E+00  0.00000000000E+00  0.93800000000E+00  0.93800000000E+00 0. -1.
         11    1    1    2    0    0 -0.20128208007E+00  0.76548430687E-03  0.13073152615E+01  0.13227201199E+01  0.51100000000E-03 0.  1.
    9000002    1    1    2    0    0  0.48306842154E+00  0.14754293235E+00  0.17751984737E+00  0.10800376442E+01  0.93800000000E+00 0. -1.
         22    1    1    2    0    0 -0.28178634147E+00 -0.14830841665E+00  0.25151648585E+01  0.25352422358E+01  0.00000000000E+00 0.  1.
</event>
<event>
 5    1  0.5849602E+001  0.1599040E+01  0.7818608E-02  0.3354406E+00
         11   -1    0    0    0    0  0.00000000000E+00  0.00000000000E+00  0.39999999674E+01  0.40000000000E+01  0.51100000000E-03 0. -1.
    9000002   -1    0    0    0    0 -0.00000000000E+00 -0.00000000000E+00  0.00000000000E+00  0.93800000000E+00  0.93800000000E+00 0.  1.
         11    1    1    2    0    0 -0.31261686500E-02 -0.63819286104E-03  0.18386718900E-01  0.18668496819E-01  0.51100000000E-03 0. -1.
    9000002    1    1    2    0    0 -0.61773822713E-01 -0.35684453715E+00  0.88577087009E-01  0.10093779912E+01  0.93800000000E+00 0.  1.
         22    1    1    2    0    0  0.64899991363E-01  0.35748273001E+00  0.38930361615E+01  0.39099535119E+01  0.00000000000E+00 0. -1.
</event>
<event>
 5    1  0.5849602E+001  0.1521081E+01  0.7818608E-02  0.3443741E+00
         11   -1    0    0    0    0  0.00000000000E+00  0.00000000000E+00  0.39999999674E+01  0.40000000000E+01  0.51100000000E-03 0. -1.
    9000002   -1    0    0    0    0 -0.00000000000E+00 -0.00000000000E+00  0.00000000000E+00  0.93800000000E+00  0.93800000000E+00 0.  1.
         11    1    1    2    0    0 -0.15076933697E+00  0.26035056546E+00  0.12297584183E+01  0.12660252124E+01  0.51100000000E-03 0. -1.
    9000002    1    1    2    0    0 -0.13641348617E+00 -0.44158181464E-01  0.73889960232E-01  0.95176799191E+00  0.93800000000E+00 0.  1.
         22    1    1    2    0    0  0.28718282314E+00 -0.21619238400E+00  0.26963515888E+01  0.27202067957E+01  0.00000000000E+00 0. -1.
</event>
<event>
 5    1  0.5849602E+001  0.1599562E+01  0.7818608E-02  0.3353839E+00
         11   -1    0    0    0    0  0.00000000000E+00  0.00000000000E+00  0.39999999674E+01  0.40000000000E+01  0.51100000000E-03 0. -1.
    9000002   -1    0    0    0    0 -0.00000000000E+00 -0.00000000000E+00  0.00000000000E+00  0.93800000000E+00  0.93800000000E+00 0.  1.
         11    1    1    2    0    0  0.62452615696E-01  0.11864927024E+00  0.13536915544E+01  0.13603157958E+01  0.51100000000E-03 0. -1.
    9000002    1    1    2    0    0 -0.20428872341E+00 -0.31628008306E+00  0.95440808128E-01  0.10152437743E+01  0.93800000000E+00 0.  1.
         22    1    1    2    0    0  0.14183610771E+00  0.19763081282E+00  0.25508676048E+01  0.25624404299E+01  0.00000000000E+00 0. -1.
</event>
<event>
 5    1  0.5849602E+001  0.1599676E+01  0.7818608E-02  0.3353715E+00
         11   -1    0    0    0    0  0.00000000000E+00  0.00000000000E+00  0.39999999674E+01  0.40000000000E+01  0.51100000000E-03 0.  1.
    9000002   -1    0    0    0    0 -0.00000000000E+00 -0.00000000000E+00  0.00000000000E+00  0.93800000000E+00  0.93800000000E+00 0.  1.
         11    1    1    2    0    0 -0.22422283475E-01  0.28336995905E-01  0.28559897028E+00  0.28787632254E+00  0.51100000000E-03 0.  1.
    9000002    1    1    2    0    0  0.29742256933E+00 -0.38148364092E+00  0.15975169809E+00  0.10674055265E+01  0.93800000000E+00 0.  1.
         22    1    1    2    0    0 -0.27500028586E+00  0.35314664502E+00  0.35546492990E+01  0.35827181509E+01  0.00000000000E+00 0.  1.
</event>
<event>
 5    1  0.5849602E+001  0.1576621E+01  0.7818608E-02  0.3379135E+00
         11   -1    0    0    0    0  0.00000000000E+00  0.00000000000E+00  0.39999999674E+01  0.40000000000E+01  0.51100000000E-03 0. -1.
    9000002   -1    0    0    0    0 -0.00000000000E+00 -0.00000000000E+00  0.00000000000E+00  0.93800000000E+00  0.93800000000E+00 0.  1.
         11    1    1    2    0    0  0.89103848053E-01 -0.77205079825E-01  0.85203866849E+00  0.86015712159E+00  0.51100000000E-03 0. -1.
    9000002    1    1    2    0    0  0.20380546923E+00  0.33861544186E-01  0.45791313677E-01  0.96157377141E+00  0.93800000000E+00 0.  1.
         22    1    1    2    0    0 -0.29290931728E+00  0.43343535638E-01  0.31021699852E+01  0.31162691070E+01  0.00000000000E+00 0. -1.
</event>
<event>
 5    1  0.5849602E+001  0.1598271E+01  0.7818608E-02  0.3355242E+00
         11   -1    0    0    0    0  0.00000000000E+00  0.00000000000E+00  0.39999999674E+01  0.40000000000E+01  0.51100000000E-03 0.  1.
    9000002   -1    0    0    0    0 -0.00000000000E+00 -0.00000000000E+00  0.00000000000E+00  0.93800000000E+00  0.93800000000E+00 0.  1.
         11    1    1    2    0    0  0.21761084646E+00 -0.51136789647E-01  0.89895676096E+00  0.92633307776E+00  0.51100000000E-03 0.  1.
    9000002    1    1    2    0    0 -0.71262760279E+00  0.23232524486E+00  0.40890855031E+00  0.12684097611E+01  0.93800000000E+00 0.  1.
         22    1    1    2    0    0  0.49501675633E+00 -0.18118845521E+00  0.26921346561E+01  0.27432571611E+01  0.00000000000E+00 0.  1.
</event>
<event>
 5    1  0.5849602E+001  0.1599642E+01  0.7818608E-02  0.3353752E+00
         11   -1    0    0    0    0  0.00000000000E+00  0.00000000000E+00  0.39999999674E+01  0.40000000000E+01  0.51100000000E-03 0.  1.
    9000002   -1    0    0    0    0 -0.00000000000E+00 -0.00000000000E+00  0.00000000000E+00  0.93800000000E+00  0.93800000000E+00 0. -1.
         11    1    1    2    0    0 -0.18409226237E+00  0.16542436350E-01  0.13887633971E+01  0.14010095102E+01  0.51100000000E-03 0.  1.
    9000002    1    1    2    0    0  0.48929506550E+00 -0.44019823151E-01  0.16500811645E+00  0.10716431703E+01  0.93800000000E+00 0. -1.
         22    1    1    2    0    0 -0.30520280313E+00  0.27477386801E-01  0.24462284538E+01  0.24653473195E+01  0.00000000000E+00 0.  1.
</event>
<event>
 5    1  0.5849602E+001  0.1599673E+01  0.7818608E-02  0.3353718E+00
         11   -1    0    0    0    0  0.00000000000E+00  0.00000000000E+00  0.39999999674E+01  0.40000000000E+01  0.51100000000E-03 0. -1.
    9000002   -1    0    0    0    0 -0.00000000000E+00 -0.00000000000E+00  0.00000000000E+00  0.93800000000E+00  0.93800000000E+00 0. -1.
         11    1    1    2    0    0  0.12825469388E+00  0.65310540207E-01  0.13825757033E+01  0.13900469667E+01  0.51100000000E-03 0. -1.
    9000002    1    1    2    0    0 -0.36485698840E+00 -0.17880551831E+00  0.11145227329E+00  0.10282789722E+01  0.93800000000E+00 0. -1.
         22    1    1    2    0    0  0.23660229452E+00  0.11349497810E+00  0.25059719907E+01  0.25196740611E+01  0.00000000000E+00 0. -1.
</event>
<event>
 5    1  0.5849602E+001  0.1598275E+01  0.7818608E-02  0.3355238E+00
         11   -1    0    0    0    0  0.00000000000E+00  0.00000000000E+00  0.39999999674E+01  0.40000000000E+01  0.51100000000E-03 0.  1.
    9000002   -1    0    0    0    0 -0.00000000000E+00 -0.00000000000E+00  0.00000000000E+00  0.93800000000E+00  0.93800000000E+00 0. -1.
         11    1    1    2    0    0  0.11029644836E+00  0.36742111148E-01  0.94880039966E+00  0.95589630649E+00  0.51100000000E-03 0.  1.
    9000002    1    1    2    0    0 -0.31719009902E+00 -0.23396982404E+00  0.10587254920E+00  0.10229391156E+01  0.93800000000E+00 0. -1.
         22    1    1    2    0    0  0.20689365067E+00  0.19722771290E+00  0.29453270185E+01  0.29591645779E+01  0.00000000000E+00 0.  1.
</event>
<event>
 5    1  0.5849602E+001  0.1599592E+01  0.7818608E-02  0.3353806E+00
         11   -1    0    0    0    0  0.00000000000E+00  0.00000000000E+00  0.39999999674E+01  0.40000000000E+01  0.51100000000E-03 0. -1.
    9000002   -1    0    0    0    0 -0.00000000000E+00 -0.00000000000E+00  0.00000000000E+00  0.93800000000E+00  0.93800000000E+00 0.  1.
         11    1    1    2    0    0 -0.13634535905E+00 -0.14141895620E-01  0.12197207673E+01  0.12273993081E+01  0.51100000000E-03 0. -1.
    9000002    1    1    2    0    0  0.41082622290E+00  0.68191534990E-01  0.11730529356E+00  0.10329727987E+01  0.93800000000E+00 0.  1.
         22    1    1    2    0    0 -0.27448086385E+00 -0.54049639371E-01  0.26629739065E+01  0.26776278933E+01  0.00000000000E+00 0. -1.
</event>
<event>
 5    1  0.5849602E+001  0.1599676E+01  0.7818608E-02  0.3353715E+00
         11   -1    0    0    0    0  0.00000000000E+00  0.00000000000E+00  0.39999999674E+01  0.40000000000E+01  0.51100000000E-03 0.  1.
    9000002   -1    0    0    0    0 -0.00000000000E+00 -0.00000000000E+00  0.00000000000E+00  0.93800000000E+00  0.93800000000E+00 0. -1.
         11    1    1    2    0    0  0.48444694001E-01  0.15089910846E+00  0.13206012707E+01  0.13300772183E+01  0.51100000000E-03 0.  1.
    9000002    1    1    2    0    0 -0.14216751486E+00 -0.43813448122E+00  0.14433451802E+00  0.10549170010E+01  0.93800000000E+00 0. -1.
         22    1    1    2    0    0  0.93722820857E-01  0.28723537276E+00  0.25350641786E+01  0.25530057807E+01  0.00000000000E+00 0.  1.
</event>
<event>
 5    1  0.5849602E+001  0.1505861E+01  0.7818608E-02  0.3462336E+00
         11   -1    0    0    0    0  0.00000000000E+00  0.00000000000E+00  0.39999999674E+01  0.40000000000E+01  0.51100000000E-03 0. -1.
    9000002   -1    0    0    0    0 -0.00000000000E+00 -0.00000000000E+00  0.00000000000E+00  0.93800000000E+00  0.93800000000E+00 0. -1.
         11    1    1    2    0    0 -0.34214171343E+00 -0.23920656038E+00  0.51763804184E+00  0.66500386020E+00  0.51100000000E-03 0. -1.
    9000002    1    1    2    0    0  0.21127162472E+00 -0.56712010607E-01  0.21143431820E+00  0.98610365706E+00  0.93800000000E+00 0. -1.
         22    1    1    2    0    0  0.13087008871E+00  0.29591857098E+00  0.32709276073E+01  0.32868924827E+01  0.00000000000E+00 0. -1.
</event>
<event>
 5    1  0.5849602E+001  0.1599672E+01  0.7818608E-02  0.3353719E+00
         11   -1    0    0    0    0  0.00000000000E+00  0.00000000000E+00  0.39999999674E+01  0.40000000000E+01  0.51100000000E-03 0. -1.
    9000002   -1    0    0    0    0 -0.00000000000E+00 -0.00000000000E+00  0.00000000000E+00  0.93800000000E+00  0.93800000000E+00 0. -1.
         11    1    1    2    0    0  0.94038044885E-02  0.35492595582E-02  0.86214485691E-01  0.86799927686E-01  0.51100000000E-03 0.  1.
    9000002    1    1    2    0    0 -0.40908021775E+00 -0.13597532116E+00  0.12587812257E+00  0.10399640447E+01  0.93800000000E+00 0. -1.
         22    1    1    2    0    0  0.39967641326E+00  0.13242606160E+00  0.37879073591E+01  0.38112360276E+01  0.00000000000E+00 0. -1.
</event>
<event>
 5    1  0.5849602E+001  0.1599677E+01  0.7818608E-02  0.3353714E+00
         11   -1    0    0    0    0  0.00000000000E+00  0.00000000000E+00  0.39999999674E+01  0.40000000000E+01  0.51100000000E-03 0. -1.
    9000002   -1    0    0    0    0 -0.00000000000E+00 -0.00000000000E+00  0.00000000000E+00  0.93800000000E+00  0.93800000000E+00 0.  1.
         11    1    1    2    0    0 -0.36044657919E-01 -0.11138980293E+00  0.12627233175E+01  0.12681393233E+01  0.51100000000E-03 0. -1.
    9000002    1    1    2    0    0  0.11316868457E+00  0.34443370622E+00  0.88257751977E-01  0.10094925259E+01  0.93800000000E+00 0.  1.
         22    1    1    2    0    0 -0.77124026649E-01 -0.23304390330E+00  0.26490188979E+01  0.26603681508E+01  0.00000000000E+00 0.  1.
</event>
<event>
 5    1  0.5849602E+001  0.1599445E+01  0.7818608E-02  0.3353966E+00
         11   -1    0    0    0    0  0.00000000000E+00  0.00000000000E+00  0.39999999674E+01  0.40000000000E+01  0.51100000000E-03 0.  1.
    9000002   -1    0    0    0    0 -0.00000000000E+00 -0.00000000000E+00  0.00000000000E+00  0.93800000000E+00  0.93800000000E+00 0.  1.
         11    1    1    2    0    0  0.97785730348E-02  0.89070285225E-02  0.78149029881E-01  0.79262145063E-01  0.51100000000E-03 0.  1.
    9000002    1    1    2    0    0 -0.51396696769E+00 -0.18352737998E+00  0.20577425354E+00  0.11045503096E+01  0.93800000000E+00 0.  1.
         22    1    1    2    0    0  0.50418839466E+00  0.17462035146E+00  0.37160766839E+01  0.37541875453E+01  0.00000000000E+00 0.  1.
</event>
<event>
 5    1  0.5849602E+001  0.1513246E+01  0.7818608E-02  0.3453264E+00
         11   -1    0    0    0    0  0.00000000000E+00  0.00000000000E+00  0.39999999674E+01  0.40000000000E+01  0.51100000000E-03 0. -1.
    9000002   -1    0    0    0    0 -0.00000000000E+00 -0.00000000000E+00  0.00000000000E+00  0.93800000000E+00  0.93800000000E+00 0.  1.
         11    1    1    2    0    0 -0.27065080368E+00 -0.75030525427E-01  0.98962708117E+00  0.10287096083E+01  0.51100000000E-03 0. -1.
    9000002    1    1    2    0    0 -0.85792017627E-01 -0.88556789041E-01  0.76320476505E-01  0.94914244996E+00  0.93800000000E+00 0.  1.
         22    1    1    2    0    0  0.35644282130E+00  0.16358731447E+00  0.29340524097E+01  0.29601479418E+01  0.00000000000E+00 0. -1.
</event>
<event>
 5    1  0.5849602E+001  0.1592084E+01  0.7818608E-02  0.3362000E+00
         11   -1    0    0    0    0  0.00000000000E+00  0.00000000000E+00  0.39999999674E+01  0.40000000000E+01  0.51100000000E-03 0. -1.
    9000002   -1    0    0    0    0 -0.00000000000E+00 -0.00000000000E+00  0.00000000000E+00  0.93800000000E+00  0.93800000000E+00 0.  1.
         11    1    1    2    0    0  0.16098046580E-01 -0.72998831951E-01  0.56679667380E+00  0.57170508755E+00  0.51100000000E-03 0. -1.
    9000002    1    1    2    0    0  0.29162942010E+00  0.19165461123E+00  0.87779839442E-01  0.10046534273E+01  0.93800000000E+00 0.  1.
         22    1    1    2    0    0 -0.30772746668E+00 -0.11865577927E+00  0.33454234541E+01  0.33616414852E+01  0.00000000000E+00 0. -1.
</event>
<event>
 5    1  0.5849602E+001  0.1599673E+01  0.7818608E-02  0.3353718E+00
         11   -1    0    0    0    0  0.00000000000E+00  0.00000000000E+00  0.39999999674E+01  0.40000000000E+01  0.51100000000E-03 0. -1.
    9000002   -1    0    0    0    0 -0.00000000000E+00 -0.00000000000E+00  0.00000000000E+00  0.93800000000E+00  0.93800000000E+00 0.  1.
         11    1    1    2    0    0 -0.14971397923E-01  0.33639157352E-01  0.35685435142E+00  0.35874925074E+00  0.51100000000E-03 0.  1.
    9000002    1    1    2    0    0  0.15400797888E+00 -0.37755679950E+00  0.11226713147E+00  0.10289390182E+01  0.93800000000E+00 0.  1.
         22    1    1    2    0    0 -0.13903658096E+00  0.34391764215E+00  0.35308784845E+01  0.35503117310E+01  0.00000000000E+00 0. -1.
</event>
<event>
 5    1  0.5849602E+001  0.1599661E+01  0.7818608E-02  0.3353731E+00
         11   -1    0    0    0    0  0.00000000000E+00  0.00000000000E+00  0.39999999674E+01  0.40000000000E+01  0.51100000000E-03 0.  1.
    9000002   -1    0    0    0    0 -0.00000000000E+00 -0.00000000000E+00  0.00000000000E+00  0.93800000000E+00  0.93800000000E+00 0. -1.
         11    1    1    2    0    0 -0.58179084907E-02 -0.54982162721E-02  0.56487130079E-01  0.57053794150E-01  0.51100000000E-03 0.  1.
    9000002    1    1    2    0    0  0.42205800153E+00  0.42649466693E+00  0.25121024542E+00  0.11414820388E+01  0.93800000000E+00 0. -1.
         22    1    1    2    0    0 -0.41624009304E+00 -0.42099645066E+00  0.36923025919E+01  0.37394641670E+01  0.00000000000E+00 0.  1.
</event>
<event>
 5    1  0.5849602E+001  0.1599677E+01  0.7818608E-02  0.3353714E+00
         11   -1    0    0    0    0  0.00000000000E+00  0.00000000000E+00  0.39999999674E+01  0.40000000000E+01  0.51100000000E-03 0.  1.
    9000002   -1    0    0    0    0 -0.00000000000E+00 -0.00000000000E+00  0.00000000000E+00  0.93800000000E+00  0.93800000000E+00 0.  1.
         11    1    1    2    0    0 -0.49399135462E-01 -0.90566898611E-01  0.11012998455E+01  0.11061212630E+01  0.51100000000E-03 0.  1.
    9000002    1    1    2    0    0  0.17411011358E+00  0.32318973644E+00  0.90537547092E-01  0.10113392036E+01  0.93800000000E+00 0.  1.
         22    1    1    2    0    0 -0.12471097812E+00 -0.23262283782E+00  0.28081625748E+01  0.28205395333E+01  0.00000000000E+00 0.  1.
</event>
<event>
 5    1  0.5849602E+001  0.1597679E+01  0.7818608E-02  0.3355887E+00
         11   -1    0    0    0    0  0.00000000000E+00  0.00000000000E+00  0.39999999674E+01  0.40000000000E+01  0.51100000000E-03 0.  1.
    9000002   -1    0    0    0    0 -0.00000000000E+00 -0.00000000000E+00  0.00000000000E+00  0.93800000000E+00  0.93800000000E+00 0. -1.
         11    1    1    2    0    0 -0.33191740039E-01  0.84363849708E-01  0.48734890825E+00  0.49570976411E+00  0.51100000000E-03 0.  1.
    9000002    1    1    2    0    0  0.13730496307E+00 -0.41298008750E+00  0.13007429164E+00  0.10421940927E+01  0.93800000000E+00 0. -1.
         22    1    1    2    0    0 -0.10411322303E+00  0.32861623780E+00  0.33825767675E+01  0.34000961432E+01  0.00000000000E+00 0. -1.
</event>
<event>
 5    1  0.5849602E+001  0.1599080E+01  0.7818608E-02  0.3354363E+00
         11   -1    0    0    0    0  0.00000000000E+00  0.00000000000E+00  0.39999999674E+01  0.40000000000E+01  0.51100000000E-03 0.  1.
    9000002   -1    0    0    0    0 -0.00000000000E+00 -0.00000000000E+00  0.00000000000E+00  0.93800000000E+00  0.93800000000E+00 0. -1.
         11    1    1    2    0    0 -0.17754409113E+00 -0.67037391277E-01  0.87892786887E+00  0.89918317150E+00  0.51100000000E-03 0.  1.
    9000002    1    1    2    0    0  0.63587408834E+00  0.25731353821E+00  0.33569750711E+00  0.12095796499E+01  0.93800000000E+00 0. -1.
         22    1    1    2    0    0 -0.45832999721E+00 -0.19027614694E+00  0.27853745914E+01  0.28292371786E+01  0.00000000000E+00 0.  1.
</event>
<event>
 5    1  0.5849602E+001  0.1595962E+01  0.7818608E-02  0.3357758E+00
         11   -1    0    0    0    0  0.00000000000E+00  0.00000000000E+00  0.39999999674E+01  0.40000000000E+01  0.51100000000E-03 0. -1.
    9000002   -1    0    0    0    0 -0.00000000000E+00 -0.00000000000E+00  0.00000000000E+00  0.93800000000E+00  0.93800000000E+00 0. -1.
         11    1    1    2    0    0 -0.20787476634E-01  0.38382167032E-01  0.68298049831E+00  0.68437411708E+00  0.51100000000E-03 0. -1.
    9000002    1    1    2    0    0  0.42234255903E+00 -0.29068219641E+00  0.18373184672E+00  0.10846523719E+01  0.93800000000E+00 0. -1.
         22    1    1    2    0    0 -0.40155508239E+00  0.25230002938E+00  0.31332876223E+01  0.31689735110E+01  0.00000000000E+00 0. -1.
</event>
<event>
 5    1  0.5849602E+001  0.1596715E+01  0.7818608E-02  0.3356936E+00
         11   -1    0    0    0    0  0.00000000000E+00  0.00000000000E+00  0.39999999674E+01  0.40000000000E+01  0.51100000000E-03 0. -1.
    9000002   -1    0    0    0    0 -0.00000000000E+00 -0.00000000000E+00  0.00000000000E+00  0.93800000000E+00  0.93800000000E+00 0.  1.
         11    1    1    2    0    0  0.33163575468E-03 -0.28488606538E-01  0.53481410063E+00  0.53557267857E+00  0.51100000000E-03 0. -1.
    9000002    1    1    2    0    0 -0.32384611504E+00  0.13623097656E+00  0.85167138607E-01  0.10052525189E+01  0.93800000000E+00 0.  1.
         22    1    1    2    0    0  0.32351447929E+00 -0.10774237003E+00  0.33800187281E+01  0.33971748026E+01  0.00000000000E+00 0. -1.
</event>
<event>
 5    1  0.5849602E+001  0.1599439E+01  0.7818608E-02  0.3353972E+00
         11   -1    0    0    0    0  0.00000000000E+00  0.00000000000E+00  0.39999999674E+01  0.40000000000E+01  0.51100000000E-03 0. -1.
    9000002   -1    0    0    0    0 -0.00000000000E+00 -0.00000000000E+00  0.00000000000E+00  0.93800000000E+00  0.93800000000E+00 0.  1.
         11    1    1    2    0    0  0.52221095006E-01 -0.15488175784E+00  0.12299130522E+01  0.12407263110E+01  0.51100000000E-03 0. -1.
    9000002    1    1    2    0    0 -0.14237189100E+00  0.43545729261E+00  0.14293564462E+00  0.10536448204E+01  0.93800000000E+00 0.  1.
         22    1    1    2    0    0  0.90150795991E-01 -0.28057553478E+00  0.26271512705E+01  0.26436288686E+01  0.00000000000E+00 0. -1.
</event>
<event>
 5    1  0.5849602E+001  0.1599504E+01  0.7818608E-02  0.3353902E+00
         11   -1    0    0    0    0  0.00000000000E+00  0.00000000000E+00  0.39999999674E+01  0.40000000000E+01  0.51100000000E-03 0.  1.
    9000002   -1    0    0    0    0 -0.00000000000E+00 -0.00000000000E+00  0.00000000000E+00  0.93800000000E+00  0.93800000000E+00 0.  1.
         11    1    1    2    0    0 -0.18712092330E-01  0.41240621115E-01  0.33628308417E+00  0.33931917872E+00  0.51100000000E-03 0.  1.
    9000002    1    1    2    0    0  0.12175196430E+00 -0.43059411440E+00  0.13609504862E+00  0.10481415431E+01  0.93800000000E+00 0.  1.
         22    1    1    2    0    0 -0.10303987197E+00  0.38935349328E+00  0.35276218346E+01  0.35505392782E+01  0.00000000000E+00 0.  1.
</event>
<event>
 5    1  0.5849602E+001  0.1599523E+01  0.7818608E-02  0.3353882E+00
         11   -1    0    0    0    0  0.00000000000E+00  0.00000000000E+00  0.39999999674E+01  0.40000000000E+01  0.51100000000E-03 0. -1.
    9000002   -1    0    0    0    0 -0.00000000000E+00 -0.00000000000E+00  0.00000000000E+00  0.93800000000E+00  0.93800000000E+00 0.  1.
         11    1    1    2    0    0 -0.15404236322E+00 -0.92722706535E-01  0.13489881486E+01  0.13609172775E+01  0.51100000000E-03 0. -1.
    9000002    1    1    2    0    0  0.42308842009E+00  0.22644305422E+00  0.15725790633E+00  0.10652954131E+01  0.93800000000E+00 0.  1.
         22    1    1    2    0    0 -0.26904605688E+00 -0.13372034768E+00  0.24937539124E+01  0.25117873094E+01  0.00000000000E+00 0. -1.
</event>
<event>
 5    1  0.5849602E+001  0.1599607E+01  0.7818608E-02  0.3353790E+00
         11   -1    0    0    0    0  0.00000000000E+00  0.00000000000E+00  0.39999999674E+01  0.40000000000E+01  0.51100000000E-03 0. -1.
    9000002   -1    0    0    0    0 -0.00000000000E+00 -0.00000000000E+00  0.00000000000E+00  0.93800000000E+00  0.93800000000E+00 0. -1.
         11    1    1    2    0    0  0.39045966114E-01 -0.10762454049E+00  0.12947638077E+01  0.12998158362E+01  0.51100000000E-03 0. -1.
    9000002    1    1    2    0    0 -0.14672633903E+00  0.32399774949E+00  0.84931974233E-01  0.10067574686E+01  0.93800000000E+00 0. -1.
         22    1    1    2    0    0  0.10768037292E+00 -0.21637320900E+00  0.26203041855E+01  0.26314266953E+01  0.00000000000E+00 0. -1.
</event>
<event>
 5    1  0.5849602E+001  0.1597276E+01  0.7818608E-02  0.3356326E+00
         11   -1    0    0    0    0  0.00000000000E+00  0.00000000000E+00  0.39999999674E+01  0.40000000000E+01  0.51100000000E-03 0. -1.
    9000002   -1    0    0    0    0 -0.00000000000E+00 -0.00000000000E+00  0.00000000000E+00  0.93800000000E+00  0.93800000000E+00 0. -1.
         11    1    1    2    0    0  0.17779240366E-01  0.11715516610E-01  0.30555190629E+00  0.30629329616E+00  0.51100000000E-03 0. -1.
    9000002    1    1    2    0    0  0.10361470519E+00 -0.38245959061E+00  0.10785186611E+00  0.10239567230E+01  0.93800000000E+00 0. -1.
         22    1    1    2    0    0 -0.12139394555E+00  0.37074407400E+00  0.35865961950E+01  0.36077499808E+01  0.00000000000E+00 0. -1.
</event>
<event>
 5    1  0.5849602E+001  0.1599676E+01  0.7818608E-02  0.3353715E+00
         11   -1    0    0    0    0  0.00000000000E+00  0.00000000000E+00  0.39999999674E+01  0.40000000000E+01  0.51100000000E-03 0.  1.
    9000002   -1    0    0    0    0 -0.00000000000E+00 -0.00000000000E+00  0.00000000000E+00  0.93800000000E+00  0.93800000000E+00 0. -1.
         11    1    1    2    0    0  0.61079450423E-02  0.20808120006E-01  0.22376592801E+00  0.22481489388E+00  0.51100000000E-03 0.  1.
    9000002    1    1    2    0    0 -0.10357653034E+00 -0.36732576349E+00  0.98023831526E-01  0.10174030596E+01  0.93800000000E+00 0. -1.
         22    1    1    2    0    0  0.97468585294E-01  0.34651764348E+00  0.36782102078E+01  0.36957820465E+01  0.00000000000E+00 0.  1.
</event>
<event>
 5    1  0.5849602E+001  0.1599593E+01  0.7818608E-02  0.3353805E+00
         11   -1    0    0    0    0  0.00000000000E+00  0.00000000000E+00  0.39999999674E+01  0.40000000000E+01  0.51100000000E-03 0. -1.
    9000002   -1    0    0    0    0 -0.00000000000E+00 -0.00000000000E+00  0.00000000000E+00  0.93800000000E+00  0.93800000000E+00 0.  1.
         11    1    1    2    0    0 -0.23070843943E-01 -0.30280876175E-01  0.40685929059E+00  0.40863668308E+00  0.51100000000E-03 0. -1.
    9000002    1    1    2    0    0  0.18347593064E+00  0.34252195352E+00  0.10176453351E+00  0.10203845971E+01  0.93800000000E+00 0.  1.
         22    1    1    2    0    0 -0.16040508670E+00 -0.31224107735E+00  0.34913761433E+01  0.35089787198E+01  0.00000000000E+00 0. -1.
</event>
<event>
 5    1  0.5849602E+001  0.1596357E+01  0.7818608E-02  0.3357326E+00
         11   -1    0    0    0    0  0.00000000000E+00  0.00000000000E+00  0.39999999674E+01  0.40000000000E+01  0.51100000000E-03 0. -1.
    9000002   -1    0    0    0    0 -0.00000000000E+00 -0.00000000000E+00  0.00000000000E+00  0.93800000000E+00  0.93800000000E+00 0. -1.
         11    1    1    2    0    0 -0.12678875071E-01 -0.23763705524E-01  0.86078300471E+00  0.86120445301E+00  0.51100000000E-03 0. -1.
    9000002    1    1    2    0    0 -0.10497662077E-01  0.36043706117E+00  0.89982050274E-01  0.10089429346E+01  0.93800000000E+00 0. -1.
         22    1    1    2    0    0  0.23176537148E-01 -0.33667335564E+00  0.30492349124E+01  0.30678526124E+01  0.00000000000E+00 0. -1.
</event>
<event>
 5    1  0.5849602E+001  0.1599664E+01  0.7818608E-02  0.3353728E+00
         11   -1    0    0    0    0  0.00000000000E+00  0.00000000000E+00  0.39999999674E+01  0.40000000000E+01  0.51100000000E-03 0. -1.
    9000002   -1    0    0    0    0 -0.00000000000E+00 -0.00000000000E+00  0.00000000000E+00  0.93800000000E+00  0.93800000000E+00 0. -1.
         11    1    1    2    0    0  0.10901555995E+00 -0.43458169763E-01  0.12882256928E+01  0.12935604746E+01  0.51100000000E-03 0. -1.
    9000002    1    1    2    0    0 -0.34131758087E+00  0.12548829768E+00  0.88818419686E-01  0.10099394613E+01  0.93800000000E+00 0. -1.
         22    1    1    2    0    0  0.23230202091E+00 -0.82030127916E-01  0.26229558549E+01  0.26345000641E+01  0.00000000000E+00 0. -1.
</event>
<event>
 5    1  0.5849602E+001  0.1598243E+01  0.7818608E-02  0.3355273E+00
         11   -1    0    0    0    0  0.00000000000E+00  0.00000000000E+00  0.39999999674E+01  0.40000000000E+01  0.51100000000E-03 0.  1.
    9000002   -1    0    0    0    0 -0.00000000000E+00 -0.00000000000E+00  0.00000000000E+00  0.93800000000E+00  0.93800000000E+00 0. -1.
         11    1    1    2    0    0 -0.30768212496E-01  0.10589638041E-01  0.50054077035E+00  0.50159759493E+00  0.51100000000E-03 0.  1.
    9000002    1    1    2    0    0  0.45969829460E+00 -0.15747470147E+00  0.16253990857E+00  0.10688236644E+01  0.93800000000E+00 0. -1.
         22    1    1    2    0    0 -0.42893008210E+00  0.14688506343E+00  0.33369192884E+01  0.33675787407E+01  0.00000000000E+00 0.  1.
</event>
<event>
 5    1  0.5849602E+001  0.1599618E+01  0.7818608E-02  0.3353778E+00
         11   -1    0    0    0    0  0.00000000000E+00  0.00000000000E+00  0.39999999674E+01  0.40000000000E+01  0.51100000000E-03 0.  1.
    9000002   -1    0    0    0    0 -0.00000000000E+00 -0.00000000000E+00  0.00000000000E+00  0.93800000000E+00  0.93800000000E+00 0.  1.
         11    1    1    2    0    0 -0.20334256907E-01  0.13656558365E+00  0.10436322037E+01  0.10527260225E+01  0.51100000000E-03 0.  1.
    9000002    1    1    2    0    0  0.89436850674E-01 -0.47584204366E+00  0.16011174998E+00  0.10676630429E+01  0.93800000000E+00 0.  1.
         22    1    1    2    0    0 -0.69102593767E-01  0.33927646000E+00  0.27962560136E+01  0.28176109346E+01  0.00000000000E+00 0.  1.
</event>
<event>
 5    1  0.5849602E+001  0.1599604E+01  0.7818608E-02  0.3353793E+00
         11   -1    0    0    0    0  0.00000000000E+00  0.00000000000E+00  0.39999999674E+01  0.40000000000E+01  0.51100000000E-03 0. -1.
    9000002   -1    0    0    0    0 -0.00000000000E+00 -0.00000000000E+00  0.00000000000E+00  0.93800000000E+00  0.93800000000E+00 0.  1.
         11    1    1    2    0    0 -0.79203784563E-01 -0.13012409474E+00  0.12312528189E+01  0.12406406751E+01  0.51100000000E-03 0. -1.
    9000002    1    1    2    0    0  0.27601591570E+00  0.39832790154E+00  0.16042609043E+00  0.10679093751E+01  0.93800000000E+00 0.  1.
         22    1    1    2    0    0 -0.19681213114E+00 -0.26820380680E+00  0.26083210580E+01  0.26294499498E+01  0.00000000000E+00 0. -1.
</event>
<event>
 5    1  0.5849602E+001  0.1599677E+01  0.7818608E-02  0.3353714E+00
         11   -1    0    0    0    0  0.00000000000E+00  0.00000000000E+00  0.39999999674E+01  0.40000000000E+01  0.51100000000E-03 0. -1.
    9000002   -1    0    0    0    0 -0.00000000000E+00 -0.00000000000E+00  0.00000000000E+00  0.93800000000E+00  0.93800000000E+00 0.  1.
         11    1    1    2    0    0 -0.90617587618E-01  0.16201517057E+00  0.13987718829E+01  0.14110363228E+01  0.51100000000E-03 0. -1.
    9000002    1    1    2    0    0  0.24832711830E+00 -0.44197594810E+00  0.17614478596E+00  0.10806850059E+01  0.93800000000E+00 0.  1.
         22    1    1    2    0    0 -0.15770953069E+00  0.27996077753E+00  0.24250832985E+01  0.24462786713E+01  0.00000000000E+00 0. -1.
</event>
<event>
 5    1  0.5849602E+001  0.1591509E+01  0.7818608E-02  0.3362631E+00
         11   -1    0    0    0    0  0.00000000000E+00  0.00000000000E+00  0.39999999674E+01  0.40000000000E+01  0.51100000000E-03 0. -1.
    9000002   -1    0    0    0    0 -0.00000000000E+00 -0.00000000000E+00  0.00000000000E+00  0.93800000000E+00  0.93800000000E+00 0. -1.
         11    1    1    2    0    0 -0.26011524504E+00  0.47890288209E-01  0.84490817255E+00  0.88533807191E+00  0.51100000000E-03 0. -1.
    9000002    1    1    2    0    0  0.71946276054E+00 -0.10446047789E+00  0.39013066319E+00  0.12492336009E+01  0.93800000000E+00 0. -1.
         22    1    1    2    0    0 -0.45934751550E+00  0.56570189681E-01  0.27649611316E+01  0.28034283272E+01  0.00000000000E+00 0. -1.
</event>
<event>
 5    1  0.6598199E+001  0.1598864E+01  0.7818608E-02  0.3354597E+00
         11   -1    0    0    0    0  0.00000000000E+00  0.00000000000E+00  0.39999999674E+01  0.40000000000E+01  0.51100000000E-03 0. -1.
    9000002   -1    0    0    0    0 -0.00000000000E+00 -0.00000000000E+00  0.00000000000E+00  0.93800000000E+00  0.93800000000E+00 0.  1.
         11    1    1    2    0    0  0.37965252107E-01 -0.50250681328E-01  0.11201330822E+01  0.11219023462E+01  0.51100000000E-03 0. -1.
    9000002    1    1    2    0    0 -0.21827769449E+00  0.24411748644E+00  0.72378707335E-01  0.99615318921E+00  0.93800000000E+00 0.  1.
         22    1    1    2    0    0  0.18031244239E+00 -0.19386680512E+00  0.28074881778E+01  0.28199444646E+01  0.00000000000E+00 0. -1.
</event>
<event>
 5    1  0.5849602E+001  0.1599233E+01  0.7818608E-02  0.3354196E+00
         11   -1    0    0    0    0  0.00000000000E+00  0.00000000000E+00  0.39999999674E+01  0.40000000000E+01  0.51100000000E-03 0.  1.
    9000002   -1    0    0    0    0 -0.00000000000E+00 -0.00000000000E+00  0.00000000000E+00  0.93800000000E+00  0.93800000000E+00 0.  1.
         11    1    1    2    0    0 -0.85415893303E-01  0.15041084639E+00  0.12276829155E+01  0.12398084125E+01  0.51100000000E-03 0.  1.
    9000002    1    1    2    0    0  0.19898731691E+00 -0.44084220889E+00  0.16010845910E+00  0.10674345526E+01  0.93800000000E+00 0.  1.
         22    1    1    2    0    0 -0.11357142360E+00  0.29043136251E+00  0.26122085928E+01  0.26307570349E+01  0.00000000000E+00 0. -1.
</event>
<event>
 5    1  0.5849602E+001  0.1597568E+01  0.7818608E-02  0.3356007E+00
         11   -1    0    0    0    0  0.00000000000E+00  0.00000000000E+00  0.39999999674E+01  0.40000000000E+01  0.51100000000E-03 0. -1.
    9000002   -1    0    0    0    0 -0.00000000000E+00 -0.00000000000E+00  0.00000000000E+00  0.93800000000E+00  0.93800000000E+00 0. -1.
         11    1    1    2    0    0  0.17436156789E+00 -0.81341351415E-01  0.12464437019E+01  0.12612059843E+01  0.51100000000E-03 0. -1.
    9000002    1    1    2    0    0 -0.39622773457E+00  0.32855535844E+00  0.18375436909E+00  0.10856125964E+01  0.93800000000E+00 0. -1.
         22    1    1    2    0    0  0.22186616667E+00 -0.24721400702E+00  0.25698018964E+01  0.25911814193E+01  0.00000000000E+00 0. -1.
</event>
<event>
 5    1  0.5849602E+001  0.1573936E+01  0.7818608E-02  0.3382147E+00
         11   -1    0    0    0    0  0.00000000000E+00  0.00000000000E+00  0.39999999674E+01  0.40000000000E+01  0.51100000000E-03 0.  1.
    9000002   -1    0    0    0    0 -0.00000000000E+00 -0.00000000000E+00  0.00000000000E+00  0.93800000000E+00  0.93800000000E+00 0.  1.
         11    1    1    2    0    0 -0.11547470941E-01  0.23719190807E+00  0.13457028827E+01  0.13664954646E+01  0.51100000000E-03 0.  1.
    9000002    1    1    2    0    0  0.35604513391E+00 -0.26213576589E+00  0.15505525778E+00  0.10485081927E+01  0.93800000000E+00 0.  1.
         22    1    1    2    0    0 -0.34449766297E+00  0.24943857824E-01  0.24992418269E+01  0.25229963427E+01  0.00000000000E+00 0.  1.
</event>
<event>
 5    1  0.5849602E+001  0.1599665E+01  0.7818608E-02  0.3353727E+00
         11   -1    0    0    0    0  0.00000000000E+00  0.00000000000E+00  0.39999999674E+01  0.40000000000E+01  0.51100000000E-03 0.  1.
    9000002   -1    0    0    0    0 -0.00000000000E+00 -0.00000000000E+00  0.00000000000E+00  0.93800000000E+00  0.93800000000E+00 0.  1.
         11    1    1    2    0    0 -0.23878533835E+00 -0.10907163879E-01  0.11661851741E+01  0.11904308151E+01  0.51100000000E-03 0.  1.
    9000002    1    1    2    0    0  0.74064679041E+00  0.45264595697E-01  0.39821653972E+00  0.12605661285E+01  0.93800000000E+00 0.  1.
         22    1    1    2    0    0 -0.50186145205E+00 -0.34357431818E-01  0.24355982535E+01  0.24870030565E+01  0.00000000000E+00 0.  1.
</event>
<event>
 5    1  0.5849602E+001  0.1599673E+01  0.7818608E-02  0.3353718E+00
         11   -1    0    0    0    0  0.00000000000E+00  0.00000000000E+00  0.39999999674E+01  0.40000000000E+01  0.51100000000E-03 0. -1.
    9000002   -1    0    0    0    0 -0.00000000000E+00 -0.00000000000E+00  0.00000000000E+00  0.93800000000E+00  0.93800000000E+00 0. -1.
         11    1    1    2    0    0 -0.24655406120E-01  0.79194966400E-01  0.76080280192E+00  0.76531098012E+00  0.51100000000E-03 0. -1.
    9000002    1    1    2    0    0  0.12086433837E+00 -0.39600497707E+00  0.11584790195E+00  0.10318395547E+01  0.93800000000E+00 0. -1.
         22    1    1    2    0    0 -0.96208932254E-01  0.31681001067E+00  0.31233492635E+01  0.31408494652E+01  0.00000000000E+00 0. -1.
</event>
<event>
 5    1  0.5849602E+001  0.1599676E+01  0.7818608E-02  0.3353715E+00
         11   -1    0    0    0    0  0.00000000000E+00  0.00000000000E+00  0.39999999674E+01  0.40000000000E+01  0.51100000000E-03 0.  1.
    9000002   -1    0    0    0    0 -0.00000000000E+00 -0.00000000000E+00  0.00000000000E+00  0.93800000000E+00  0.93800000000E+00 0. -1.
         11    1    1    2    0    0  0.27451153367E-02  0.95626358391E-01  0.10655826543E+01  0.10698684921E+01  0.51100000000E-03 0.  1.
    9000002    1    1    2    0    0 -0.68882724152E-02 -0.35393533748E+00  0.84065027859E-01  0.10060957213E+01  0.93800000000E+00 0. -1.
         22    1    1    2    0    0  0.41431570785E-02  0.25830897909E+00  0.28503522852E+01  0.28620357866E+01  0.00000000000E+00 0.  1.
</event>
<event>
 5    1  0.5849602E+001  0.1585953E+01  0.7818608E-02  0.3368752E+00
         11   -1    0    0    0    0  0.00000000000E+00  0.00000000000E+00  0.39999999674E+01  0.40000000000E+01  0.51100000000E-03 0. -1.
    9000002   -1    0    0    0    0 -0.00000000000E+00 -0.00000000000E+00  0.00000000000E+00  0.93800000000E+00  0.93800000000E+00 0.  1.
         11    1    1    2    0    0  0.14381403632E-01 -0.11902573422E+00  0.14904720357E+01  0.14952862938E+01  0.51100000000E-03 0. -1.
    9000002    1    1    2    0    0  0.26196298403E+00  0.11312267142E+00  0.64984078852E-01  0.98259262886E+00  0.93800000000E+00 0.  1.
         22    1    1    2    0    0 -0.27634438766E+00  0.59030628016E-02  0.24445438528E+01  0.24601210773E+01  0.00000000000E+00 0. -1.
</event>
<event>
 5    1  0.5849602E+001  0.1596013E+01  0.7818608E-02  0.3357702E+00
         11   -1    0    0    0    0  0.00000000000E+00  0.00000000000E+00  0.39999999674E+01  0.40000000000E+01  0.51100000000E-03 0.  1.
    9000002   -1    0    0    0    0 -0.00000000000E+00 -0.00000000000E+00  0.00000000000E+00  0.93800000000E+00  0.93800000000E+00 0.  1.
         11    1    1    2    0    0  0.40164554382E-01  0.44410848131E+00  0.41039729493E+00  0.60602948394E+00  0.51100000000E-03 0.  1.
    9000002    1    1    2    0    0 -0.11443115286E+00  0.15074099800E-01  0.27413219937E+00  0.98402956254E+00  0.93800000000E+00 0.  1.
         22    1    1    2    0    0  0.74266598481E-01 -0.45918258111E+00  0.33154704731E+01  0.33479409535E+01  0.00000000000E+00 0.  1.
</event>
<event>
 5    1  0.5849602E+001  0.1598549E+01  0.7818608E-02  0.3354940E+00
         11   -1    0    0    0    0  0.00000000000E+00  0.00000000000E+00  0.39999999674E+01  0.40000000000E+01  0.51100000000E-03 0. -1.
    9000002   -1    0    0    0    0 -0.00000000000E+00 -0.00000000000E+00  0.00000000000E+00  0.93800000000E+00  0.93800000000E+00 0.  1.
         11    1    1    2    0    0 -0.73880740217E-02 -0.16694380789E+00  0.11711299237E+01  0.11829921293E+01  0.51100000000E-03 0. -1.
    9000002    1    1    2    0    0  0.10492223384E+00  0.45637430033E+00  0.15033724953E+00  0.10591182492E+01  0.93800000000E+00 0.  1.
         22    1    1    2    0    0 -0.97534159817E-01 -0.28943049244E+00  0.26785327941E+01  0.26958896215E+01  0.00000000000E+00 0. -1.
</event>
<event>
 5    1  0.5849602E+001  0.1599676E+01  0.7818608E-02  0.3353715E+00
         11   -1    0    0    0    0  0.00000000000E+00  0.00000000000E+00  0.39999999674E+01  0.40000000000E+01  0.51100000000E-03 0.  1.
    9000002   -1    0    0    0    0 -0.00000000000E+00 -0.00000000000E+00  0.00000000000E+00  0.93800000000E+00  0.93800000000E+00 0. -1.
         11    1    1    2    0    0  0.11570116124E+00 -0.65506091728E-01  0.79906916953E+00  0.81005531020E+00  0.51100000000E-03 0.  1.
    9000002    1    1    2    0    0 -0.53951159291E+00  0.30279582516E+00  0.26814196893E+00  0.11552065556E+01  0.93800000000E+00 0. -1.
         22    1    1    2    0    0  0.42381043167E+00 -0.23728973344E+00  0.29327888289E+01  0.29727381342E+01  0.00000000000E+00 0.  1.
</event>
<event>
 5    1  0.5849602E+001  0.1599208E+01  0.7818608E-02  0.3354223E+00
         11   -1    0    0    0    0  0.00000000000E+00  0.00000000000E+00  0.39999999674E+01  0.40000000000E+01  0.51100000000E-03 0.  1.
    9000002   -1    0    0    0    0 -0.00000000000E+00 -0.00000000000E+00  0.00000000000E+00  0.93800000000E+00  0.93800000000E+00 0. -1.
         11    1    1    2    0    0 -0.15878597534E-01  0.19421592546E+00  0.87492399013E+00  0.89636164866E+00  0.51100000000E-03 0.  1.
    9000002    1    1    2    0    0  0.13714405886E+00 -0.73912181824E+00  0.41044546944E+00  0.12702043294E+01  0.93800000000E+00 0. -1.
         22    1    1    2    0    0 -0.12126546133E+00  0.54490589277E+00  0.27146305078E+01  0.27714340219E+01  0.00000000000E+00 0.  1.
</event>
<event>
 5    1  0.5849602E+001  0.1599672E+01  0.7818608E-02  0.3353720E+00
         11   -1    0    0    0    0  0.00000000000E+00  0.00000000000E+00  0.39999999674E+01  0.40000000000E+01  0.51100000000E-03 0. -1.
    9000002   -1    0    0    0    0 -0.00000000000E+00 -0.00000000000E+00  0.00000000000E+00  0.93800000000E+00  0.93800000000E+00 0. -1.
         11    1    1    2    0    0 -0.40349708705E-02 -0.14362409604E+00  0.13932527716E+01  0.14006418916E+01  0.51100000000E-03 0. -1.
    9000002    1    1    2    0    0  0.12419261043E-01  0.39428414275E+00  0.10489539763E+00  0.10229668947E+01  0.93800000000E+00 0. -1.
         22    1    1    2    0    0 -0.83842901725E-02 -0.25066004672E+00  0.25018517982E+01  0.25143912137E+01  0.00000000000E+00 0. -1.
</event>
<event>
 5    1  0.5849602E+001  0.1599668E+01  0.7818608E-02  0.3353724E+00
         11   -1    0    0    0    0  0.00000000000E+00  0.00000000000E+00  0.39999999674E+01  0.40000000000E+01  0.51100000000E-03 0.  1.
    9000002   -1    0    0    0    0 -0.00000000000E+00 -0.00000000000E+00  0.00000000000E+00  0.93800000000E+00  0.93800000000E+00 0. -1.
         11    1    1    2    0    0 -0.12694256579E+00 -0.40107291643E-01  0.13989013054E+01  0.14052217381E+01  0.51100000000E-03 0.  1.
    9000002    1    1    2    0    0  0.35287232453E+00  0.12162373845E+00  0.93665857948E-01  0.10138680901E+01  0.93800000000E+00 0. -1.
         22    1    1    2    0    0 -0.22592975874E+00 -0.81516446810E-01  0.25074328040E+01  0.25189101718E+01  0.00000000000E+00 0. -1.
</event>
<event>
 5    1  0.5849602E+001  0.1598075E+01  0.7818608E-02  0.3355456E+00
         11   -1    0    0    0    0  0.00000000000E+00  0.00000000000E+00  0.39999999674E+01  0.40000000000E+01  0.51100000000E-03 0. -1.
    9000002   -1    0    0    0    0 -0.00000000000E+00 -0.00000000000E+00  0.00000000000E+00  0.93800000000E+00  0.93800000000E+00 0. -1.
         11    1    1    2    0    0 -0.12404522511E-01 -0.18696561110E-02  0.50801715848E+00  0.50817227613E+00  0.51100000000E-03 0. -1.
    9000002    1    1    2    0    0  0.32690920616E+00  0.10964376148E+00  0.80959903625E-01  0.10026414561E+01  0.93800000000E+00 0. -1.
         22    1    1    2    0    0 -0.31450468364E+00 -0.10777410536E+00  0.34110229053E+01  0.34271862678E+01  0.00000000000E+00 0. -1.
</event>
<event>
 5    1  0.5849602E+001  0.1599178E+01  0.7818608E-02  0.3354256E+00
         11   -1    0    0    0    0  0.00000000000E+00  0.00000000000E+00  0.39999999674E+01  0.40000000000E+01  0.51100000000E-03 0. -1.
    9000002   -1    0    0    0    0 -0.00000000000E+00 -0.00000000000E+00  0.00000000000E+00  0.93800000000E+00  0.93800000000E+00 0. -1.
         11    1    1    2    0    0 -0.54231890080E-01  0.26910857155E-01  0.64983675464E+00  0.65265102539E+00  0.51100000000E-03 0. -1.
    9000002    1    1    2    0    0  0.27277185017E+00 -0.26958531731E+00  0.99414768582E-01  0.10182377040E+01  0.93800000000E+00 0. -1.
         22    1    1    2    0    0 -0.21853996009E+00  0.24267446015E+00  0.32507484441E+01  0.32671112707E+01  0.00000000000E+00 0. -1.
</event>
<event>
 5    1  0.5849602E+001  0.1599665E+01  0.7818608E-02  0.3353727E+00
         11   -1    0    0    0    0  0.00000000000E+00  0.00000000000E+00  0.39999999674E+01  0.40000000000E+01  0.51100000000E-03 0. -1.
    9000002   -1    0    0    0    0 -0.00000000000E+00 -0.00000000000E+00  0.00000000000E+00  0.93800000000E+00  0.93800000000E+00 0. -1.
         11    1    1    2    0    0 -0.52441388661E-01  0.25924599356E-01  0.39369454785E+00  0.39801738935E+00  0.51100000000E-03 0. -1.
    9000002    1    1    2    0    0  0.52015266995E+00 -0.23197195290E+00  0.22490617197E+00  0.11201770276E+01  0.93800000000E+00 0. -1.
         22    1    1    2    0    0 -0.46771128129E+00  0.20604735354E+00  0.33813992475E+01  0.34198055830E+01  0.00000000000E+00 0. -1.
</event>
<event>
 5    1  0.5849602E+001  0.1599673E+01  0.7818608E-02  0.3353719E+00
         11   -1    0    0    0    0  0.00000000000E+00  0.00000000000E+00  0.39999999674E+01  0.40000000000E+01  0.51100000000E-03 0.  1.
    9000002   -1    0    0    0    0 -0.00000000000E+00 -0.00000000000E+00  0.00000000000E+00  0.93800000000E+00  0.93800000000E+00 0. -1.
         11    1    1    2    0    0 -0.87740919561E-01 -0.10421998857E+00  0.12723621527E+01  0.12796350979E+01  0.51100000000E-03 0.  1.
    9000002    1    1    2    0    0  0.26108869336E+00  0.32039184980E+00  0.11542462879E+00  0.10314965284E+01  0.93800000000E+00 0. -1.
         22    1    1    2    0    0 -0.17334777380E+00 -0.21617186123E+00  0.26122131859E+01  0.26268683737E+01  0.00000000000E+00 0.  1.
</event>
<event>
 5    1  0.5849602E+001  0.1583096E+01  0.7818608E-02  0.3371917E+00
         11   -1    0    0    0    0  0.00000000000E+00  0.00000000000E+00  0.39999999674E+01  0.40000000000E+01  0.51100000000E-03 0.  1.
    9000002   -1    0    0    0    0 -0.00000000000E+00 -0.00000000000E+00  0.00000000000E+00  0.93800000000E+00  0.93800000000E+00 0. -1.
         11    1    1    2    0    0  0.49490814030E+00 -0.21284163676E-01  0.79848237978E+00  0.93966028697E+00  0.51100000000E-03 0.  1.
    9000002    1    1    2    0    0  0.19352035497E+00 -0.10065991464E+00  0.29247692563E+00  0.10064637590E+01  0.93800000000E+00 0. -1.
         22    1    1    2    0    0 -0.68842849527E+00  0.12194407831E+00  0.29090406619E+01  0.29918759540E+01  0.00000000000E+00 0.  1.
</event>
<event>
 5    1  0.5849602E+001  0.1599676E+01  0.7818608E-02  0.3353715E+00
         11   -1    0    0    0    0  0.00000000000E+00  0.00000000000E+00  0.39999999674E+01  0.40000000000E+01  0.51100000000E-03 0. -1.
    9000002   -1    0    0    0    0 -0.00000000000E+00 -0.00000000000E+00  0.00000000000E+00  0.93800000000E+00  0.93800000000E+00 0. -1.
         11    1    1    2    0    0  0.89153743918E-01 -0.54188683412E-01  0.10210080277E+01  0.10263247328E+01  0.51100000000E-03 0. -1.
    9000002    1    1    2    0    0 -0.33805222913E+00  0.20456027609E+00  0.10524398594E+00  0.10232519302E+01  0.93800000000E+00 0. -1.
         22    1    1    2    0    0  0.24889848521E+00 -0.15037159268E+00  0.28737479537E+01  0.28884233369E+01  0.00000000000E+00 0. -1.
</event>
<event>
 5    1  0.5849602E+001  0.1585804E+01  0.7818608E-02  0.3368916E+00
         11   -1    0    0    0    0  0.00000000000E+00  0.00000000000E+00  0.39999999674E+01  0.40000000000E+01  0.51100000000E-03 0. -1.
    9000002   -1    0    0    0    0 -0.00000000000E+00 -0.00000000000E+00  0.00000000000E+00  0.93800000000E+00  0.93800000000E+00 0. -1.
         11    1    1    2    0    0  0.65880480412E-01 -0.58092250244E-01  0.64497205688E+00  0.65092561980E+00  0.51100000000E-03 0. -1.
    9000002    1    1    2    0    0  0.21900901220E+00  0.19769844329E+00  0.68955228761E-01  0.98572229633E+00  0.93800000000E+00 0. -1.
         22    1    1    2    0    0 -0.28488949261E+00 -0.13960619304E+00  0.32860726817E+01  0.33013520839E+01  0.00000000000E+00 0. -1.
</event>
<event>
 5    1  0.5849602E+001  0.1599675E+01  0.7818608E-02  0.3353717E+00
         11   -1    0    0    0    0  0.00000000000E+00  0.00000000000E+00  0.39999999674E+01  0.40000000000E+01  0.51100000000E-03 0. -1.
    9000002   -1    0    0    0    0 -0.00000000000E+00 -0.00000000000E+00  0.00000000000E+00  0.93800000000E+00  0.93800000000E+00 0. -1.
         11    1    1    2    0    0 -0.90935880123E-01  0.96312727858E-01  0.13899384328E+01  0.13962358626E+01  0.51100000000E-03 0. -1.
    9000002    1    1    2    0    0  0.25410270743E+00 -0.26608460678E+00  0.90953225946E-01  0.10116746973E+01  0.93800000000E+00 0. -1.
         22    1    1    2    0    0 -0.16316682730E+00  0.16977187893E+00  0.25191083086E+01  0.25300894401E+01  0.00000000000E+00 0. -1.
</event>
<event>
 5    1  0.5849602E+001  0.1599668E+01  0.7818608E-02  0.3353724E+00
         11   -1    0    0    0    0  0.00000000000E+00  0.00000000000E+00  0.39999999674E+01  0.40000000000E+01  0.51100000000E-03 0.  1.
    9000002   -1    0    0    0    0 -0.00000000000E+00 -0.00000000000E+00  0.00000000000E+00  0.93800000000E+00  0.93800000000E+00 0.  1.
         11    1    1    2    0    0 -0.13968022694E+00 -0.20045236332E+00  0.13209069676E+01  0.13433120241E+01  0.51100000000E-03 0.  1.
    9000002    1    1    2    0    0  0.38412628672E+00  0.56568229382E+00  0.33272749205E+00  0.12075185488E+01  0.93800000000E+00 0.  1.
         22    1    1    2    0    0 -0.24444605978E+00 -0.36522993050E+00  0.23463655077E+01  0.23871694272E+01  0.00000000000E+00 0.  1.
</event>
<event>
 5    1  0.5849602E+001  0.1579499E+01  0.7818608E-02  0.3375919E+00
         11   -1    0    0    0    0  0.00000000000E+00  0.00000000000E+00  0.39999999674E+01  0.40000000000E+01  0.51100000000E-03 0. -1.
    9000002   -1    0    0    0    0 -0.00000000000E+00 -0.00000000000E+00  0.00000000000E+00  0.93800000000E+00  0.93800000000E+00 0. -1.
         11    1    1    2    0    0 -0.69647662356E-01 -0.12971975307E+00  0.60250566333E+00  0.62023491249E+00  0.51100000000E-03 0. -1.
    9000002    1    1    2    0    0 -0.21536398545E+00  0.38303449382E+00  0.14843906799E+00  0.10464106396E+01  0.93800000000E+00 0. -1.
         22    1    1    2    0    0  0.28501164781E+00 -0.25331474075E+00  0.32490552360E+01  0.32713544479E+01  0.00000000000E+00 0. -1.
</event>
<event>
 5    1  0.5849602E+001  0.1585692E+01  0.7818608E-02  0.3369040E+00
         11   -1    0    0    0    0  0.00000000000E+00  0.00000000000E+00  0.39999999674E+01  0.40000000000E+01  0.51100000000E-03 0. -1.
    9000002   -1    0    0    0    0 -0.00000000000E+00 -0.00000000000E+00  0.00000000000E+00  0.93800000000E+00  0.93800000000E+00 0. -1.
         11    1    1    2    0    0 -0.50933320005E-01  0.57767951385E-01  0.38757378347E+00  0.39515191769E+00  0.51100000000E-03 0. -1.
    9000002    1    1    2    0    0  0.38393661023E+00  0.26923285106E+00  0.16214575553E+00  0.10611450866E+01  0.93800000000E+00 0. -1.
         22    1    1    2    0    0 -0.33300329023E+00 -0.32700080245E+00  0.34502804284E+01  0.34817029957E+01  0.00000000000E+00 0. -1.
</event>
<event>
 5    1  0.5849602E+001  0.1599677E+01  0.7818608E-02  0.3353714E+00
         11   -1    0    0    0    0  0.00000000000E+00  0.00000000000E+00  0.39999999674E+01  0.40000000000E+01  0.51100000000E-03 0.  1.
    9000002   -1    0    0    0    0 -0.00000000000E+00 -0.00000000000E+00  0.00000000000E+00  0.93800000000E+00  0.93800000000E+00 0.  1.
         11    1    1    2    0    0 -0.11293867575E+00 -0.24155108786E-01  0.11970134141E+01  0.12025722383E+01  0.51100000000E-03 0. -1.
    9000002    1    1    2    0    0  0.36904188886E+00  0.78608764908E-01  0.95762231811E-01  0.10155715921E+01  0.93800000000E+00 0.  1.
         22    1    1    2    0    0 -0.25610321311E+00 -0.54453656122E-01  0.27072243215E+01  0.27198561696E+01  0.00000000000E+00 0.  1.
</event>
<event>
 5    1  0.5849602E+001  0.1599677E+01  0.7818608E-02  0.3353714E+00
         11   -1    0    0    0    0  0.00000000000E+00  0.00000000000E+00  0.39999999674E+01  0.40000000000E+01  0.51100000000E-03 0. -1.
    9000002   -1    0    0    0    0 -0.00000000000E+00 -0.00000000000E+00  0.00000000000E+00  0.93800000000E+00  0.93800000000E+00 0.  1.
         11    1    1    2    0    0  0.50877793808E-01 -0.49271112608E-01  0.74013190092E+00  0.74351306936E+00  0.51100000000E-03 0.  1.
    9000002    1    1    2    0    0 -0.26904302288E+00  0.25785480105E+00  0.93357686437E-01  0.10136236502E+01  0.93800000000E+00 0.  1.
         22    1    1    2    0    0  0.21816522908E+00 -0.20858368844E+00  0.31665103800E+01  0.31808632805E+01  0.00000000000E+00 0. -1.
</event>
<event>
 5    1  0.5849602E+001  0.1599504E+01  0.7818608E-02  0.3353902E+00
         11   -1    0    0    0    0  0.00000000000E+00  0.00000000000E+00  0.39999999674E+01  0.40000000000E+01  0.51100000000E-03 0.  1.
    9000002   -1    0    0    0    0 -0.00000000000E+00 -0.00000000000E+00  0.00000000000E+00  0.93800000000E+00  0.93800000000E+00 0.  1.
         11    1    1    2    0    0  0.21858315196E+00 -0.10255799558E+00  0.13133324805E+01  0.13353423539E+01  0.51100000000E-03 0.  1.
    9000002    1    1    2    0    0 -0.57786202769E+00  0.30970746883E+00  0.30391394984E+00  0.11840823148E+01  0.93800000000E+00 0.  1.
         22    1    1    2    0    0  0.35927887573E+00 -0.20714947325E+00  0.23827535370E+01  0.24185753313E+01  0.00000000000E+00 0.  1.
</event>
<event>
 5    1  0.5849602E+001  0.1599673E+01  0.7818608E-02  0.3353719E+00
         11   -1    0    0    0    0  0.00000000000E+00  0.00000000000E+00  0.39999999674E+01  0.40000000000E+01  0.51100000000E-03 0. -1.
    9000002   -1    0    0    0    0 -0.00000000000E+00 -0.00000000000E+00  0.00000000000E+00  0.93800000000E+00  0.93800000000E+00 0. -1.
         11    1    1    2    0    0  0.59117630076E-01  0.31875053322E-01  0.62691852430E+00  0.63050615417E+00  0.51100000000E-03 0. -1.
    9000002    1    1    2    0    0 -0.37255791253E+00 -0.20615212059E+00  0.12271374809E+00  0.10374009635E+01  0.93800000000E+00 0. -1.
         22    1    1    2    0    0  0.31344028245E+00  0.17427706727E+00  0.32503676950E+01  0.32700928824E+01  0.00000000000E+00 0. -1.
</event>
<event>
 5    1  0.5849602E+001  0.1588753E+01  0.7818608E-02  0.3365662E+00
         11   -1    0    0    0    0  0.00000000000E+00  0.00000000000E+00  0.39999999674E+01  0.40000000000E+01  0.51100000000E-03 0. -1.
    9000002   -1    0    0    0    0 -0.00000000000E+00 -0.00000000000E+00  0.00000000000E+00  0.93800000000E+00  0.93800000000E+00 0.  1.
         11    1    1    2    0    0  0.12497598790E-01  0.11444411260E+00  0.71745886844E+00  0.72663686523E+00  0.51100000000E-03 0. -1.
    9000002    1    1    2    0    0  0.28655604023E+00 -0.22774828482E+00  0.98939184732E-01  0.10117393971E+01  0.93800000000E+00 0.  1.
         22    1    1    2    0    0 -0.29905363902E+00  0.11330417222E+00  0.31836019142E+01  0.31996237376E+01  0.00000000000E+00 0. -1.
</event>
<event>
 5    1  0.5849602E+001  0.1599603E+01  0.7818608E-02  0.3353795E+00
         11   -1    0    0    0    0  0.00000000000E+00  0.00000000000E+00  0.39999999674E+01  0.40000000000E+01  0.51100000000E-03 0.  1.
    9000002   -1    0    0    0    0 -0.00000000000E+00 -0.00000000000E+00  0.00000000000E+00  0.93800000000E+00  0.93800000000E+00 0.  1.
         11    1    1    2    0    0 -0.88645565966E-01 -0.35837170295E-01  0.10509436679E+01  0.10552844135E+01  0.51100000000E-03 0.  1.
    9000002    1    1    2    0    0  0.35906944959E+00  0.14911218624E+00  0.10188137585E+00  0.10204847517E+01  0.93800000000E+00 0.  1.
         22    1    1    2    0    0 -0.27042388363E+00 -0.11327501594E+00  0.28471749236E+01  0.28622308348E+01  0.00000000000E+00 0.  1.
</event>
<event>
 5    1  0.5849602E+001  0.1594287E+01  0.7818608E-02  0.3359587E+00
         11   -1    0    0    0    0  0.00000000000E+00  0.00000000000E+00  0.39999999674E+01  0.40000000000E+01  0.51100000000E-03 0. -1.
    9000002   -1    0    0    0    0 -0.00000000000E+00 -0.00000000000E+00  0.00000000000E+00  0.93800000000E+00  0.93800000000E+00 0.  1.
         11    1    1    2    0    0 -0.63170542814E-02 -0.36216811166E-01  0.96643737727E-01  0.10340133340E+00  0.51100000000E-03 0. -1.
    9000002    1    1    2    0    0 -0.68033517185E-01  0.37212792534E+00  0.10070074300E+00  0.10164115269E+01  0.93800000000E+00 0.  1.
         22    1    1    2    0    0  0.74350571466E-01 -0.33591111417E+00  0.38026554866E+01  0.38181871398E+01  0.00000000000E+00 0. -1.
</event>
<event>
 5    1  0.5849602E+001  0.1534074E+01  0.7818608E-02  0.3428180E+00
         11   -1    0    0    0    0  0.00000000000E+00  0.00000000000E+00  0.39999999674E+01  0.40000000000E+01  0.51100000000E-03 0. -1.
    9000002   -1    0    0    0    0 -0.00000000000E+00 -0.00000000000E+00  0.00000000000E+00  0.93800000000E+00  0.93800000000E+00 0.  1.
         11    1    1    2    0    0 -0.11351231482E+00  0.86702645910E-01  0.13207109140E+00  0.19453901596E+00  0.51100000000E-03 0. -1.
    9000002    1    1    2    0    0  0.61102403465E+00  0.12348645516E+00  0.34289731143E+00  0.11772942885E+01  0.93800000000E+00 0.  1.
         22    1    1    2    0    0 -0.49751171982E+00 -0.21018910107E+00  0.35250315645E+01  0.35661666956E+01  0.00000000000E+00 0. -1.
</event>
<event>
 5    1  0.5849602E+001  0.1599250E+01  0.7818608E-02  0.3354178E+00
         11   -1    0    0    0    0  0.00000000000E+00  0.00000000000E+00  0.39999999674E+01  0.40000000000E+01  0.51100000000E-03 0.  1.
    9000002   -1    0    0    0    0 -0.00000000000E+00 -0.00000000000E+00  0.00000000000E+00  0.93800000000E+00  0.93800000000E+00 0.  1.
         11    1    1    2    0    0  0.90783272517E-02 -0.11851226497E+00  0.83039285612E+00  0.83885644159E+00  0.51100000000E-03 0.  1.
    9000002    1    1    2    0    0  0.36006329215E-01  0.49288934543E+00  0.16741506958E+00  0.10733630179E+01  0.93800000000E+00 0.  1.
         22    1    1    2    0    0 -0.45084656466E-01 -0.37437708046E+00  0.30021920417E+01  0.30257805406E+01  0.00000000000E+00 0.  1.
</event>
<event>
 5    1  0.5849602E+001  0.1599287E+01  0.7818608E-02  0.3354137E+00
         11   -1    0    0    0    0  0.00000000000E+00  0.00000000000E+00  0.39999999674E+01  0.40000000000E+01  0.51100000000E-03 0. -1.
    9000002   -1    0    0    0    0 -0.00000000000E+00 -0.00000000000E+00  0.00000000000E+00  0.93800000000E+00  0.93800000000E+00 0. -1.
         11    1    1    2    0    0  0.10334975066E+00  0.40621043741E-01  0.85168408671E+00  0.85889305785E+00  0.51100000000E-03 0. -1.
    9000002    1    1    2    0    0 -0.38614081576E+00 -0.15497276813E+00  0.11734881682E+00  0.10328291404E+01  0.93800000000E+00 0. -1.
         22    1    1    2    0    0  0.28279106510E+00  0.11435172439E+00  0.30309670638E+01  0.30462778017E+01  0.00000000000E+00 0. -1.
</event>
<event>
 5    1  0.5849602E+001  0.1599676E+01  0.7818608E-02  0.3353715E+00
         11   -1    0    0    0    0  0.00000000000E+00  0.00000000000E+00  0.39999999674E+01  0.40000000000E+01  0.51100000000E-03 0.  1.
    9000002   -1    0    0    0    0 -0.00000000000E+00 -0.00000000000E+00  0.00000000000E+00  0.93800000000E+00  0.93800000000E+00 0.  1.
         11    1    1    2    0    0 -0.42011029548E-02  0.16845571077E+00  0.13764681836E+01  0.13867443518E+01  0.51100000000E-03 0.  1.
    9000002    1    1    2    0    0  0.14198162394E-01 -0.46870164051E+00  0.14976983731E+00  0.10593195079E+01  0.93800000000E+00 0.  1.
         22    1    1    2    0    0 -0.99970594393E-02  0.30024592974E+00  0.24737619464E+01  0.24919361403E+01  0.00000000000E+00 0.  1.
</event>
<event>
 5    1  0.5849602E+001  0.1599667E+01  0.7818608E-02  0.3353725E+00
         11   -1    0    0    0    0  0.00000000000E+00  0.00000000000E+00  0.39999999674E+01  0.40000000000E+01  0.51100000000E-03 0. -1.
    9000002   -1    0    0    0    0 -0.00000000000E+00 -0.00000000000E+00  0.00000000000E+00  0.93800000000E+00  0.93800000000E+00 0.  1.
         11    1    1    2    0    0  0.33375873461E-02 -0.36270647507E-01  0.41930587071E+00  0.42088522627E+00  0.51100000000E-03 0. -1.
    9000002    1    1    2    0    0 -0.48140688761E-01  0.35274969326E+00  0.85052446350E-01  0.10068901582E+01  0.93800000000E+00 0.  1.
         22    1    1    2    0    0  0.44803101415E-01 -0.31647904575E+00  0.34956416503E+01  0.35102246155E+01  0.00000000000E+00 0. -1.
</event>
<event>
 5    1  0.5849602E+001  0.1599628E+01  0.7818608E-02  0.3353767E+00
         11   -1    0    0    0    0  0.00000000000E+00  0.00000000000E+00  0.39999999674E+01  0.40000000000E+01  0.51100000000E-03 0. -1.
    9000002   -1    0    0    0    0 -0.00000000000E+00 -0.00000000000E+00  0.00000000000E+00  0.93800000000E+00  0.93800000000E+00 0.  1.
         11    1    1    2    0    0  0.14388013530E+00 -0.54496049448E-01  0.13527550781E+01  0.13614763587E+01  0.51100000000E-03 0. -1.
    9000002    1    1    2    0    0 -0.43286251260E+00  0.15894179880E+00  0.14470002102E+00  0.10551846029E+01  0.93800000000E+00 0.  1.
         22    1    1    2    0    0  0.28898237730E+00 -0.10444574935E+00  0.25025448682E+01  0.25213390384E+01  0.00000000000E+00 0.  1.
</event>
<event>
 5    1  0.5849602E+001  0.1599666E+01  0.7818608E-02  0.3353726E+00
         11   -1    0    0    0    0  0.00000000000E+00  0.00000000000E+00  0.39999999674E+01  0.40000000000E+01  0.51100000000E-03 0.  1.
    9000002   -1    0    0    0    0 -0.00000000000E+00 -0.00000000000E+00  0.00000000000E+00  0.93800000000E+00  0.93800000000E+00 0.  1.
         11    1    1    2    0    0 -0.67220525933E-01 -0.75128009494E-01  0.89793879270E+00  0.90358018652E+00  0.51100000000E-03 0.  1.
    9000002    1    1    2    0    0  0.29622758515E+00  0.31076231862E+00  0.12482905486E+00  0.10391103377E+01  0.93800000000E+00 0.  1.
         22    1    1    2    0    0 -0.22900705922E+00 -0.23563430912E+00  0.29772321198E+01  0.29953094758E+01  0.00000000000E+00 0.  1.
</event>
<event>
 5    1  0.5849602E+001  0.1599599E+01  0.7818608E-02  0.3353798E+00
         11   -1    0    0    0    0  0.00000000000E+00  0.00000000000E+00  0.39999999674E+01  0.40000000000E+01  0.51100000000E-03 0. -1.
    9000002   -1    0    0    0    0 -0.00000000000E+00 -0.00000000000E+00  0.00000000000E+00  0.93800000000E+00  0.93800000000E+00 0.  1.
         11    1    1    2    0    0 -0.10863903139E+00  0.63464303808E-01  0.11230079457E+01  0.11300341872E+01  0.51100000000E-03 0. -1.
    9000002    1    1    2    0    0  0.34324480607E+00 -0.22624083625E+00  0.11422533693E+00  0.10304820913E+01  0.93800000000E+00 0.  1.
         22    1    1    2    0    0 -0.23460577468E+00  0.16277653244E+00  0.27627666847E+01  0.27774837215E+01  0.00000000000E+00 0. -1.
</event>
<event>
 5    1  0.5849602E+001  0.1485623E+01  0.7818608E-02  0.3487697E+00
         11   -1    0    0    0    0  0.00000000000E+00  0.00000000000E+00  0.39999999674E+01  0.40000000000E+01  0.51100000000E-03 0. -1.
    9000002   -1    0    0    0    0 -0.00000000000E+00 -0.00000000000E+00  0.00000000000E+00  0.93800000000E+00  0.93800000000E+00 0. -1.
         11    1    1    2    0    0 -0.14248619026E+00  0.34938252338E-01  0.10814613623E-01  0.14710612795E+00  0.51100000000E-03 0. -1.
    9000002    1    1    2    0    0 -0.19087203779E+00 -0.30742174985E+00  0.26204371274E+00  0.10389663972E+01  0.93800000000E+00 0. -1.
         22    1    1    2    0    0  0.33335822805E+00  0.27248349751E+00  0.37271416410E+01  0.37519274749E+01  0.00000000000E+00 0. -1.
</event>
<event>
 5    1  0.5849602E+001  0.1599652E+01  0.7818608E-02  0.3353741E+00
         11   -1    0    0    0    0  0.00000000000E+00  0.00000000000E+00  0.39999999674E+01  0.40000000000E+01  0.51100000000E-03 0.  1.
    9000002   -1    0    0    0    0 -0.00000000000E+00 -0.00000000000E+00  0.00000000000E+00  0.93800000000E+00  0.93800000000E+00 0.  1.
         11    1    1    2    0    0  0.38773160646E-01 -0.53830340591E-01  0.42919472993E+00  0.43429188442E+00  0.51100000000E-03 0.  1.
    9000002    1    1    2    0    0 -0.37095399366E+00  0.46082632159E+00  0.24376185244E+00  0.11354433516E+01  0.93800000000E+00 0.  1.
         22    1    1    2    0    0  0.33218083301E+00 -0.40699598100E+00  0.33270433850E+01  0.33682647639E+01  0.00000000000E+00 0.  1.
</event>
<event>
 5    1  0.5849602E+001  0.1532596E+01  0.7818608E-02  0.3429936E+00
         11   -1    0    0    0    0  0.00000000000E+00  0.00000000000E+00  0.39999999674E+01  0.40000000000E+01  0.51100000000E-03 0. -1.
    9000002   -1    0    0    0    0 -0.00000000000E+00 -0.00000000000E+00  0.00000000000E+00  0.93800000000E+00  0.93800000000E+00 0.  1.
         11    1    1    2    0    0  0.20070108200E+00 -0.19668052604E+00  0.15060037926E+00  0.31881795588E+00  0.51100000000E-03 0. -1.
    9000002    1    1    2    0    0 -0.17927644311E+00 -0.15753742530E+00  0.24641034869E+00  0.99875930202E+00  0.93800000000E+00 0.  1.
         22    1    1    2    0    0 -0.21424638882E-01  0.35421795135E+00  0.36029892394E+01  0.36204227421E+01  0.00000000000E+00 0. -1.
</event>
<event>
 5    1  0.5849602E+001  0.1599672E+01  0.7818608E-02  0.3353720E+00
         11   -1    0    0    0    0  0.00000000000E+00  0.00000000000E+00  0.39999999674E+01  0.40000000000E+01  0.51100000000E-03 0. -1.
    9000002   -1    0    0    0    0 -0.00000000000E+00 -0.00000000000E+00  0.00000000000E+00  0.93800000000E+00  0.93800000000E+00 0.  1.
         11    1    1    2    0    0  0.26246686047E+00  0.95187113614E-01  0.69801127088E+00  0.75177751685E+00  0.51100000000E-03 0. -1.
    9000002    1    1    2    0    0 -0.10751431401E+01 -0.38699930401E+00  0.11677590030E+01  0.18839337361E+01  0.93800000000E+00 0.  1.
         22    1    1    2    0    0  0.81267627968E+00  0.29181219039E+00  0.21342296935E+01  0.23022887470E+01  0.00000000000E+00 0. -1.
</event>
<event>
 5    1  0.5849602E+001  0.1598530E+01  0.7818608E-02  0.3354961E+00
         11   -1    0    0    0    0  0.00000000000E+00  0.00000000000E+00  0.39999999674E+01  0.40000000000E+01  0.51100000000E-03 0.  1.
    9000002   -1    0    0    0    0 -0.00000000000E+00 -0.00000000000E+00  0.00000000000E+00  0.93800000000E+00  0.93800000000E+00 0. -1.
         11    1    1    2    0    0 -0.50700447313E-01  0.96581736369E-01  0.70689919309E+00  0.71526589285E+00  0.51100000000E-03 0.  1.
    9000002    1    1    2    0    0  0.38057909084E+00 -0.38700158482E+00  0.20428738140E+00  0.11028091427E+01  0.93800000000E+00 0. -1.
         22    1    1    2    0    0 -0.32987864352E+00  0.29041984845E+00  0.30888133929E+01  0.31199249644E+01  0.00000000000E+00 0.  1.
</event>
<event>
 5    1  0.5849602E+001  0.1599673E+01  0.7818608E-02  0.3353718E+00
         11   -1    0    0    0    0  0.00000000000E+00  0.00000000000E+00  0.39999999674E+01  0.40000000000E+01  0.51100000000E-03 0. -1.
    9000002   -1    0    0    0    0 -0.00000000000E+00 -0.00000000000E+00  0.00000000000E+00  0.93800000000E+00  0.93800000000E+00 0. -1.
         11    1    1    2    0    0  0.59480564926E-01 -0.71086925293E-01  0.10216256028E+01  0.10258218276E+01  0.51100000000E-03 0. -1.
    9000002    1    1    2    0    0 -0.23575588059E+00  0.27183477553E+00  0.86913081161E-01  0.10084011425E+01  0.93800000000E+00 0. -1.
         22    1    1    2    0    0  0.17627531567E+00 -0.20074785024E+00  0.28914612834E+01  0.29037770299E+01  0.00000000000E+00 0. -1.
</event>
<event>
 5    1  0.5849602E+001  0.1599676E+01  0.7818608E-02  0.3353715E+00
         11   -1    0    0    0    0  0.00000000000E+00  0.00000000000E+00  0.39999999674E+01  0.40000000000E+01  0.51100000000E-03 0. -1.
    9000002   -1    0    0    0    0 -0.00000000000E+00 -0.00000000000E+00  0.00000000000E+00  0.93800000000E+00  0.93800000000E+00 0. -1.
         11    1    1    2    0    0 -0.66207520726E-01 -0.12133107471E-01  0.66649546428E+00  0.66988589560E+00  0.51100000000E-03 0. -1.
    9000002    1    1    2    0    0  0.38559016597E+00  0.67642396133E-01  0.10326262497E+00  0.10216469251E+01  0.93800000000E+00 0. -1.
         22    1    1    2    0    0 -0.31938264524E+00 -0.55509288662E-01  0.32302418781E+01  0.32464671793E+01  0.00000000000E+00 0.  1.
</event>
<event>
 5    1  0.5849602E+001  0.1599676E+01  0.7818608E-02  0.3353715E+00
         11   -1    0    0    0    0  0.00000000000E+00  0.00000000000E+00  0.39999999674E+01  0.40000000000E+01  0.51100000000E-03 0. -1.
    9000002   -1    0    0    0    0 -0.00000000000E+00 -0.00000000000E+00  0.00000000000E+00  0.93800000000E+00  0.93800000000E+00 0.  1.
         11    1    1    2    0    0  0.19981152184E-01  0.30551575254E-01  0.34911342100E+00  0.35101721758E+00  0.51100000000E-03 0. -1.
    9000002    1    1    2    0    0 -0.22204232545E+00 -0.33680270235E+00  0.10981940240E+00  0.10269582055E+01  0.93800000000E+00 0.  1.
         22    1    1    2    0    0  0.20206117326E+00  0.30625112710E+00  0.35410671440E+01  0.35600245770E+01  0.00000000000E+00 0. -1.
</event>
<event>
 5    1  0.5849602E+001  0.1599331E+01  0.7818608E-02  0.3354090E+00
         11   -1    0    0    0    0  0.00000000000E+00  0.00000000000E+00  0.39999999674E+01  0.40000000000E+01  0.51100000000E-03 0.  1.
    9000002   -1    0    0    0    0 -0.00000000000E+00 -0.00000000000E+00  0.00000000000E+00  0.93800000000E+00  0.93800000000E+00 0.  1.
         11    1    1    2    0    0 -0.81916046371E-01 -0.19709741411E-01  0.28691072590E+00  0.29902631710E+00  0.51100000000E-03 0.  1.
    9000002    1    1    2    0    0  0.82930330665E+00  0.23021901039E+00  0.55835558545E+00  0.13900898269E+01  0.93800000000E+00 0.  1.
         22    1    1    2    0    0 -0.74738726028E+00 -0.21050926897E+00  0.31547336560E+01  0.32488838560E+01  0.00000000000E+00 0.  1.
</event>
<event>
 5    1  0.5849602E+001  0.1517071E+01  0.7818608E-02  0.3448601E+00
         11   -1    0    0    0    0  0.00000000000E+00  0.00000000000E+00  0.39999999674E+01  0.40000000000E+01  0.51100000000E-03 0. -1.
    9000002   -1    0    0    0    0 -0.00000000000E+00 -0.00000000000E+00  0.00000000000E+00  0.93800000000E+00  0.93800000000E+00 0.  1.
         11    1    1    2    0    0  0.11103439340E+00 -0.15493421331E+00  0.37904020822E+00  0.42426994654E+00  0.51100000000E-03 0. -1.
    9000002    1    1    2    0    0  0.12510381370E+00 -0.13401456220E+00  0.86532159264E-01  0.95965758564E+00  0.93800000000E+00 0.  1.
         22    1    1    2    0    0 -0.23613820711E+00  0.28894877552E+00  0.35344275999E+01  0.35540724678E+01  0.00000000000E+00 0. -1.
</event>
<event>
 5    1  0.5849602E+001  0.1536042E+01  0.7818608E-02  0.3425848E+00
         11   -1    0    0    0    0  0.00000000000E+00  0.00000000000E+00  0.39999999674E+01  0.40000000000E+01  0.51100000000E-03 0.  1.
    9000002   -1    0    0    0    0 -0.00000000000E+00 -0.00000000000E+00  0.00000000000E+00  0.93800000000E+00  0.93800000000E+00 0. -1.
         11    1    1    2    0    0 -0.72570282261E-01 -0.11239896528E+00  0.14753267656E+01  0.14813808760E+01  0.51100000000E-03 0.  1.
    9000002    1    1    2    0    0 -0.49214839846E+00  0.55396910106E+00  0.47690805005E+00  0.12870031466E+01  0.93800000000E+00 0. -1.
         22    1    1    2    0    0  0.56471868072E+00 -0.44157013578E+00  0.20477651517E+01  0.21696159775E+01  0.00000000000E+00 0.  1.
</event>
<event>
 5    1  0.5849602E+001  0.1599270E+01  0.7818608E-02  0.3354156E+00
         11   -1    0    0    0    0  0.00000000000E+00  0.00000000000E+00  0.39999999674E+01  0.40000000000E+01  0.51100000000E-03 0.  1.
    9000002   -1    0    0    0    0 -0.00000000000E+00 -0.00000000000E+00  0.00000000000E+00  0.93800000000E+00  0.93800000000E+00 0. -1.
         11    1    1    2    0    0  0.34188380994E-03  0.40593465441E-02  0.61531671554E-01  0.61668491988E-01  0.51100000000E-03 0.  1.
    9000002    1    1    2    0    0  0.41471725615E-01 -0.61699588164E+00  0.26828857751E+00  0.11550872620E+01  0.93800000000E+00 0. -1.
         22    1    1    2    0    0 -0.41813609425E-01  0.61293653509E+00  0.36701797183E+01  0.37212442460E+01  0.00000000000E+00 0.  1.
</event>
<event>
 5    1  0.5849602E+001  0.1599662E+01  0.7818608E-02  0.3353730E+00
         11   -1    0    0    0    0  0.00000000000E+00  0.00000000000E+00  0.39999999674E+01  0.40000000000E+01  0.51100000000E-03 0.  1.
    9000002   -1    0    0    0    0 -0.00000000000E+00 -0.00000000000E+00  0.00000000000E+00  0.93800000000E+00  0.93800000000E+00 0.  1.
         11    1    1    2    0    0 -0.12259086890E-02  0.35628702602E-02  0.18926283570E-01  0.19304461333E-01  0.51100000000E-03 0.  1.
    9000002    1    1    2    0    0  0.31552913362E+00 -0.66976432786E+00  0.39624334483E+00  0.12589661145E+01  0.93800000000E+00 0.  1.
         22    1    1    2    0    0 -0.31430322493E+00  0.66620145760E+00  0.35848303390E+01  0.36597294242E+01  0.00000000000E+00 0.  1.
</event>
<event>
 5    1  0.5849602E+001  0.1599676E+01  0.7818608E-02  0.3353715E+00
         11   -1    0    0    0    0  0.00000000000E+00  0.00000000000E+00  0.39999999674E+01  0.40000000000E+01  0.51100000000E-03 0.  1.
    9000002   -1    0    0    0    0 -0.00000000000E+00 -0.00000000000E+00  0.00000000000E+00  0.93800000000E+00  0.93800000000E+00 0. -1.
         11    1    1    2    0    0  0.53145836990E-01 -0.72382581150E-01  0.96188551075E+00  0.96606817304E+00  0.51100000000E-03 0.  1.
    9000002    1    1    2    0    0 -0.21545837152E+00  0.29797117705E+00  0.90842121287E-01  0.10115855986E+01  0.93800000000E+00 0. -1.
         22    1    1    2    0    0  0.16231253453E+00 -0.22558859590E+00  0.29472723353E+01  0.29603462284E+01  0.00000000000E+00 0.  1.
</event>
<event>
 5    1  0.5849602E+001  0.1546278E+01  0.7818608E-02  0.3413818E+00
         11   -1    0    0    0    0  0.00000000000E+00  0.00000000000E+00  0.39999999674E+01  0.40000000000E+01  0.51100000000E-03 0. -1.
    9000002   -1    0    0    0    0 -0.00000000000E+00 -0.00000000000E+00  0.00000000000E+00  0.93800000000E+00  0.93800000000E+00 0.  1.
         11    1    1    2    0    0  0.23375313667E-01  0.74222383881E-01  0.77134462756E-01  0.10956894644E+00  0.51100000000E-03 0. -1.
    9000002    1    1    2    0    0  0.27310977508E-01  0.29633966735E+00  0.10205053274E+00  0.98935403126E+00  0.93800000000E+00 0.  1.
         22    1    1    2    0    0 -0.50686291175E-01 -0.37056205123E+00  0.38208149719E+01  0.38390770223E+01  0.00000000000E+00 0. -1.
</event>
<event>
 5    1  0.5849602E+001  0.1599677E+01  0.7818608E-02  0.3353714E+00
         11   -1    0    0    0    0  0.00000000000E+00  0.00000000000E+00  0.39999999674E+01  0.40000000000E+01  0.51100000000E-03 0.  1.
    9000002   -1    0    0    0    0 -0.00000000000E+00 -0.00000000000E+00  0.00000000000E+00  0.93800000000E+00  0.93800000000E+00 0.  1.
         11    1    1    2    0    0  0.17371274691E+00 -0.51971801138E-01  0.13536545483E+01  0.13657445163E+01  0.51100000000E-03 0.  1.
    9000002    1    1    2    0    0 -0.49119206260E+00  0.14612302725E+00  0.18016192630E+00  0.10839390671E+01  0.93800000000E+00 0.  1.
         22    1    1    2    0    0  0.31747931569E+00 -0.94151226107E-01  0.24661834927E+01  0.24883164166E+01  0.00000000000E+00 0.  1.
</event>
<event>
 5    1  0.5849602E+001  0.1599674E+01  0.7818608E-02  0.3353717E+00
         11   -1    0    0    0    0  0.00000000000E+00  0.00000000000E+00  0.39999999674E+01  0.40000000000E+01  0.51100000000E-03 0.  1.
    9000002   -1    0    0    0    0 -0.00000000000E+00 -0.00000000000E+00  0.00000000000E+00  0.93800000000E+00  0.93800000000E+00 0.  1.
         11    1    1    2    0    0 -0.82318166510E-01 -0.10637276576E+00  0.11158249453E+01  0.11239025827E+01  0.51100000000E-03 0.  1.
    9000002    1    1    2    0    0  0.27784138060E+00  0.36743619883E+00  0.14435905962E+00  0.10549354156E+01  0.93800000000E+00 0.  1.
         22    1    1    2    0    0 -0.19552321409E+00 -0.26106343307E+00  0.27398159625E+01  0.27591620017E+01  0.00000000000E+00 0.  1.
</event>
<event>
 5    1  0.5849602E+001  0.1597196E+01  0.7818608E-02  0.3356413E+00
         11   -1    0    0    0    0  0.00000000000E+00  0.00000000000E+00  0.39999999674E+01  0.40000000000E+01  0.51100000000E-03 0.  1.
    9000002   -1    0    0    0    0 -0.00000000000E+00 -0.00000000000E+00  0.00000000000E+00  0.93800000000E+00  0.93800000000E+00 0. -1.
         11    1    1    2    0    0  0.24567350273E-01 -0.73304876552E-01  0.45817775560E+00  0.46465500802E+00  0.51100000000E-03 0.  1.
    9000002    1    1    2    0    0  0.41424048135E-01  0.40687805160E+00  0.11503640701E+00  0.10297296128E+01  0.93800000000E+00 0. -1.
         22    1    1    2    0    0 -0.65991398408E-01 -0.33357317505E+00  0.34267858048E+01  0.34436153791E+01  0.00000000000E+00 0.  1.
</event>
<event>
 5    1  0.5849602E+001  0.1494951E+01  0.7818608E-02  0.3475917E+00
         11   -1    0    0    0    0  0.00000000000E+00  0.00000000000E+00  0.39999999674E+01  0.40000000000E+01  0.51100000000E-03 0. -1.
    9000002   -1    0    0    0    0 -0.00000000000E+00 -0.00000000000E+00  0.00000000000E+00  0.93800000000E+00  0.93800000000E+00 0. -1.
         11    1    1    2    0    0 -0.23691326773E-01 -0.13821929035E+00  0.10684940187E+00  0.17630345144E+00  0.51100000000E-03 0. -1.
    9000002    1    1    2    0    0 -0.26419843597E+00 -0.96404423700E-01  0.13882396787E+00  0.98904535818E+00  0.93800000000E+00 0. -1.
         22    1    1    2    0    0  0.28788976274E+00  0.23462371405E+00  0.37543265976E+01  0.37726511904E+01  0.00000000000E+00 0. -1.
</event>
<event>
 5    1  0.5849602E+001  0.1599676E+01  0.7818608E-02  0.3353715E+00
         11   -1    0    0    0    0  0.00000000000E+00  0.00000000000E+00  0.39999999674E+01  0.40000000000E+01  0.51100000000E-03 0. -1.
    9000002   -1    0    0    0    0 -0.00000000000E+00 -0.00000000000E+00  0.00000000000E+00  0.93800000000E+00  0.93800000000E+00 0.  1.
         11    1    1    2    0    0 -0.11966680922E+00 -0.52584349966E-02  0.11930129979E+01  0.11990112888E+01  0.51100000000E-03 0.  1.
    9000002    1    1    2    0    0  0.39290347232E+00  0.19943413890E-01  0.10430940734E+00  0.10224946605E+01  0.93800000000E+00 0.  1.
         22    1    1    2    0    0 -0.27323666310E+00 -0.14684978894E-01  0.27026775621E+01  0.27164940507E+01  0.00000000000E+00 0. -1.
</event>
<event>
 5    1  0.5849602E+001  0.1599489E+01  0.7818608E-02  0.3353918E+00
         11   -1    0    0    0    0  0.00000000000E+00  0.00000000000E+00  0.39999999674E+01  0.40000000000E+01  0.51100000000E-03 0. -1.
    9000002   -1    0    0    0    0 -0.00000000000E+00 -0.00000000000E+00  0.00000000000E+00  0.93800000000E+00  0.93800000000E+00 0. -1.
         11    1    1    2    0    0 -0.16286756216E+00  0.11265808048E-01  0.11128513556E+01  0.11247627136E+01  0.51100000000E-03 0. -1.
    9000002    1    1    2    0    0  0.56836635682E+00 -0.86461033558E-01  0.22958415052E+00  0.11238632960E+01  0.93800000000E+00 0. -1.
         22    1    1    2    0    0 -0.40549879466E+00  0.75195225510E-01  0.26575644613E+01  0.26893739904E+01  0.00000000000E+00 0.  1.
</event>
<event>
 5    1  0.5849602E+001  0.1599424E+01  0.7818608E-02  0.3353989E+00
         11   -1    0    0    0    0  0.00000000000E+00  0.00000000000E+00  0.39999999674E+01  0.40000000000E+01  0.51100000000E-03 0.  1.
    9000002   -1    0    0    0    0 -0.00000000000E+00 -0.00000000000E+00  0.00000000000E+00  0.93800000000E+00  0.93800000000E+00 0. -1.
         11    1    1    2    0    0 -0.50813480276E-01 -0.12590727624E-02  0.35216337986E+00  0.35581301589E+00  0.51100000000E-03 0.  1.
    9000002    1    1    2    0    0  0.45714618623E+00  0.84030127659E-01  0.14728187063E+00  0.10571563968E+01  0.93800000000E+00 0. -1.
         22    1    1    2    0    0 -0.40633270595E+00 -0.82771054897E-01  0.35005547169E+01  0.35250305873E+01  0.00000000000E+00 0.  1.
</event>
<event>
 5    1  0.5849602E+001  0.1599463E+01  0.7818608E-02  0.3353947E+00
         11   -1    0    0    0    0  0.00000000000E+00  0.00000000000E+00  0.39999999674E+01  0.40000000000E+01  0.51100000000E-03 0. -1.
    9000002   -1    0    0    0    0 -0.00000000000E+00 -0.00000000000E+00  0.00000000000E+00  0.93800000000E+00  0.93800000000E+00 0. -1.
         11    1    1    2    0    0 -0.38854403211E-02  0.15531952821E+00  0.13532937454E+01  0.13621833485E+01  0.51100000000E-03 0. -1.
    9000002    1    1    2    0    0  0.40655289470E-01 -0.47875676051E+00  0.15772239022E+00  0.10656365425E+01  0.93800000000E+00 0. -1.
         22    1    1    2    0    0 -0.36769849149E-01  0.32343723229E+00  0.24889838317E+01  0.25101801090E+01  0.00000000000E+00 0. -1.
</event>
<event>
 5    1  0.5849602E+001  0.1594604E+01  0.7818608E-02  0.3359241E+00
         11   -1    0    0    0    0  0.00000000000E+00  0.00000000000E+00  0.39999999674E+01  0.40000000000E+01  0.51100000000E-03 0. -1.
    9000002   -1    0    0    0    0 -0.00000000000E+00 -0.00000000000E+00  0.00000000000E+00  0.93800000000E+00  0.93800000000E+00 0.  1.
         11    1    1    2    0    0  0.16196726602E-01  0.96005515009E-01  0.10593866254E+01  0.10638513412E+01  0.51100000000E-03 0. -1.
    9000002    1    1    2    0    0 -0.27591923249E+00 -0.17444463837E+00  0.75312083159E-01  0.99603125683E+00  0.93800000000E+00 0.  1.
         22    1    1    2    0    0  0.25972250588E+00  0.78439123365E-01  0.28653012588E+01  0.28781174020E+01  0.00000000000E+00 0. -1.
</event>
<event>
 5    1  0.5849602E+001  0.1599562E+01  0.7818608E-02  0.3353839E+00
         11   -1    0    0    0    0  0.00000000000E+00  0.00000000000E+00  0.39999999674E+01  0.40000000000E+01  0.51100000000E-03 0.  1.
    9000002   -1    0    0    0    0 -0.00000000000E+00 -0.00000000000E+00  0.00000000000E+00  0.93800000000E+00  0.93800000000E+00 0. -1.
         11    1    1    2    0    0 -0.94250303420E-01  0.26484520934E-01  0.49617336351E+00  0.50573987121E+00  0.51100000000E-03 0.  1.
    9000002    1    1    2    0    0  0.63629307473E+00 -0.21754288617E+00  0.32098320893E+00  0.11979432393E+01  0.93800000000E+00 0. -1.
         22    1    1    2    0    0 -0.54204277131E+00  0.19105836524E+00  0.31828433949E+01  0.32343168895E+01  0.00000000000E+00 0.  1.
</event>
<event>
 5    1  0.5849602E+001  0.1599676E+01  0.7818608E-02  0.3353715E+00
         11   -1    0    0    0    0  0.00000000000E+00  0.00000000000E+00  0.39999999674E+01  0.40000000000E+01  0.51100000000E-03 0. -1.
    9000002   -1    0    0    0    0 -0.00000000000E+00 -0.00000000000E+00  0.00000000000E+00  0.93800000000E+00  0.93800000000E+00 0. -1.
         11    1    1    2    0    0  0.12791459919E-01 -0.13996665094E+00  0.12882570638E+01  0.12959015427E+01  0.51100000000E-03 0.  1.
    9000002    1    1    2    0    0 -0.37276200705E-01  0.41883938677E+00  0.11959012226E+00  0.10348728156E+01  0.93800000000E+00 0. -1.
         22    1    1    2    0    0  0.24484740785E-01 -0.27887273583E+00  0.25921527813E+01  0.26072256417E+01  0.00000000000E+00 0. -1.
</event>
<event>
 5    1  0.5849602E+001  0.1593462E+01  0.7818608E-02  0.3360491E+00
         11   -1    0    0    0    0  0.00000000000E+00  0.00000000000E+00  0.39999999674E+01  0.40000000000E+01  0.51100000000E-03 0.  1.
    9000002   -1    0    0    0    0 -0.00000000000E+00 -0.00000000000E+00  0.00000000000E+00  0.93800000000E+00  0.93800000000E+00 0. -1.
         11    1    1    2    0    0  0.42240989835E-01  0.13564680599E+00  0.78847423862E+00  0.80117179387E+00  0.51100000000E-03 0.  1.
    9000002    1    1    2    0    0  0.13287678480E+00 -0.49808822895E+00  0.18810212960E+00  0.10867265226E+01  0.93800000000E+00 0. -1.
         22    1    1    2    0    0 -0.17511777463E+00  0.36244142297E+00  0.30234235991E+01  0.30501016835E+01  0.00000000000E+00 0.  1.
</event>
<event>
 5    1  0.5849602E+001  0.1510587E+01  0.7818608E-02  0.3456519E+00
         11   -1    0    0    0    0  0.00000000000E+00  0.00000000000E+00  0.39999999674E+01  0.40000000000E+01  0.51100000000E-03 0. -1.
    9000002   -1    0    0    0    0 -0.00000000000E+00 -0.00000000000E+00  0.00000000000E+00  0.93800000000E+00  0.93800000000E+00 0. -1.
         11    1    1    2    0    0 -0.18436133391E+00 -0.24148843271E+00  0.10145456970E+01  0.10590604312E+01  0.51100000000E-03 0. -1.
    9000002    1    1    2    0    0  0.26782297464E-01 -0.75438978574E-01  0.72102863076E-01  0.94416690993E+00  0.93800000000E+00 0. -1.
         22    1    1    2    0    0  0.15757903645E+00  0.31692741128E+00  0.29133514073E+01  0.29347726588E+01  0.00000000000E+00 0. -1.
</event>
<event>
 5    1  0.5849602E+001  0.1598878E+01  0.7818608E-02  0.3354582E+00
         11   -1    0    0    0    0  0.00000000000E+00  0.00000000000E+00  0.39999999674E+01  0.40000000000E+01  0.51100000000E-03 0.  1.
    9000002   -1    0    0    0    0 -0.00000000000E+00 -0.00000000000E+00  0.00000000000E+00  0.93800000000E+00  0.93800000000E+00 0. -1.
         11    1    1    2    0    0 -0.10782246736E-01  0.54480744841E-02  0.54851640522E-01  0.56168513860E-01  0.51100000000E-03 0.  1.
    9000002    1    1    2    0    0  0.39378021016E+00  0.48920156111E-01  0.10682739120E+00  0.10240664662E+01  0.93800000000E+00 0. -1.
         22    1    1    2    0    0 -0.38299796343E+00 -0.54368230595E-01  0.38383209356E+01  0.38577650200E+01  0.00000000000E+00 0.  1.
</event>
<event>
 5    1  0.5849602E+001  0.1599284E+01  0.7818608E-02  0.3354141E+00
         11   -1    0    0    0    0  0.00000000000E+00  0.00000000000E+00  0.39999999674E+01  0.40000000000E+01  0.51100000000E-03 0.  1.
    9000002   -1    0    0    0    0 -0.00000000000E+00 -0.00000000000E+00  0.00000000000E+00  0.93800000000E+00  0.93800000000E+00 0. -1.
         11    1    1    2    0    0 -0.54739469395E-01  0.13670082972E+00  0.12739179666E+01  0.12824003950E+01  0.51100000000E-03 0.  1.
    9000002    1    1    2    0    0  0.20457905386E+00 -0.46500989508E+00  0.17727232550E+00  0.10813677770E+01  0.93800000000E+00 0. -1.
         22    1    1    2    0    0 -0.14983958446E+00  0.32830906536E+00  0.25488096752E+01  0.25742318279E+01  0.00000000000E+00 0.  1.
</event>
<event>
 5    1  0.5849602E+001  0.1599665E+01  0.7818608E-02  0.3353728E+00
         11   -1    0    0    0    0  0.00000000000E+00  0.00000000000E+00  0.39999999674E+01  0.40000000000E+01  0.51100000000E-03 0. -1.
    9000002   -1    0    0    0    0 -0.00000000000E+00 -0.00000000000E+00  0.00000000000E+00  0.93800000000E+00  0.93800000000E+00 0. -1.
         11    1    1    2    0    0 -0.20846662743E+00 -0.11764242976E+00  0.11130334281E+01  0.11384822130E+01  0.51100000000E-03 0. -1.
    9000002    1    1    2    0    0  0.67212612655E+00  0.38786320294E+00  0.44010874415E+00  0.12945003286E+01  0.93800000000E+00 0. -1.
         22    1    1    2    0    0 -0.46365949912E+00 -0.27022077318E+00  0.24468577951E+01  0.25050174584E+01  0.00000000000E+00 0. -1.
</event>
<event>
 5    1  0.5849602E+001  0.1574257E+01  0.7818608E-02  0.3381787E+00
         11   -1    0    0    0    0  0.00000000000E+00  0.00000000000E+00  0.39999999674E+01  0.40000000000E+01  0.51100000000E-03 0. -1.
    9000002   -1    0    0    0    0 -0.00000000000E+00 -0.00000000000E+00  0.00000000000E+00  0.93800000000E+00  0.93800000000E+00 0. -1.
         11    1    1    2    0    0  0.36990483680E-01 -0.17365886637E+00  0.12991291218E+01  0.13112064803E+01  0.51100000000E-03 0. -1.
    9000002    1    1    2    0    0  0.19591043433E+00  0.74800469862E-01  0.48495869259E-01  0.96237823017E+00  0.93800000000E+00 0. -1.
         22    1    1    2    0    0 -0.23290091801E+00  0.98858396507E-01  0.26523749763E+01  0.26644152895E+01  0.00000000000E+00 0. -1.
</event>
<event>
 5    1  0.5849602E+001  0.1599675E+01  0.7818608E-02  0.3353716E+00
         11   -1    0    0    0    0  0.00000000000E+00  0.00000000000E+00  0.39999999674E+01  0.40000000000E+01  0.51100000000E-03 0. -1.
    9000002   -1    0    0    0    0 -0.00000000000E+00 -0.00000000000E+00  0.00000000000E+00  0.93800000000E+00  0.93800000000E+00 0.  1.
         11    1    1    2    0    0  0.50321005825E-01 -0.47917542542E-01  0.61645637059E+00  0.62036038918E+00  0.51100000000E-03 0. -1.
    9000002    1    1    2    0    0 -0.31884138156E+00  0.29406955571E+00  0.12748186833E+00  0.10412647871E+01  0.93800000000E+00 0.  1.
         22    1    1    2    0    0  0.26852037573E+00 -0.24615201317E+00  0.32560617284E+01  0.32763748237E+01  0.00000000000E+00 0. -1.
</event>
<event>
 5    1  0.6839320E+001  0.1587839E+01  0.7818608E-02  0.3366669E+00
         11   -1    0    0    0    0  0.00000000000E+00  0.00000000000E+00  0.39999999674E+01  0.40000000000E+01  0.51100000000E-03 0.  1.
    9000002   -1    0    0    0    0 -0.00000000000E+00 -0.00000000000E+00  0.00000000000E+00  0.93800000000E+00  0.93800000000E+00 0.  1.
         11    1    1    2    0    0  0.27576953806E-01 -0.70507334482E-01  0.74863725719E+00  0.75245583031E+00  0.51100000000E-03 0.  1.
    9000002    1    1    2    0    0 -0.20001395159E+00 -0.16668706244E+00  0.54212594745E-01  0.97497341658E+00  0.93800000000E+00 0.  1.
         22    1    1    2    0    0  0.17243699778E+00  0.23719439692E+00  0.31971501154E+01  0.32105707531E+01  0.00000000000E+00 0.  1.
</event>
<event>
 5    1  0.5849602E+001  0.1595872E+01  0.7818608E-02  0.3357856E+00
         11   -1    0    0    0    0  0.00000000000E+00  0.00000000000E+00  0.39999999674E+01  0.40000000000E+01  0.51100000000E-03 0. -1.
    9000002   -1    0    0    0    0 -0.00000000000E+00 -0.00000000000E+00  0.00000000000E+00  0.93800000000E+00  0.93800000000E+00 0. -1.
         11    1    1    2    0    0  0.10417925773E-01  0.13398210947E+00  0.95764186321E+00  0.96702530377E+00  0.51100000000E-03 0. -1.
    9000002    1    1    2    0    0  0.13770502205E+00 -0.35698745626E+00  0.10167216625E+00  0.10181276671E+01  0.93800000000E+00 0. -1.
         22    1    1    2    0    0 -0.14812294783E+00  0.22300534679E+00  0.29406859379E+01  0.29528470292E+01  0.00000000000E+00 0. -1.
</event>
<event>
 5    1  0.5849602E+001  0.1599667E+01  0.7818608E-02  0.3353725E+00
         11   -1    0    0    0    0  0.00000000000E+00  0.00000000000E+00  0.39999999674E+01  0.40000000000E+01  0.51100000000E-03 0.  1.
    9000002   -1    0    0    0    0 -0.00000000000E+00 -0.00000000000E+00  0.00000000000E+00  0.93800000000E+00  0.93800000000E+00 0. -1.
         11    1    1    2    0    0 -0.11743761171E+00 -0.19419343827E-01  0.12290114124E+01  0.12347623319E+01  0.51100000000E-03 0.  1.
    9000002    1    1    2    0    0  0.38210747922E+00  0.67768996090E-01  0.10143758658E+00  0.10201629019E+01  0.93800000000E+00 0. -1.
         22    1    1    2    0    0 -0.26466986751E+00 -0.48349652264E-01  0.26695509684E+01  0.26830747661E+01  0.00000000000E+00 0.  1.
</event>
<event>
 5    1  0.5849602E+001  0.1596359E+01  0.7818608E-02  0.3357325E+00
         11   -1    0    0    0    0  0.00000000000E+00  0.00000000000E+00  0.39999999674E+01  0.40000000000E+01  0.51100000000E-03 0.  1.
    9000002   -1    0    0    0    0 -0.00000000000E+00 -0.00000000000E+00  0.00000000000E+00  0.93800000000E+00  0.93800000000E+00 0. -1.
         11    1    1    2    0    0  0.57098704857E-03 -0.92709533179E-02  0.18007100633E+00  0.18031113400E+00  0.51100000000E-03 0.  1.
    9000002    1    1    2    0    0  0.20795733891E+00 -0.38849378814E+00  0.13455042650E+00  0.10450461691E+01  0.93800000000E+00 0. -1.
         22    1    1    2    0    0 -0.20852832596E+00  0.39776474146E+00  0.36853785345E+01  0.37126426969E+01  0.00000000000E+00 0.  1.
</event>
<event>
 5    1  0.5849602E+001  0.1599588E+01  0.7818608E-02  0.3353811E+00
         11   -1    0    0    0    0  0.00000000000E+00  0.00000000000E+00  0.39999999674E+01  0.40000000000E+01  0.51100000000E-03 0. -1.
    9000002   -1    0    0    0    0 -0.00000000000E+00 -0.00000000000E+00  0.00000000000E+00  0.93800000000E+00  0.93800000000E+00 0. -1.
         11    1    1    2    0    0 -0.13903874745E+00 -0.11159716524E+00  0.11745787716E+01  0.11880325132E+01  0.51100000000E-03 0. -1.
    9000002    1    1    2    0    0  0.43066773124E+00  0.33197810995E+00  0.20407305841E+00  0.11032560779E+01  0.93800000000E+00 0. -1.
         22    1    1    2    0    0 -0.29162898379E+00 -0.22038094471E+00  0.26213481374E+01  0.26467114089E+01  0.00000000000E+00 0. -1.
</event>
<event>
 5    1  0.5869415E+001  0.1599668E+01  0.7818608E-02  0.3353723E+00
         11   -1    0    0    0    0  0.00000000000E+00  0.00000000000E+00  0.39999999674E+01  0.40000000000E+01  0.51100000000E-03 0.  1.
    9000002   -1    0    0    0    0 -0.00000000000E+00 -0.00000000000E+00  0.00000000000E+00  0.93800000000E+00  0.93800000000E+00 0. -1.
         11    1    1    2    0    0 -0.11610235797E+00 -0.60634406354E-01  0.13596975570E+01  0.13659919460E+01  0.51100000000E-03 0.  1.
    9000002    1    1    2    0    0  0.34233995723E+00  0.17661028514E+00  0.99911885272E-01  0.10189279778E+01  0.93800000000E+00 0. -1.
         22    1    1    2    0    0 -0.22623759926E+00 -0.11597587878E+00  0.25403905251E+01  0.25530800762E+01  0.00000000000E+00 0.  1.
</event>
<event>
 5    1  0.5849602E+001  0.1599677E+01  0.7818608E-02  0.3353714E+00
         11   -1    0    0    0    0  0.00000000000E+00  0.00000000000E+00  0.39999999674E+01  0.40000000000E+01  0.51100000000E-03 0. -1.
    9000002   -1    0    0    0    0 -0.00000000000E+00 -0.00000000000E+00  0.00000000000E+00  0.93800000000E+00  0.93800000000E+00 0. -1.
         11    1    1    2    0    0 -0.92168245953E-01 -0.10660830298E-01  0.93130601457E+00  0.93591655225E+00  0.51100000000E-03 0. -1.
    9000002    1    1    2    0    0  0.38510630800E+00  0.42942788215E-01  0.10112049224E+00  0.10199119106E+01  0.93800000000E+00 0. -1.
         22    1    1    2    0    0 -0.29293806204E+00 -0.32281957917E-01  0.29675734606E+01  0.29821715371E+01  0.00000000000E+00 0. -1.
</event>
<event>
 5    1  0.5849602E+001  0.1599657E+01  0.7818608E-02  0.3353735E+00
         11   -1    0    0    0    0  0.00000000000E+00  0.00000000000E+00  0.39999999674E+01  0.40000000000E+01  0.51100000000E-03 0. -1.
    9000002   -1    0    0    0    0 -0.00000000000E+00 -0.00000000000E+00  0.00000000000E+00  0.93800000000E+00  0.93800000000E+00 0.  1.
         11    1    1    2    0    0  0.11694696026E+00 -0.48078180187E-01  0.66155843281E+00  0.67353390714E+00  0.51100000000E-03 0. -1.
    9000002    1    1    2    0    0 -0.66475563192E+00  0.25928153873E+00  0.36523007875E+00  0.12338411474E+01  0.93800000000E+00 0.  1.
         22    1    1    2    0    0  0.54780867166E+00 -0.21120335854E+00  0.29732114558E+01  0.30306249455E+01  0.00000000000E+00 0. -1.
</event>
<event>
 5    1  0.5849602E+001  0.1594812E+01  0.7818608E-02  0.3359013E+00
         11   -1    0    0    0    0  0.00000000000E+00  0.00000000000E+00  0.39999999674E+01  0.40000000000E+01  0.51100000000E-03 0.  1.
    9000002   -1    0    0    0    0 -0.00000000000E+00 -0.00000000000E+00  0.00000000000E+00  0.93800000000E+00  0.93800000000E+00 0. -1.
         11    1    1    2    0    0  0.11923818267E+00 -0.15524127666E+00  0.10975764690E+01  0.11148954949E+01  0.51100000000E-03 0.  1.
    9000002    1    1    2    0    0 -0.53570183406E+00  0.30271603798E+00  0.26997410892E+00  0.11538385824E+01  0.93800000000E+00 0. -1.
         22    1    1    2    0    0  0.41646365140E+00 -0.14747476132E+00  0.26324493894E+01  0.26692659227E+01  0.00000000000E+00 0. -1.
</event>
<event>
 5    1  0.5849602E+001  0.1599591E+01  0.7818608E-02  0.3353807E+00
         11   -1    0    0    0    0  0.00000000000E+00  0.00000000000E+00  0.39999999674E+01  0.40000000000E+01  0.51100000000E-03 0.  1.
    9000002   -1    0    0    0    0 -0.00000000000E+00 -0.00000000000E+00  0.00000000000E+00  0.93800000000E+00  0.93800000000E+00 0.  1.
         11    1    1    2    0    0 -0.15261712104E+00  0.72714239341E-01  0.14060725826E+01  0.14161990379E+01  0.51100000000E-03 0.  1.
    9000002    1    1    2    0    0  0.40053589261E+00 -0.22266587392E+00  0.14288540626E+00  0.10536931868E+01  0.93800000000E+00 0.  1.
         22    1    1    2    0    0 -0.24791877157E+00  0.14995163458E+00  0.24510419785E+01  0.24681077752E+01  0.00000000000E+00 0.  1.
</event>
<event>
 5    1  0.5849602E+001  0.1596021E+01  0.7818608E-02  0.3357693E+00
         11   -1    0    0    0    0  0.00000000000E+00  0.00000000000E+00  0.39999999674E+01  0.40000000000E+01  0.51100000000E-03 0.  1.
    9000002   -1    0    0    0    0 -0.00000000000E+00 -0.00000000000E+00  0.00000000000E+00  0.93800000000E+00  0.93800000000E+00 0.  1.
         11    1    1    2    0    0  0.12088014034E+00 -0.10345844760E-01  0.86391228458E+00  0.87238967291E+00  0.51100000000E-03 0.  1.
    9000002    1    1    2    0    0 -0.75508859958E+00  0.10285946176E+00  0.42703352004E+00  0.12817724015E+01  0.93800000000E+00 0.  1.
         22    1    1    2    0    0  0.63420845924E+00 -0.92513616998E-01  0.27090541627E+01  0.27838379256E+01  0.00000000000E+00 0.  1.
</event>
<event>
 5    1  0.5849602E+001  0.1481595E+01  0.7818608E-02  0.3492836E+00
         11   -1    0    0    0    0  0.00000000000E+00  0.00000000000E+00  0.39999999674E+01  0.40000000000E+01  0.51100000000E-03 0. -1.
    9000002   -1    0    0    0    0 -0.00000000000E+00 -0.00000000000E+00  0.00000000000E+00  0.93800000000E+00  0.93800000000E+00 0. -1.
         11    1    1    2    0    0  0.14240649181E+00  0.15726120291E+00  0.28093261590E+00  0.35204273981E+00  0.51100000000E-03 0. -1.
    9000002    1    1    2    0    0  0.16225958998E+00  0.66555979419E-01  0.11390567574E+00  0.96102881117E+00  0.93800000000E+00 0. -1.
         22    1    1    2    0    0 -0.30466608179E+00 -0.22381718233E+00  0.36051616757E+01  0.36249284490E+01  0.00000000000E+00 0. -1.
</event>
<event>
 5    1  0.5849602E+001  0.1599671E+01  0.7818608E-02  0.3353720E+00
         11   -1    0    0    0    0  0.00000000000E+00  0.00000000000E+00  0.39999999674E+01  0.40000000000E+01  0.51100000000E-03 0.  1.
    9000002   -1    0    0    0    0 -0.00000000000E+00 -0.00000000000E+00  0.00000000000E+00  0.93800000000E+00  0.93800000000E+00 0.  1.
         11    1    1    2    0    0 -0.12592917085E-01 -0.11738280183E+00  0.12844219636E+01  0.12898361700E+01  0.51100000000E-03 0.  1.
    9000002    1    1    2    0    0  0.46716764147E-01  0.35673767318E+00  0.86893695814E-01  0.10083842214E+01  0.93800000000E+00 0.  1.
         22    1    1    2    0    0 -0.34123847062E-01 -0.23935487135E+00  0.26286843080E+01  0.26397796087E+01  0.00000000000E+00 0.  1.
</event>
<event>
 5    1  0.5849602E+001  0.1599634E+01  0.7818608E-02  0.3353761E+00
         11   -1    0    0    0    0  0.00000000000E+00  0.00000000000E+00  0.39999999674E+01  0.40000000000E+01  0.51100000000E-03 0. -1.
    9000002   -1    0    0    0    0 -0.00000000000E+00 -0.00000000000E+00  0.00000000000E+00  0.93800000000E+00  0.93800000000E+00 0.  1.
         11    1    1    2    0    0 -0.13868810013E-01 -0.16691614248E+00  0.11388857837E+01  0.11511361483E+01  0.51100000000E-03 0. -1.
    9000002    1    1    2    0    0  0.44490109749E-01  0.53298083748E+00  0.19705605256E+00  0.10975987568E+01  0.93800000000E+00 0.  1.
         22    1    1    2    0    0 -0.30621299736E-01 -0.36606469500E+00  0.26640581311E+01  0.26892650949E+01  0.00000000000E+00 0. -1.
</event>
<event>
 5    1  0.5849602E+001  0.1599650E+01  0.7818608E-02  0.3353744E+00
         11   -1    0    0    0    0  0.00000000000E+00  0.00000000000E+00  0.39999999674E+01  0.40000000000E+01  0.51100000000E-03 0.  1.
    9000002   -1    0    0    0    0 -0.00000000000E+00 -0.00000000000E+00  0.00000000000E+00  0.93800000000E+00  0.93800000000E+00 0.  1.
         11    1    1    2    0    0  0.82372807210E-01  0.33239240418E-01  0.80196989104E+00  0.80687427381E+00  0.51100000000E-03 0.  1.
    9000002    1    1    2    0    0 -0.39194180107E+00 -0.13725103812E+00  0.11658164743E+00  0.10324202165E+01  0.93800000000E+00 0.  1.
         22    1    1    2    0    0  0.30956899386E+00  0.10401179770E+00  0.30814484289E+01  0.30987055097E+01  0.00000000000E+00 0.  1.
</event>
<event>
 5    1  0.5849602E+001  0.1577286E+01  0.7818608E-02  0.3378391E+00
         11   -1    0    0    0    0  0.00000000000E+00  0.00000000000E+00  0.39999999674E+01  0.40000000000E+01  0.51100000000E-03 0.  1.
    9000002   -1    0    0    0    0 -0.00000000000E+00 -0.00000000000E+00  0.00000000000E+00  0.93800000000E+00  0.93800000000E+00 0.  1.
         11    1    1    2    0    0  0.11248798264E+00 -0.99873350376E-01  0.61882100095E+00  0.63684215053E+00  0.51100000000E-03 0.  1.
    9000002    1    1    2    0    0  0.82894961963E-01  0.36692362697E+00  0.11373018148E+00  0.10169970880E+01  0.93800000000E+00 0.  1.
         22    1    1    2    0    0 -0.19538294461E+00 -0.26705027659E+00  0.32674487849E+01  0.32841607615E+01  0.00000000000E+00 0.  1.
</event>
<event>
 5    1  0.5849602E+001  0.1599607E+01  0.7818608E-02  0.3353791E+00
         11   -1    0    0    0    0  0.00000000000E+00  0.00000000000E+00  0.39999999674E+01  0.40000000000E+01  0.51100000000E-03 0. -1.
    9000002   -1    0    0    0    0 -0.00000000000E+00 -0.00000000000E+00  0.00000000000E+00  0.93800000000E+00  0.93800000000E+00 0.  1.
         11    1    1    2    0    0 -0.18732297950E-01  0.64721805879E-01  0.53510784324E+00  0.53933336273E+00  0.51100000000E-03 0. -1.
    9000002    1    1    2    0    0  0.14400116798E+00 -0.41788164230E+00  0.13259203078E+00  0.10453640753E+01  0.93800000000E+00 0.  1.
         22    1    1    2    0    0 -0.12526887003E+00  0.35315983642E+00  0.33323000933E+01  0.33533025619E+01  0.00000000000E+00 0. -1.
</event>
<event>
 5    1  0.5849602E+001  0.1599677E+01  0.7818608E-02  0.3353714E+00
         11   -1    0    0    0    0  0.00000000000E+00  0.00000000000E+00  0.39999999674E+01  0.40000000000E+01  0.51100000000E-03 0.  1.
    9000002   -1    0    0    0    0 -0.00000000000E+00 -0.00000000000E+00  0.00000000000E+00  0.93800000000E+00  0.93800000000E+00 0.  1.
         11    1    1    2    0    0  0.36690988719E-01  0.84297617479E-01  0.89919747023E+00  0.90388531826E+00  0.51100000000E-03 0.  1.
    9000002    1    1    2    0    0 -0.15763441639E+00 -0.36515735374E+00  0.10667044268E+00  0.10244076755E+01  0.93800000000E+00 0.  1.
         22    1    1    2    0    0  0.12094342767E+00  0.28085973626E+00  0.29941320544E+01  0.30097070063E+01  0.00000000000E+00 0.  1.
</event>
<event>
 5    1  0.5849602E+001  0.1599673E+01  0.7818608E-02  0.3353718E+00
         11   -1    0    0    0    0  0.00000000000E+00  0.00000000000E+00  0.39999999674E+01  0.40000000000E+01  0.51100000000E-03 0. -1.
    9000002   -1    0    0    0    0 -0.00000000000E+00 -0.00000000000E+00  0.00000000000E+00  0.93800000000E+00  0.93800000000E+00 0. -1.
         11    1    1    2    0    0 -0.57790973348E-01 -0.82655097948E-01  0.96405085647E+00  0.96931211527E+00  0.51100000000E-03 0. -1.
    9000002    1    1    2    0    0  0.23195874668E+00  0.32594586175E+00  0.10795767560E+00  0.10254484018E+01  0.93800000000E+00 0. -1.
         22    1    1    2    0    0 -0.17416777334E+00 -0.24329076380E+00  0.29279914353E+01  0.29432394830E+01  0.00000000000E+00 0. -1.
</event>
<event>
 5    1  0.5849602E+001  0.1599677E+01  0.7818608E-02  0.3353714E+00
         11   -1    0    0    0    0  0.00000000000E+00  0.00000000000E+00  0.39999999674E+01  0.40000000000E+01  0.51100000000E-03 0. -1.
    9000002   -1    0    0    0    0 -0.00000000000E+00 -0.00000000000E+00  0.00000000000E+00  0.93800000000E+00  0.93800000000E+00 0. -1.
         11    1    1    2    0    0  0.13645599371E+00 -0.38812084162E-01  0.92719685898E+00  0.93798768250E+00  0.51100000000E-03 0.  1.
    9000002    1    1    2    0    0 -0.55635528153E+00  0.15782323642E+00  0.23228579935E+00  0.11261616517E+01  0.93800000000E+00 0. -1.
         22    1    1    2    0    0  0.41989928782E+00 -0.11901115226E+00  0.28405173090E+01  0.28738506658E+01  0.00000000000E+00 0. -1.
</event>
<event>
 5    1  0.5849602E+001  0.1523319E+01  0.7818608E-02  0.3441040E+00
         11   -1    0    0    0    0  0.00000000000E+00  0.00000000000E+00  0.39999999674E+01  0.40000000000E+01  0.51100000000E-03 0. -1.
    9000002   -1    0    0    0    0 -0.00000000000E+00 -0.00000000000E+00  0.00000000000E+00  0.93800000000E+00  0.93800000000E+00 0.  1.
         11    1    1    2    0    0 -0.25176936052E+00 -0.10531990704E+00  0.41130814401E+00  0.49361396269E+00  0.51100000000E-03 0. -1.
    9000002    1    1    2    0    0  0.35592873003E+00  0.41646957334E+00  0.28310316490E+00  0.11225522564E+01  0.93800000000E+00 0.  1.
         22    1    1    2    0    0 -0.10415936951E+00 -0.31114966631E+00  0.33055886584E+01  0.33218337809E+01  0.00000000000E+00 0. -1.
</event>
<event>
 5    1  0.5849602E+001  0.1599677E+01  0.7818608E-02  0.3353715E+00
         11   -1    0    0    0    0  0.00000000000E+00  0.00000000000E+00  0.39999999674E+01  0.40000000000E+01  0.51100000000E-03 0.  1.
    9000002   -1    0    0    0    0 -0.00000000000E+00 -0.00000000000E+00  0.00000000000E+00  0.93800000000E+00  0.93800000000E+00 0. -1.
         11    1    1    2    0    0 -0.40002882287E-01 -0.13683817690E+00  0.10452238937E+01  0.10549019700E+01  0.51100000000E-03 0.  1.
    9000002    1    1    2    0    0  0.14754535136E+00  0.49737318617E+00  0.18484479060E+00  0.10877321884E+01  0.93800000000E+00 0. -1.
         22    1    1    2    0    0 -0.10754246908E+00 -0.36053500927E+00  0.27699312830E+01  0.27953658416E+01  0.00000000000E+00 0.  1.
</event>
<event>
 5    1  0.5849602E+001  0.1565297E+01  0.7818608E-02  0.3391912E+00
         11   -1    0    0    0    0  0.00000000000E+00  0.00000000000E+00  0.39999999674E+01  0.40000000000E+01  0.51100000000E-03 0. -1.
    9000002   -1    0    0    0    0 -0.00000000000E+00 -0.00000000000E+00  0.00000000000E+00  0.93800000000E+00  0.93800000000E+00 0.  1.
         11    1    1    2    0    0 -0.66035574883E-01  0.13426592822E+00  0.10573575465E+01  0.10678919791E+01  0.51100000000E-03 0. -1.
    9000002    1    1    2    0    0 -0.18376131256E+00  0.98033120368E-01  0.55032470094E-01  0.96241949557E+00  0.93800000000E+00 0.  1.
         22    1    1    2    0    0  0.24979688744E+00 -0.23229904859E+00  0.28876099507E+01  0.29076885254E+01  0.00000000000E+00 0. -1.
</event>
<event>
 5    1  0.5849602E+001  0.1599676E+01  0.7818608E-02  0.3353715E+00
         11   -1    0    0    0    0  0.00000000000E+00  0.00000000000E+00  0.39999999674E+01  0.40000000000E+01  0.51100000000E-03 0.  1.
    9000002   -1    0    0    0    0 -0.00000000000E+00 -0.00000000000E+00  0.00000000000E+00  0.93800000000E+00  0.93800000000E+00 0.  1.
         11    1    1    2    0    0 -0.13565013448E+00 -0.77907702479E-01  0.14849477972E+01  0.14931646897E+01  0.51100000000E-03 0.  1.
    9000002    1    1    2    0    0  0.35487042375E+00  0.20166683385E+00  0.11249651169E+00  0.10291268118E+01  0.93800000000E+00 0.  1.
         22    1    1    2    0    0 -0.21922028926E+00 -0.12375913137E+00  0.24025556584E+01  0.24157084985E+01  0.00000000000E+00 0.  1.
</event>
<event>
 5    1  0.5849602E+001  0.1599677E+01  0.7818608E-02  0.3353714E+00
         11   -1    0    0    0    0  0.00000000000E+00  0.00000000000E+00  0.39999999674E+01  0.40000000000E+01  0.51100000000E-03 0.  1.
    9000002   -1    0    0    0    0 -0.00000000000E+00 -0.00000000000E+00  0.00000000000E+00  0.93800000000E+00  0.93800000000E+00 0.  1.
         11    1    1    2    0    0  0.79149327918E-01 -0.12016476163E+00  0.13229395252E+01  0.13307416859E+01  0.51100000000E-03 0. -1.
    9000002    1    1    2    0    0 -0.23209791773E+00  0.35216288618E+00  0.12033552051E+00  0.10354770781E+01  0.93800000000E+00 0.  1.
         22    1    1    2    0    0  0.15294858981E+00 -0.23199812455E+00  0.25567249216E+01  0.25717812360E+01  0.00000000000E+00 0.  1.
</event>
<event>
 5    1  0.5849602E+001  0.1598846E+01  0.7818608E-02  0.3354617E+00
         11   -1    0    0    0    0  0.00000000000E+00  0.00000000000E+00  0.39999999674E+01  0.40000000000E+01  0.51100000000E-03 0.  1.
    9000002   -1    0    0    0    0 -0.00000000000E+00 -0.00000000000E+00  0.00000000000E+00  0.93800000000E+00  0.93800000000E+00 0.  1.
         11    1    1    2    0    0 -0.32607668344E-01 -0.36597888818E-01  0.68132627637E+00  0.68308741863E+00  0.51100000000E-03 0.  1.
    9000002    1    1    2    0    0  0.22585856582E+00  0.35385632339E+00  0.11988090491E+00  0.10346215833E+01  0.93800000000E+00 0.  1.
         22    1    1    2    0    0 -0.19325089748E+00 -0.31725843457E+00  0.31987927861E+01  0.32202909980E+01  0.00000000000E+00 0.  1.
</event>
<event>
 5    1  0.5849602E+001  0.1517164E+01  0.7818608E-02  0.3448489E+00
         11   -1    0    0    0    0  0.00000000000E+00  0.00000000000E+00  0.39999999674E+01  0.40000000000E+01  0.51100000000E-03 0.  1.
    9000002   -1    0    0    0    0 -0.00000000000E+00 -0.00000000000E+00  0.00000000000E+00  0.93800000000E+00  0.93800000000E+00 0.  1.
         11    1    1    2    0    0  0.20498435206E+00 -0.20167220748E+00  0.95449012043E+00  0.99686604666E+00  0.51100000000E-03 0.  1.
    9000002    1    1    2    0    0 -0.69783442829E-01 -0.12043593773E+00  0.76180646634E-01  0.95132646074E+00  0.93800000000E+00 0.  1.
         22    1    1    2    0    0 -0.13520090923E+00  0.32210814521E+00  0.29693292003E+01  0.29898074926E+01  0.00000000000E+00 0.  1.
</event>
<event>
 5    1  0.5849602E+001  0.1599676E+01  0.7818608E-02  0.3353715E+00
         11   -1    0    0    0    0  0.00000000000E+00  0.00000000000E+00  0.39999999674E+01  0.40000000000E+01  0.51100000000E-03 0. -1.
    9000002   -1    0    0    0    0 -0.00000000000E+00 -0.00000000000E+00  0.00000000000E+00  0.93800000000E+00  0.93800000000E+00 0.  1.
         11    1    1    2    0    0 -0.19806612350E-01 -0.11796253801E+00  0.99238209777E+00  0.99956488102E+00  0.51100000000E-03 0. -1.
    9000002    1    1    2    0    0  0.80551113733E-01  0.45683032944E+00  0.14645434881E+00  0.10566339518E+01  0.93800000000E+00 0.  1.
         22    1    1    2    0    0 -0.60744501383E-01 -0.33886779143E+00  0.28611635208E+01  0.28818011672E+01  0.00000000000E+00 0. -1.
</event>
<event>
 5    1  0.5849602E+001  0.1594950E+01  0.7818608E-02  0.3358862E+00
         11   -1    0    0    0    0  0.00000000000E+00  0.00000000000E+00  0.39999999674E+01  0.40000000000E+01  0.51100000000E-03 0. -1.
    9000002   -1    0    0    0    0 -0.00000000000E+00 -0.00000000000E+00  0.00000000000E+00  0.93800000000E+00  0.93800000000E+00 0. -1.
         11    1    1    2    0    0 -0.13380677907E+00 -0.34413577995E-01  0.87022119353E+00  0.88112072684E+00  0.51100000000E-03 0. -1.
    9000002    1    1    2    0    0  0.45459718037E+00 -0.12209787879E+00  0.15512066337E+00  0.10608830796E+01  0.93800000000E+00 0. -1.
         22    1    1    2    0    0 -0.32079040129E+00  0.15651145678E+00  0.29746581105E+01  0.29959961936E+01  0.00000000000E+00 0. -1.
</event>
<event>
 5    1  0.5849602E+001  0.1598892E+01  0.7818608E-02  0.3354566E+00
         11   -1    0    0    0    0  0.00000000000E+00  0.00000000000E+00  0.39999999674E+01  0.40000000000E+01  0.51100000000E-03 0.  1.
    9000002   -1    0    0    0    0 -0.00000000000E+00 -0.00000000000E+00  0.00000000000E+00  0.93800000000E+00  0.93800000000E+00 0.  1.
         11    1    1    2    0    0  0.75014255289E-01  0.15821961279E+00  0.10057710312E+01  0.10208997074E+01  0.51100000000E-03 0.  1.
    9000002    1    1    2    0    0 -0.25565502958E+00 -0.67877647581E+00  0.37954475863E+00  0.12449880409E+01  0.93800000000E+00 0.  1.
         22    1    1    2    0    0  0.18064077429E+00  0.52055686302E+00  0.26146841776E+01  0.26721122517E+01  0.00000000000E+00 0.  1.
</event>
<event>
 5    1  0.5849602E+001  0.1599665E+01  0.7818608E-02  0.3353728E+00
         11   -1    0    0    0    0  0.00000000000E+00  0.00000000000E+00  0.39999999674E+01  0.40000000000E+01  0.51100000000E-03 0.  1.
    9000002   -1    0    0    0    0 -0.00000000000E+00 -0.00000000000E+00  0.00000000000E+00  0.93800000000E+00  0.93800000000E+00 0.  1.
         11    1    1    2    0    0 -0.87453250731E-02 -0.54787688729E-01  0.43773957406E+00  0.44124184679E+00  0.51100000000E-03 0.  1.
    9000002    1    1    2    0    0  0.99612811772E-01  0.47555718093E+00  0.16124334284E+00  0.10686069250E+01  0.93800000000E+00 0.  1.
         22    1    1    2    0    0 -0.90867486699E-01 -0.42076949221E+00  0.34010170505E+01  0.34281512282E+01  0.00000000000E+00 0.  1.
</event>
<event>
 5    1  0.5849602E+001  0.1599673E+01  0.7818608E-02  0.3353719E+00
         11   -1    0    0    0    0  0.00000000000E+00  0.00000000000E+00  0.39999999674E+01  0.40000000000E+01  0.51100000000E-03 0.  1.
    9000002   -1    0    0    0    0 -0.00000000000E+00 -0.00000000000E+00  0.00000000000E+00  0.93800000000E+00  0.93800000000E+00 0.  1.
         11    1    1    2    0    0 -0.11290049392E+00 -0.56039203360E-01  0.13663592732E+01  0.13721606460E+01  0.51100000000E-03 0.  1.
    9000002    1    1    2    0    0  0.32296182081E+00  0.16715829667E+00  0.88812487500E-01  0.10099395486E+01  0.93800000000E+00 0.  1.
         22    1    1    2    0    0 -0.21006132689E+00 -0.11111909331E+00  0.25448282067E+01  0.25558998054E+01  0.00000000000E+00 0.  1.
</event>
<event>
 5    1  0.6214249E+001  0.1547901E+01  0.7818608E-02  0.3411926E+00
         11   -1    0    0    0    0  0.00000000000E+00  0.00000000000E+00  0.39999999674E+01  0.40000000000E+01  0.51100000000E-03 0.  1.
    9000002   -1    0    0    0    0 -0.00000000000E+00 -0.00000000000E+00  0.00000000000E+00  0.93800000000E+00  0.93800000000E+00 0.  1.
         11    1    1    2    0    0 -0.22617638480E+00  0.13686913517E+00  0.12671557626E+01  0.12944392242E+01  0.51100000000E-03 0.  1.
    9000002    1    1    2    0    0  0.97475137843E-01  0.90817058759E-01  0.50779337923E-01  0.94877377800E+00  0.93800000000E+00 0.  1.
         22    1    1    2    0    0  0.12870124696E+00 -0.22768619393E+00  0.26820648668E+01  0.26947869978E+01  0.00000000000E+00 0.  1.
</event>
<event>
 5    1  0.5849602E+001  0.1599673E+01  0.7818608E-02  0.3353719E+00
         11   -1    0    0    0    0  0.00000000000E+00  0.00000000000E+00  0.39999999674E+01  0.40000000000E+01  0.51100000000E-03 0.  1.
    9000002   -1    0    0    0    0 -0.00000000000E+00 -0.00000000000E+00  0.00000000000E+00  0.93800000000E+00  0.93800000000E+00 0.  1.
         11    1    1    2    0    0 -0.62557588741E-02 -0.11810762497E+00  0.63717738341E+00  0.64806159017E+00  0.51100000000E-03 0.  1.
    9000002    1    1    2    0    0  0.31763957771E-01  0.67176528659E+00  0.32092816524E+00  0.11979634537E+01  0.93800000000E+00 0.  1.
         22    1    1    2    0    0 -0.25508198897E-01 -0.55365766162E+00  0.30418944187E+01  0.30919749561E+01  0.00000000000E+00 0.  1.
</event>
<event>
 5    1  0.5849602E+001  0.1599623E+01  0.7818608E-02  0.3353773E+00
         11   -1    0    0    0    0  0.00000000000E+00  0.00000000000E+00  0.39999999674E+01  0.40000000000E+01  0.51100000000E-03 0. -1.
    9000002   -1    0    0    0    0 -0.00000000000E+00 -0.00000000000E+00  0.00000000000E+00  0.93800000000E+00  0.93800000000E+00 0. -1.
         11    1    1    2    0    0 -0.30742182005E-01  0.43125457856E-01  0.52622720775E+00  0.52888583094E+00  0.51100000000E-03 0. -1.
    9000002    1    1    2    0    0  0.25019879748E+00 -0.35516721581E+00  0.12794991562E+00  0.10416133497E+01  0.93800000000E+00 0. -1.
         22    1    1    2    0    0 -0.21945661548E+00  0.31204175796E+00  0.33458228440E+01  0.33675008193E+01  0.00000000000E+00 0. -1.
</event>
<event>
 5    1  0.5849602E+001  0.1599642E+01  0.7818608E-02  0.3353752E+00
         11   -1    0    0    0    0  0.00000000000E+00  0.00000000000E+00  0.39999999674E+01  0.40000000000E+01  0.51100000000E-03 0. -1.
    9000002   -1    0    0    0    0 -0.00000000000E+00 -0.00000000000E+00  0.00000000000E+00  0.93800000000E+00  0.93800000000E+00 0. -1.
         11    1    1    2    0    0 -0.84263179837E-01 -0.14634122410E+00  0.11800040649E+01  0.11920259609E+01  0.51100000000E-03 0. -1.
    9000002    1    1    2    0    0  0.25056820179E+00  0.46955531159E+00  0.19503980204E+00  0.10959704096E+01  0.93800000000E+00 0. -1.
         22    1    1    2    0    0 -0.16630502195E+00 -0.32321408750E+00  0.26249561005E+01  0.26500036294E+01  0.00000000000E+00 0. -1.
</event>
<event>
 5    1  0.5849602E+001  0.1543582E+01  0.7818608E-02  0.3416970E+00
         11   -1    0    0    0    0  0.00000000000E+00  0.00000000000E+00  0.39999999674E+01  0.40000000000E+01  0.51100000000E-03 0.  1.
    9000002   -1    0    0    0    0 -0.00000000000E+00 -0.00000000000E+00  0.00000000000E+00  0.93800000000E+00  0.93800000000E+00 0. -1.
         11    1    1    2    0    0  0.24777284884E+00  0.67821120344E-01  0.12882148938E+01  0.13135786854E+01  0.51100000000E-03 0.  1.
    9000002    1    1    2    0    0  0.58323100905E-01 -0.14676809177E+00  0.59174506634E-01  0.95304148865E+00  0.93800000000E+00 0. -1.
         22    1    1    2    0    0 -0.30609594975E+00  0.78946971421E-01  0.26526105669E+01  0.26713798260E+01  0.00000000000E+00 0.  1.
</event>
<event>
 5    1  0.5849602E+001  0.1599677E+01  0.7818608E-02  0.3353714E+00
         11   -1    0    0    0    0  0.00000000000E+00  0.00000000000E+00  0.39999999674E+01  0.40000000000E+01  0.51100000000E-03 0. -1.
    9000002   -1    0    0    0    0 -0.00000000000E+00 -0.00000000000E+00  0.00000000000E+00  0.93800000000E+00  0.93800000000E+00 0.  1.
         11    1    1    2    0    0 -0.97806826163E-01  0.87171550891E-01  0.12590339674E+01  0.12658324718E+01  0.51100000000E-03 0. -1.
    9000002    1    1    2    0    0  0.30313940819E+00 -0.26923394621E+00  0.11095600627E+00  0.10278792020E+01  0.93800000000E+00 0.  1.
         22    1    1    2    0    0 -0.20533258203E+00  0.18206239532E+00  0.26300099937E+01  0.26442883262E+01  0.00000000000E+00 0. -1.
</event>
<event>
 5    1  0.5849602E+001  0.1599127E+01  0.7818608E-02  0.3354312E+00
         11   -1    0    0    0    0  0.00000000000E+00  0.00000000000E+00  0.39999999674E+01  0.40000000000E+01  0.51100000000E-03 0.  1.
    9000002   -1    0    0    0    0 -0.00000000000E+00 -0.00000000000E+00  0.00000000000E+00  0.93800000000E+00  0.93800000000E+00 0.  1.
         11    1    1    2    0    0 -0.18489604103E-01 -0.26658363194E-01  0.42117629562E+00  0.42242427357E+00  0.51100000000E-03 0.  1.
    9000002    1    1    2    0    0  0.27541877058E+00  0.36646813299E+00  0.14339151168E+00  0.10538308770E+01  0.93800000000E+00 0.  1.
         22    1    1    2    0    0 -0.25692916647E+00 -0.33980976979E+00  0.34354321601E+01  0.34617448494E+01  0.00000000000E+00 0.  1.
</event>
<event>
 5    1  0.5849602E+001  0.1599676E+01  0.7818608E-02  0.3353715E+00
         11   -1    0    0    0    0  0.00000000000E+00  0.00000000000E+00  0.39999999674E+01  0.40000000000E+01  0.51100000000E-03 0.  1.
    9000002   -1    0    0    0    0 -0.00000000000E+00 -0.00000000000E+00  0.00000000000E+00  0.93800000000E+00  0.93800000000E+00 0. -1.
         11    1    1    2    0    0  0.12194848034E+00 -0.38551799143E-01  0.10139762385E+01  0.10220106391E+01  0.51100000000E-03 0.  1.
    9000002    1    1    2    0    0 -0.46367336836E+00  0.14218561024E+00  0.16061750789E+00  0.10681066071E+01  0.93800000000E+00 0. -1.
         22    1    1    2    0    0  0.34172488802E+00 -0.10363381110E+00  0.28254062209E+01  0.28478827538E+01  0.00000000000E+00 0.  1.
</event>
<event>
 5    1  0.5849602E+001  0.1599653E+01  0.7818608E-02  0.3353741E+00
         11   -1    0    0    0    0  0.00000000000E+00  0.00000000000E+00  0.39999999674E+01  0.40000000000E+01  0.51100000000E-03 0.  1.
    9000002   -1    0    0    0    0 -0.00000000000E+00 -0.00000000000E+00  0.00000000000E+00  0.93800000000E+00  0.93800000000E+00 0. -1.
         11    1    1    2    0    0  0.33279146543E-01 -0.83695976416E-02  0.31673588590E+00  0.31858975862E+00  0.51100000000E-03 0.  1.
    9000002    1    1    2    0    0 -0.37263013053E+00  0.88893498366E-01  0.98800011723E-01  0.10180180306E+01  0.93800000000E+00 0. -1.
         22    1    1    2    0    0  0.33935098399E+00 -0.80523900724E-01  0.35844640697E+01  0.36013922108E+01  0.00000000000E+00 0.  1.
</event>
<event>
 5    1  0.5849602E+001  0.1599675E+01  0.7818608E-02  0.3353717E+00
         11   -1    0    0    0    0  0.00000000000E+00  0.00000000000E+00  0.39999999674E+01  0.40000000000E+01  0.51100000000E-03 0. -1.
    9000002   -1    0    0    0    0 -0.00000000000E+00 -0.00000000000E+00  0.00000000000E+00  0.93800000000E+00  0.93800000000E+00 0.  1.
         11    1    1    2    0    0 -0.40784380054E-02  0.88814144992E-02  0.10361250264E+00  0.10407365182E+00  0.51100000000E-03 0.  1.
    9000002    1    1    2    0    0  0.16291914672E+00 -0.34431609094E+00  0.97639394122E-01  0.10170907876E+01  0.93800000000E+00 0.  1.
         22    1    1    2    0    0 -0.15884070872E+00  0.33543467645E+00  0.37987480706E+01  0.38168355606E+01  0.00000000000E+00 0. -1.
</event>
<event>
 5    1  0.5849602E+001  0.1589008E+01  0.7818608E-02  0.3365380E+00
         11   -1    0    0    0    0  0.00000000000E+00  0.00000000000E+00  0.39999999674E+01  0.40000000000E+01  0.51100000000E-03 0.  1.
    9000002   -1    0    0    0    0 -0.00000000000E+00 -0.00000000000E+00  0.00000000000E+00  0.93800000000E+00  0.93800000000E+00 0. -1.
         11    1    1    2    0    0  0.60864337524E-01 -0.48262988930E-01  0.70762719400E+00  0.71187800253E+00  0.51100000000E-03 0.  1.
    9000002    1    1    2    0    0 -0.29452396411E+00 -0.26026450004E+00  0.11299620397E+00  0.10232761687E+01  0.93800000000E+00 0. -1.
         22    1    1    2    0    0  0.23365962659E+00  0.30852748897E+00  0.31793765694E+01  0.32028458287E+01  0.00000000000E+00 0.  1.
</event>
<event>
 5    1  0.5849602E+001  0.1599677E+01  0.7818608E-02  0.3353714E+00
         11   -1    0    0    0    0  0.00000000000E+00  0.00000000000E+00  0.39999999674E+01  0.40000000000E+01  0.51100000000E-03 0.  1.
    9000002   -1    0    0    0    0 -0.00000000000E+00 -0.00000000000E+00  0.00000000000E+00  0.93800000000E+00  0.93800000000E+00 0.  1.
         11    1    1    2    0    0  0.52958059440E-01 -0.11042601773E+00  0.11290384525E+01  0.11356612830E+01  0.51100000000E-03 0.  1.
    9000002    1    1    2    0    0 -0.18074880670E+00  0.38015280617E+00  0.11984725936E+00  0.10350814715E+01  0.93800000000E+00 0.  1.
         22    1    1    2    0    0  0.12779074726E+00 -0.26972678844E+00  0.27511142555E+01  0.27672572454E+01  0.00000000000E+00 0.  1.
</event>
<event>
 5    1  0.5849602E+001  0.1513993E+01  0.7818608E-02  0.3452350E+00
         11   -1    0    0    0    0  0.00000000000E+00  0.00000000000E+00  0.39999999674E+01  0.40000000000E+01  0.51100000000E-03 0.  1.
    9000002   -1    0    0    0    0 -0.00000000000E+00 -0.00000000000E+00  0.00000000000E+00  0.93800000000E+00  0.93800000000E+00 0.  1.
         11    1    1    2    0    0 -0.12241482896E+00 -0.24887955360E+00  0.93408916295E+00  0.97439686371E+00  0.51100000000E-03 0.  1.
    9000002    1    1    2    0    0 -0.77185511245E-01 -0.72008361003E-01  0.72793284995E-01  0.94672365004E+00  0.93800000000E+00 0.  1.
         22    1    1    2    0    0  0.19960034020E+00  0.32088791460E+00  0.29931175194E+01  0.30168794863E+01  0.00000000000E+00 0.  1.
</event>
<event>
 5    1  0.5849602E+001  0.1599375E+01  0.7818608E-02  0.3354043E+00
         11   -1    0    0    0    0  0.00000000000E+00  0.00000000000E+00  0.39999999674E+01  0.40000000000E+01  0.51100000000E-03 0.  1.
    9000002   -1    0    0    0    0 -0.00000000000E+00 -0.00000000000E+00  0.00000000000E+00  0.93800000000E+00  0.93800000000E+00 0. -1.
         11    1    1    2    0    0  0.29386042914E-01  0.44977738810E-01  0.79019079846E+00  0.79201533798E+00  0.51100000000E-03 0.  1.
    9000002    1    1    2    0    0 -0.14130978293E+00 -0.30671176529E+00  0.76605522080E-01  0.99987647624E+00  0.93800000000E+00 0. -1.
         22    1    1    2    0    0  0.11192374001E+00  0.26173402648E+00  0.31332036468E+01  0.31461081858E+01  0.00000000000E+00 0.  1.
</event>
<event>
 5    1  0.5849602E+001  0.1599281E+01  0.7818608E-02  0.3354144E+00
         11   -1    0    0    0    0  0.00000000000E+00  0.00000000000E+00  0.39999999674E+01  0.40000000000E+01  0.51100000000E-03 0. -1.
    9000002   -1    0    0    0    0 -0.00000000000E+00 -0.00000000000E+00  0.00000000000E+00  0.93800000000E+00  0.93800000000E+00 0. -1.
         11    1    1    2    0    0  0.21877022888E+00 -0.59809383635E-01  0.11221805695E+01  0.11448698909E+01  0.51100000000E-03 0. -1.
    9000002    1    1    2    0    0 -0.64995027179E+00  0.22999595785E+00  0.33919508822E+00  0.12125307437E+01  0.93800000000E+00 0. -1.
         22    1    1    2    0    0  0.43118004291E+00 -0.17018657421E+00  0.25386243096E+01  0.25805993654E+01  0.00000000000E+00 0. -1.
</event>
<event>
 5    1  0.5849602E+001  0.1599592E+01  0.7818608E-02  0.3353806E+00
         11   -1    0    0    0    0  0.00000000000E+00  0.00000000000E+00  0.39999999674E+01  0.40000000000E+01  0.51100000000E-03 0. -1.
    9000002   -1    0    0    0    0 -0.00000000000E+00 -0.00000000000E+00  0.00000000000E+00  0.93800000000E+00  0.93800000000E+00 0.  1.
         11    1    1    2    0    0  0.11980848338E+00 -0.16237144720E+00  0.11598254465E+01  0.11772484389E+01  0.51100000000E-03 0. -1.
    9000002    1    1    2    0    0 -0.39747851168E+00  0.49051822474E+00  0.28012741331E+00  0.11648659424E+01  0.93800000000E+00 0.  1.
         22    1    1    2    0    0  0.27767002830E+00 -0.32814677755E+00  0.25600471076E+01  0.25958856187E+01  0.00000000000E+00 0. -1.
</event>
<event>
 5    1  0.5849602E+001  0.1599677E+01  0.7818608E-02  0.3353714E+00
         11   -1    0    0    0    0  0.00000000000E+00  0.00000000000E+00  0.39999999674E+01  0.40000000000E+01  0.51100000000E-03 0.  1.
    9000002   -1    0    0    0    0 -0.00000000000E+00 -0.00000000000E+00  0.00000000000E+00  0.93800000000E+00  0.93800000000E+00 0. -1.
         11    1    1    2    0    0 -0.66484019426E-01  0.11396318911E+00  0.94424267686E+00  0.95341608295E+00  0.51100000000E-03 0.  1.
    9000002    1    1    2    0    0  0.26684267887E+00 -0.45722062475E+00  0.19283590477E+00  0.10942053743E+01  0.93800000000E+00 0. -1.
         22    1    1    2    0    0 -0.20035865944E+00  0.34325743565E+00  0.28629213857E+01  0.28903785428E+01  0.00000000000E+00 0.  1.
</event>
<event>
 5    1  0.5849602E+001  0.1599677E+01  0.7818608E-02  0.3353714E+00
         11   -1    0    0    0    0  0.00000000000E+00  0.00000000000E+00  0.39999999674E+01  0.40000000000E+01  0.51100000000E-03 0. -1.
    9000002   -1    0    0    0    0 -0.00000000000E+00 -0.00000000000E+00  0.00000000000E+00  0.93800000000E+00  0.93800000000E+00 0.  1.
         11    1    1    2    0    0  0.76399127469E-02 -0.20040327212E+00  0.14526940832E+01  0.14664720250E+01  0.51100000000E-03 0. -1.
    9000002    1    1    2    0    0 -0.18826394892E-01  0.52601122862E+00  0.19052021271E+00  0.10923297109E+01  0.93800000000E+00 0.  1.
         22    1    1    2    0    0  0.11186482145E-01 -0.32560795650E+00  0.23567856714E+01  0.23791982641E+01  0.00000000000E+00 0. -1.
</event>
<event>
 5    1  0.5849602E+001  0.1599677E+01  0.7818608E-02  0.3353714E+00
         11   -1    0    0    0    0  0.00000000000E+00  0.00000000000E+00  0.39999999674E+01  0.40000000000E+01  0.51100000000E-03 0. -1.
    9000002   -1    0    0    0    0 -0.00000000000E+00 -0.00000000000E+00  0.00000000000E+00  0.93800000000E+00  0.93800000000E+00 0.  1.
         11    1    1    2    0    0 -0.74035807158E-01 -0.32213649247E+00  0.12967962818E+01  0.13382578519E+01  0.51100000000E-03 0.  1.
    9000002    1    1    2    0    0  0.19620921709E+00  0.85028011903E+00  0.57620800625E+00  0.14047540725E+01  0.93800000000E+00 0.  1.
         22    1    1    2    0    0 -0.12217340993E+00 -0.52814362655E+00  0.21269956793E+01  0.21949880757E+01  0.00000000000E+00 0. -1.
</event>
<event>
 5    1  0.5849602E+001  0.1589049E+01  0.7818608E-02  0.3365335E+00
         11   -1    0    0    0    0  0.00000000000E+00  0.00000000000E+00  0.39999999674E+01  0.40000000000E+01  0.51100000000E-03 0.  1.
    9000002   -1    0    0    0    0 -0.00000000000E+00 -0.00000000000E+00  0.00000000000E+00  0.93800000000E+00  0.93800000000E+00 0.  1.
         11    1    1    2    0    0 -0.83499334472E-01  0.50934143606E-01  0.93280072165E+00  0.93791464072E+00  0.51100000000E-03 0.  1.
    9000002    1    1    2    0    0  0.19074551731E+00  0.19982561052E+00  0.59067921135E-01  0.97961581567E+00  0.93800000000E+00 0.  1.
         22    1    1    2    0    0 -0.10724618284E+00 -0.25075975413E+00  0.30081313246E+01  0.30204695436E+01  0.00000000000E+00 0.  1.
</event>
<event>
 5    1  0.5849602E+001  0.1599661E+01  0.7818608E-02  0.3353732E+00
         11   -1    0    0    0    0  0.00000000000E+00  0.00000000000E+00  0.39999999674E+01  0.40000000000E+01  0.51100000000E-03 0.  1.
    9000002   -1    0    0    0    0 -0.00000000000E+00 -0.00000000000E+00  0.00000000000E+00  0.93800000000E+00  0.93800000000E+00 0. -1.
         11    1    1    2    0    0 -0.10785704686E-01 -0.17977447658E-01  0.18436591191E+00  0.18555476455E+00  0.51100000000E-03 0.  1.
    9000002    1    1    2    0    0  0.26706016631E+00  0.36807883566E+00  0.14057062251E+00  0.10518589552E+01  0.93800000000E+00 0. -1.
         22    1    1    2    0    0 -0.25627446162E+00 -0.35010138801E+00  0.36750634329E+01  0.37005862803E+01  0.00000000000E+00 0.  1.
</event>
<event>
 5    1  0.5849602E+001  0.1599677E+01  0.7818608E-02  0.3353714E+00
         11   -1    0    0    0    0  0.00000000000E+00  0.00000000000E+00  0.39999999674E+01  0.40000000000E+01  0.51100000000E-03 0. -1.
    9000002   -1    0    0    0    0 -0.00000000000E+00 -0.00000000000E+00  0.00000000000E+00  0.93800000000E+00  0.93800000000E+00 0.  1.
         11    1    1    2    0    0  0.13225479527E+00  0.51387929676E-01  0.12377703585E+01  0.12458763067E+01  0.51100000000E-03 0.  1.
    9000002    1    1    2    0    0 -0.41428636222E+00 -0.15951771307E+00  0.13373450319E+00  0.10463307355E+01  0.93800000000E+00 0.  1.
         22    1    1    2    0    0  0.28203156695E+00  0.10812978339E+00  0.26284951057E+01  0.26457929578E+01  0.00000000000E+00 0. -1.
</event>
<event>
 5    1  0.5849602E+001  0.1582345E+01  0.7818608E-02  0.3372751E+00
         11   -1    0    0    0    0  0.00000000000E+00  0.00000000000E+00  0.39999999674E+01  0.40000000000E+01  0.51100000000E-03 0. -1.
    9000002   -1    0    0    0    0 -0.00000000000E+00 -0.00000000000E+00  0.00000000000E+00  0.93800000000E+00  0.93800000000E+00 0. -1.
         11    1    1    2    0    0  0.19783839013E-01 -0.64967153424E-01  0.94227784706E+00  0.94472214618E+00  0.51100000000E-03 0. -1.
    9000002    1    1    2    0    0 -0.48420064248E-01 -0.29225206480E+00  0.72187000391E-01  0.98631168249E+00  0.93800000000E+00 0. -1.
         22    1    1    2    0    0  0.28636225235E-01  0.35721921822E+00  0.29855351199E+01  0.30069661713E+01  0.00000000000E+00 0. -1.
</event>
<event>
 5    1  0.5849602E+001  0.1599554E+01  0.7818608E-02  0.3353848E+00
         11   -1    0    0    0    0  0.00000000000E+00  0.00000000000E+00  0.39999999674E+01  0.40000000000E+01  0.51100000000E-03 0.  1.
    9000002   -1    0    0    0    0 -0.00000000000E+00 -0.00000000000E+00  0.00000000000E+00  0.93800000000E+00  0.93800000000E+00 0. -1.
         11    1    1    2    0    0  0.12059570290E-01  0.67845515549E-03  0.85253949101E-01  0.86106855100E-01  0.51100000000E-03 0.  1.
    9000002    1    1    2    0    0 -0.58283089323E+00  0.13623276485E+00  0.24999594980E+00  0.11404355270E+01  0.93800000000E+00 0. -1.
         22    1    1    2    0    0  0.57077132294E+00 -0.13691122000E+00  0.36647500685E+01  0.37114576179E+01  0.00000000000E+00 0.  1.
</event>
<event>
 5    1  0.5849602E+001  0.1468992E+01  0.7818608E-02  0.3509105E+00
         11   -1    0    0    0    0  0.00000000000E+00  0.00000000000E+00  0.39999999674E+01  0.40000000000E+01  0.51100000000E-03 0. -1.
    9000002   -1    0    0    0    0 -0.00000000000E+00 -0.00000000000E+00  0.00000000000E+00  0.93800000000E+00  0.93800000000E+00 0. -1.
         11    1    1    2    0    0  0.40494113107E+00  0.16348534767E-01  0.87535773403E+00  0.96462221510E+00  0.51100000000E-03 0. -1.
    9000002    1    1    2    0    0 -0.17430280178E+00  0.20328858124E+00  0.15620350598E+00  0.98790244926E+00  0.93800000000E+00 0. -1.
         22    1    1    2    0    0 -0.23063832929E+00 -0.21963711601E+00  0.29684387274E+01  0.29854753356E+01  0.00000000000E+00 0. -1.
</event>
<event>
 5    1  0.5849602E+001  0.1597744E+01  0.7818608E-02  0.3355816E+00
         11   -1    0    0    0    0  0.00000000000E+00  0.00000000000E+00  0.39999999674E+01  0.40000000000E+01  0.51100000000E-03 0. -1.
    9000002   -1    0    0    0    0 -0.00000000000E+00 -0.00000000000E+00  0.00000000000E+00  0.93800000000E+00  0.93800000000E+00 0. -1.
         11    1    1    2    0    0  0.45406671325E-01  0.33145199629E-01  0.21638208206E+00  0.22356617950E+00  0.51100000000E-03 0. -1.
    9000002    1    1    2    0    0 -0.34462141626E+00 -0.62540205356E+00  0.36802088322E+00  0.12349797649E+01  0.93800000000E+00 0. -1.
         22    1    1    2    0    0  0.29921474493E+00  0.59225685393E+00  0.34155970021E+01  0.34794540556E+01  0.00000000000E+00 0. -1.
</event>
<event>
 5    1  0.5849602E+001  0.1596898E+01  0.7818608E-02  0.3356737E+00
         11   -1    0    0    0    0  0.00000000000E+00  0.00000000000E+00  0.39999999674E+01  0.40000000000E+01  0.51100000000E-03 0. -1.
    9000002   -1    0    0    0    0 -0.00000000000E+00 -0.00000000000E+00  0.00000000000E+00  0.93800000000E+00  0.93800000000E+00 0. -1.
         11    1    1    2    0    0 -0.14616046440E-01  0.14668670558E+00  0.12286586865E+01  0.12374704228E+01  0.51100000000E-03 0. -1.
    9000002    1    1    2    0    0 -0.13932507220E+00 -0.45740651771E+00  0.15841382132E+00  0.10646929778E+01  0.93800000000E+00 0. -1.
         22    1    1    2    0    0  0.15394111864E+00  0.31071981212E+00  0.26129274596E+01  0.26358365994E+01  0.00000000000E+00 0. -1.
</event>
<event>
 5    1  0.5849602E+001  0.1560659E+01  0.7818608E-02  0.3397202E+00
         11   -1    0    0    0    0  0.00000000000E+00  0.00000000000E+00  0.39999999674E+01  0.40000000000E+01  0.51100000000E-03 0. -1.
    9000002   -1    0    0    0    0 -0.00000000000E+00 -0.00000000000E+00  0.00000000000E+00  0.93800000000E+00  0.93800000000E+00 0. -1.
         11    1    1    2    0    0 -0.17988229202E+00  0.20707951889E+00  0.10783382463E+01  0.11126783905E+01  0.51100000000E-03 0. -1.
    9000002    1    1    2    0    0 -0.33807301518E-01 -0.38339775044E+00  0.13259271867E+00  0.10225270645E+01  0.93800000000E+00 0. -1.
         22    1    1    2    0    0  0.21368959353E+00  0.17631823154E+00  0.27890690024E+01  0.28027945450E+01  0.00000000000E+00 0. -1.
</event>
<event>
 5    1  0.5849602E+001  0.1582879E+01  0.7818608E-02  0.3372158E+00
         11   -1    0    0    0    0  0.00000000000E+00  0.00000000000E+00  0.39999999674E+01  0.40000000000E+01  0.51100000000E-03 0.  1.
    9000002   -1    0    0    0    0 -0.00000000000E+00 -0.00000000000E+00  0.00000000000E+00  0.93800000000E+00  0.93800000000E+00 0.  1.
         11    1    1    2    0    0 -0.10245021718E+00  0.96868352413E-01  0.10856723304E+01  0.10947895665E+01  0.51100000000E-03 0.  1.
    9000002    1    1    2    0    0  0.59332214228E+00  0.91058316860E-01  0.26831206440E+00  0.11454947165E+01  0.93800000000E+00 0.  1.
         22    1    1    2    0    0 -0.49087192510E+00 -0.18792666927E+00  0.26460155726E+01  0.26977157171E+01  0.00000000000E+00 0.  1.
</event>
<event>
 5    1  0.5849602E+001  0.1599532E+01  0.7818608E-02  0.3353871E+00
         11   -1    0    0    0    0  0.00000000000E+00  0.00000000000E+00  0.39999999674E+01  0.40000000000E+01  0.51100000000E-03 0.  1.
    9000002   -1    0    0    0    0 -0.00000000000E+00 -0.00000000000E+00  0.00000000000E+00  0.93800000000E+00  0.93800000000E+00 0.  1.
         11    1    1    2    0    0 -0.16270229019E+00 -0.40109359078E-01  0.14302232852E+01  0.14400068411E+01  0.51100000000E-03 0.  1.
    9000002    1    1    2    0    0  0.44414002098E+00  0.70890849055E-01  0.13750935615E+00  0.10493039091E+01  0.93800000000E+00 0.  1.
         22    1    1    2    0    0 -0.28143773080E+00 -0.30781489977E-01  0.24322673260E+01  0.24486892497E+01  0.00000000000E+00 0.  1.
</event>
<event>
 5    1  0.5849602E+001  0.1587974E+01  0.7818608E-02  0.3366520E+00
         11   -1    0    0    0    0  0.00000000000E+00  0.00000000000E+00  0.39999999674E+01  0.40000000000E+01  0.51100000000E-03 0. -1.
    9000002   -1    0    0    0    0 -0.00000000000E+00 -0.00000000000E+00  0.00000000000E+00  0.93800000000E+00  0.93800000000E+00 0. -1.
         11    1    1    2    0    0 -0.66619904257E-01 -0.12993689786E+00  0.95632502279E+00  0.96740871373E+00  0.51100000000E-03 0. -1.
    9000002    1    1    2    0    0 -0.13239608702E+00  0.31705899301E+00  0.88548544083E-01  0.10028658801E+01  0.93800000000E+00 0. -1.
         22    1    1    2    0    0  0.19901599127E+00 -0.18712209515E+00  0.29551264005E+01  0.29677254061E+01  0.00000000000E+00 0. -1.
</event>
<event>
 5    1  0.5849602E+001  0.1564154E+01  0.7818608E-02  0.3393213E+00
         11   -1    0    0    0    0  0.00000000000E+00  0.00000000000E+00  0.39999999674E+01  0.40000000000E+01  0.51100000000E-03 0.  1.
    9000002   -1    0    0    0    0 -0.00000000000E+00 -0.00000000000E+00  0.00000000000E+00  0.93800000000E+00  0.93800000000E+00 0.  1.
         11    1    1    2    0    0  0.20383142213E+00  0.91113685024E-01  0.75655593421E+00  0.78881309253E+00  0.51100000000E-03 0.  1.
    9000002    1    1    2    0    0 -0.11225256413E+00 -0.42838062064E+00  0.16422859839E+00  0.10502026599E+01  0.93800000000E+00 0.  1.
         22    1    1    2    0    0 -0.91578858003E-01  0.33726693561E+00  0.30792154348E+01  0.30989842476E+01  0.00000000000E+00 0.  1.
</event>
<event>
 5    1  0.5849602E+001  0.1599670E+01  0.7818608E-02  0.3353722E+00
         11   -1    0    0    0    0  0.00000000000E+00  0.00000000000E+00  0.39999999674E+01  0.40000000000E+01  0.51100000000E-03 0.  1.
    9000002   -1    0    0    0    0 -0.00000000000E+00 -0.00000000000E+00  0.00000000000E+00  0.93800000000E+00  0.93800000000E+00 0. -1.
         11    1    1    2    0    0 -0.32337631814E-02 -0.81237849652E-01  0.81297736408E+00  0.81703274173E+00  0.51100000000E-03 0.  1.
    9000002    1    1    2    0    0  0.12038172200E-01  0.37813512630E+00  0.96290699822E-01  0.10159955660E+01  0.93800000000E+00 0. -1.
         22    1    1    2    0    0 -0.88044090186E-02 -0.29689727664E+00  0.30907319035E+01  0.31049716922E+01  0.00000000000E+00 0.  1.
</event>
<event>
 5    1  0.5849602E+001  0.1599611E+01  0.7818608E-02  0.3353786E+00
         11   -1    0    0    0    0  0.00000000000E+00  0.00000000000E+00  0.39999999674E+01  0.40000000000E+01  0.51100000000E-03 0.  1.
    9000002   -1    0    0    0    0 -0.00000000000E+00 -0.00000000000E+00  0.00000000000E+00  0.93800000000E+00  0.93800000000E+00 0.  1.
         11    1    1    2    0    0 -0.54952945394E-01  0.11299929093E-01  0.57775442264E+00  0.58047217729E+00  0.51100000000E-03 0.  1.
    9000002    1    1    2    0    0  0.36118257276E+00 -0.30771647746E-01  0.88282535210E-01  0.10094738982E+01  0.93800000000E+00 0.  1.
         22    1    1    2    0    0 -0.30622962737E+00  0.19471718653E-01  0.33339630095E+01  0.33480539245E+01  0.00000000000E+00 0.  1.
</event>
<event>
 5    1  0.5849602E+001  0.1599058E+01  0.7818608E-02  0.3354387E+00
         11   -1    0    0    0    0  0.00000000000E+00  0.00000000000E+00  0.39999999674E+01  0.40000000000E+01  0.51100000000E-03 0. -1.
    9000002   -1    0    0    0    0 -0.00000000000E+00 -0.00000000000E+00  0.00000000000E+00  0.93800000000E+00  0.93800000000E+00 0.  1.
         11    1    1    2    0    0 -0.20657905852E+00 -0.15313049683E+00  0.83250839471E+00  0.87131759127E+00  0.51100000000E-03 0. -1.
    9000002    1    1    2    0    0  0.86190598631E+00  0.60140892071E+00  0.91858048220E+00  0.16817278976E+01  0.93800000000E+00 0.  1.
         22    1    1    2    0    0 -0.65532692779E+00 -0.44827842389E+00  0.22489110905E+01  0.23849545112E+01  0.00000000000E+00 0. -1.
</event>
<event>
 5    1  0.5849602E+001  0.1585700E+01  0.7818608E-02  0.3369032E+00
         11   -1    0    0    0    0  0.00000000000E+00  0.00000000000E+00  0.39999999674E+01  0.40000000000E+01  0.51100000000E-03 0. -1.
    9000002   -1    0    0    0    0 -0.00000000000E+00 -0.00000000000E+00  0.00000000000E+00  0.93800000000E+00  0.93800000000E+00 0.  1.
         11    1    1    2    0    0  0.11821236312E-01 -0.43366718562E-01  0.13904893678E+00  0.14613446496E+00  0.51100000000E-03 0. -1.
    9000002    1    1    2    0    0 -0.16847636617E+00 -0.26184136947E+00  0.75831860565E-01  0.99123138560E+00  0.93800000000E+00 0.  1.
         22    1    1    2    0    0  0.15665512986E+00  0.30520808803E+00  0.37851191700E+01  0.38006341494E+01  0.00000000000E+00 0. -1.
</event>
<event>
 5    1  0.5849602E+001  0.1599670E+01  0.7818608E-02  0.3353722E+00
         11   -1    0    0    0    0  0.00000000000E+00  0.00000000000E+00  0.39999999674E+01  0.40000000000E+01  0.51100000000E-03 0.  1.
    9000002   -1    0    0    0    0 -0.00000000000E+00 -0.00000000000E+00  0.00000000000E+00  0.93800000000E+00  0.93800000000E+00 0.  1.
         11    1    1    2    0    0 -0.19765672725E-01  0.36847511354E-01  0.21618534267E+00  0.22019260755E+00  0.51100000000E-03 0.  1.
    9000002    1    1    2    0    0  0.31680544769E+00 -0.63881839136E+00  0.36468616136E+00  0.12334077287E+01  0.93800000000E+00 0.  1.
         22    1    1    2    0    0 -0.29703977496E+00  0.60197088001E+00  0.34191284633E+01  0.34843996638E+01  0.00000000000E+00 0.  1.
</event>
<event>
 5    1  0.5849602E+001  0.1599677E+01  0.7818608E-02  0.3353714E+00
         11   -1    0    0    0    0  0.00000000000E+00  0.00000000000E+00  0.39999999674E+01  0.40000000000E+01  0.51100000000E-03 0. -1.
    9000002   -1    0    0    0    0 -0.00000000000E+00 -0.00000000000E+00  0.00000000000E+00  0.93800000000E+00  0.93800000000E+00 0. -1.
         11    1    1    2    0    0  0.77737564878E-01  0.34037558429E-01  0.57991899642E+00  0.58609554503E+00  0.51100000000E-03 0.  1.
    9000002    1    1    2    0    0 -0.50916957893E+00 -0.22113737376E+00  0.21305164378E+00  0.11105811096E+01  0.93800000000E+00 0. -1.
         22    1    1    2    0    0  0.43143201406E+00  0.18709981534E+00  0.32070293272E+01  0.32413233453E+01  0.00000000000E+00 0. -1.
</event>
<event>
 5    1  0.5849602E+001  0.1599677E+01  0.7818608E-02  0.3353715E+00
         11   -1    0    0    0    0  0.00000000000E+00  0.00000000000E+00  0.39999999674E+01  0.40000000000E+01  0.51100000000E-03 0. -1.
    9000002   -1    0    0    0    0 -0.00000000000E+00 -0.00000000000E+00  0.00000000000E+00  0.93800000000E+00  0.93800000000E+00 0. -1.
         11    1    1    2    0    0 -0.24099016102E-01 -0.11236940794E+00  0.91243675356E+00  0.91964598449E+00  0.51100000000E-03 0. -1.
    9000002    1    1    2    0    0  0.98832504912E-01  0.47245682645E+00  0.15903755429E+00  0.10668271934E+01  0.93800000000E+00 0. -1.
         22    1    1    2    0    0 -0.74733488809E-01 -0.36008741851E+00  0.29285256595E+01  0.29515268221E+01  0.00000000000E+00 0. -1.
</event>
<event>
 5    1  0.5849602E+001  0.1595750E+01  0.7818608E-02  0.3357989E+00
         11   -1    0    0    0    0  0.00000000000E+00  0.00000000000E+00  0.39999999674E+01  0.40000000000E+01  0.51100000000E-03 0.  1.
    9000002   -1    0    0    0    0 -0.00000000000E+00 -0.00000000000E+00  0.00000000000E+00  0.93800000000E+00  0.93800000000E+00 0.  1.
         11    1    1    2    0    0 -0.71090640717E-01 -0.21176469129E+00  0.14466828856E+01  0.14638271060E+01  0.51100000000E-03 0.  1.
    9000002    1    1    2    0    0 -0.56455074103E-02  0.56019633261E+00  0.22095785991E+00  0.11146829947E+01  0.93800000000E+00 0.  1.
         22    1    1    2    0    0  0.76736148128E-01 -0.34843164131E+00  0.23323592218E+01  0.23594898993E+01  0.00000000000E+00 0. -1.
</event>
<event>
 5    1  0.5849602E+001  0.1599416E+01  0.7818608E-02  0.3353997E+00
         11   -1    0    0    0    0  0.00000000000E+00  0.00000000000E+00  0.39999999674E+01  0.40000000000E+01  0.51100000000E-03 0.  1.
    9000002   -1    0    0    0    0 -0.00000000000E+00 -0.00000000000E+00  0.00000000000E+00  0.93800000000E+00  0.93800000000E+00 0.  1.
         11    1    1    2    0    0  0.35076553067E-01  0.35600594763E-01  0.42346591069E+00  0.42640521287E+00  0.51100000000E-03 0.  1.
    9000002    1    1    2    0    0 -0.21128800652E+00 -0.32907780402E+00  0.10325668850E+00  0.10214894843E+01  0.93800000000E+00 0.  1.
         22    1    1    2    0    0  0.17621145345E+00  0.29347720926E+00  0.34732773682E+01  0.34901053028E+01  0.00000000000E+00 0.  1.
</event>
<event>
 5    1  0.5849602E+001  0.1511717E+01  0.7818608E-02  0.3455134E+00
         11   -1    0    0    0    0  0.00000000000E+00  0.00000000000E+00  0.39999999674E+01  0.40000000000E+01  0.51100000000E-03 0. -1.
    9000002   -1    0    0    0    0 -0.00000000000E+00 -0.00000000000E+00  0.00000000000E+00  0.93800000000E+00  0.93800000000E+00 0.  1.
         11    1    1    2    0    0 -0.40478261009E+00 -0.60088484259E-01  0.39330170964E+00  0.56757914276E+00  0.51100000000E-03 0. -1.
    9000002    1    1    2    0    0  0.33754012117E+00 -0.24418523356E+00  0.32878731436E+00  0.10777313486E+01  0.93800000000E+00 0.  1.
         22    1    1    2    0    0  0.67242488920E-01  0.30427371782E+00  0.32779109434E+01  0.32926895086E+01  0.00000000000E+00 0. -1.
</event>
<event>
 5    1  0.5849602E+001  0.1577472E+01  0.7818608E-02  0.3378184E+00
         11   -1    0    0    0    0  0.00000000000E+00  0.00000000000E+00  0.39999999674E+01  0.40000000000E+01  0.51100000000E-03 0. -1.
    9000002   -1    0    0    0    0 -0.00000000000E+00 -0.00000000000E+00  0.00000000000E+00  0.93800000000E+00  0.93800000000E+00 0.  1.
         11    1    1    2    0    0  0.81526449965E-01  0.32763383899E-01  0.11043501237E+01  0.11078399966E+01  0.51100000000E-03 0. -1.
    9000002    1    1    2    0    0  0.24447988788E+00  0.92114122116E-01  0.62634918681E-01  0.97571643427E+00  0.93800000000E+00 0.  1.
         22    1    1    2    0    0 -0.32600633785E+00 -0.12487750602E+00  0.28330149250E+01  0.28544435691E+01  0.00000000000E+00 0. -1.
</event>
<event>
 5    1  0.5849602E+001  0.1498242E+01  0.7818608E-02  0.3471797E+00
         11   -1    0    0    0    0  0.00000000000E+00  0.00000000000E+00  0.39999999674E+01  0.40000000000E+01  0.51100000000E-03 0.  1.
    9000002   -1    0    0    0    0 -0.00000000000E+00 -0.00000000000E+00  0.00000000000E+00  0.93800000000E+00  0.93800000000E+00 0.  1.
         11    1    1    2    0    0 -0.30123599275E+00  0.62886229055E-01  0.12196227554E+01  0.12578464643E+01  0.51100000000E-03 0.  1.
    9000002    1    1    2    0    0 -0.17108382914E+00 -0.11895671252E+00  0.10930490328E+00  0.96706356457E+00  0.93800000000E+00 0.  1.
         22    1    1    2    0    0  0.47231982188E+00  0.56070483467E-01  0.26710723087E+01  0.27130899711E+01  0.00000000000E+00 0.  1.
</event>
<event>
 5    1  0.5849602E+001  0.1598347E+01  0.7818608E-02  0.3355159E+00
         11   -1    0    0    0    0  0.00000000000E+00  0.00000000000E+00  0.39999999674E+01  0.40000000000E+01  0.51100000000E-03 0. -1.
    9000002   -1    0    0    0    0 -0.00000000000E+00 -0.00000000000E+00  0.00000000000E+00  0.93800000000E+00  0.93800000000E+00 0. -1.
         11    1    1    2    0    0  0.16308802639E+00  0.43283669692E-01  0.12437372622E+01  0.12551309967E+01  0.51100000000E-03 0. -1.
    9000002    1    1    2    0    0 -0.41200226839E+00 -0.51037011183E-01  0.11760464075E+00  0.10324851075E+01  0.93800000000E+00 0. -1.
         22    1    1    2    0    0  0.24891424200E+00  0.77533414908E-02  0.26386580644E+01  0.26503838958E+01  0.00000000000E+00 0.  1.
</event>
<event>
 5    1  0.5849602E+001  0.1529954E+01  0.7818608E-02  0.3433084E+00
         11   -1    0    0    0    0  0.00000000000E+00  0.00000000000E+00  0.39999999674E+01  0.40000000000E+01  0.51100000000E-03 0.  1.
    9000002   -1    0    0    0    0 -0.00000000000E+00 -0.00000000000E+00  0.00000000000E+00  0.93800000000E+00  0.93800000000E+00 0. -1.
         11    1    1    2    0    0 -0.13739953175E-01 -0.10928797375E+00  0.10989163005E+00  0.15559267013E+00  0.51100000000E-03 0.  1.
    9000002    1    1    2    0    0  0.66120869122E+00 -0.26578151520E+00  0.44864931117E+00  0.12605423244E+01  0.93800000000E+00 0. -1.
         22    1    1    2    0    0 -0.64746873804E+00  0.37506948895E+00  0.34414590261E+01  0.35218650055E+01  0.00000000000E+00 0.  1.
</event>
<event>
 5    1  0.5849602E+001  0.1599677E+01  0.7818608E-02  0.3353714E+00
         11   -1    0    0    0    0  0.00000000000E+00  0.00000000000E+00  0.39999999674E+01  0.40000000000E+01  0.51100000000E-03 0.  1.
    9000002   -1    0    0    0    0 -0.00000000000E+00 -0.00000000000E+00  0.00000000000E+00  0.93800000000E+00  0.93800000000E+00 0. -1.
         11    1    1    2    0    0  0.11003996235E+00 -0.40323618651E-01  0.10804429595E+01  0.10867805838E+01  0.51100000000E-03 0.  1.
    9000002    1    1    2    0    0 -0.39499156140E+00  0.14283546245E+00  0.11931448228E+00  0.10346498193E+01  0.93800000000E+00 0. -1.
         22    1    1    2    0    0  0.28495159905E+00 -0.10251184380E+00  0.28002425256E+01  0.28165695969E+01  0.00000000000E+00 0.  1.
</event>
<event>
 5    1  0.5849602E+001  0.1594425E+01  0.7818608E-02  0.3359437E+00
         11   -1    0    0    0    0  0.00000000000E+00  0.00000000000E+00  0.39999999674E+01  0.40000000000E+01  0.51100000000E-03 0. -1.
    9000002   -1    0    0    0    0 -0.00000000000E+00 -0.00000000000E+00  0.00000000000E+00  0.93800000000E+00  0.93800000000E+00 0.  1.
         11    1    1    2    0    0 -0.11532374734E+00  0.48747100843E-01  0.13363359390E+01  0.13421884553E+01  0.51100000000E-03 0. -1.
    9000002    1    1    2    0    0  0.56106209487E+00 -0.15232642182E+00  0.24003698809E+00  0.11293607788E+01  0.93800000000E+00 0.  1.
         22    1    1    2    0    0 -0.44573834753E+00  0.10357932098E+00  0.24236270403E+01  0.24664507659E+01  0.00000000000E+00 0. -1.
</event>
<event>
 5    1  0.5849602E+001  0.1526776E+01  0.7818608E-02  0.3436886E+00
         11   -1    0    0    0    0  0.00000000000E+00  0.00000000000E+00  0.39999999674E+01  0.40000000000E+01  0.51100000000E-03 0. -1.
    9000002   -1    0    0    0    0 -0.00000000000E+00 -0.00000000000E+00  0.00000000000E+00  0.93800000000E+00  0.93800000000E+00 0. -1.
         11    1    1    2    0    0 -0.25338281435E+00 -0.40216396583E-01  0.13130692323E+01  0.13378980825E+01  0.51100000000E-03 0. -1.
    9000002    1    1    2    0    0 -0.15841693278E+00  0.82763375779E-01  0.77479883676E-01  0.95801504860E+00  0.93800000000E+00 0. -1.
         22    1    1    2    0    0  0.41179974713E+00 -0.42546979196E-01  0.26094508514E+01  0.26420868689E+01  0.00000000000E+00 0. -1.
</event>
<event>
 5    1  0.5849602E+001  0.1599418E+01  0.7818608E-02  0.3353995E+00
         11   -1    0    0    0    0  0.00000000000E+00  0.00000000000E+00  0.39999999674E+01  0.40000000000E+01  0.51100000000E-03 0.  1.
    9000002   -1    0    0    0    0 -0.00000000000E+00 -0.00000000000E+00  0.00000000000E+00  0.93800000000E+00  0.93800000000E+00 0.  1.
         11    1    1    2    0    0  0.89475812500E-01  0.65499538728E-01  0.11479631099E+01  0.11533064091E+01  0.51100000000E-03 0.  1.
    9000002    1    1    2    0    0 -0.30729817066E+00 -0.28124443116E+00  0.11752298056E+00  0.10330470690E+01  0.93800000000E+00 0.  1.
         22    1    1    2    0    0  0.21782235816E+00  0.21574489244E+00  0.27345138769E+01  0.27516465219E+01  0.00000000000E+00 0.  1.
</event>
<event>
 5    1  0.6141831E+001  0.1599375E+01  0.7818608E-02  0.3354043E+00
         11   -1    0    0    0    0  0.00000000000E+00  0.00000000000E+00  0.39999999674E+01  0.40000000000E+01  0.51100000000E-03 0.  1.
    9000002   -1    0    0    0    0 -0.00000000000E+00 -0.00000000000E+00  0.00000000000E+00  0.93800000000E+00  0.93800000000E+00 0. -1.
         11    1    1    2    0    0 -0.68278410914E-01  0.23357206887E-02  0.99533726301E+00  0.99767926973E+00  0.51100000000E-03 0.  1.
    9000002    1    1    2    0    0  0.33238724723E+00  0.25409635553E-01  0.74619905655E-01  0.99826803115E+00  0.93800000000E+00 0. -1.
         22    1    1    2    0    0 -0.26410883632E+00 -0.27745356241E-01  0.29300427987E+01  0.29420526991E+01  0.00000000000E+00 0.  1.
</event>
<event>
 5    1  0.5849602E+001  0.1599676E+01  0.7818608E-02  0.3353715E+00
         11   -1    0    0    0    0  0.00000000000E+00  0.00000000000E+00  0.39999999674E+01  0.40000000000E+01  0.51100000000E-03 0. -1.
    9000002   -1    0    0    0    0 -0.00000000000E+00 -0.00000000000E+00  0.00000000000E+00  0.93800000000E+00  0.93800000000E+00 0. -1.
         11    1    1    2    0    0 -0.88866318396E-02  0.25588093142E-01  0.23309612403E+00  0.23466526564E+00  0.51100000000E-03 0. -1.
    9000002    1    1    2    0    0  0.14867738840E+00 -0.42627006176E+00  0.13845567146E+00  0.10501548002E+01  0.93800000000E+00 0. -1.
         22    1    1    2    0    0 -0.13979075656E+00  0.40068196862E+00  0.36284481719E+01  0.36531799342E+01  0.00000000000E+00 0. -1.
</event>
<event>
 5    1  0.5849602E+001  0.1599675E+01  0.7818608E-02  0.3353716E+00
         11   -1    0    0    0    0  0.00000000000E+00  0.00000000000E+00  0.39999999674E+01  0.40000000000E+01  0.51100000000E-03 0. -1.
    9000002   -1    0    0    0    0 -0.00000000000E+00 -0.00000000000E+00  0.00000000000E+00  0.93800000000E+00  0.93800000000E+00 0. -1.
         11    1    1    2    0    0 -0.59534541064E-01 -0.34416094895E+00  0.10531118861E+01  0.11095206290E+01  0.51100000000E-03 0. -1.
    9000002    1    1    2    0    0  0.17226194841E+00  0.10209002886E+01  0.88097237318E+00  0.16516258355E+01  0.93800000000E+00 0. -1.
         22    1    1    2    0    0 -0.11272740735E+00 -0.67673933967E+00  0.20659157081E+01  0.21768535356E+01  0.00000000000E+00 0. -1.
</event>
<event>
 5    1  0.6244708E+001  0.1599633E+01  0.7818608E-02  0.3353761E+00
         11   -1    0    0    0    0  0.00000000000E+00  0.00000000000E+00  0.39999999674E+01  0.40000000000E+01  0.51100000000E-03 0. -1.
    9000002   -1    0    0    0    0 -0.00000000000E+00 -0.00000000000E+00  0.00000000000E+00  0.93800000000E+00  0.93800000000E+00 0. -1.
         11    1    1    2    0    0 -0.11427219891E+00  0.12731229730E-01  0.13792414114E+01  0.13840257771E+01  0.51100000000E-03 0. -1.
    9000002    1    1    2    0    0  0.34317959317E+00 -0.47532559859E-01  0.80486249436E-01  0.10031717768E+01  0.93800000000E+00 0. -1.
         22    1    1    2    0    0 -0.22890739425E+00  0.34801330129E-01  0.25402723065E+01  0.25508024461E+01  0.00000000000E+00 0. -1.
</event>
<event>
 5    1  0.5849602E+001  0.1552457E+01  0.7818608E-02  0.3406639E+00
         11   -1    0    0    0    0  0.00000000000E+00  0.00000000000E+00  0.39999999674E+01  0.40000000000E+01  0.51100000000E-03 0. -1.
    9000002   -1    0    0    0    0 -0.00000000000E+00 -0.00000000000E+00  0.00000000000E+00  0.93800000000E+00  0.93800000000E+00 0. -1.
         11    1    1    2    0    0  0.71532028567E-01  0.94409728988E-01  0.36687750015E+00  0.38552482317E+00  0.51100000000E-03 0. -1.
    9000002    1    1    2    0    0  0.60954983108E-01  0.40863823188E+00  0.15613050908E+00  0.10367841870E+01  0.93800000000E+00 0. -1.
         22    1    1    2    0    0 -0.13248701167E+00 -0.50304796086E+00  0.34769919581E+01  0.35156909898E+01  0.00000000000E+00 0. -1.
</event>
<event>
 5    1  0.5849602E+001  0.1599629E+01  0.7818608E-02  0.3353766E+00
         11   -1    0    0    0    0  0.00000000000E+00  0.00000000000E+00  0.39999999674E+01  0.40000000000E+01  0.51100000000E-03 0.  1.
    9000002   -1    0    0    0    0 -0.00000000000E+00 -0.00000000000E+00  0.00000000000E+00  0.93800000000E+00  0.93800000000E+00 0.  1.
         11    1    1    2    0    0  0.87952265294E-01  0.21357818853E-01  0.78164175059E+00  0.78686456572E+00  0.51100000000E-03 0.  1.
    9000002    1    1    2    0    0 -0.42985216489E+00 -0.13816846977E+00  0.13853306686E+00  0.10501898973E+01  0.93800000000E+00 0.  1.
         22    1    1    2    0    0  0.34189989960E+00  0.11681065092E+00  0.30798251499E+01  0.31009455370E+01  0.00000000000E+00 0.  1.
</event>
<event>
 5    1  0.5849602E+001  0.1598188E+01  0.7818608E-02  0.3355333E+00
         11   -1    0    0    0    0  0.00000000000E+00  0.00000000000E+00  0.39999999674E+01  0.40000000000E+01  0.51100000000E-03 0. -1.
    9000002   -1    0    0    0    0 -0.00000000000E+00 -0.00000000000E+00  0.00000000000E+00  0.93800000000E+00  0.93800000000E+00 0. -1.
         11    1    1    2    0    0 -0.14928736700E+00  0.82432129889E-01  0.10883104360E+01  0.11015905048E+01  0.51100000000E-03 0. -1.
    9000002    1    1    2    0    0  0.40208630537E+00 -0.21371129981E+00  0.14223087186E+00  0.10523400294E+01  0.93800000000E+00 0. -1.
         22    1    1    2    0    0 -0.25279893837E+00  0.13127916992E+00  0.27694586595E+01  0.27840694658E+01  0.00000000000E+00 0. -1.
</event>
<event>
 5    1  0.5849602E+001  0.1571464E+01  0.7818608E-02  0.3384930E+00
         11   -1    0    0    0    0  0.00000000000E+00  0.00000000000E+00  0.39999999674E+01  0.40000000000E+01  0.51100000000E-03 0.  1.
    9000002   -1    0    0    0    0 -0.00000000000E+00 -0.00000000000E+00  0.00000000000E+00  0.93800000000E+00  0.93800000000E+00 0.  1.
         11    1    1    2    0    0 -0.10468254033E+00 -0.22537504364E-01  0.68049306900E+00  0.68886678788E+00  0.51100000000E-03 0.  1.
    9000002    1    1    2    0    0 -0.19868204138E+00 -0.23824726968E+00  0.86806779981E-01  0.99177403280E+00  0.93800000000E+00 0.  1.
         22    1    1    2    0    0  0.30336458171E+00  0.26078477405E+00  0.32327001184E+01  0.32573591793E+01  0.00000000000E+00 0.  1.
</event>
<event>
 5    1  0.5849602E+001  0.1599649E+01  0.7818608E-02  0.3353745E+00
         11   -1    0    0    0    0  0.00000000000E+00  0.00000000000E+00  0.39999999674E+01  0.40000000000E+01  0.51100000000E-03 0. -1.
    9000002   -1    0    0    0    0 -0.00000000000E+00 -0.00000000000E+00  0.00000000000E+00  0.93800000000E+00  0.93800000000E+00 0. -1.
         11    1    1    2    0    0  0.11179070557E+00  0.86257014920E-01  0.11392201508E+01  0.11479373883E+01  0.51100000000E-03 0. -1.
    9000002    1    1    2    0    0 -0.39606968760E+00 -0.28847958247E+00  0.16410896301E+00  0.10709189599E+01  0.93800000000E+00 0. -1.
         22    1    1    2    0    0  0.28427898203E+00  0.20222256755E+00  0.26966708536E+01  0.27191436518E+01  0.00000000000E+00 0. -1.
</event>
<event>
 5    1  0.5849602E+001  0.1599624E+01  0.7818608E-02  0.3353772E+00
         11   -1    0    0    0    0  0.00000000000E+00  0.00000000000E+00  0.39999999674E+01  0.40000000000E+01  0.51100000000E-03 0.  1.
    9000002   -1    0    0    0    0 -0.00000000000E+00 -0.00000000000E+00  0.00000000000E+00  0.93800000000E+00  0.93800000000E+00 0.  1.
         11    1    1    2    0    0 -0.27093048658E-01 -0.56286846517E-01  0.49564857076E+00  0.49956982414E+00  0.51100000000E-03 0.  1.
    9000002    1    1    2    0    0  0.16482212027E+00  0.43722747568E+00  0.14872268376E+00  0.10584406613E+01  0.93800000000E+00 0.  1.
         22    1    1    2    0    0 -0.13772907161E+00 -0.38094062917E+00  0.33556287128E+01  0.33799895146E+01  0.00000000000E+00 0.  1.
</event>
<event>
 5    1  0.5849602E+001  0.1579349E+01  0.7818608E-02  0.3376087E+00
         11   -1    0    0    0    0  0.00000000000E+00  0.00000000000E+00  0.39999999674E+01  0.40000000000E+01  0.51100000000E-03 0. -1.
    9000002   -1    0    0    0    0 -0.00000000000E+00 -0.00000000000E+00  0.00000000000E+00  0.93800000000E+00  0.93800000000E+00 0.  1.
         11    1    1    2    0    0  0.38893527947E-02  0.60662833520E-01  0.11058185647E+01  0.11074881786E+01  0.51100000000E-03 0. -1.
    9000002    1    1    2    0    0  0.28354269126E+00  0.24348619669E+00  0.11071983290E+00  0.10157681168E+01  0.93800000000E+00 0.  1.
         22    1    1    2    0    0 -0.28743204405E+00 -0.30414903021E+00  0.27834615697E+01  0.28147437046E+01  0.00000000000E+00 0. -1.
</event>
<event>
 5    1  0.5849602E+001  0.1551220E+01  0.7818608E-02  0.3408071E+00
         11   -1    0    0    0    0  0.00000000000E+00  0.00000000000E+00  0.39999999674E+01  0.40000000000E+01  0.51100000000E-03 0. -1.
    9000002   -1    0    0    0    0 -0.00000000000E+00 -0.00000000000E+00  0.00000000000E+00  0.93800000000E+00  0.93800000000E+00 0. -1.
         11    1    1    2    0    0  0.14929246622E+00 -0.86337737471E-01  0.60474939308E+00  0.62885971006E+00  0.51100000000E-03 0. -1.
    9000002    1    1    2    0    0  0.24435813281E+00  0.26042511494E+00  0.12586460709E+00  0.10115424049E+01  0.93800000000E+00 0. -1.
         22    1    1    2    0    0 -0.39365059902E+00 -0.17408737747E+00  0.32693859672E+01  0.32975978851E+01  0.00000000000E+00 0. -1.
</event>
<event>
 5    1  0.5849602E+001  0.1599676E+01  0.7818608E-02  0.3353715E+00
         11   -1    0    0    0    0  0.00000000000E+00  0.00000000000E+00  0.39999999674E+01  0.40000000000E+01  0.51100000000E-03 0. -1.
    9000002   -1    0    0    0    0 -0.00000000000E+00 -0.00000000000E+00  0.00000000000E+00  0.93800000000E+00  0.93800000000E+00 0. -1.
         11    1    1    2    0    0  0.88756760675E-01  0.65056811433E-02  0.79785621550E+00  0.80280438974E+00  0.51100000000E-03 0. -1.
    9000002    1    1    2    0    0 -0.42893558387E+00 -0.28900870486E-01  0.12516650642E+00  0.10393900374E+01  0.93800000000E+00 0. -1.
         22    1    1    2    0    0  0.34017882319E+00  0.22395189342E-01  0.30769772454E+01  0.30958055729E+01  0.00000000000E+00 0. -1.
</event>
<event>
 5    1  0.5849602E+001  0.1597974E+01  0.7818608E-02  0.3355565E+00
         11   -1    0    0    0    0  0.00000000000E+00  0.00000000000E+00  0.39999999674E+01  0.40000000000E+01  0.51100000000E-03 0.  1.
    9000002   -1    0    0    0    0 -0.00000000000E+00 -0.00000000000E+00  0.00000000000E+00  0.93800000000E+00  0.93800000000E+00 0. -1.
         11    1    1    2    0    0  0.44178023167E-01 -0.85678792117E-01  0.84613609913E+00  0.85160971843E+00  0.51100000000E-03 0.  1.
    9000002    1    1    2    0    0 -0.32265511070E+00  0.24827022202E+00  0.11332653772E+00  0.10288009175E+01  0.93800000000E+00 0. -1.
         22    1    1    2    0    0  0.27847708753E+00 -0.16259142991E+00  0.30405373305E+01  0.30575893641E+01  0.00000000000E+00 0.  1.
</event>
<event>
 5    1  0.5849602E+001  0.1584800E+01  0.7818608E-02  0.3370028E+00
         11   -1    0    0    0    0  0.00000000000E+00  0.00000000000E+00  0.39999999674E+01  0.40000000000E+01  0.51100000000E-03 0.  1.
    9000002   -1    0    0    0    0 -0.00000000000E+00 -0.00000000000E+00  0.00000000000E+00  0.93800000000E+00  0.93800000000E+00 0. -1.
         11    1    1    2    0    0 -0.12276655396E+00  0.13849713161E+00  0.12535071274E+01  0.12670964690E+01  0.51100000000E-03 0.  1.
    9000002    1    1    2    0    0 -0.35246426947E-01 -0.34248276001E+00  0.91465679596E-01  0.10033676904E+01  0.93800000000E+00 0. -1.
         22    1    1    2    0    0  0.15801298091E+00  0.20398562840E+00  0.26550271604E+01  0.26675358406E+01  0.00000000000E+00 0.  1.
</event>
<event>
 5    1  0.5849602E+001  0.1535016E+01  0.7818608E-02  0.3427063E+00
         11   -1    0    0    0    0  0.00000000000E+00  0.00000000000E+00  0.39999999674E+01  0.40000000000E+01  0.51100000000E-03 0.  1.
    9000002   -1    0    0    0    0 -0.00000000000E+00 -0.00000000000E+00  0.00000000000E+00  0.93800000000E+00  0.93800000000E+00 0.  1.
         11    1    1    2    0    0 -0.86678578158E-01 -0.36185487824E+00  0.87791765789E+00  0.95351549750E+00  0.51100000000E-03 0.  1.
    9000002    1    1    2    0    0 -0.12941207728E+00  0.52684899678E+00  0.26635373794E+00  0.11158430288E+01  0.93800000000E+00 0.  1.
         22    1    1    2    0    0  0.21609065543E+00 -0.16499411853E+00  0.28557285715E+01  0.28686414737E+01  0.00000000000E+00 0.  1.
</event>
<event>
 5    1  0.5849602E+001  0.1599675E+01  0.7818608E-02  0.3353716E+00
         11   -1    0    0    0    0  0.00000000000E+00  0.00000000000E+00  0.39999999674E+01  0.40000000000E+01  0.51100000000E-03 0.  1.
    9000002   -1    0    0    0    0 -0.00000000000E+00 -0.00000000000E+00  0.00000000000E+00  0.93800000000E+00  0.93800000000E+00 0.  1.
         11    1    1    2    0    0  0.12367997887E+00  0.41250791080E-01  0.12418371109E+01  0.12486624989E+01  0.51100000000E-03 0.  1.
    9000002    1    1    2    0    0 -0.39041661269E+00 -0.13244364776E+00  0.11483130205E+00  0.10310173031E+01  0.93800000000E+00 0.  1.
         22    1    1    2    0    0  0.26673663381E+00  0.91192856678E-01  0.26433315544E+01  0.26583201980E+01  0.00000000000E+00 0.  1.
</event>
<event>
 5    1  0.5849602E+001  0.1594034E+01  0.7818608E-02  0.3359864E+00
         11   -1    0    0    0    0  0.00000000000E+00  0.00000000000E+00  0.39999999674E+01  0.40000000000E+01  0.51100000000E-03 0. -1.
    9000002   -1    0    0    0    0 -0.00000000000E+00 -0.00000000000E+00  0.00000000000E+00  0.93800000000E+00  0.93800000000E+00 0.  1.
         11    1    1    2    0    0  0.22897128837E+00 -0.57128171688E-01  0.95865655085E+00  0.98727611259E+00  0.51100000000E-03 0. -1.
    9000002    1    1    2    0    0 -0.58175974307E+00  0.18128088984E+00  0.26527327689E+00  0.11495743000E+01  0.93800000000E+00 0.  1.
         22    1    1    2    0    0  0.35278845470E+00 -0.12415271816E+00  0.27760701396E+01  0.28011495875E+01  0.00000000000E+00 0. -1.
</event>
<event>
 5    1  0.5849602E+001  0.1519580E+01  0.7818608E-02  0.3445557E+00
         11   -1    0    0    0    0  0.00000000000E+00  0.00000000000E+00  0.39999999674E+01  0.40000000000E+01  0.51100000000E-03 0.  1.
    9000002   -1    0    0    0    0 -0.00000000000E+00 -0.00000000000E+00  0.00000000000E+00  0.93800000000E+00  0.93800000000E+00 0. -1.
         11    1    1    2    0    0 -0.56198758197E-02  0.24057069343E+00  0.66715588854E+00  0.70922710204E+00  0.51100000000E-03 0.  1.
    9000002    1    1    2    0    0 -0.28066667965E+00  0.72802686669E-01  0.12125069994E+00  0.98925211574E+00  0.93800000000E+00 0. -1.
         22    1    1    2    0    0  0.28628655547E+00 -0.31337338009E+00  0.32115933789E+01  0.32395207822E+01  0.00000000000E+00 0.  1.
</event>
<event>
 5    1  0.5849602E+001  0.1552990E+01  0.7818608E-02  0.3406023E+00
         11   -1    0    0    0    0  0.00000000000E+00  0.00000000000E+00  0.39999999674E+01  0.40000000000E+01  0.51100000000E-03 0. -1.
    9000002   -1    0    0    0    0 -0.00000000000E+00 -0.00000000000E+00  0.00000000000E+00  0.93800000000E+00  0.93800000000E+00 0.  1.
         11    1    1    2    0    0 -0.55422543185E-01  0.32044922878E+00  0.13458176411E+01  0.13845521842E+01  0.51100000000E-03 0. -1.
    9000002    1    1    2    0    0 -0.24789578253E+00 -0.33236499922E+00  0.15654743323E+00  0.10374342922E+01  0.93800000000E+00 0.  1.
         22    1    1    2    0    0  0.30331832572E+00  0.11915770435E-01  0.24976348930E+01  0.25160135237E+01  0.00000000000E+00 0. -1.
</event>
<event>
 5    1  0.5849602E+001  0.1599625E+01  0.7818608E-02  0.3353770E+00
         11   -1    0    0    0    0  0.00000000000E+00  0.00000000000E+00  0.39999999674E+01  0.40000000000E+01  0.51100000000E-03 0.  1.
    9000002   -1    0    0    0    0 -0.00000000000E+00 -0.00000000000E+00  0.00000000000E+00  0.93800000000E+00  0.93800000000E+00 0.  1.
         11    1    1    2    0    0 -0.41425018779E-01  0.38822007543E-01  0.52836133970E+00  0.53140299854E+00  0.51100000000E-03 0.  1.
    9000002    1    1    2    0    0  0.26207033168E+00 -0.28406288617E+00  0.10062616121E+00  0.10194813418E+01  0.93800000000E+00 0.  1.
         22    1    1    2    0    0 -0.22064531290E+00  0.24524087862E+00  0.33710124665E+01  0.33871156596E+01  0.00000000000E+00 0.  1.
</event>
<event>
 5    1  0.5849602E+001  0.1598406E+01  0.7818608E-02  0.3355095E+00
         11   -1    0    0    0    0  0.00000000000E+00  0.00000000000E+00  0.39999999674E+01  0.40000000000E+01  0.51100000000E-03 0. -1.
    9000002   -1    0    0    0    0 -0.00000000000E+00 -0.00000000000E+00  0.00000000000E+00  0.93800000000E+00  0.93800000000E+00 0. -1.
         11    1    1    2    0    0  0.50668212318E-01 -0.62046541097E-02  0.36100788207E+00  0.36459939318E+00  0.51100000000E-03 0. -1.
    9000002    1    1    2    0    0 -0.36076239373E+00 -0.12702591488E+00  0.99501616664E-01  0.10178554217E+01  0.93800000000E+00 0. -1.
         22    1    1    2    0    0  0.31009418141E+00  0.13323056899E+00  0.35394904686E+01  0.35555451851E+01  0.00000000000E+00 0. -1.
</event>
<event>
 5    1  0.5849602E+001  0.1596002E+01  0.7818608E-02  0.3357714E+00
         11   -1    0    0    0    0  0.00000000000E+00  0.00000000000E+00  0.39999999674E+01  0.40000000000E+01  0.51100000000E-03 0.  1.
    9000002   -1    0    0    0    0 -0.00000000000E+00 -0.00000000000E+00  0.00000000000E+00  0.93800000000E+00  0.93800000000E+00 0.  1.
         11    1    1    2    0    0  0.61194948250E-03  0.69615269622E-01  0.98799537137E+00  0.99044524090E+00  0.51100000000E-03 0.  1.
    9000002    1    1    2    0    0  0.24799147188E+00 -0.28732242123E+00  0.99941429941E-01  0.10168019637E+01  0.93800000000E+00 0.  1.
         22    1    1    2    0    0 -0.24860342136E+00  0.21770715161E+00  0.29120631660E+01  0.29307527955E+01  0.00000000000E+00 0.  1.
</event>
<event>
 5    1  0.5849602E+001  0.1599676E+01  0.7818608E-02  0.3353715E+00
         11   -1    0    0    0    0  0.00000000000E+00  0.00000000000E+00  0.39999999674E+01  0.40000000000E+01  0.51100000000E-03 0. -1.
    9000002   -1    0    0    0    0 -0.00000000000E+00 -0.00000000000E+00  0.00000000000E+00  0.93800000000E+00  0.93800000000E+00 0.  1.
         11    1    1    2    0    0 -0.19161491424E+00 -0.19118026036E-01  0.14163889820E+01  0.14294193869E+01  0.51100000000E-03 0. -1.
    9000002    1    1    2    0    0  0.51300483257E+00  0.52156334075E-01  0.18250901216E+00  0.10858396663E+01  0.93800000000E+00 0.  1.
         22    1    1    2    0    0 -0.32138991833E+00 -0.33038308039E-01  0.24011019732E+01  0.24227409468E+01  0.00000000000E+00 0. -1.
</event>
<event>
 5    1  0.5849602E+001  0.1599677E+01  0.7818608E-02  0.3353714E+00
         11   -1    0    0    0    0  0.00000000000E+00  0.00000000000E+00  0.39999999674E+01  0.40000000000E+01  0.51100000000E-03 0. -1.
    9000002   -1    0    0    0    0 -0.00000000000E+00 -0.00000000000E+00  0.00000000000E+00  0.93800000000E+00  0.93800000000E+00 0.  1.
         11    1    1    2    0    0 -0.67787265873E-01 -0.11872313913E+00  0.14086829591E+01  0.14153014653E+01  0.51100000000E-03 0.  1.
    9000002    1    1    2    0    0  0.18850594642E+00  0.32901959994E+00  0.96737230439E-01  0.10163613928E+01  0.93800000000E+00 0.  1.
         22    1    1    2    0    0 -0.12071868055E+00 -0.21029646082E+00  0.24945797778E+01  0.25063371420E+01  0.00000000000E+00 0. -1.
</event>
<event>
 5    1  0.5849602E+001  0.1594645E+01  0.7818608E-02  0.3359196E+00
         11   -1    0    0    0    0  0.00000000000E+00  0.00000000000E+00  0.39999999674E+01  0.40000000000E+01  0.51100000000E-03 0.  1.
    9000002   -1    0    0    0    0 -0.00000000000E+00 -0.00000000000E+00  0.00000000000E+00  0.93800000000E+00  0.93800000000E+00 0. -1.
         11    1    1    2    0    0  0.23539923127E+00  0.22230182800E+00  0.11015577962E+01  0.11481553642E+01  0.51100000000E-03 0.  1.
    9000002    1    1    2    0    0 -0.85855807082E+00 -0.48533594762E+00  0.78593116151E+00  0.15716884976E+01  0.93800000000E+00 0. -1.
         22    1    1    2    0    0  0.62315883954E+00  0.26303411962E+00  0.21125110096E+01  0.22181561381E+01  0.00000000000E+00 0. -1.
</event>
<event>
 5    1  0.1696599E+002  0.1559863E+01  0.7818608E-02  0.3398113E+00
         11   -1    0    0    0    0  0.00000000000E+00  0.00000000000E+00  0.39999999674E+01  0.40000000000E+01  0.51100000000E-03 0.  1.
    9000002   -1    0    0    0    0 -0.00000000000E+00 -0.00000000000E+00  0.00000000000E+00  0.93800000000E+00  0.93800000000E+00 0. -1.
         11    1    1    2    0    0 -0.17995451015E-01 -0.19170812739E+00  0.13218709783E+01  0.13358214651E+01  0.51100000000E-03 0.  1.
    9000002    1    1    2    0    0  0.22407622600E-01 -0.10334141037E+00  0.37052252279E-01  0.94466841698E+00  0.93800000000E+00 0. -1.
         22    1    1    2    0    0 -0.44121715851E-02  0.29504953776E+00  0.26410767368E+01  0.26575101179E+01  0.00000000000E+00 0.  1.
</event>
<event>
 5    1  0.5849602E+001  0.1598480E+01  0.7818608E-02  0.3355015E+00
         11   -1    0    0    0    0  0.00000000000E+00  0.00000000000E+00  0.39999999674E+01  0.40000000000E+01  0.51100000000E-03 0. -1.
    9000002   -1    0    0    0    0 -0.00000000000E+00 -0.00000000000E+00  0.00000000000E+00  0.93800000000E+00  0.93800000000E+00 0.  1.
         11    1    1    2    0    0  0.14942179181E-01 -0.40217390893E-01  0.82575634903E+00  0.82687031410E+00  0.51100000000E-03 0. -1.
    9000002    1    1    2    0    0 -0.16478057363E+00  0.32168847681E+00  0.88676635537E-01  0.10091301498E+01  0.93800000000E+00 0.  1.
         22    1    1    2    0    0  0.14983839444E+00 -0.28147108591E+00  0.30855669828E+01  0.31019995361E+01  0.00000000000E+00 0. -1.
</event>
<event>
 5    1  0.5849602E+001  0.1599508E+01  0.7818608E-02  0.3353897E+00
         11   -1    0    0    0    0  0.00000000000E+00  0.00000000000E+00  0.39999999674E+01  0.40000000000E+01  0.51100000000E-03 0. -1.
    9000002   -1    0    0    0    0 -0.00000000000E+00 -0.00000000000E+00  0.00000000000E+00  0.93800000000E+00  0.93800000000E+00 0.  1.
         11    1    1    2    0    0 -0.46562973740E-01 -0.97908725055E-01  0.90557517540E+00  0.91204215275E+00  0.51100000000E-03 0. -1.
    9000002    1    1    2    0    0  0.17976450549E+00  0.46766943061E+00  0.17202612141E+00  0.10772497204E+01  0.93800000000E+00 0.  1.
         22    1    1    2    0    0 -0.13320153175E+00 -0.36976070556E+00  0.29223986706E+01  0.29487081268E+01  0.00000000000E+00 0. -1.
</event>
<event>
 5    1  0.5849602E+001  0.1556873E+01  0.7818608E-02  0.3401545E+00
         11   -1    0    0    0    0  0.00000000000E+00  0.00000000000E+00  0.39999999674E+01  0.40000000000E+01  0.51100000000E-03 0. -1.
    9000002   -1    0    0    0    0 -0.00000000000E+00 -0.00000000000E+00  0.00000000000E+00  0.93800000000E+00  0.93800000000E+00 0. -1.
         11    1    1    2    0    0  0.12178199803E+00 -0.26640212808E-01  0.63831077468E+00  0.65037025007E+00  0.51100000000E-03 0. -1.
    9000002    1    1    2    0    0  0.38169136562E+00  0.12271176650E+00  0.14498464912E+00  0.10303450998E+01  0.93800000000E+00 0. -1.
         22    1    1    2    0    0 -0.50347336365E+00 -0.96071553697E-01  0.32167045436E+01  0.32572846501E+01  0.00000000000E+00 0. -1.
</event>
<event>
 5    1  0.5849602E+001  0.1599670E+01  0.7818608E-02  0.3353721E+00
         11   -1    0    0    0    0  0.00000000000E+00  0.00000000000E+00  0.39999999674E+01  0.40000000000E+01  0.51100000000E-03 0. -1.
    9000002   -1    0    0    0    0 -0.00000000000E+00 -0.00000000000E+00  0.00000000000E+00  0.93800000000E+00  0.93800000000E+00 0.  1.
         11    1    1    2    0    0  0.12889646314E+00  0.14106086667E-01  0.13511353215E+01  0.13573430658E+01  0.51100000000E-03 0. -1.
    9000002    1    1    2    0    0 -0.37196729989E+00 -0.32277688931E-01  0.93725854971E-01  0.10139181709E+01  0.93800000000E+00 0.  1.
         22    1    1    2    0    0  0.24307083675E+00  0.18171602263E-01  0.25551387908E+01  0.25667387633E+01  0.00000000000E+00 0. -1.
</event>
<event>
 5    1  0.5849602E+001  0.1486602E+01  0.7818608E-02  0.3486454E+00
         11   -1    0    0    0    0  0.00000000000E+00  0.00000000000E+00  0.39999999674E+01  0.40000000000E+01  0.51100000000E-03 0.  1.
    9000002   -1    0    0    0    0 -0.00000000000E+00 -0.00000000000E+00  0.00000000000E+00  0.93800000000E+00  0.93800000000E+00 0.  1.
         11    1    1    2    0    0 -0.10366508939E+00  0.26779392610E+00  0.74603779511E+00  0.79939520293E+00  0.51100000000E-03 0.  1.
    9000002    1    1    2    0    0 -0.27842780953E+00  0.65397167190E-01  0.14823708218E+00  0.99177470583E+00  0.93800000000E+00 0.  1.
         22    1    1    2    0    0  0.38209289891E+00 -0.33319109329E+00  0.31057250901E+01  0.31468300912E+01  0.00000000000E+00 0.  1.
</event>
<event>
 5    1  0.5849602E+001  0.1599540E+01  0.7818608E-02  0.3353863E+00
         11   -1    0    0    0    0  0.00000000000E+00  0.00000000000E+00  0.39999999674E+01  0.40000000000E+01  0.51100000000E-03 0.  1.
    9000002   -1    0    0    0    0 -0.00000000000E+00 -0.00000000000E+00  0.00000000000E+00  0.93800000000E+00  0.93800000000E+00 0. -1.
         11    1    1    2    0    0 -0.15569511847E+00 -0.91433659278E-01  0.11478665481E+01  0.11619806183E+01  0.51100000000E-03 0.  1.
    9000002    1    1    2    0    0  0.53323589484E+00  0.26402046552E+00  0.24689276490E+00  0.11379136009E+01  0.93800000000E+00 0. -1.
         22    1    1    2    0    0 -0.37754077636E+00 -0.17258680624E+00  0.26052406544E+01  0.26381057808E+01  0.00000000000E+00 0. -1.
</event>
<event>
 5    1  0.5849602E+001  0.1599471E+01  0.7818608E-02  0.3353937E+00
         11   -1    0    0    0    0  0.00000000000E+00  0.00000000000E+00  0.39999999674E+01  0.40000000000E+01  0.51100000000E-03 0. -1.
    9000002   -1    0    0    0    0 -0.00000000000E+00 -0.00000000000E+00  0.00000000000E+00  0.93800000000E+00  0.93800000000E+00 0. -1.
         11    1    1    2    0    0 -0.24595657948E-02  0.10500784074E+00  0.71777312836E+00  0.72541796297E+00  0.51100000000E-03 0. -1.
    9000002    1    1    2    0    0 -0.44061210712E-01 -0.59211737870E+00  0.24584703962E+00  0.11370264497E+01  0.93800000000E+00 0. -1.
         22    1    1    2    0    0  0.46520776507E-01  0.48710953796E+00  0.30363797994E+01  0.30755555873E+01  0.00000000000E+00 0. -1.
</event>
<event>
 5    1  0.5849602E+001  0.1586770E+01  0.7818608E-02  0.3367849E+00
         11   -1    0    0    0    0  0.00000000000E+00  0.00000000000E+00  0.39999999674E+01  0.40000000000E+01  0.51100000000E-03 0. -1.
    9000002   -1    0    0    0    0 -0.00000000000E+00 -0.00000000000E+00  0.00000000000E+00  0.93800000000E+00  0.93800000000E+00 0.  1.
         11    1    1    2    0    0  0.66544578750E-02 -0.23125030522E-02  0.12936174294E+01  0.12936367126E+01  0.51100000000E-03 0. -1.
    9000002    1    1    2    0    0  0.36360004280E+00  0.70043120745E-01  0.10274871661E+00  0.10136628279E+01  0.93800000000E+00 0.  1.
         22    1    1    2    0    0 -0.37025450067E+00 -0.67730617693E-01  0.26036338214E+01  0.26307004595E+01  0.00000000000E+00 0. -1.
</event>
<event>
 5    1  0.5849602E+001  0.1594408E+01  0.7818608E-02  0.3359455E+00
         11   -1    0    0    0    0  0.00000000000E+00  0.00000000000E+00  0.39999999674E+01  0.40000000000E+01  0.51100000000E-03 0. -1.
    9000002   -1    0    0    0    0 -0.00000000000E+00 -0.00000000000E+00  0.00000000000E+00  0.93800000000E+00  0.93800000000E+00 0. -1.
         11    1    1    2    0    0 -0.20633540544E-01  0.68236620601E-01  0.13293041718E+01  0.13312144161E+01  0.51100000000E-03 0. -1.
    9000002    1    1    2    0    0  0.29236916096E+00 -0.12265777519E+00  0.71344470371E-01  0.99270271962E+00  0.93800000000E+00 0. -1.
         22    1    1    2    0    0 -0.27173562041E+00  0.54421154588E-01  0.25993513252E+01  0.26140828642E+01  0.00000000000E+00 0. -1.
</event>
<event>
 5    1  0.5849602E+001  0.1598538E+01  0.7818608E-02  0.3354952E+00
         11   -1    0    0    0    0  0.00000000000E+00  0.00000000000E+00  0.39999999674E+01  0.40000000000E+01  0.51100000000E-03 0. -1.
    9000002   -1    0    0    0    0 -0.00000000000E+00 -0.00000000000E+00  0.00000000000E+00  0.93800000000E+00  0.93800000000E+00 0. -1.
         11    1    1    2    0    0 -0.20407859107E+00 -0.39765523134E-01  0.13881903176E+01  0.14036744591E+01  0.51100000000E-03 0. -1.
    9000002    1    1    2    0    0  0.60845330429E+00  0.18768978217E-01  0.26017742228E+00  0.11480871000E+01  0.93800000000E+00 0. -1.
         22    1    1    2    0    0 -0.40437471322E+00  0.20996544917E-01  0.23516322275E+01  0.23862384410E+01  0.00000000000E+00 0. -1.
</event>
<event>
 5    1  0.5849602E+001  0.1599677E+01  0.7818608E-02  0.3353714E+00
         11   -1    0    0    0    0  0.00000000000E+00  0.00000000000E+00  0.39999999674E+01  0.40000000000E+01  0.51100000000E-03 0. -1.
    9000002   -1    0    0    0    0 -0.00000000000E+00 -0.00000000000E+00  0.00000000000E+00  0.93800000000E+00  0.93800000000E+00 0.  1.
         11    1    1    2    0    0  0.10022410891E+00 -0.28680488111E-01  0.11255974515E+01  0.11304146701E+01  0.51100000000E-03 0. -1.
    9000002    1    1    2    0    0 -0.34725474833E+00  0.99418901640E-01  0.87591703969E-01  0.10089530637E+01  0.93800000000E+00 0.  1.
         22    1    1    2    0    0  0.24703063941E+00 -0.70738413529E-01  0.27868108119E+01  0.27986322662E+01  0.00000000000E+00 0. -1.
</event>
<event>
 5    1  0.5849602E+001  0.1599642E+01  0.7818608E-02  0.3353752E+00
         11   -1    0    0    0    0  0.00000000000E+00  0.00000000000E+00  0.39999999674E+01  0.40000000000E+01  0.51100000000E-03 0.  1.
    9000002   -1    0    0    0    0 -0.00000000000E+00 -0.00000000000E+00  0.00000000000E+00  0.93800000000E+00  0.93800000000E+00 0.  1.
         11    1    1    2    0    0  0.28651745547E-01  0.70665634026E-03  0.27270820202E+00  0.27421058779E+00  0.51100000000E-03 0.  1.
    9000002    1    1    2    0    0 -0.36300415900E+00  0.88830634160E-02  0.88566195658E-01  0.10097221892E+01  0.93800000000E+00 0.  1.
         22    1    1    2    0    0  0.33435241346E+00 -0.95897197562E-02  0.36387255697E+01  0.36540672230E+01  0.00000000000E+00 0.  1.
</event>
<event>
 5    1  0.5849602E+001  0.1599215E+01  0.7818608E-02  0.3354216E+00
         11   -1    0    0    0    0  0.00000000000E+00  0.00000000000E+00  0.39999999674E+01  0.40000000000E+01  0.51100000000E-03 0.  1.
    9000002   -1    0    0    0    0 -0.00000000000E+00 -0.00000000000E+00  0.00000000000E+00  0.93800000000E+00  0.93800000000E+00 0.  1.
         11    1    1    2    0    0  0.54705955333E-01 -0.15232148019E+00  0.83387339423E+00  0.84943491429E+00  0.51100000000E-03 0.  1.
    9000002    1    1    2    0    0 -0.14503613323E+00  0.67365523551E+00  0.33888908168E+00  0.12122444745E+01  0.93800000000E+00 0.  1.
         22    1    1    2    0    0  0.90330177893E-01 -0.52133375531E+00  0.28272374914E+01  0.28763206112E+01  0.00000000000E+00 0.  1.
</event>
<event>
 5    1  0.5849602E+001  0.1599674E+01  0.7818608E-02  0.3353717E+00
         11   -1    0    0    0    0  0.00000000000E+00  0.00000000000E+00  0.39999999674E+01  0.40000000000E+01  0.51100000000E-03 0.  1.
    9000002   -1    0    0    0    0 -0.00000000000E+00 -0.00000000000E+00  0.00000000000E+00  0.93800000000E+00  0.93800000000E+00 0. -1.
         11    1    1    2    0    0  0.69209998449E-02  0.26826414317E-01  0.28884250169E+00  0.29016858659E+00  0.51100000000E-03 0.  1.
    9000002    1    1    2    0    0 -0.87976024095E-01 -0.37474999709E+00  0.99762224455E-01  0.10188100130E+01  0.93800000000E+00 0. -1.
         22    1    1    2    0    0  0.81055024250E-01  0.34792358277E+00  0.36113952412E+01  0.36290214004E+01  0.00000000000E+00 0.  1.
</event>
<event>
 5    1  0.5849602E+001  0.1594505E+01  0.7818608E-02  0.3359349E+00
         11   -1    0    0    0    0  0.00000000000E+00  0.00000000000E+00  0.39999999674E+01  0.40000000000E+01  0.51100000000E-03 0.  1.
    9000002   -1    0    0    0    0 -0.00000000000E+00 -0.00000000000E+00  0.00000000000E+00  0.93800000000E+00  0.93800000000E+00 0.  1.
         11    1    1    2    0    0 -0.14189519554E+00  0.66351890822E-01  0.10667398969E+01  0.10781795253E+01  0.51100000000E-03 0.  1.
    9000002    1    1    2    0    0  0.24427970477E+00 -0.31255056038E+00  0.11040365593E+00  0.10243990405E+01  0.93800000000E+00 0.  1.
         22    1    1    2    0    0 -0.10238450923E+00  0.24619866956E+00  0.28228564145E+01  0.28354214342E+01  0.00000000000E+00 0.  1.
</event>
<event>
 5    1  0.5849602E+001  0.1598374E+01  0.7818608E-02  0.3355130E+00
         11   -1    0    0    0    0  0.00000000000E+00  0.00000000000E+00  0.39999999674E+01  0.40000000000E+01  0.51100000000E-03 0.  1.
    9000002   -1    0    0    0    0 -0.00000000000E+00 -0.00000000000E+00  0.00000000000E+00  0.93800000000E+00  0.93800000000E+00 0. -1.
         11    1    1    2    0    0  0.60461247324E-01  0.64755534590E-01  0.11414203851E+01  0.11448535270E+01  0.51100000000E-03 0.  1.
    9000002    1    1    2    0    0 -0.11665659742E+00 -0.32293822978E+00  0.80040319977E-01  0.10020720108E+01  0.93800000000E+00 0. -1.
         22    1    1    2    0    0  0.56195350092E-01  0.25818269519E+00  0.27785392623E+01  0.27910744622E+01  0.00000000000E+00 0.  1.
</event>
<event>
 5    1  0.6089559E+001  0.1599112E+01  0.7818608E-02  0.3354327E+00
         11   -1    0    0    0    0  0.00000000000E+00  0.00000000000E+00  0.39999999674E+01  0.40000000000E+01  0.51100000000E-03 0. -1.
    9000002   -1    0    0    0    0 -0.00000000000E+00 -0.00000000000E+00  0.00000000000E+00  0.93800000000E+00  0.93800000000E+00 0.  1.
         11    1    1    2    0    0 -0.48583251644E-01  0.71839521154E-01  0.12098263294E+01  0.12129308544E+01  0.51100000000E-03 0. -1.
    9000002    1    1    2    0    0  0.24303772890E+00 -0.23895094628E+00  0.78264453586E-01  0.10010665398E+01  0.93800000000E+00 0.  1.
         22    1    1    2    0    0 -0.19445447725E+00  0.16711142512E+00  0.27119091844E+01  0.27240026058E+01  0.00000000000E+00 0. -1.
</event>
<event>
 5    1  0.5849602E+001  0.1599667E+01  0.7818608E-02  0.3353725E+00
         11   -1    0    0    0    0  0.00000000000E+00  0.00000000000E+00  0.39999999674E+01  0.40000000000E+01  0.51100000000E-03 0.  1.
    9000002   -1    0    0    0    0 -0.00000000000E+00 -0.00000000000E+00  0.00000000000E+00  0.93800000000E+00  0.93800000000E+00 0.  1.
         11    1    1    2    0    0  0.25493692816E-01 -0.17188623251E-01  0.32132443914E+00  0.32279255482E+00  0.51100000000E-03 0.  1.
    9000002    1    1    2    0    0 -0.31370901775E+00  0.23344550749E+00  0.10303248357E+00  0.10214547692E+01  0.93800000000E+00 0.  1.
         22    1    1    2    0    0  0.28821532493E+00 -0.21625688424E+00  0.35756430447E+01  0.35937526760E+01  0.00000000000E+00 0.  1.
</event>
<event>
 5    1  0.5849602E+001  0.1473529E+01  0.7818608E-02  0.3503213E+00
         11   -1    0    0    0    0  0.00000000000E+00  0.00000000000E+00  0.39999999674E+01  0.40000000000E+01  0.51100000000E-03 0. -1.
    9000002   -1    0    0    0    0 -0.00000000000E+00 -0.00000000000E+00  0.00000000000E+00  0.93800000000E+00  0.93800000000E+00 0. -1.
         11    1    1    2    0    0 -0.52987505829E+00  0.65085255621E-01  0.11678642330E+01  0.12840992157E+01  0.51100000000E-03 0. -1.
    9000002    1    1    2    0    0  0.27048322078E+00  0.33154982122E+00  0.29426350596E+00  0.10721573894E+01  0.93800000000E+00 0. -1.
         22    1    1    2    0    0  0.25939183752E+00 -0.39663507684E+00  0.25378722284E+01  0.25817433949E+01  0.00000000000E+00 0. -1.
</event>
<event>
 5    1  0.5849602E+001  0.1498290E+01  0.7818608E-02  0.3471737E+00
         11   -1    0    0    0    0  0.00000000000E+00  0.00000000000E+00  0.39999999674E+01  0.40000000000E+01  0.51100000000E-03 0.  1.
    9000002   -1    0    0    0    0 -0.00000000000E+00 -0.00000000000E+00  0.00000000000E+00  0.93800000000E+00  0.93800000000E+00 0.  1.
         11    1    1    2    0    0  0.53149872417E+00 -0.12858978769E+00  0.12135931952E+01  0.13311029005E+01  0.51100000000E-03 0.  1.
    9000002    1    1    2    0    0 -0.24765128885E+00 -0.35535746497E+00  0.32608197073E+00  0.10834129132E+01  0.93800000000E+00 0.  1.
         22    1    1    2    0    0 -0.28384743531E+00  0.48394725266E+00  0.24603248014E+01  0.25234841863E+01  0.00000000000E+00 0.  1.
</event>
<event>
 5    1  0.5849602E+001  0.1598846E+01  0.7818608E-02  0.3354617E+00
         11   -1    0    0    0    0  0.00000000000E+00  0.00000000000E+00  0.39999999674E+01  0.40000000000E+01  0.51100000000E-03 0. -1.
    9000002   -1    0    0    0    0 -0.00000000000E+00 -0.00000000000E+00  0.00000000000E+00  0.93800000000E+00  0.93800000000E+00 0. -1.
         11    1    1    2    0    0 -0.56036731306E+00 -0.88332038462E-02  0.12805699999E+01  0.13978373785E+01  0.51100000000E-03 0. -1.
    9000002    1    1    2    0    0  0.11863217774E+01  0.88155640716E-01  0.13369231627E+01  0.20204797251E+01  0.93800000000E+00 0. -1.
         22    1    1    2    0    0 -0.62595446434E+00 -0.79322436870E-01  0.13825068047E+01  0.15196828964E+01  0.00000000000E+00 0. -1.
</event>
<event>
 5    1  0.5849602E+001  0.1467232E+01  0.7818608E-02  0.3511401E+00
         11   -1    0    0    0    0  0.00000000000E+00  0.00000000000E+00  0.39999999674E+01  0.40000000000E+01  0.51100000000E-03 0.  1.
    9000002   -1    0    0    0    0 -0.00000000000E+00 -0.00000000000E+00  0.00000000000E+00  0.93800000000E+00  0.93800000000E+00 0.  1.
         11    1    1    2    0    0 -0.84607027438E-01 -0.31829195618E+00  0.63087500439E+00  0.71166821676E+00  0.51100000000E-03 0.  1.
    9000002    1    1    2    0    0  0.14266193377E+00 -0.33435375094E-01  0.11910337016E+00  0.95681762339E+00  0.93800000000E+00 0.  1.
         22    1    1    2    0    0 -0.58054906331E-01  0.35172733128E+00  0.32500215928E+01  0.32695141598E+01  0.00000000000E+00 0.  1.
</event>
<event>
 5    1  0.5849602E+001  0.1579069E+01  0.7818608E-02  0.3376400E+00
         11   -1    0    0    0    0  0.00000000000E+00  0.00000000000E+00  0.39999999674E+01  0.40000000000E+01  0.51100000000E-03 0.  1.
    9000002   -1    0    0    0    0 -0.00000000000E+00 -0.00000000000E+00  0.00000000000E+00  0.93800000000E+00  0.93800000000E+00 0.  1.
         11    1    1    2    0    0 -0.10391720998E+00 -0.49345570254E-01  0.12357591056E+01  0.12411021714E+01  0.51100000000E-03 0.  1.
    9000002    1    1    2    0    0 -0.17420972807E+00  0.23123584564E+00  0.72083025569E-01  0.98430635894E+00  0.93800000000E+00 0.  1.
         22    1    1    2    0    0  0.27812693806E+00 -0.18189027539E+00  0.26921578362E+01  0.27125914696E+01  0.00000000000E+00 0.  1.
</event>
<event>
 5    1  0.5849602E+001  0.1577649E+01  0.7818608E-02  0.3377986E+00
         11   -1    0    0    0    0  0.00000000000E+00  0.00000000000E+00  0.39999999674E+01  0.40000000000E+01  0.51100000000E-03 0.  1.
    9000002   -1    0    0    0    0 -0.00000000000E+00 -0.00000000000E+00  0.00000000000E+00  0.93800000000E+00  0.93800000000E+00 0.  1.
         11    1    1    2    0    0  0.13554129483E+00  0.85767443477E-01  0.12318647023E+01  0.12422634193E+01  0.51100000000E-03 0.  1.
    9000002    1    1    2    0    0  0.93156994779E-01 -0.33088398622E+00  0.97060635586E-01  0.10037067326E+01  0.93800000000E+00 0.  1.
         22    1    1    2    0    0 -0.22869828961E+00  0.24511654275E+00  0.26710746294E+01  0.26920298481E+01  0.00000000000E+00 0. -1.
</event>
<event>
 5    1  0.5849602E+001  0.1599287E+01  0.7818608E-02  0.3354138E+00
         11   -1    0    0    0    0  0.00000000000E+00  0.00000000000E+00  0.39999999674E+01  0.40000000000E+01  0.51100000000E-03 0. -1.
    9000002   -1    0    0    0    0 -0.00000000000E+00 -0.00000000000E+00  0.00000000000E+00  0.93800000000E+00  0.93800000000E+00 0. -1.
         11    1    1    2    0    0  0.23576230313E-01  0.13333902295E+00  0.10258331886E+01  0.10347314268E+01  0.51100000000E-03 0. -1.
    9000002    1    1    2    0    0 -0.35201304502E-01 -0.44379611746E+00  0.13485113106E+00  0.10470066634E+01  0.93800000000E+00 0. -1.
         22    1    1    2    0    0  0.11625074188E-01  0.31045709451E+00  0.28393156477E+01  0.28562619097E+01  0.00000000000E+00 0. -1.
</event>
<event>
 5    1  0.5849602E+001  0.1452726E+01  0.7818608E-02  0.3530558E+00
         11   -1    0    0    0    0  0.00000000000E+00  0.00000000000E+00  0.39999999674E+01  0.40000000000E+01  0.51100000000E-03 0.  1.
    9000002   -1    0    0    0    0 -0.00000000000E+00 -0.00000000000E+00  0.00000000000E+00  0.93800000000E+00  0.93800000000E+00 0. -1.
         11    1    1    2    0    0  0.57777397489E-01  0.14945310363E+00  0.10801297328E+00  0.19323954400E+00  0.51100000000E-03 0.  1.
    9000002    1    1    2    0    0  0.26515147568E+00  0.46588726674E+00  0.35060082755E+00  0.11358350191E+01  0.93800000000E+00 0. -1.
         22    1    1    2    0    0 -0.32292887317E+00 -0.61534037037E+00  0.35413861665E+01  0.36089254369E+01  0.00000000000E+00 0.  1.
</event>
<event>
 5    1  0.5849602E+001  0.1599673E+01  0.7818608E-02  0.3353718E+00
         11   -1    0    0    0    0  0.00000000000E+00  0.00000000000E+00  0.39999999674E+01  0.40000000000E+01  0.51100000000E-03 0. -1.
    9000002   -1    0    0    0    0 -0.00000000000E+00 -0.00000000000E+00  0.00000000000E+00  0.93800000000E+00  0.93800000000E+00 0.  1.
         11    1    1    2    0    0 -0.16895294959E+00  0.31769155304E-01  0.14605858031E+01  0.14706683949E+01  0.51100000000E-03 0. -1.
    9000002    1    1    2    0    0  0.44177229708E+00 -0.81177474154E-01  0.13701339638E+00  0.10489848500E+01  0.93800000000E+00 0.  1.
         22    1    1    2    0    0 -0.27281934749E+00  0.49408318850E-01  0.24024007679E+01  0.24183467551E+01  0.00000000000E+00 0.  1.
</event>
<event>
 5    1  0.5849602E+001  0.1563139E+01  0.7818608E-02  0.3394369E+00
         11   -1    0    0    0    0  0.00000000000E+00  0.00000000000E+00  0.39999999674E+01  0.40000000000E+01  0.51100000000E-03 0. -1.
    9000002   -1    0    0    0    0 -0.00000000000E+00 -0.00000000000E+00  0.00000000000E+00  0.93800000000E+00  0.93800000000E+00 0.  1.
         11    1    1    2    0    0 -0.76076030526E-01 -0.85561304400E-01  0.44289134475E+00  0.45745087562E+00  0.51100000000E-03 0. -1.
    9000002    1    1    2    0    0 -0.33790827737E+00 -0.49523704857E-01  0.10800419612E+00  0.10040634978E+01  0.93800000000E+00 0.  1.
         22    1    1    2    0    0  0.41398430789E+00  0.13508500926E+00  0.34491044265E+01  0.34764856266E+01  0.00000000000E+00 0. -1.
</event>
<event>
 5    1  0.5849602E+001  0.1582776E+01  0.7818608E-02  0.3372273E+00
         11   -1    0    0    0    0  0.00000000000E+00  0.00000000000E+00  0.39999999674E+01  0.40000000000E+01  0.51100000000E-03 0.  1.
    9000002   -1    0    0    0    0 -0.00000000000E+00 -0.00000000000E+00  0.00000000000E+00  0.93800000000E+00  0.93800000000E+00 0. -1.
         11    1    1    2    0    0 -0.47792939872E-01  0.50339295550E-01  0.10388679402E+01  0.10411844544E+01  0.51100000000E-03 0.  1.
    9000002    1    1    2    0    0 -0.25670557023E+00  0.94741277079E-01  0.63003967218E-01  0.97912571167E+00  0.93800000000E+00 0. -1.
         22    1    1    2    0    0  0.30449851011E+00 -0.14508057263E+00  0.28981280600E+01  0.29176898340E+01  0.00000000000E+00 0.  1.
</event>
<event>
 5    1  0.5849602E+001  0.1599677E+01  0.7818608E-02  0.3353714E+00
         11   -1    0    0    0    0  0.00000000000E+00  0.00000000000E+00  0.39999999674E+01  0.40000000000E+01  0.51100000000E-03 0.  1.
    9000002   -1    0    0    0    0 -0.00000000000E+00 -0.00000000000E+00  0.00000000000E+00  0.93800000000E+00  0.93800000000E+00 0.  1.
         11    1    1    2    0    0  0.45932443008E-01 -0.39799408656E-01  0.62744382508E+00  0.63038067626E+00  0.51100000000E-03 0. -1.
    9000002    1    1    2    0    0 -0.28705368063E+00  0.24705251818E+00  0.96494032295E-01  0.10161642882E+01  0.93800000000E+00 0.  1.
         22    1    1    2    0    0  0.24112123762E+00 -0.20725310953E+00  0.32760621100E+01  0.32914550356E+01  0.00000000000E+00 0.  1.
</event>
<event>
 5    1  0.6343490E+001  0.1548915E+01  0.7818608E-02  0.3410747E+00
         11   -1    0    0    0    0  0.00000000000E+00  0.00000000000E+00  0.39999999674E+01  0.40000000000E+01  0.51100000000E-03 0. -1.
    9000002   -1    0    0    0    0 -0.00000000000E+00 -0.00000000000E+00  0.00000000000E+00  0.93800000000E+00  0.93800000000E+00 0.  1.
         11    1    1    2    0    0  0.18516320597E+00  0.33181893007E-01  0.74304239622E+00  0.76648464731E+00  0.51100000000E-03 0. -1.
    9000002    1    1    2    0    0  0.13609274634E+00 -0.31986333657E-01  0.51243645302E-01  0.94974431945E+00  0.93800000000E+00 0.  1.
         22    1    1    2    0    0 -0.32125595232E+00 -0.11955593494E-02  0.32057139258E+01  0.32217710332E+01  0.00000000000E+00 0. -1.
</event>
<event>
 5    1  0.5849602E+001  0.1581592E+01  0.7818608E-02  0.3373589E+00
         11   -1    0    0    0    0  0.00000000000E+00  0.00000000000E+00  0.39999999674E+01  0.40000000000E+01  0.51100000000E-03 0. -1.
    9000002   -1    0    0    0    0 -0.00000000000E+00 -0.00000000000E+00  0.00000000000E+00  0.93800000000E+00  0.93800000000E+00 0. -1.
         11    1    1    2    0    0 -0.14389500801E+00 -0.83400937137E-01  0.91166240605E+00  0.92670928201E+00  0.51100000000E-03 0. -1.
    9000002    1    1    2    0    0  0.29597946265E-01  0.33377444942E+00  0.89740790441E-01  0.10000894115E+01  0.93800000000E+00 0. -1.
         22    1    1    2    0    0  0.11429706174E+00 -0.25037351228E+00  0.29985967709E+01  0.30112013065E+01  0.00000000000E+00 0. -1.
</event>
<event>
 5    1  0.5849602E+001  0.1596122E+01  0.7818608E-02  0.3357583E+00
         11   -1    0    0    0    0  0.00000000000E+00  0.00000000000E+00  0.39999999674E+01  0.40000000000E+01  0.51100000000E-03 0.  1.
    9000002   -1    0    0    0    0 -0.00000000000E+00 -0.00000000000E+00  0.00000000000E+00  0.93800000000E+00  0.93800000000E+00 0.  1.
         11    1    1    2    0    0 -0.20516468861E-01 -0.15973907905E-01  0.95781755465E+00  0.95817055911E+00  0.51100000000E-03 0.  1.
    9000002    1    1    2    0    0  0.11827780432E+00  0.31589087319E+00  0.79029658398E-01  0.99993318260E+00  0.93800000000E+00 0.  1.
         22    1    1    2    0    0 -0.97761335461E-01 -0.29991696529E+00  0.29631527543E+01  0.29798962583E+01  0.00000000000E+00 0.  1.
</event>
<event>
 5    1  0.5849602E+001  0.1599640E+01  0.7818608E-02  0.3353755E+00
         11   -1    0    0    0    0  0.00000000000E+00  0.00000000000E+00  0.39999999674E+01  0.40000000000E+01  0.51100000000E-03 0.  1.
    9000002   -1    0    0    0    0 -0.00000000000E+00 -0.00000000000E+00  0.00000000000E+00  0.93800000000E+00  0.93800000000E+00 0. -1.
         11    1    1    2    0    0 -0.41719923442E-01 -0.46316993706E-01  0.75180020688E+00  0.75438029408E+00  0.51100000000E-03 0.  1.
    9000002    1    1    2    0    0  0.22900509598E+00  0.26918565598E+00  0.83811541298E-01  0.10058690898E+01  0.93800000000E+00 0. -1.
         22    1    1    2    0    0 -0.18728517254E+00 -0.22286866228E+00  0.31643882192E+01  0.31777506161E+01  0.00000000000E+00 0.  1.
</event>
<event>
 5    1  0.5849602E+001  0.1599676E+01  0.7818608E-02  0.3353715E+00
         11   -1    0    0    0    0  0.00000000000E+00  0.00000000000E+00  0.39999999674E+01  0.40000000000E+01  0.51100000000E-03 0. -1.
    9000002   -1    0    0    0    0 -0.00000000000E+00 -0.00000000000E+00  0.00000000000E+00  0.93800000000E+00  0.93800000000E+00 0. -1.
         11    1    1    2    0    0 -0.88758498095E-01 -0.12079490740E+00  0.10872164195E+01  0.10975013825E+01  0.51100000000E-03 0. -1.
    9000002    1    1    2    0    0  0.31426536209E+00  0.42308544349E+00  0.19104061076E+00  0.10927508981E+01  0.93800000000E+00 0. -1.
         22    1    1    2    0    0 -0.22550686399E+00 -0.30229053609E+00  0.27217429371E+01  0.27477477195E+01  0.00000000000E+00 0. -1.
</event>
<event>
 5    1  0.5849602E+001  0.1599659E+01  0.7818608E-02  0.3353734E+00
         11   -1    0    0    0    0  0.00000000000E+00  0.00000000000E+00  0.39999999674E+01  0.40000000000E+01  0.51100000000E-03 0. -1.
    9000002   -1    0    0    0    0 -0.00000000000E+00 -0.00000000000E+00  0.00000000000E+00  0.93800000000E+00  0.93800000000E+00 0. -1.
         11    1    1    2    0    0  0.64355134772E-01  0.52305255650E-01  0.84032765146E+00  0.84440999880E+00  0.51100000000E-03 0. -1.
    9000002    1    1    2    0    0 -0.28593753698E+00 -0.25746936512E+00  0.99687339602E-01  0.10187405532E+01  0.93800000000E+00 0. -1.
         22    1    1    2    0    0  0.22158240221E+00  0.20516410947E+00  0.30599849763E+01  0.30748494480E+01  0.00000000000E+00 0. -1.
</event>
<event>
 5    1  0.5849602E+001  0.1599674E+01  0.7818608E-02  0.3353717E+00
         11   -1    0    0    0    0  0.00000000000E+00  0.00000000000E+00  0.39999999674E+01  0.40000000000E+01  0.51100000000E-03 0. -1.
    9000002   -1    0    0    0    0 -0.00000000000E+00 -0.00000000000E+00  0.00000000000E+00  0.93800000000E+00  0.93800000000E+00 0.  1.
         11    1    1    2    0    0 -0.12390503637E-01  0.29193308744E-01  0.31927898739E+00  0.32085059883E+00  0.51100000000E-03 0. -1.
    9000002    1    1    2    0    0  0.16302976110E+00 -0.35588025035E+00  0.10324643378E+00  0.10216326550E+01  0.93800000000E+00 0.  1.
         22    1    1    2    0    0 -0.15063925746E+00  0.32668694160E+00  0.35774745462E+01  0.35955167462E+01  0.00000000000E+00 0. -1.
</event>
<event>
 5    1  0.5849602E+001  0.1599354E+01  0.7818608E-02  0.3354065E+00
         11   -1    0    0    0    0  0.00000000000E+00  0.00000000000E+00  0.39999999674E+01  0.40000000000E+01  0.51100000000E-03 0. -1.
    9000002   -1    0    0    0    0 -0.00000000000E+00 -0.00000000000E+00  0.00000000000E+00  0.93800000000E+00  0.93800000000E+00 0. -1.
         11    1    1    2    0    0 -0.21197983073E-01 -0.22593013798E-01  0.20455725108E+00  0.20689062050E+00  0.51100000000E-03 0. -1.
    9000002    1    1    2    0    0  0.22258975882E+00  0.47805229850E+00  0.19156576006E+00  0.10929874845E+01  0.93800000000E+00 0. -1.
         22    1    1    2    0    0 -0.20139177575E+00 -0.45545928470E+00  0.36038769562E+01  0.36381218950E+01  0.00000000000E+00 0. -1.
</event>
<event>
 5    1  0.5849602E+001  0.1566001E+01  0.7818608E-02  0.3391112E+00
         11   -1    0    0    0    0  0.00000000000E+00  0.00000000000E+00  0.39999999674E+01  0.40000000000E+01  0.51100000000E-03 0.  1.
    9000002   -1    0    0    0    0 -0.00000000000E+00 -0.00000000000E+00  0.00000000000E+00  0.93800000000E+00  0.93800000000E+00 0. -1.
         11    1    1    2    0    0  0.70358178581E-01  0.97584678102E-01  0.52850698623E+00  0.54202669520E+00  0.51100000000E-03 0.  1.
    9000002    1    1    2    0    0  0.16300146669E+00  0.16193769028E+00  0.60986222823E-01  0.96765521393E+00  0.93800000000E+00 0. -1.
         22    1    1    2    0    0 -0.23335964527E+00 -0.25952236838E+00  0.34105067583E+01  0.34283180909E+01  0.00000000000E+00 0.  1.
</event>
<event>
 5    1  0.5849602E+001  0.1598778E+01  0.7818608E-02  0.3354690E+00
         11   -1    0    0    0    0  0.00000000000E+00  0.00000000000E+00  0.39999999674E+01  0.40000000000E+01  0.51100000000E-03 0.  1.
    9000002   -1    0    0    0    0 -0.00000000000E+00 -0.00000000000E+00  0.00000000000E+00  0.93800000000E+00  0.93800000000E+00 0. -1.
         11    1    1    2    0    0 -0.30396028596E-01  0.12230006192E-01  0.63480705918E+00  0.63565222812E+00  0.51100000000E-03 0.  1.
    9000002    1    1    2    0    0  0.34978083086E+00 -0.99419471137E-01  0.89528536207E-01  0.10099951582E+01  0.93800000000E+00 0. -1.
         22    1    1    2    0    0 -0.31938480227E+00  0.87189464944E-01  0.32756643720E+01  0.32923526136E+01  0.00000000000E+00 0.  1.
</event>
<event>
 5    1  0.5849602E+001  0.1599628E+01  0.7818608E-02  0.3353767E+00
         11   -1    0    0    0    0  0.00000000000E+00  0.00000000000E+00  0.39999999674E+01  0.40000000000E+01  0.51100000000E-03 0.  1.
    9000002   -1    0    0    0    0 -0.00000000000E+00 -0.00000000000E+00  0.00000000000E+00  0.93800000000E+00  0.93800000000E+00 0. -1.
         11    1    1    2    0    0 -0.50124300398E-01  0.10887827636E+00  0.12115578133E+01  0.12174725954E+01  0.51100000000E-03 0.  1.
    9000002    1    1    2    0    0  0.15023535675E+00 -0.37241644792E+00  0.10883927748E+00  0.10261357909E+01  0.93800000000E+00 0. -1.
         22    1    1    2    0    0 -0.10011105635E+00  0.26353817156E+00  0.26796028766E+01  0.26943916137E+01  0.00000000000E+00 0.  1.
</event>
<event>
 5    1  0.5849602E+001  0.1599661E+01  0.7818608E-02  0.3353731E+00
         11   -1    0    0    0    0  0.00000000000E+00  0.00000000000E+00  0.39999999674E+01  0.40000000000E+01  0.51100000000E-03 0. -1.
    9000002   -1    0    0    0    0 -0.00000000000E+00 -0.00000000000E+00  0.00000000000E+00  0.93800000000E+00  0.93800000000E+00 0.  1.
         11    1    1    2    0    0 -0.20698687316E-01  0.46731020075E-01  0.50488021575E+00  0.50746085295E+00  0.51100000000E-03 0. -1.
    9000002    1    1    2    0    0  0.18173695546E+00 -0.34974034941E+00  0.10471932120E+00  0.10228180528E+01  0.93800000000E+00 0.  1.
         22    1    1    2    0    0 -0.16103826814E+00  0.30300932933E+00  0.33904004304E+01  0.34077210942E+01  0.00000000000E+00 0. -1.
</event>
<event>
 5    1  0.5849602E+001  0.1599675E+01  0.7818608E-02  0.3353716E+00
         11   -1    0    0    0    0  0.00000000000E+00  0.00000000000E+00  0.39999999674E+01  0.40000000000E+01  0.51100000000E-03 0. -1.
    9000002   -1    0    0    0    0 -0.00000000000E+00 -0.00000000000E+00  0.00000000000E+00  0.93800000000E+00  0.93800000000E+00 0. -1.
         11    1    1    2    0    0 -0.10687421067E-01 -0.12321487095E-01  0.12206832013E+00  0.12315427688E+00  0.51100000000E-03 0.  1.
    9000002    1    1    2    0    0  0.33950314664E+00  0.38166979743E+00  0.17895463192E+00  0.10829602860E+01  0.93800000000E+00 0. -1.
         22    1    1    2    0    0 -0.32881572557E+00 -0.36934831033E+00  0.36989770153E+01  0.37318854371E+01  0.00000000000E+00 0. -1.
</event>
<event>
 5    1  0.8562033E+001  0.1599573E+01  0.7818608E-02  0.3353827E+00
         11   -1    0    0    0    0  0.00000000000E+00  0.00000000000E+00  0.39999999674E+01  0.40000000000E+01  0.51100000000E-03 0. -1.
    9000002   -1    0    0    0    0 -0.00000000000E+00 -0.00000000000E+00  0.00000000000E+00  0.93800000000E+00  0.93800000000E+00 0.  1.
         11    1    1    2    0    0  0.38937234902E-01  0.13541270646E+00  0.14782221714E+01  0.14849221389E+01  0.51100000000E-03 0. -1.
    9000002    1    1    2    0    0 -0.10342157394E+00 -0.38788533173E+00  0.10880596839E+00  0.10260768935E+01  0.93800000000E+00 0.  1.
         22    1    1    2    0    0  0.64484339039E-01  0.25247262526E+00  0.24129718276E+01  0.24270009677E+01  0.00000000000E+00 0. -1.
</event>
<event>
 5    1  0.5849602E+001  0.1556645E+01  0.7818608E-02  0.3401806E+00
         11   -1    0    0    0    0  0.00000000000E+00  0.00000000000E+00  0.39999999674E+01  0.40000000000E+01  0.51100000000E-03 0.  1.
    9000002   -1    0    0    0    0 -0.00000000000E+00 -0.00000000000E+00  0.00000000000E+00  0.93800000000E+00  0.93800000000E+00 0. -1.
         11    1    1    2    0    0 -0.44061638526E-01 -0.14761759481E+00  0.73795913034E+00  0.75386757554E+00  0.51100000000E-03 0.  1.
    9000002    1    1    2    0    0  0.16578166717E+00 -0.25161965637E+00  0.95081848988E-01  0.98978814433E+00  0.93800000000E+00 0. -1.
         22    1    1    2    0    0 -0.12172002864E+00  0.39923725118E+00  0.31669589880E+01  0.31943442801E+01  0.00000000000E+00 0.  1.
</event>
<event>
 5    1  0.5849602E+001  0.1583860E+01  0.7818608E-02  0.3371070E+00
         11   -1    0    0    0    0  0.00000000000E+00  0.00000000000E+00  0.39999999674E+01  0.40000000000E+01  0.51100000000E-03 0.  1.
    9000002   -1    0    0    0    0 -0.00000000000E+00 -0.00000000000E+00  0.00000000000E+00  0.93800000000E+00  0.93800000000E+00 0. -1.
         11    1    1    2    0    0 -0.71720283804E-02  0.92585926112E-01  0.79223698467E+00  0.79766113902E+00  0.51100000000E-03 0.  1.
    9000002    1    1    2    0    0 -0.47611300572E+00 -0.14739102443E+00  0.18437167350E+00  0.10780744976E+01  0.93800000000E+00 0. -1.
         22    1    1    2    0    0  0.48328503410E+00  0.54805098322E-01  0.30233913092E+01  0.30622643634E+01  0.00000000000E+00 0.  1.
</event>
<event>
 5    1  0.9697704E+001  0.1595684E+01  0.7818608E-02  0.3358061E+00
         11   -1    0    0    0    0  0.00000000000E+00  0.00000000000E+00  0.39999999674E+01  0.40000000000E+01  0.51100000000E-03 0. -1.
    9000002   -1    0    0    0    0 -0.00000000000E+00 -0.00000000000E+00  0.00000000000E+00  0.93800000000E+00  0.93800000000E+00 0.  1.
         11    1    1    2    0    0 -0.31835988261E-01 -0.12669499220E-02  0.14646718925E+01  0.14650184808E+01  0.51100000000E-03 0. -1.
    9000002    1    1    2    0    0  0.17048537163E+00 -0.17629444776E+00  0.42990343399E-01  0.97048295393E+00  0.93800000000E+00 0.  1.
         22    1    1    2    0    0 -0.13864938337E+00  0.17756139768E+00  0.24923377315E+01  0.25024985653E+01  0.00000000000E+00 0. -1.
</event>
<event>
 5    1  0.5849602E+001  0.1479864E+01  0.7818608E-02  0.3495052E+00
         11   -1    0    0    0    0  0.00000000000E+00  0.00000000000E+00  0.39999999674E+01  0.40000000000E+01  0.51100000000E-03 0. -1.
    9000002   -1    0    0    0    0 -0.00000000000E+00 -0.00000000000E+00  0.00000000000E+00  0.93800000000E+00  0.93800000000E+00 0. -1.
         11    1    1    2    0    0 -0.17493397618E+00  0.90085455341E-01  0.79035102196E-01  0.21204738571E+00  0.51100000000E-03 0. -1.
    9000002    1    1    2    0    0 -0.14443818963E+00 -0.28597559173E+00  0.23197865110E+00  0.10179894519E+01  0.93800000000E+00 0. -1.
         22    1    1    2    0    0  0.31937216581E+00  0.19589013639E+00  0.36889862141E+01  0.37079631624E+01  0.00000000000E+00 0. -1.
</event>
<event>
 5    1  0.5849602E+001  0.1599256E+01  0.7818608E-02  0.3354172E+00
         11   -1    0    0    0    0  0.00000000000E+00  0.00000000000E+00  0.39999999674E+01  0.40000000000E+01  0.51100000000E-03 0. -1.
    9000002   -1    0    0    0    0 -0.00000000000E+00 -0.00000000000E+00  0.00000000000E+00  0.93800000000E+00  0.93800000000E+00 0.  1.
         11    1    1    2    0    0 -0.13641331796E+00 -0.83564847482E-01  0.11837322545E+01  0.11944931931E+01  0.51100000000E-03 0. -1.
    9000002    1    1    2    0    0  0.38326804313E+00  0.31598575182E+00  0.16919446215E+00  0.10748079616E+01  0.93800000000E+00 0.  1.
         22    1    1    2    0    0 -0.24685472517E+00 -0.23242090433E+00  0.26470732507E+01  0.26686988453E+01  0.00000000000E+00 0. -1.
</event>
<event>
 5    1  0.5849602E+001  0.1555331E+01  0.7818608E-02  0.3403320E+00
         11   -1    0    0    0    0  0.00000000000E+00  0.00000000000E+00  0.39999999674E+01  0.40000000000E+01  0.51100000000E-03 0.  1.
    9000002   -1    0    0    0    0 -0.00000000000E+00 -0.00000000000E+00  0.00000000000E+00  0.93800000000E+00  0.93800000000E+00 0. -1.
         11    1    1    2    0    0 -0.19192945083E+00  0.14130691550E-01  0.11228225495E+01  0.11391959135E+01  0.51100000000E-03 0.  1.
    9000002    1    1    2    0    0 -0.12758249396E+00 -0.41156453779E-03  0.44026236953E-01  0.94766015622E+00  0.93800000000E+00 0. -1.
         22    1    1    2    0    0  0.31951194479E+00 -0.13719127012E-01  0.28331511809E+01  0.28511439303E+01  0.00000000000E+00 0.  1.
</event>
<event>
 5    1  0.5849602E+001  0.1517814E+01  0.7818608E-02  0.3447699E+00
         11   -1    0    0    0    0  0.00000000000E+00  0.00000000000E+00  0.39999999674E+01  0.40000000000E+01  0.51100000000E-03 0. -1.
    9000002   -1    0    0    0    0 -0.00000000000E+00 -0.00000000000E+00  0.00000000000E+00  0.93800000000E+00  0.93800000000E+00 0. -1.
         11    1    1    2    0    0  0.25276523890E+00 -0.22025982998E+00  0.11633522062E+01  0.12106994984E+01  0.51100000000E-03 0. -1.
    9000002    1    1    2    0    0 -0.22998984039E-01  0.76108762186E-01  0.66288726603E-01  0.94369470287E+00  0.93800000000E+00 0. -1.
         22    1    1    2    0    0 -0.22976625487E+00  0.14415106779E+00  0.27703590346E+01  0.27836057987E+01  0.00000000000E+00 0.  1.
</event>
<event>
 5    1  0.5849602E+001  0.1599672E+01  0.7818608E-02  0.3353719E+00
         11   -1    0    0    0    0  0.00000000000E+00  0.00000000000E+00  0.39999999674E+01  0.40000000000E+01  0.51100000000E-03 0. -1.
    9000002   -1    0    0    0    0 -0.00000000000E+00 -0.00000000000E+00  0.00000000000E+00  0.93800000000E+00  0.93800000000E+00 0. -1.
         11    1    1    2    0    0 -0.39291714693E-01 -0.10085452149E+00  0.52881090506E+00  0.53977468242E+00  0.51100000000E-03 0. -1.
    9000002    1    1    2    0    0  0.27996734085E+00  0.68521064968E+00  0.39603309790E+00  0.12588016369E+01  0.93800000000E+00 0. -1.
         22    1    1    2    0    0 -0.24067562615E+00 -0.58435612819E+00  0.30751559644E+01  0.31394236807E+01  0.00000000000E+00 0. -1.
</event>
<event>
 5    1  0.6532052E+001  0.1599552E+01  0.7818608E-02  0.3353849E+00
         11   -1    0    0    0    0  0.00000000000E+00  0.00000000000E+00  0.39999999674E+01  0.40000000000E+01  0.51100000000E-03 0.  1.
    9000002   -1    0    0    0    0 -0.00000000000E+00 -0.00000000000E+00  0.00000000000E+00  0.93800000000E+00  0.93800000000E+00 0.  1.
         11    1    1    2    0    0  0.86918182117E-01  0.89569288826E-01  0.14447812591E+01  0.14501622584E+01  0.51100000000E-03 0.  1.
    9000002    1    1    2    0    0 -0.23173556640E+00 -0.27751340646E+00  0.87860564697E-01  0.10090978854E+01  0.93800000000E+00 0.  1.
         22    1    1    2    0    0  0.14481738428E+00  0.18794411763E+00  0.24673581435E+01  0.24787398562E+01  0.00000000000E+00 0.  1.
</event>
<event>
 5    1  0.5849602E+001  0.1599653E+01  0.7818608E-02  0.3353740E+00
         11   -1    0    0    0    0  0.00000000000E+00  0.00000000000E+00  0.39999999674E+01  0.40000000000E+01  0.51100000000E-03 0. -1.
    9000002   -1    0    0    0    0 -0.00000000000E+00 -0.00000000000E+00  0.00000000000E+00  0.93800000000E+00  0.93800000000E+00 0. -1.
         11    1    1    2    0    0  0.23782196138E-01 -0.78885807864E-01  0.81703586005E+00  0.82117989580E+00  0.51100000000E-03 0. -1.
    9000002    1    1    2    0    0 -0.94853460365E-01  0.36366099135E+00  0.95008532960E-01  0.10149468542E+01  0.93800000000E+00 0. -1.
         22    1    1    2    0    0  0.71071264227E-01 -0.28477518349E+00  0.30879555743E+01  0.31018732500E+01  0.00000000000E+00 0. -1.
</event>
<event>
 5    1  0.5849602E+001  0.1599677E+01  0.7818608E-02  0.3353714E+00
         11   -1    0    0    0    0  0.00000000000E+00  0.00000000000E+00  0.39999999674E+01  0.40000000000E+01  0.51100000000E-03 0. -1.
    9000002   -1    0    0    0    0 -0.00000000000E+00 -0.00000000000E+00  0.00000000000E+00  0.93800000000E+00  0.93800000000E+00 0. -1.
         11    1    1    2    0    0  0.16948122101E+00 -0.23929185385E-01  0.12779023331E+01  0.12893142070E+01  0.51100000000E-03 0. -1.
    9000002    1    1    2    0    0 -0.50803450730E+00  0.71848581297E-01  0.18062037357E+00  0.10843103793E+01  0.93800000000E+00 0. -1.
         22    1    1    2    0    0  0.33855328630E+00 -0.47919395911E-01  0.25414772607E+01  0.25643754138E+01  0.00000000000E+00 0. -1.
</event>
<event>
 5    1  0.5849602E+001  0.1577128E+01  0.7818608E-02  0.3378569E+00
         11   -1    0    0    0    0  0.00000000000E+00  0.00000000000E+00  0.39999999674E+01  0.40000000000E+01  0.51100000000E-03 0.  1.
    9000002   -1    0    0    0    0 -0.00000000000E+00 -0.00000000000E+00  0.00000000000E+00  0.93800000000E+00  0.93800000000E+00 0. -1.
         11    1    1    2    0    0  0.84882495183E-01 -0.40882687680E-01  0.14963622086E+01  0.14993253659E+01  0.51100000000E-03 0.  1.
    9000002    1    1    2    0    0 -0.14726916394E+00 -0.34542871280E+00  0.11351432044E+00  0.10167294149E+01  0.93800000000E+00 0. -1.
         22    1    1    2    0    0  0.62386668753E-01  0.38631140048E+00  0.23901234383E+01  0.24219452192E+01  0.00000000000E+00 0.  1.
</event>
<event>
 5    1  0.5849602E+001  0.1599278E+01  0.7818608E-02  0.3354147E+00
         11   -1    0    0    0    0  0.00000000000E+00  0.00000000000E+00  0.39999999674E+01  0.40000000000E+01  0.51100000000E-03 0.  1.
    9000002   -1    0    0    0    0 -0.00000000000E+00 -0.00000000000E+00  0.00000000000E+00  0.93800000000E+00  0.93800000000E+00 0. -1.
         11    1    1    2    0    0  0.16381740543E-01  0.16067018896E+00  0.74567122670E+00  0.76296075292E+00  0.51100000000E-03 0.  1.
    9000002    1    1    2    0    0 -0.97959222703E-01 -0.69173006587E+00  0.34914116683E+00  0.12205859444E+01  0.93800000000E+00 0. -1.
         22    1    1    2    0    0  0.81577482159E-01  0.53105987691E+00  0.29051875738E+01  0.29544533027E+01  0.00000000000E+00 0.  1.
</event>
<event>
 5    1  0.5849602E+001  0.1599637E+01  0.7818608E-02  0.3353758E+00
         11   -1    0    0    0    0  0.00000000000E+00  0.00000000000E+00  0.39999999674E+01  0.40000000000E+01  0.51100000000E-03 0.  1.
    9000002   -1    0    0    0    0 -0.00000000000E+00 -0.00000000000E+00  0.00000000000E+00  0.93800000000E+00  0.93800000000E+00 0.  1.
         11    1    1    2    0    0 -0.92681030390E-01  0.12084373250E+00  0.12976576774E+01  0.13065636954E+01  0.51100000000E-03 0.  1.
    9000002    1    1    2    0    0  0.25481640918E+00 -0.36304875790E+00  0.13352857754E+00  0.10461403749E+01  0.93800000000E+00 0.  1.
         22    1    1    2    0    0 -0.16213537879E+00  0.24220502540E+00  0.25688137124E+01  0.25852959297E+01  0.00000000000E+00 0.  1.
</event>
<event>
 5    1  0.5849602E+001  0.1599674E+01  0.7818608E-02  0.3353717E+00
         11   -1    0    0    0    0  0.00000000000E+00  0.00000000000E+00  0.39999999674E+01  0.40000000000E+01  0.51100000000E-03 0.  1.
    9000002   -1    0    0    0    0 -0.00000000000E+00 -0.00000000000E+00  0.00000000000E+00  0.93800000000E+00  0.93800000000E+00 0.  1.
         11    1    1    2    0    0  0.60928412231E-02 -0.39835956845E-02  0.70171050471E-01  0.70549480465E-01  0.51100000000E-03 0.  1.
    9000002    1    1    2    0    0 -0.32789247647E+00  0.23095842633E+00  0.10851750183E+00  0.10259021976E+01  0.93800000000E+00 0.  1.
         22    1    1    2    0    0  0.32179963525E+00 -0.22697483064E+00  0.38213114151E+01  0.38415483219E+01  0.00000000000E+00 0.  1.
</event>
<event>
 5    1  0.5849602E+001  0.1477720E+01  0.7818608E-02  0.3497806E+00
         11   -1    0    0    0    0  0.00000000000E+00  0.00000000000E+00  0.39999999674E+01  0.40000000000E+01  0.51100000000E-03 0. -1.
    9000002   -1    0    0    0    0 -0.00000000000E+00 -0.00000000000E+00  0.00000000000E+00  0.93800000000E+00  0.93800000000E+00 0. -1.
         11    1    1    2    0    0 -0.20029786200E+00  0.35119663550E-01  0.20270443890E+00  0.28712710593E+00  0.51100000000E-03 0. -1.
    9000002    1    1    2    0    0  0.49405315347E-01  0.26271547348E+00  0.14820978185E+00  0.98654469976E+00  0.93800000000E+00 0. -1.
         22    1    1    2    0    0  0.15089254666E+00 -0.29783513703E+00  0.36490857466E+01  0.36643281943E+01  0.00000000000E+00 0. -1.
</event>
<event>
 5    1  0.5849602E+001  0.1598943E+01  0.7818608E-02  0.3354511E+00
         11   -1    0    0    0    0  0.00000000000E+00  0.00000000000E+00  0.39999999674E+01  0.40000000000E+01  0.51100000000E-03 0.  1.
    9000002   -1    0    0    0    0 -0.00000000000E+00 -0.00000000000E+00  0.00000000000E+00  0.93800000000E+00  0.93800000000E+00 0.  1.
         11    1    1    2    0    0 -0.53513728344E-01  0.62412042608E-01  0.79110320682E+00  0.79536377032E+00  0.51100000000E-03 0.  1.
    9000002    1    1    2    0    0  0.29256156604E+00 -0.42475646620E+00  0.18326196903E+00  0.10860199238E+01  0.93800000000E+00 0.  1.
         22    1    1    2    0    0 -0.23904783769E+00  0.36234442359E+00  0.30256347915E+01  0.30566163059E+01  0.00000000000E+00 0.  1.
</event>
<event>
 5    1  0.5849602E+001  0.1599488E+01  0.7818608E-02  0.3353919E+00
         11   -1    0    0    0    0  0.00000000000E+00  0.00000000000E+00  0.39999999674E+01  0.40000000000E+01  0.51100000000E-03 0. -1.
    9000002   -1    0    0    0    0 -0.00000000000E+00 -0.00000000000E+00  0.00000000000E+00  0.93800000000E+00  0.93800000000E+00 0.  1.
         11    1    1    2    0    0 -0.77625505343E-01 -0.14832866699E+00  0.12662549221E+01  0.12772740118E+01  0.51100000000E-03 0. -1.
    9000002    1    1    2    0    0  0.27341607615E+00  0.42174597217E+00  0.17318342752E+00  0.10781755494E+01  0.93800000000E+00 0.  1.
         22    1    1    2    0    0 -0.19579057080E+00 -0.27341730518E+00  0.25605616178E+01  0.25825504388E+01  0.00000000000E+00 0. -1.
</event>
<event>
 5    1  0.5849602E+001  0.1599677E+01  0.7818608E-02  0.3353714E+00
         11   -1    0    0    0    0  0.00000000000E+00  0.00000000000E+00  0.39999999674E+01  0.40000000000E+01  0.51100000000E-03 0. -1.
    9000002   -1    0    0    0    0 -0.00000000000E+00 -0.00000000000E+00  0.00000000000E+00  0.93800000000E+00  0.93800000000E+00 0. -1.
         11    1    1    2    0    0  0.15261650671E+00  0.30273536105E-01  0.14178357144E+01  0.14263473137E+01  0.51100000000E-03 0. -1.
    9000002    1    1    2    0    0 -0.41872535198E+00 -0.82323819559E-01  0.12327464754E+00  0.10378577795E+01  0.93800000000E+00 0. -1.
         22    1    1    2    0    0  0.26610884527E+00  0.52050283454E-01  0.24588896054E+01  0.24737949069E+01  0.00000000000E+00 0. -1.
</event>
<event>
 5    1  0.5849602E+001  0.1599676E+01  0.7818608E-02  0.3353715E+00
         11   -1    0    0    0    0  0.00000000000E+00  0.00000000000E+00  0.39999999674E+01  0.40000000000E+01  0.51100000000E-03 0. -1.
    9000002   -1    0    0    0    0 -0.00000000000E+00 -0.00000000000E+00  0.00000000000E+00  0.93800000000E+00  0.93800000000E+00 0.  1.
         11    1    1    2    0    0 -0.14360105072E-01 -0.15376036618E-01  0.18184457814E+00  0.18305831540E+00  0.51100000000E-03 0.  1.
    9000002    1    1    2    0    0  0.31044079584E+00  0.32286651690E+00  0.13621441319E+00  0.10483389918E+01  0.93800000000E+00 0.  1.
         22    1    1    2    0    0 -0.29608069077E+00 -0.30749048028E+00  0.36819409760E+01  0.37066026928E+01  0.00000000000E+00 0. -1.
</event>
<event>
 5    1  0.5849602E+001  0.1486788E+01  0.7818608E-02  0.3486217E+00
         11   -1    0    0    0    0  0.00000000000E+00  0.00000000000E+00  0.39999999674E+01  0.40000000000E+01  0.51100000000E-03 0. -1.
    9000002   -1    0    0    0    0 -0.00000000000E+00 -0.00000000000E+00  0.00000000000E+00  0.93800000000E+00  0.93800000000E+00 0.  1.
         11    1    1    2    0    0  0.41164467469E+00  0.12589000129E+00  0.13581218062E+01  0.14247086482E+01  0.51100000000E-03 0. -1.
    9000002    1    1    2    0    0 -0.91433502016E-01 -0.14538405880E+00  0.10857295881E+00  0.95975449842E+00  0.93800000000E+00 0.  1.
         22    1    1    2    0    0 -0.32021117267E+00  0.19494057511E-01  0.25333052024E+01  0.25535368534E+01  0.00000000000E+00 0. -1.
</event>
<event>
 5    1  0.5849602E+001  0.1599676E+01  0.7818608E-02  0.3353715E+00
         11   -1    0    0    0    0  0.00000000000E+00  0.00000000000E+00  0.39999999674E+01  0.40000000000E+01  0.51100000000E-03 0. -1.
    9000002   -1    0    0    0    0 -0.00000000000E+00 -0.00000000000E+00  0.00000000000E+00  0.93800000000E+00  0.93800000000E+00 0.  1.
         11    1    1    2    0    0  0.33732075124E-01  0.99182668201E-01  0.76067843715E+00  0.76785871125E+00  0.51100000000E-03 0.  1.
    9000002    1    1    2    0    0 -0.16805889937E+00 -0.49201076587E+00  0.18568500568E+00  0.10884122880E+01  0.93800000000E+00 0.  1.
         22    1    1    2    0    0  0.13432682424E+00  0.39282809767E+00  0.30536365245E+01  0.30817290007E+01  0.00000000000E+00 0. -1.
</event>
<event>
 5    1  0.5849602E+001  0.1599669E+01  0.7818608E-02  0.3353723E+00
         11   -1    0    0    0    0  0.00000000000E+00  0.00000000000E+00  0.39999999674E+01  0.40000000000E+01  0.51100000000E-03 0. -1.
    9000002   -1    0    0    0    0 -0.00000000000E+00 -0.00000000000E+00  0.00000000000E+00  0.93800000000E+00  0.93800000000E+00 0. -1.
         11    1    1    2    0    0  0.13235306448E-01  0.29638249473E-01  0.34755182232E+00  0.34906464944E+00  0.51100000000E-03 0. -1.
    9000002    1    1    2    0    0 -0.12915622494E+00 -0.34101850738E+00  0.89315163152E-01  0.10103445705E+01  0.93800000000E+00 0. -1.
         22    1    1    2    0    0  0.11592091849E+00  0.31138025791E+00  0.35631329819E+01  0.35785907800E+01  0.00000000000E+00 0. -1.
</event>
<event>
 5    1  0.5849602E+001  0.1587652E+01  0.7818608E-02  0.3366875E+00
         11   -1    0    0    0    0  0.00000000000E+00  0.00000000000E+00  0.39999999674E+01  0.40000000000E+01  0.51100000000E-03 0.  1.
    9000002   -1    0    0    0    0 -0.00000000000E+00 -0.00000000000E+00  0.00000000000E+00  0.93800000000E+00  0.93800000000E+00 0.  1.
         11    1    1    2    0    0 -0.25140105656E-01 -0.13426647133E-01  0.11073390057E+01  0.11077058430E+01  0.51100000000E-03 0.  1.
    9000002    1    1    2    0    0 -0.52673562277E-01  0.43958444976E+00  0.14338450720E+00  0.10470969915E+01  0.93800000000E+00 0.  1.
         22    1    1    2    0    0  0.77813667933E-01 -0.42615780263E+00  0.27492764544E+01  0.27831971656E+01  0.00000000000E+00 0.  1.
</event>
<event>
 5    1  0.5849602E+001  0.1599636E+01  0.7818608E-02  0.3353759E+00
         11   -1    0    0    0    0  0.00000000000E+00  0.00000000000E+00  0.39999999674E+01  0.40000000000E+01  0.51100000000E-03 0. -1.
    9000002   -1    0    0    0    0 -0.00000000000E+00 -0.00000000000E+00  0.00000000000E+00  0.93800000000E+00  0.93800000000E+00 0. -1.
         11    1    1    2    0    0 -0.14467942330E-01 -0.12182931278E-01  0.15508657048E+00  0.15623652145E+00  0.51100000000E-03 0. -1.
    9000002    1    1    2    0    0  0.33824659417E+00  0.23429515206E+00  0.11440499354E+00  0.10306490573E+01  0.93800000000E+00 0. -1.
         22    1    1    2    0    0 -0.32377865184E+00 -0.22211222079E+00  0.37305084033E+01  0.37511144213E+01  0.00000000000E+00 0. -1.
</event>
<event>
 5    1  0.5849602E+001  0.1599566E+01  0.7818608E-02  0.3353835E+00
         11   -1    0    0    0    0  0.00000000000E+00  0.00000000000E+00  0.39999999674E+01  0.40000000000E+01  0.51100000000E-03 0.  1.
    9000002   -1    0    0    0    0 -0.00000000000E+00 -0.00000000000E+00  0.00000000000E+00  0.93800000000E+00  0.93800000000E+00 0. -1.
         11    1    1    2    0    0 -0.63578507415E-01 -0.49712445395E-02  0.67610153026E+00  0.67910270226E+00  0.51100000000E-03 0.  1.
    9000002    1    1    2    0    0  0.41772748845E+00  0.10975452752E-01  0.11815395509E+00  0.10336445580E+01  0.93800000000E+00 0. -1.
         22    1    1    2    0    0 -0.35414898103E+00 -0.60042082122E-02  0.32057444820E+01  0.32252527397E+01  0.00000000000E+00 0.  1.
</event>
<event>
 5    1  0.5849602E+001  0.1599665E+01  0.7818608E-02  0.3353727E+00
         11   -1    0    0    0    0  0.00000000000E+00  0.00000000000E+00  0.39999999674E+01  0.40000000000E+01  0.51100000000E-03 0.  1.
    9000002   -1    0    0    0    0 -0.00000000000E+00 -0.00000000000E+00  0.00000000000E+00  0.93800000000E+00  0.93800000000E+00 0.  1.
         11    1    1    2    0    0 -0.49718552175E-02 -0.88760855667E-01  0.89547052907E+00  0.89987273456E+00  0.51100000000E-03 0.  1.
    9000002    1    1    2    0    0  0.69633682951E-02  0.39042289561E+00  0.10273594783E+00  0.10212135922E+01  0.93800000000E+00 0.  1.
         22    1    1    2    0    0 -0.19915130776E-02 -0.30166203994E+00  0.30017934905E+01  0.30169136732E+01  0.00000000000E+00 0.  1.
</event>
<event>
 5    1  0.5849602E+001  0.1549466E+01  0.7818608E-02  0.3410106E+00
         11   -1    0    0    0    0  0.00000000000E+00  0.00000000000E+00  0.39999999674E+01  0.40000000000E+01  0.51100000000E-03 0.  1.
    9000002   -1    0    0    0    0 -0.00000000000E+00 -0.00000000000E+00  0.00000000000E+00  0.93800000000E+00  0.93800000000E+00 0. -1.
         11    1    1    2    0    0 -0.25039256184E+00  0.14786213421E+00  0.14709063367E+01  0.14993749892E+01  0.51100000000E-03 0.  1.
    9000002    1    1    2    0    0 -0.29708579779E-01 -0.36285673095E+00  0.13099239320E+00  0.10146677358E+01  0.93800000000E+00 0. -1.
         22    1    1    2    0    0  0.28010114162E+00  0.21499459674E+00  0.23981012374E+01  0.24239572750E+01  0.00000000000E+00 0.  1.
</event>
<event>
 5    1  0.5849602E+001  0.1549953E+01  0.7818608E-02  0.3409541E+00
         11   -1    0    0    0    0  0.00000000000E+00  0.00000000000E+00  0.39999999674E+01  0.40000000000E+01  0.51100000000E-03 0.  1.
    9000002   -1    0    0    0    0 -0.00000000000E+00 -0.00000000000E+00  0.00000000000E+00  0.93800000000E+00  0.93800000000E+00 0.  1.
         11    1    1    2    0    0  0.20027965569E+00  0.65628953664E-01  0.69486640613E+00  0.72612580420E+00  0.51100000000E-03 0.  1.
    9000002    1    1    2    0    0 -0.15589470155E+00  0.27048182341E+00  0.10535686814E+00  0.99418692630E+00  0.93800000000E+00 0.  1.
         22    1    1    2    0    0 -0.44384954147E-01 -0.33611077707E+00  0.31997766931E+01  0.32176872695E+01  0.00000000000E+00 0.  1.
</event>
<event>
 5    1  0.5849602E+001  0.1599659E+01  0.7818608E-02  0.3353733E+00
         11   -1    0    0    0    0  0.00000000000E+00  0.00000000000E+00  0.39999999674E+01  0.40000000000E+01  0.51100000000E-03 0. -1.
    9000002   -1    0    0    0    0 -0.00000000000E+00 -0.00000000000E+00  0.00000000000E+00  0.93800000000E+00  0.93800000000E+00 0.  1.
         11    1    1    2    0    0  0.25624100598E-01 -0.57079684838E-01  0.55089790754E+00  0.55443976282E+00  0.51100000000E-03 0. -1.
    9000002    1    1    2    0    0 -0.16026356118E+00  0.38787227964E+00  0.11912662162E+00  0.10344875380E+01  0.93800000000E+00 0.  1.
         22    1    1    2    0    0  0.13463946058E+00 -0.33079259481E+00  0.33299754382E+01  0.33490726991E+01  0.00000000000E+00 0. -1.
</event>
<event>
 5    1  0.5849602E+001  0.1599658E+01  0.7818608E-02  0.3353735E+00
         11   -1    0    0    0    0  0.00000000000E+00  0.00000000000E+00  0.39999999674E+01  0.40000000000E+01  0.51100000000E-03 0. -1.
    9000002   -1    0    0    0    0 -0.00000000000E+00 -0.00000000000E+00  0.00000000000E+00  0.93800000000E+00  0.93800000000E+00 0. -1.
         11    1    1    2    0    0 -0.41859572533E-02 -0.24553150308E-01  0.15823371378E+00  0.16018286027E+00  0.51100000000E-03 0. -1.
    9000002    1    1    2    0    0  0.57058995743E-01  0.56174132038E+00  0.22084358722E+00  0.11168817887E+01  0.93800000000E+00 0. -1.
         22    1    1    2    0    0 -0.52873038489E-01 -0.53718817007E+00  0.36209226664E+01  0.36609353510E+01  0.00000000000E+00 0. -1.
</event>
<event>
 5    1  0.5849602E+001  0.1599674E+01  0.7818608E-02  0.3353717E+00
         11   -1    0    0    0    0  0.00000000000E+00  0.00000000000E+00  0.39999999674E+01  0.40000000000E+01  0.51100000000E-03 0.  1.
    9000002   -1    0    0    0    0 -0.00000000000E+00 -0.00000000000E+00  0.00000000000E+00  0.93800000000E+00  0.93800000000E+00 0. -1.
         11    1    1    2    0    0 -0.24138346894E-01 -0.55622614868E-01  0.53653785303E+00  0.53995339051E+00  0.51100000000E-03 0.  1.
    9000002    1    1    2    0    0  0.16482262147E+00  0.40466151164E+00  0.12942545477E+00  0.10428386183E+01  0.93800000000E+00 0. -1.
         22    1    1    2    0    0 -0.14068427458E+00 -0.34903889677E+00  0.33340366596E+01  0.33552079912E+01  0.00000000000E+00 0.  1.
</event>
<event>
 5    1  0.5849602E+001  0.1512542E+01  0.7818608E-02  0.3454125E+00
         11   -1    0    0    0    0  0.00000000000E+00  0.00000000000E+00  0.39999999674E+01  0.40000000000E+01  0.51100000000E-03 0. -1.
    9000002   -1    0    0    0    0 -0.00000000000E+00 -0.00000000000E+00  0.00000000000E+00  0.93800000000E+00  0.93800000000E+00 0.  1.
         11    1    1    2    0    0 -0.16429769624E+00  0.10535820678E-01  0.24256449534E+00  0.29315956752E+00  0.51100000000E-03 0. -1.
    9000002    1    1    2    0    0 -0.21497235007E+00 -0.86658206985E-01  0.10491430032E+00  0.97189184920E+00  0.93800000000E+00 0.  1.
         22    1    1    2    0    0  0.37927004631E+00  0.76122386306E-01  0.36525211717E+01  0.36729485833E+01  0.00000000000E+00 0. -1.
</event>
<event>
 5    1  0.5849602E+001  0.1573877E+01  0.7818608E-02  0.3382214E+00
         11   -1    0    0    0    0  0.00000000000E+00  0.00000000000E+00  0.39999999674E+01  0.40000000000E+01  0.51100000000E-03 0.  1.
    9000002   -1    0    0    0    0 -0.00000000000E+00 -0.00000000000E+00  0.00000000000E+00  0.93800000000E+00  0.93800000000E+00 0. -1.
         11    1    1    2    0    0 -0.20446921740E-01  0.10172728996E+00  0.90299512993E+00  0.90893728273E+00  0.51100000000E-03 0.  1.
    9000002    1    1    2    0    0  0.15347196499E+00  0.26196056407E+00  0.82028048733E-01  0.98931773559E+00  0.93800000000E+00 0. -1.
         22    1    1    2    0    0 -0.13302504325E+00 -0.36368785403E+00  0.30149767887E+01  0.30397449817E+01  0.00000000000E+00 0.  1.
</event>
<event>
 5    1  0.5849602E+001  0.1599640E+01  0.7818608E-02  0.3353754E+00
         11   -1    0    0    0    0  0.00000000000E+00  0.00000000000E+00  0.39999999674E+01  0.40000000000E+01  0.51100000000E-03 0.  1.
    9000002   -1    0    0    0    0 -0.00000000000E+00 -0.00000000000E+00  0.00000000000E+00  0.93800000000E+00  0.93800000000E+00 0.  1.
         11    1    1    2    0    0 -0.16537537629E-01  0.95905690772E-01  0.71416315837E+00  0.72076394857E+00  0.51100000000E-03 0.  1.
    9000002    1    1    2    0    0  0.63419768196E-01 -0.49700977520E+00  0.17191450437E+00  0.10772369194E+01  0.93800000000E+00 0.  1.
         22    1    1    2    0    0 -0.46882230567E-01  0.40110408443E+00  0.31139223046E+01  0.31399991321E+01  0.00000000000E+00 0.  1.
</event>
<event>
 5    1  0.5849602E+001  0.1599428E+01  0.7818608E-02  0.3353985E+00
         11   -1    0    0    0    0  0.00000000000E+00  0.00000000000E+00  0.39999999674E+01  0.40000000000E+01  0.51100000000E-03 0.  1.
    9000002   -1    0    0    0    0 -0.00000000000E+00 -0.00000000000E+00  0.00000000000E+00  0.93800000000E+00  0.93800000000E+00 0. -1.
         11    1    1    2    0    0 -0.67319454944E-02 -0.44670639891E-01  0.33397100593E+00  0.33701287673E+00  0.51100000000E-03 0.  1.
    9000002    1    1    2    0    0 -0.64339701026E-02  0.42743592108E+00  0.12392865326E+00  0.10382413851E+01  0.93800000000E+00 0. -1.
         22    1    1    2    0    0  0.13165915597E-01 -0.38276528119E+00  0.35421003082E+01  0.35627457382E+01  0.00000000000E+00 0.  1.
</event>
<event>
 5    1  0.5849602E+001  0.1596647E+01  0.7818608E-02  0.3357011E+00
         11   -1    0    0    0    0  0.00000000000E+00  0.00000000000E+00  0.39999999674E+01  0.40000000000E+01  0.51100000000E-03 0. -1.
    9000002   -1    0    0    0    0 -0.00000000000E+00 -0.00000000000E+00  0.00000000000E+00  0.93800000000E+00  0.93800000000E+00 0. -1.
         11    1    1    2    0    0 -0.81139356094E-02  0.14763952698E+00  0.75609933773E+00  0.77042179065E+00  0.51100000000E-03 0. -1.
    9000002    1    1    2    0    0 -0.17436923840E+00 -0.57696352474E+00  0.25664363940E+00  0.11441160334E+01  0.93800000000E+00 0. -1.
         22    1    1    2    0    0  0.18248317401E+00  0.42932399776E+00  0.29872569902E+01  0.30234621760E+01  0.00000000000E+00 0. -1.
</event>
<event>
 5    1  0.5849602E+001  0.1599220E+01  0.7818608E-02  0.3354210E+00
         11   -1    0    0    0    0  0.00000000000E+00  0.00000000000E+00  0.39999999674E+01  0.40000000000E+01  0.51100000000E-03 0. -1.
    9000002   -1    0    0    0    0 -0.00000000000E+00 -0.00000000000E+00  0.00000000000E+00  0.93800000000E+00  0.93800000000E+00 0. -1.
         11    1    1    2    0    0  0.15453644766E+00  0.29758392254E-01  0.11078227697E+01  0.11189453185E+01  0.51100000000E-03 0. -1.
    9000002    1    1    2    0    0 -0.54837931735E+00 -0.24210697746E-01  0.20849995935E+00  0.11066265254E+01  0.93800000000E+00 0. -1.
         22    1    1    2    0    0  0.39384286968E+00 -0.55476945071E-02  0.26836772383E+01  0.27124281561E+01  0.00000000000E+00 0. -1.
</event>
<event>
 5    1  0.5849602E+001  0.1598483E+01  0.7818608E-02  0.3355011E+00
         11   -1    0    0    0    0  0.00000000000E+00  0.00000000000E+00  0.39999999674E+01  0.40000000000E+01  0.51100000000E-03 0.  1.
    9000002   -1    0    0    0    0 -0.00000000000E+00 -0.00000000000E+00  0.00000000000E+00  0.93800000000E+00  0.93800000000E+00 0. -1.
         11    1    1    2    0    0  0.17698141880E+00 -0.75675338583E-01  0.14659736463E+01  0.14785561106E+01  0.51100000000E-03 0.  1.
    9000002    1    1    2    0    0 -0.47040007734E+00  0.29940863767E+00  0.21620322337E+00  0.11124340874E+01  0.93800000000E+00 0. -1.
         22    1    1    2    0    0  0.29341865854E+00 -0.22373329908E+00  0.23178230977E+01  0.23470098019E+01  0.00000000000E+00 0.  1.
</event>
<event>
 5    1  0.5849602E+001  0.1580636E+01  0.7818608E-02  0.3374653E+00
         11   -1    0    0    0    0  0.00000000000E+00  0.00000000000E+00  0.39999999674E+01  0.40000000000E+01  0.51100000000E-03 0.  1.
    9000002   -1    0    0    0    0 -0.00000000000E+00 -0.00000000000E+00  0.00000000000E+00  0.93800000000E+00  0.93800000000E+00 0. -1.
         11    1    1    2    0    0  0.24463690209E+00 -0.22001273672E-01  0.12740057615E+01  0.12974676147E+01  0.51100000000E-03 0.  1.
    9000002    1    1    2    0    0 -0.39457240486E+00 -0.25898815195E+00  0.16874074516E+00  0.10635223009E+01  0.93800000000E+00 0. -1.
         22    1    1    2    0    0  0.14993550277E+00  0.28098942562E+00  0.25572534607E+01  0.25770100843E+01  0.00000000000E+00 0.  1.
</event>
<event>
 5    1  0.5849602E+001  0.1599674E+01  0.7818608E-02  0.3353717E+00
         11   -1    0    0    0    0  0.00000000000E+00  0.00000000000E+00  0.39999999674E+01  0.40000000000E+01  0.51100000000E-03 0. -1.
    9000002   -1    0    0    0    0 -0.00000000000E+00 -0.00000000000E+00  0.00000000000E+00  0.93800000000E+00  0.93800000000E+00 0. -1.
         11    1    1    2    0    0 -0.34752184207E-01  0.59928593064E-01  0.40161224474E+00  0.40754362567E+00  0.51100000000E-03 0.  1.
    9000002    1    1    2    0    0  0.32762014328E+00 -0.56093627060E+00  0.29774748746E+00  0.11791870183E+01  0.93800000000E+00 0. -1.
         22    1    1    2    0    0 -0.29286795907E+00  0.50100767753E+00  0.33006402352E+01  0.33512693560E+01  0.00000000000E+00 0. -1.
</event>
<event>
 5    1  0.5849602E+001  0.1595745E+01  0.7818608E-02  0.3357995E+00
         11   -1    0    0    0    0  0.00000000000E+00  0.00000000000E+00  0.39999999674E+01  0.40000000000E+01  0.51100000000E-03 0. -1.
    9000002   -1    0    0    0    0 -0.00000000000E+00 -0.00000000000E+00  0.00000000000E+00  0.93800000000E+00  0.93800000000E+00 0. -1.
         11    1    1    2    0    0  0.36438331759E+00 -0.33079600438E+00  0.13902607117E+01  0.14747970390E+01  0.51100000000E-03 0. -1.
    9000002    1    1    2    0    0 -0.73152934858E+00  0.63607911968E+00  0.75052412116E+00  0.15436522571E+01  0.93800000000E+00 0. -1.
         22    1    1    2    0    0  0.36714603099E+00 -0.30528311530E+00  0.18592151345E+01  0.19195507039E+01  0.00000000000E+00 0. -1.
</event>
<event>
 5    1  0.5849602E+001  0.1599667E+01  0.7818608E-02  0.3353725E+00
         11   -1    0    0    0    0  0.00000000000E+00  0.00000000000E+00  0.39999999674E+01  0.40000000000E+01  0.51100000000E-03 0.  1.
    9000002   -1    0    0    0    0 -0.00000000000E+00 -0.00000000000E+00  0.00000000000E+00  0.93800000000E+00  0.93800000000E+00 0. -1.
         11    1    1    2    0    0 -0.30756026071E-01 -0.78098687863E-01  0.46309433680E+00  0.47063995164E+00  0.51100000000E-03 0.  1.
    9000002    1    1    2    0    0  0.26050081093E+00  0.63039619414E+00  0.33095588139E+00  0.12060828452E+01  0.93800000000E+00 0. -1.
         22    1    1    2    0    0 -0.22974478485E+00 -0.55229750627E+00  0.32059497492E+01  0.32612772032E+01  0.00000000000E+00 0.  1.
</event>
<event>
 5    1  0.6106207E+001  0.1590540E+01  0.7818608E-02  0.3363696E+00
         11   -1    0    0    0    0  0.00000000000E+00  0.00000000000E+00  0.39999999674E+01  0.40000000000E+01  0.51100000000E-03 0.  1.
    9000002   -1    0    0    0    0 -0.00000000000E+00 -0.00000000000E+00  0.00000000000E+00  0.93800000000E+00  0.93800000000E+00 0.  1.
         11    1    1    2    0    0 -0.56038457600E-01  0.69350882169E-01  0.11419918674E+01  0.11454673893E+01  0.51100000000E-03 0.  1.
    9000002    1    1    2    0    0 -0.16666447441E+00 -0.23188688813E+00  0.61464308267E-01  0.98243088159E+00  0.93800000000E+00 0.  1.
         22    1    1    2    0    0  0.22270293201E+00  0.16253600596E+00  0.27965437916E+01  0.28101017291E+01  0.00000000000E+00 0.  1.
</event>
<event>
 5    1  0.5849602E+001  0.1590837E+01  0.7818608E-02  0.3363369E+00
         11   -1    0    0    0    0  0.00000000000E+00  0.00000000000E+00  0.39999999674E+01  0.40000000000E+01  0.51100000000E-03 0.  1.
    9000002   -1    0    0    0    0 -0.00000000000E+00 -0.00000000000E+00  0.00000000000E+00  0.93800000000E+00  0.93800000000E+00 0. -1.
         11    1    1    2    0    0 -0.24431171626E+00  0.10499778925E+00  0.11290643044E+01  0.11599565574E+01  0.51100000000E-03 0.  1.
    9000002    1    1    2    0    0  0.50020515680E+00 -0.20503702879E+00  0.20981241122E+00  0.11027740612E+01  0.93800000000E+00 0. -1.
         22    1    1    2    0    0 -0.25589344054E+00  0.10003923954E+00  0.26611232517E+01  0.26752693814E+01  0.00000000000E+00 0.  1.
</event>
<event>
 5    1  0.5849602E+001  0.1599658E+01  0.7818608E-02  0.3353735E+00
         11   -1    0    0    0    0  0.00000000000E+00  0.00000000000E+00  0.39999999674E+01  0.40000000000E+01  0.51100000000E-03 0. -1.
    9000002   -1    0    0    0    0 -0.00000000000E+00 -0.00000000000E+00  0.00000000000E+00  0.93800000000E+00  0.93800000000E+00 0.  1.
         11    1    1    2    0    0 -0.39892532193E-02  0.56876018791E-01  0.60818266719E+00  0.61084958332E+00  0.51100000000E-03 0. -1.
    9000002    1    1    2    0    0  0.14419909717E-02 -0.36984882796E+00  0.91942537337E-01  0.10124661303E+01  0.93800000000E+00 0.  1.
         22    1    1    2    0    0  0.25472622476E-02  0.31297280917E+00  0.32998747628E+01  0.33146842864E+01  0.00000000000E+00 0. -1.
</event>
<event>
 5    1  0.5849602E+001  0.1599386E+01  0.7818608E-02  0.3354030E+00
         11   -1    0    0    0    0  0.00000000000E+00  0.00000000000E+00  0.39999999674E+01  0.40000000000E+01  0.51100000000E-03 0. -1.
    9000002   -1    0    0    0    0 -0.00000000000E+00 -0.00000000000E+00  0.00000000000E+00  0.93800000000E+00  0.93800000000E+00 0.  1.
         11    1    1    2    0    0  0.15419268752E-01 -0.10040326991E+00  0.94939272870E+00  0.95481170127E+00  0.51100000000E-03 0. -1.
    9000002    1    1    2    0    0  0.13300817873E-02  0.38016023855E+00  0.97481785086E-01  0.10167941161E+01  0.93800000000E+00 0.  1.
         22    1    1    2    0    0 -0.16749350539E-01 -0.27975696864E+00  0.29531254536E+01  0.29663941826E+01  0.00000000000E+00 0. -1.
</event>
<event>
 5    1  0.5849602E+001  0.1599624E+01  0.7818608E-02  0.3353772E+00
         11   -1    0    0    0    0  0.00000000000E+00  0.00000000000E+00  0.39999999674E+01  0.40000000000E+01  0.51100000000E-03 0.  1.
    9000002   -1    0    0    0    0 -0.00000000000E+00 -0.00000000000E+00  0.00000000000E+00  0.93800000000E+00  0.93800000000E+00 0.  1.
         11    1    1    2    0    0  0.10763906193E-01 -0.57857037487E-02  0.93487985253E-01  0.94284678247E-01  0.51100000000E-03 0.  1.
    9000002    1    1    2    0    0 -0.36185862828E+00  0.17171065028E+00  0.10826220381E+00  0.10256660856E+01  0.93800000000E+00 0.  1.
         22    1    1    2    0    0  0.35109472209E+00 -0.16592494653E+00  0.37982497783E+01  0.38180492362E+01  0.00000000000E+00 0.  1.
</event>
<event>
 5    1  0.5849602E+001  0.1599345E+01  0.7818608E-02  0.3354074E+00
         11   -1    0    0    0    0  0.00000000000E+00  0.00000000000E+00  0.39999999674E+01  0.40000000000E+01  0.51100000000E-03 0. -1.
    9000002   -1    0    0    0    0 -0.00000000000E+00 -0.00000000000E+00  0.00000000000E+00  0.93800000000E+00  0.93800000000E+00 0.  1.
         11    1    1    2    0    0  0.44705633844E-02 -0.74308381045E-01  0.43268075411E+00  0.43903828709E+00  0.51100000000E-03 0. -1.
    9000002    1    1    2    0    0 -0.14352612447E+00  0.58233043219E+00  0.25128476555E+00  0.11413573122E+01  0.93800000000E+00 0.  1.
         22    1    1    2    0    0  0.13905556108E+00 -0.50802205115E+00  0.33160344477E+01  0.33576044007E+01  0.00000000000E+00 0. -1.
</event>
<event>
 5    1  0.1115450E+002  0.1586087E+01  0.7818608E-02  0.3368604E+00
         11   -1    0    0    0    0  0.00000000000E+00  0.00000000000E+00  0.39999999674E+01  0.40000000000E+01  0.51100000000E-03 0. -1.
    9000002   -1    0    0    0    0 -0.00000000000E+00 -0.00000000000E+00  0.00000000000E+00  0.93800000000E+00  0.93800000000E+00 0.  1.
         11    1    1    2    0    0 -0.69570206481E-01  0.16175507404E-01  0.12937041265E+01  0.12956744532E+01  0.51100000000E-03 0. -1.
    9000002    1    1    2    0    0 -0.15700928649E+00  0.11015932201E+00  0.34567673710E-01  0.95803231487E+00  0.93800000000E+00 0.  1.
         22    1    1    2    0    0  0.22657949297E+00 -0.12633482942E+00  0.26717281671E+01  0.26842932319E+01  0.00000000000E+00 0. -1.
</event>
<event>
 5    1  0.6250493E+001  0.1599669E+01  0.7818608E-02  0.3353722E+00
         11   -1    0    0    0    0  0.00000000000E+00  0.00000000000E+00  0.39999999674E+01  0.40000000000E+01  0.51100000000E-03 0.  1.
    9000002   -1    0    0    0    0 -0.00000000000E+00 -0.00000000000E+00  0.00000000000E+00  0.93800000000E+00  0.93800000000E+00 0. -1.
         11    1    1    2    0    0 -0.12588764911E+00 -0.66468849471E-01  0.13466228266E+01  0.13541266951E+01  0.51100000000E-03 0.  1.
    9000002    1    1    2    0    0  0.36976336750E+00  0.19753835460E+00  0.11885188499E+00  0.10342708156E+01  0.93800000000E+00 0. -1.
         22    1    1    2    0    0 -0.24387571839E+00 -0.13106950513E+00  0.25345252558E+01  0.25496024893E+01  0.00000000000E+00 0.  1.
</event>
<event>
 5    1  0.5849602E+001  0.1483785E+01  0.7818608E-02  0.3490038E+00
         11   -1    0    0    0    0  0.00000000000E+00  0.00000000000E+00  0.39999999674E+01  0.40000000000E+01  0.51100000000E-03 0. -1.
    9000002   -1    0    0    0    0 -0.00000000000E+00 -0.00000000000E+00  0.00000000000E+00  0.93800000000E+00  0.93800000000E+00 0.  1.
         11    1    1    2    0    0  0.12184921509E+00 -0.34466104020E+00  0.82929344802E+00  0.90629263922E+00  0.51100000000E-03 0. -1.
    9000002    1    1    2    0    0  0.90568074768E-01  0.16245536456E+00  0.11493219288E+00  0.96314470907E+00  0.93800000000E+00 0.  1.
         22    1    1    2    0    0 -0.21241728986E+00  0.18220567565E+00  0.30557743265E+01  0.30685626517E+01  0.00000000000E+00 0. -1.
</event>
<event>
 5    1  0.5849602E+001  0.1599402E+01  0.7818608E-02  0.3354013E+00
         11   -1    0    0    0    0  0.00000000000E+00  0.00000000000E+00  0.39999999674E+01  0.40000000000E+01  0.51100000000E-03 0. -1.
    9000002   -1    0    0    0    0 -0.00000000000E+00 -0.00000000000E+00  0.00000000000E+00  0.93800000000E+00  0.93800000000E+00 0.  1.
         11    1    1    2    0    0  0.35580072596E-02 -0.33823306439E-01  0.35649455069E+00  0.35811353126E+00  0.51100000000E-03 0. -1.
    9000002    1    1    2    0    0 -0.16310953572E+00  0.34988342248E+00  0.10056958770E+00  0.10193043569E+01  0.93800000000E+00 0.  1.
         22    1    1    2    0    0  0.15955152846E+00 -0.31606011604E+00  0.35429358290E+01  0.35605821119E+01  0.00000000000E+00 0. -1.
</event>
<event>
 5    1  0.5849602E+001  0.1599489E+01  0.7818608E-02  0.3353918E+00
         11   -1    0    0    0    0  0.00000000000E+00  0.00000000000E+00  0.39999999674E+01  0.40000000000E+01  0.51100000000E-03 0. -1.
    9000002   -1    0    0    0    0 -0.00000000000E+00 -0.00000000000E+00  0.00000000000E+00  0.93800000000E+00  0.93800000000E+00 0.  1.
         11    1    1    2    0    0 -0.95728333663E-01 -0.44110362951E-01  0.86333473953E+00  0.86974523372E+00  0.51100000000E-03 0. -1.
    9000002    1    1    2    0    0  0.47662172284E+00  0.22352321165E+00  0.19075731753E+00  0.10924116655E+01  0.93800000000E+00 0.  1.
         22    1    1    2    0    0 -0.38089338918E+00 -0.17941284870E+00  0.29459079103E+01  0.29758431007E+01  0.00000000000E+00 0. -1.
</event>
<event>
 5    1  0.5849602E+001  0.1588415E+01  0.7818608E-02  0.3366034E+00
         11   -1    0    0    0    0  0.00000000000E+00  0.00000000000E+00  0.39999999674E+01  0.40000000000E+01  0.51100000000E-03 0.  1.
    9000002   -1    0    0    0    0 -0.00000000000E+00 -0.00000000000E+00  0.00000000000E+00  0.93800000000E+00  0.93800000000E+00 0. -1.
         11    1    1    2    0    0 -0.57185469539E-01  0.10426448606E-01  0.63758873511E+00  0.64023319581E+00  0.51100000000E-03 0.  1.
    9000002    1    1    2    0    0 -0.18205985804E+00 -0.28975454524E+00  0.87533398476E-01  0.10023021422E+01  0.93800000000E+00 0. -1.
         22    1    1    2    0    0  0.23924532758E+00  0.27932809663E+00  0.32748778338E+01  0.32954646620E+01  0.00000000000E+00 0.  1.
</event>
<event>
 5    1  0.5849602E+001  0.1570326E+01  0.7818608E-02  0.3386214E+00
         11   -1    0    0    0    0  0.00000000000E+00  0.00000000000E+00  0.39999999674E+01  0.40000000000E+01  0.51100000000E-03 0.  1.
    9000002   -1    0    0    0    0 -0.00000000000E+00 -0.00000000000E+00  0.00000000000E+00  0.93800000000E+00  0.93800000000E+00 0. -1.
         11    1    1    2    0    0 -0.44201122502E-01 -0.13612800949E-01  0.29448391148E-01  0.54831710189E-01  0.51100000000E-03 0.  1.
    9000002    1    1    2    0    0  0.19992208604E+00  0.43486306468E+00  0.18269816490E+00  0.10687831141E+01  0.93800000000E+00 0. -1.
         22    1    1    2    0    0 -0.15572096354E+00 -0.42125026373E+00  0.37878534113E+01  0.38143851757E+01  0.00000000000E+00 0.  1.
</event>
<event>
 5    1  0.5849602E+001  0.1597869E+01  0.7818608E-02  0.3355679E+00
         11   -1    0    0    0    0  0.00000000000E+00  0.00000000000E+00  0.39999999674E+01  0.40000000000E+01  0.51100000000E-03 0. -1.
    9000002   -1    0    0    0    0 -0.00000000000E+00 -0.00000000000E+00  0.00000000000E+00  0.93800000000E+00  0.93800000000E+00 0.  1.
         11    1    1    2    0    0 -0.31514788022E-01  0.79502030000E-01  0.84815273471E+00  0.85245356305E+00  0.51100000000E-03 0. -1.
    9000002    1    1    2    0    0  0.29146821140E+00 -0.23834085120E+00  0.96823530314E-01  0.10153712994E+01  0.93800000000E+00 0.  1.
         22    1    1    2    0    0 -0.25995342338E+00  0.15883882120E+00  0.30550237023E+01  0.30701751376E+01  0.00000000000E+00 0. -1.
</event>
<event>
 5    1  0.5849602E+001  0.1599675E+01  0.7818608E-02  0.3353716E+00
         11   -1    0    0    0    0  0.00000000000E+00  0.00000000000E+00  0.39999999674E+01  0.40000000000E+01  0.51100000000E-03 0. -1.
    9000002   -1    0    0    0    0 -0.00000000000E+00 -0.00000000000E+00  0.00000000000E+00  0.93800000000E+00  0.93800000000E+00 0.  1.
         11    1    1    2    0    0 -0.19073042119E+00 -0.15125413715E+00  0.10464224375E+01  0.10743631073E+01  0.51100000000E-03 0. -1.
    9000002    1    1    2    0    0  0.64108653696E+00  0.50996103480E+00  0.49761172884E+00  0.13410867375E+01  0.93800000000E+00 0.  1.
         22    1    1    2    0    0 -0.45035611577E+00 -0.35870689765E+00  0.24559658010E+01  0.25225501551E+01  0.00000000000E+00 0. -1.
</event>
<event>
 5    1  0.5849602E+001  0.1589015E+01  0.7818608E-02  0.3365373E+00
         11   -1    0    0    0    0  0.00000000000E+00  0.00000000000E+00  0.39999999674E+01  0.40000000000E+01  0.51100000000E-03 0. -1.
    9000002   -1    0    0    0    0 -0.00000000000E+00 -0.00000000000E+00  0.00000000000E+00  0.93800000000E+00  0.93800000000E+00 0. -1.
         11    1    1    2    0    0 -0.31820690669E-01 -0.97389677572E-01  0.69881475446E+00  0.70628579755E+00  0.51100000000E-03 0. -1.
    9000002    1    1    2    0    0 -0.28382792767E+00  0.27794122059E+00  0.11531610557E+00  0.10251592163E+01  0.93800000000E+00 0. -1.
         22    1    1    2    0    0  0.31564861834E+00 -0.18055154302E+00  0.31858691073E+01  0.32065549861E+01  0.00000000000E+00 0. -1.
</event>
<event>
 5    1  0.5849602E+001  0.1599674E+01  0.7818608E-02  0.3353717E+00
         11   -1    0    0    0    0  0.00000000000E+00  0.00000000000E+00  0.39999999674E+01  0.40000000000E+01  0.51100000000E-03 0. -1.
    9000002   -1    0    0    0    0 -0.00000000000E+00 -0.00000000000E+00  0.00000000000E+00  0.93800000000E+00  0.93800000000E+00 0. -1.
         11    1    1    2    0    0  0.46947719149E-01 -0.21221130549E-01  0.42635203889E+00  0.42945401023E+00  0.51100000000E-03 0. -1.
    9000002    1    1    2    0    0 -0.41729003248E+00  0.20055417894E+00  0.14587165110E+00  0.10561607304E+01  0.93800000000E+00 0. -1.
         22    1    1    2    0    0  0.37034231333E+00 -0.17933304839E+00  0.34277762774E+01  0.34523852594E+01  0.00000000000E+00 0. -1.
</event>
<event>
 5    1  0.5849602E+001  0.1599624E+01  0.7818608E-02  0.3353772E+00
         11   -1    0    0    0    0  0.00000000000E+00  0.00000000000E+00  0.39999999674E+01  0.40000000000E+01  0.51100000000E-03 0. -1.
    9000002   -1    0    0    0    0 -0.00000000000E+00 -0.00000000000E+00  0.00000000000E+00  0.93800000000E+00  0.93800000000E+00 0. -1.
         11    1    1    2    0    0 -0.61559314231E-01  0.82619936616E-01  0.11848036109E+01  0.11892751828E+01  0.51100000000E-03 0. -1.
    9000002    1    1    2    0    0  0.22973664487E+00 -0.26858445320E+00  0.83832593215E-01  0.10058769498E+01  0.93800000000E+00 0. -1.
         22    1    1    2    0    0 -0.16817733064E+00  0.18596451658E+00  0.27313637633E+01  0.27428478673E+01  0.00000000000E+00 0. -1.
</event>
<event>
 5    1  0.5849602E+001  0.1599649E+01  0.7818608E-02  0.3353745E+00
         11   -1    0    0    0    0  0.00000000000E+00  0.00000000000E+00  0.39999999674E+01  0.40000000000E+01  0.51100000000E-03 0.  1.
    9000002   -1    0    0    0    0 -0.00000000000E+00 -0.00000000000E+00  0.00000000000E+00  0.93800000000E+00  0.93800000000E+00 0.  1.
         11    1    1    2    0    0  0.24040346212E-01 -0.12234399902E+00  0.11363355987E+01  0.11431556527E+01  0.51100000000E-03 0.  1.
    9000002    1    1    2    0    0 -0.79634883244E-01  0.43617712283E+00  0.13341774456E+00  0.10460575948E+01  0.93800000000E+00 0.  1.
         22    1    1    2    0    0  0.55594537032E-01 -0.31383312381E+00  0.27302466241E+01  0.27487867525E+01  0.00000000000E+00 0.  1.
</event>
<event>
 5    1  0.5849602E+001  0.1599642E+01  0.7818608E-02  0.3353752E+00
         11   -1    0    0    0    0  0.00000000000E+00  0.00000000000E+00  0.39999999674E+01  0.40000000000E+01  0.51100000000E-03 0. -1.
    9000002   -1    0    0    0    0 -0.00000000000E+00 -0.00000000000E+00  0.00000000000E+00  0.93800000000E+00  0.93800000000E+00 0.  1.
         11    1    1    2    0    0 -0.78061814822E-01  0.10713186737E+00  0.12526141754E+01  0.12596084382E+01  0.51100000000E-03 0. -1.
    9000002    1    1    2    0    0  0.25430787396E+00 -0.31574670570E+00  0.11097691363E+00  0.10278756502E+01  0.93800000000E+00 0.  1.
         22    1    1    2    0    0 -0.17624605914E+00  0.20861483833E+00  0.26364088783E+01  0.26505159116E+01  0.00000000000E+00 0. -1.
</event>
<event>
 5    1  0.5849602E+001  0.1599669E+01  0.7818608E-02  0.3353723E+00
         11   -1    0    0    0    0  0.00000000000E+00  0.00000000000E+00  0.39999999674E+01  0.40000000000E+01  0.51100000000E-03 0. -1.
    9000002   -1    0    0    0    0 -0.00000000000E+00 -0.00000000000E+00  0.00000000000E+00  0.93800000000E+00  0.93800000000E+00 0. -1.
         11    1    1    2    0    0 -0.41804295380E-01 -0.75362338842E-02  0.46702129217E+00  0.46894940281E+00  0.51100000000E-03 0.  1.
    9000002    1    1    2    0    0  0.36457326439E+00  0.74174454327E-01  0.93049704768E-01  0.10133695093E+01  0.93800000000E+00 0. -1.
         22    1    1    2    0    0 -0.32276896901E+00 -0.66638220442E-01  0.34399289704E+01  0.34556810879E+01  0.00000000000E+00 0. -1.
</event>
<event>
 5    1  0.5849602E+001  0.1599620E+01  0.7818608E-02  0.3353776E+00
         11   -1    0    0    0    0  0.00000000000E+00  0.00000000000E+00  0.39999999674E+01  0.40000000000E+01  0.51100000000E-03 0. -1.
    9000002   -1    0    0    0    0 -0.00000000000E+00 -0.00000000000E+00  0.00000000000E+00  0.93800000000E+00  0.93800000000E+00 0. -1.
         11    1    1    2    0    0 -0.51603072595E-03  0.95351372013E-01  0.10247350091E+01  0.10291619165E+01  0.51100000000E-03 0. -1.
    9000002    1    1    2    0    0  0.18266102287E-01 -0.38844964196E+00  0.10190920157E+00  0.10205176433E+01  0.93800000000E+00 0. -1.
         22    1    1    2    0    0 -0.17750071561E-01  0.29309826994E+00  0.28733557567E+01  0.28883204402E+01  0.00000000000E+00 0. -1.
</event>
<event>
 5    1  0.5849602E+001  0.1512358E+01  0.7818608E-02  0.3454349E+00
         11   -1    0    0    0    0  0.00000000000E+00  0.00000000000E+00  0.39999999674E+01  0.40000000000E+01  0.51100000000E-03 0.  1.
    9000002   -1    0    0    0    0 -0.00000000000E+00 -0.00000000000E+00  0.00000000000E+00  0.93800000000E+00  0.93800000000E+00 0.  1.
         11    1    1    2    0    0  0.21452836785E-01  0.30552120195E+00  0.13346289275E+01  0.13693202928E+01  0.51100000000E-03 0.  1.
    9000002    1    1    2    0    0 -0.14321309601E+00  0.89927271378E-01  0.86737443661E-01  0.95706023276E+00  0.93800000000E+00 0.  1.
         22    1    1    2    0    0  0.12176025922E+00 -0.39544847333E+00  0.25786335962E+01  0.26116194744E+01  0.00000000000E+00 0.  1.
</event>
<event>
 5    1  0.5849602E+001  0.1599677E+01  0.7818608E-02  0.3353714E+00
         11   -1    0    0    0    0  0.00000000000E+00  0.00000000000E+00  0.39999999674E+01  0.40000000000E+01  0.51100000000E-03 0. -1.
    9000002   -1    0    0    0    0 -0.00000000000E+00 -0.00000000000E+00  0.00000000000E+00  0.93800000000E+00  0.93800000000E+00 0.  1.
         11    1    1    2    0    0  0.41159403010E-01  0.52189106797E-01  0.72144597092E+00  0.72450144886E+00  0.51100000000E-03 0.  1.
    9000002    1    1    2    0    0 -0.22509464970E+00 -0.28137766978E+00  0.87160959444E-01  0.10086039992E+01  0.93800000000E+00 0.  1.
         22    1    1    2    0    0  0.18393524669E+00  0.22918856299E+00  0.31913930370E+01  0.32048945519E+01  0.00000000000E+00 0. -1.
</event>
<event>
 5    1  0.5849602E+001  0.1489282E+01  0.7818608E-02  0.3483058E+00
         11   -1    0    0    0    0  0.00000000000E+00  0.00000000000E+00  0.39999999674E+01  0.40000000000E+01  0.51100000000E-03 0. -1.
    9000002   -1    0    0    0    0 -0.00000000000E+00 -0.00000000000E+00  0.00000000000E+00  0.93800000000E+00  0.93800000000E+00 0.  1.
         11    1    1    2    0    0  0.22186224470E+00  0.10190218779E+00  0.41722309131E+00  0.48340695128E+00  0.51100000000E-03 0. -1.
    9000002    1    1    2    0    0  0.10532854977E+00 -0.20952697534E-01  0.93133928995E-01  0.94871020215E+00  0.93800000000E+00 0.  1.
         22    1    1    2    0    0 -0.32719079447E+00 -0.80949490261E-01  0.34896429471E+01  0.35058828466E+01  0.00000000000E+00 0. -1.
</event>
<event>
 5    1  0.5849602E+001  0.1599665E+01  0.7818608E-02  0.3353727E+00
         11   -1    0    0    0    0  0.00000000000E+00  0.00000000000E+00  0.39999999674E+01  0.40000000000E+01  0.51100000000E-03 0.  1.
    9000002   -1    0    0    0    0 -0.00000000000E+00 -0.00000000000E+00  0.00000000000E+00  0.93800000000E+00  0.93800000000E+00 0. -1.
         11    1    1    2    0    0  0.99706679688E-01 -0.16037819557E-01  0.92392714619E+00  0.92943007602E+00  0.51100000000E-03 0.  1.
    9000002    1    1    2    0    0 -0.40947864127E+00  0.78980533328E-01  0.11757946833E+00  0.10332374430E+01  0.93800000000E+00 0. -1.
         22    1    1    2    0    0  0.30977196159E+00 -0.62942713771E-01  0.29584933528E+01  0.29753324809E+01  0.00000000000E+00 0.  1.
</event>
<event>
 5    1  0.5849602E+001  0.1598947E+01  0.7818608E-02  0.3354507E+00
         11   -1    0    0    0    0  0.00000000000E+00  0.00000000000E+00  0.39999999674E+01  0.40000000000E+01  0.51100000000E-03 0. -1.
    9000002   -1    0    0    0    0 -0.00000000000E+00 -0.00000000000E+00  0.00000000000E+00  0.93800000000E+00  0.93800000000E+00 0. -1.
         11    1    1    2    0    0  0.46787338624E-02 -0.95303246729E-03  0.70200196419E-01  0.70364248874E-01  0.51100000000E-03 0. -1.
    9000002    1    1    2    0    0 -0.19089417465E+00 -0.41996299952E+00  0.14541804412E+00  0.10553671941E+01  0.93800000000E+00 0. -1.
         22    1    1    2    0    0  0.18621544079E+00  0.42091603199E+00  0.37843817268E+01  0.38122685570E+01  0.00000000000E+00 0. -1.
</event>
<event>
 5    1  0.5849602E+001  0.1599653E+01  0.7818608E-02  0.3353741E+00
         11   -1    0    0    0    0  0.00000000000E+00  0.00000000000E+00  0.39999999674E+01  0.40000000000E+01  0.51100000000E-03 0.  1.
    9000002   -1    0    0    0    0 -0.00000000000E+00 -0.00000000000E+00  0.00000000000E+00  0.93800000000E+00  0.93800000000E+00 0. -1.
         11    1    1    2    0    0  0.12535321467E+00 -0.41260683246E-01  0.12863459617E+01  0.12930978566E+01  0.51100000000E-03 0.  1.
    9000002    1    1    2    0    0 -0.37514069079E+00  0.14124008402E+00  0.10841353805E+00  0.10258054369E+01  0.93800000000E+00 0. -1.
         22    1    1    2    0    0  0.24978747611E+00 -0.99979400774E-01  0.26052404676E+01  0.26190967064E+01  0.00000000000E+00 0.  1.
</event>
<event>
 5    1  0.5849602E+001  0.1465375E+01  0.7818608E-02  0.3513831E+00
         11   -1    0    0    0    0  0.00000000000E+00  0.00000000000E+00  0.39999999674E+01  0.40000000000E+01  0.51100000000E-03 0.  1.
    9000002   -1    0    0    0    0 -0.00000000000E+00 -0.00000000000E+00  0.00000000000E+00  0.93800000000E+00  0.93800000000E+00 0.  1.
         11    1    1    2    0    0 -0.34330112253E+00 -0.13072396957E+00  0.10118674218E+01  0.10764851868E+01  0.51100000000E-03 0.  1.
    9000002    1    1    2    0    0 -0.22916937669E+00 -0.14960717613E+00  0.19475161001E+00  0.99632981485E+00  0.93800000000E+00 0.  1.
         22    1    1    2    0    0  0.57247049922E+00  0.28033114570E+00  0.27933809355E+01  0.28651849983E+01  0.00000000000E+00 0.  1.
</event>
<event>
 5    1  0.5849602E+001  0.1566716E+01  0.7818608E-02  0.3390300E+00
         11   -1    0    0    0    0  0.00000000000E+00  0.00000000000E+00  0.39999999674E+01  0.40000000000E+01  0.51100000000E-03 0.  1.
    9000002   -1    0    0    0    0 -0.00000000000E+00 -0.00000000000E+00  0.00000000000E+00  0.93800000000E+00  0.93800000000E+00 0.  1.
         11    1    1    2    0    0  0.13960938502E+00  0.47698696887E-01  0.45050954721E+00  0.47405174751E+00  0.51100000000E-03 0.  1.
    9000002    1    1    2    0    0 -0.32111625492E+00  0.44249712006E+00  0.23804262461E+00  0.11114979269E+01  0.93800000000E+00 0.  1.
         22    1    1    2    0    0  0.18150686990E+00 -0.49019581695E+00  0.33114477955E+01  0.33524503256E+01  0.00000000000E+00 0.  1.
</event>
<event>
 5    1  0.5849602E+001  0.1599671E+01  0.7818608E-02  0.3353720E+00
         11   -1    0    0    0    0  0.00000000000E+00  0.00000000000E+00  0.39999999674E+01  0.40000000000E+01  0.51100000000E-03 0. -1.
    9000002   -1    0    0    0    0 -0.00000000000E+00 -0.00000000000E+00  0.00000000000E+00  0.93800000000E+00  0.93800000000E+00 0. -1.
         11    1    1    2    0    0 -0.14913435674E-02 -0.39055253625E-02  0.45552022240E-01  0.45746312257E-01  0.51100000000E-03 0.  1.
    9000002    1    1    2    0    0  0.11019713980E+00  0.36099892749E+00  0.95830460410E-01  0.10156235092E+01  0.93800000000E+00 0. -1.
         22    1    1    2    0    0 -0.10870579623E+00 -0.35709340213E+00  0.38586174847E+01  0.38766301786E+01  0.00000000000E+00 0. -1.
</event>
<event>
 5    1  0.5849602E+001  0.1599125E+01  0.7818608E-02  0.3354314E+00
         11   -1    0    0    0    0  0.00000000000E+00  0.00000000000E+00  0.39999999674E+01  0.40000000000E+01  0.51100000000E-03 0. -1.
    9000002   -1    0    0    0    0 -0.00000000000E+00 -0.00000000000E+00  0.00000000000E+00  0.93800000000E+00  0.93800000000E+00 0.  1.
         11    1    1    2    0    0  0.38312469560E-01 -0.76431268727E-01  0.12041109624E+01  0.12071425165E+01  0.51100000000E-03 0. -1.
    9000002    1    1    2    0    0 -0.93544389018E-01  0.32809890271E+00  0.78414477484E-01  0.10011954220E+01  0.93800000000E+00 0.  1.
         22    1    1    2    0    0  0.55231919458E-01 -0.25166763398E+00  0.27174745275E+01  0.27296620616E+01  0.00000000000E+00 0. -1.
</event>
<event>
 5    1  0.5849602E+001  0.1599224E+01  0.7818608E-02  0.3354207E+00
         11   -1    0    0    0    0  0.00000000000E+00  0.00000000000E+00  0.39999999674E+01  0.40000000000E+01  0.51100000000E-03 0. -1.
    9000002   -1    0    0    0    0 -0.00000000000E+00 -0.00000000000E+00  0.00000000000E+00  0.93800000000E+00  0.93800000000E+00 0.  1.
         11    1    1    2    0    0 -0.75952330649E-01 -0.78763585396E-01  0.12630651599E+01  0.12677958503E+01  0.51100000000E-03 0. -1.
    9000002    1    1    2    0    0  0.30571920519E+00  0.22179920563E+00  0.96331914850E-01  0.10157671770E+01  0.93800000000E+00 0.  1.
         22    1    1    2    0    0 -0.22976687454E+00 -0.14303562024E+00  0.26406028926E+01  0.26544369727E+01  0.00000000000E+00 0. -1.
</event>
<event>
 5    1  0.5849602E+001  0.1599482E+01  0.7818608E-02  0.3353926E+00
         11   -1    0    0    0    0  0.00000000000E+00  0.00000000000E+00  0.39999999674E+01  0.40000000000E+01  0.51100000000E-03 0. -1.
    9000002   -1    0    0    0    0 -0.00000000000E+00 -0.00000000000E+00  0.00000000000E+00  0.93800000000E+00  0.93800000000E+00 0.  1.
         11    1    1    2    0    0 -0.87385306927E-02 -0.13982913414E+00  0.12544008100E+01  0.12622005395E+01  0.51100000000E-03 0. -1.
    9000002    1    1    2    0    0  0.22450898258E-01  0.38580245874E+00  0.10072730352E+00  0.10194790678E+01  0.93800000000E+00 0.  1.
         22    1    1    2    0    0 -0.13712367566E-01 -0.24597332460E+00  0.26448718538E+01  0.26563203927E+01  0.00000000000E+00 0. -1.
</event>
<event>
 5    1  0.5849602E+001  0.1599600E+01  0.7818608E-02  0.3353798E+00
         11   -1    0    0    0    0  0.00000000000E+00  0.00000000000E+00  0.39999999674E+01  0.40000000000E+01  0.51100000000E-03 0. -1.
    9000002   -1    0    0    0    0 -0.00000000000E+00 -0.00000000000E+00  0.00000000000E+00  0.93800000000E+00  0.93800000000E+00 0.  1.
         11    1    1    2    0    0 -0.14549019866E+00 -0.39694239140E-01  0.12444591682E+01  0.12535636853E+01  0.51100000000E-03 0. -1.
    9000002    1    1    2    0    0  0.43442805323E+00  0.97870664355E-01  0.13466079709E+00  0.10470357829E+01  0.93800000000E+00 0.  1.
         22    1    1    2    0    0 -0.28893785457E+00 -0.58176425215E-01  0.26208800021E+01  0.26374005319E+01  0.00000000000E+00 0. -1.
</event>
<event>
 5    1  0.5849602E+001  0.1529704E+01  0.7818608E-02  0.3433382E+00
         11   -1    0    0    0    0  0.00000000000E+00  0.00000000000E+00  0.39999999674E+01  0.40000000000E+01  0.51100000000E-03 0. -1.
    9000002   -1    0    0    0    0 -0.00000000000E+00 -0.00000000000E+00  0.00000000000E+00  0.93800000000E+00  0.93800000000E+00 0.  1.
         11    1    1    2    0    0  0.16048481435E+00 -0.17871726845E-02  0.32451728024E+00  0.36203631850E+00  0.51100000000E-03 0. -1.
    9000002    1    1    2    0    0  0.21817370182E+00  0.37421177688E-01  0.87334127969E-01  0.96771450264E+00  0.93800000000E+00 0.  1.
         22    1    1    2    0    0 -0.37865851617E+00 -0.35634005003E-01  0.35881485592E+01  0.36082491789E+01  0.00000000000E+00 0. -1.
</event>
<event>
 5    1  0.5849602E+001  0.1599407E+01  0.7818608E-02  0.3354007E+00
         11   -1    0    0    0    0  0.00000000000E+00  0.00000000000E+00  0.39999999674E+01  0.40000000000E+01  0.51100000000E-03 0. -1.
    9000002   -1    0    0    0    0 -0.00000000000E+00 -0.00000000000E+00  0.00000000000E+00  0.93800000000E+00  0.93800000000E+00 0.  1.
         11    1    1    2    0    0 -0.12339308095E+00  0.39858651005E-02  0.11938956950E+01  0.12002620261E+01  0.51100000000E-03 0. -1.
    9000002    1    1    2    0    0  0.40263577457E+00 -0.72327236093E-01  0.11323801109E+00  0.10295696398E+01  0.93800000000E+00 0.  1.
         22    1    1    2    0    0 -0.27924269362E+00  0.68341370993E-01  0.26928662613E+01  0.27081683341E+01  0.00000000000E+00 0. -1.
</event>
<event>
 5    1  0.5849602E+001  0.1599673E+01  0.7818608E-02  0.3353718E+00
         11   -1    0    0    0    0  0.00000000000E+00  0.00000000000E+00  0.39999999674E+01  0.40000000000E+01  0.51100000000E-03 0.  1.
    9000002   -1    0    0    0    0 -0.00000000000E+00 -0.00000000000E+00  0.00000000000E+00  0.93800000000E+00  0.93800000000E+00 0.  1.
         11    1    1    2    0    0 -0.82264308276E-01 -0.71005961633E-01  0.98893441165E+00  0.99488732762E+00  0.51100000000E-03 0.  1.
    9000002    1    1    2    0    0  0.32186952960E+00  0.28616651892E+00  0.12563683893E+00  0.10397691503E+01  0.93800000000E+00 0.  1.
         22    1    1    2    0    0 -0.23960522133E+00 -0.21516055729E+00  0.28854287168E+01  0.29033435221E+01  0.00000000000E+00 0.  1.
</event>
<event>
 5    1  0.5849602E+001  0.1599662E+01  0.7818608E-02  0.3353730E+00
         11   -1    0    0    0    0  0.00000000000E+00  0.00000000000E+00  0.39999999674E+01  0.40000000000E+01  0.51100000000E-03 0.  1.
    9000002   -1    0    0    0    0 -0.00000000000E+00 -0.00000000000E+00  0.00000000000E+00  0.93800000000E+00  0.93800000000E+00 0.  1.
         11    1    1    2    0    0  0.45370750066E-02  0.48566554718E-01  0.33086140209E+00  0.33443807170E+00  0.51100000000E-03 0.  1.
    9000002    1    1    2    0    0 -0.45730473674E-01 -0.52940631676E+00  0.19436859993E+00  0.10954384862E+01  0.93800000000E+00 0.  1.
         22    1    1    2    0    0  0.41193398667E-01  0.48083976204E+00  0.34747699653E+01  0.35081234421E+01  0.00000000000E+00 0.  1.
</event>
<event>
 5    1  0.5849602E+001  0.1599627E+01  0.7818608E-02  0.3353769E+00
         11   -1    0    0    0    0  0.00000000000E+00  0.00000000000E+00  0.39999999674E+01  0.40000000000E+01  0.51100000000E-03 0. -1.
    9000002   -1    0    0    0    0 -0.00000000000E+00 -0.00000000000E+00  0.00000000000E+00  0.93800000000E+00  0.93800000000E+00 0. -1.
         11    1    1    2    0    0 -0.15512261138E-01 -0.16248897236E-01  0.18618746872E+00  0.18753850681E+00  0.51100000000E-03 0. -1.
    9000002    1    1    2    0    0  0.33180730226E+00  0.40632364634E+00  0.18923650142E+00  0.10912604844E+01  0.93800000000E+00 0. -1.
         22    1    1    2    0    0 -0.31629504112E+00 -0.39007474910E+00  0.36245759972E+01  0.36592010088E+01  0.00000000000E+00 0. -1.
</event>
<event>
 5    1  0.5849602E+001  0.1599516E+01  0.7818608E-02  0.3353889E+00
         11   -1    0    0    0    0  0.00000000000E+00  0.00000000000E+00  0.39999999674E+01  0.40000000000E+01  0.51100000000E-03 0. -1.
    9000002   -1    0    0    0    0 -0.00000000000E+00 -0.00000000000E+00  0.00000000000E+00  0.93800000000E+00  0.93800000000E+00 0. -1.
         11    1    1    2    0    0  0.19949820823E-02  0.19940295292E-01  0.12068773704E+00  0.12234126990E+00  0.51100000000E-03 0. -1.
    9000002    1    1    2    0    0 -0.10051242348E+00 -0.46858118743E+00  0.15683235364E+00  0.10649466952E+01  0.93800000000E+00 0. -1.
         22    1    1    2    0    0  0.98517441400E-01  0.44864089214E+00  0.37224798767E+01  0.37507120349E+01  0.00000000000E+00 0. -1.
</event>
<event>
 5    1  0.5849602E+001  0.1598721E+01  0.7818608E-02  0.3354752E+00
         11   -1    0    0    0    0  0.00000000000E+00  0.00000000000E+00  0.39999999674E+01  0.40000000000E+01  0.51100000000E-03 0. -1.
    9000002   -1    0    0    0    0 -0.00000000000E+00 -0.00000000000E+00  0.00000000000E+00  0.93800000000E+00  0.93800000000E+00 0. -1.
         11    1    1    2    0    0 -0.30304380891E-02 -0.28821823982E-01  0.33190738561E+00  0.33317060921E+00  0.51100000000E-03 0. -1.
    9000002    1    1    2    0    0  0.25729067169E+00  0.23676379265E+00  0.82740240789E-01  0.10044628070E+01  0.93800000000E+00 0. -1.
         22    1    1    2    0    0 -0.25426023360E+00 -0.20794196867E+00  0.35853523410E+01  0.36003665838E+01  0.00000000000E+00 0. -1.
</event>
<event>
 5    1  0.5849602E+001  0.1591511E+01  0.7818608E-02  0.3362629E+00
         11   -1    0    0    0    0  0.00000000000E+00  0.00000000000E+00  0.39999999674E+01  0.40000000000E+01  0.51100000000E-03 0.  1.
    9000002   -1    0    0    0    0 -0.00000000000E+00 -0.00000000000E+00  0.00000000000E+00  0.93800000000E+00  0.93800000000E+00 0. -1.
         11    1    1    2    0    0  0.71200844873E-02  0.16097232926E-01  0.19217712132E-01  0.26065265999E-01  0.51100000000E-03 0.  1.
    9000002    1    1    2    0    0  0.35886692799E+00 -0.37642727109E+00  0.19333050041E+00  0.10898181705E+01  0.93800000000E+00 0. -1.
         22    1    1    2    0    0 -0.36598701248E+00  0.36033003816E+00  0.37874517548E+01  0.38221165635E+01  0.00000000000E+00 0.  1.
</event>
<event>
 5    1  0.5849602E+001  0.1519784E+01  0.7818608E-02  0.3445310E+00
         11   -1    0    0    0    0  0.00000000000E+00  0.00000000000E+00  0.39999999674E+01  0.40000000000E+01  0.51100000000E-03 0. -1.
    9000002   -1    0    0    0    0 -0.00000000000E+00 -0.00000000000E+00  0.00000000000E+00  0.93800000000E+00  0.93800000000E+00 0.  1.
         11    1    1    2    0    0  0.10337594196E+00 -0.43700862075E-01  0.10030243804E+00  0.15052305777E+00  0.51100000000E-03 0. -1.
    9000002    1    1    2    0    0  0.33498235522E+00  0.17547968973E+00  0.16487830794E+00  0.10247122309E+01  0.93800000000E+00 0.  1.
         22    1    1    2    0    0 -0.43835829718E+00 -0.13177882766E+00  0.37348192214E+01  0.37627647113E+01  0.00000000000E+00 0. -1.
</event>
<event>
 5    1  0.6492830E+001  0.1573345E+01  0.7818608E-02  0.3382812E+00
         11   -1    0    0    0    0  0.00000000000E+00  0.00000000000E+00  0.39999999674E+01  0.40000000000E+01  0.51100000000E-03 0. -1.
    9000002   -1    0    0    0    0 -0.00000000000E+00 -0.00000000000E+00  0.00000000000E+00  0.93800000000E+00  0.93800000000E+00 0. -1.
         11    1    1    2    0    0  0.12098042618E+00 -0.69650837802E-01  0.11034948433E+01  0.11122898153E+01  0.51100000000E-03 0. -1.
    9000002    1    1    2    0    0  0.61716892127E-01 -0.13583034410E+00  0.34384906158E-01  0.95041316222E+00  0.93800000000E+00 0. -1.
         22    1    1    2    0    0 -0.18269731830E+00  0.20548118190E+00  0.28621202179E+01  0.28752970225E+01  0.00000000000E+00 0. -1.
</event>
<event>
 5    1  0.5849602E+001  0.1599676E+01  0.7818608E-02  0.3353715E+00
         11   -1    0    0    0    0  0.00000000000E+00  0.00000000000E+00  0.39999999674E+01  0.40000000000E+01  0.51100000000E-03 0. -1.
    9000002   -1    0    0    0    0 -0.00000000000E+00 -0.00000000000E+00  0.00000000000E+00  0.93800000000E+00  0.93800000000E+00 0. -1.
         11    1    1    2    0    0 -0.40852636469E-01 -0.51845323540E-01  0.71077764334E+00  0.71383611205E+00  0.51100000000E-03 0. -1.
    9000002    1    1    2    0    0  0.22412147454E+00  0.28083219750E+00  0.86651922372E-01  0.10081913083E+01  0.93800000000E+00 0. -1.
         22    1    1    2    0    0 -0.18326883808E+00 -0.22898687396E+00  0.32025704016E+01  0.32159725796E+01  0.00000000000E+00 0. -1.
</event>
<event>
 5    1  0.5849602E+001  0.1471075E+01  0.7818608E-02  0.3506396E+00
         11   -1    0    0    0    0  0.00000000000E+00  0.00000000000E+00  0.39999999674E+01  0.40000000000E+01  0.51100000000E-03 0. -1.
    9000002   -1    0    0    0    0 -0.00000000000E+00 -0.00000000000E+00  0.00000000000E+00  0.93800000000E+00  0.93800000000E+00 0. -1.
         11    1    1    2    0    0 -0.47280838587E+00 -0.29212655736E-01  0.13155388879E+01  0.13982288710E+01  0.51100000000E-03 0. -1.
    9000002    1    1    2    0    0  0.19317816585E+00  0.30121215799E+00  0.19848023288E+00  0.10233694205E+01  0.93800000000E+00 0. -1.
         22    1    1    2    0    0  0.27963022002E+00 -0.27199950226E+00  0.24859808466E+01  0.25164017085E+01  0.00000000000E+00 0. -1.
</event>
<event>
 5    1  0.5849602E+001  0.1579171E+01  0.7818608E-02  0.3376285E+00
         11   -1    0    0    0    0  0.00000000000E+00  0.00000000000E+00  0.39999999674E+01  0.40000000000E+01  0.51100000000E-03 0. -1.
    9000002   -1    0    0    0    0 -0.00000000000E+00 -0.00000000000E+00  0.00000000000E+00  0.93800000000E+00  0.93800000000E+00 0. -1.
         11    1    1    2    0    0  0.66435471682E-01 -0.25027946669E-03  0.98231239961E+00  0.98455657333E+00  0.51100000000E-03 0. -1.
    9000002    1    1    2    0    0  0.29606562755E+00  0.20022785202E+00  0.10250271064E+00  0.10090078564E+01  0.93800000000E+00 0. -1.
         22    1    1    2    0    0 -0.36250109923E+00 -0.19997757256E+00  0.29151848571E+01  0.29444355703E+01  0.00000000000E+00 0. -1.
</event>
<event>
 5    1  0.5849602E+001  0.1599599E+01  0.7818608E-02  0.3353799E+00
         11   -1    0    0    0    0  0.00000000000E+00  0.00000000000E+00  0.39999999674E+01  0.40000000000E+01  0.51100000000E-03 0. -1.
    9000002   -1    0    0    0    0 -0.00000000000E+00 -0.00000000000E+00  0.00000000000E+00  0.93800000000E+00  0.93800000000E+00 0.  1.
         11    1    1    2    0    0 -0.10498490781E+00  0.15899197320E-03  0.66265158608E+00  0.67091671748E+00  0.51100000000E-03 0. -1.
    9000002    1    1    2    0    0  0.62444299015E+00 -0.31759708116E-01  0.27435689791E+00  0.11601954294E+01  0.93800000000E+00 0.  1.
         22    1    1    2    0    0 -0.51945808234E+00  0.31600716142E-01  0.30629914834E+01  0.31068878531E+01  0.00000000000E+00 0. -1.
</event>
<event>
 5    1  0.5849602E+001  0.1599670E+01  0.7818608E-02  0.3353722E+00
         11   -1    0    0    0    0  0.00000000000E+00  0.00000000000E+00  0.39999999674E+01  0.40000000000E+01  0.51100000000E-03 0. -1.
    9000002   -1    0    0    0    0 -0.00000000000E+00 -0.00000000000E+00  0.00000000000E+00  0.93800000000E+00  0.93800000000E+00 0. -1.
         11    1    1    2    0    0 -0.17838587708E+00 -0.18490985422E+00  0.81503321698E+00  0.85457157759E+00  0.51100000000E-03 0. -1.
    9000002    1    1    2    0    0  0.70327129495E+00  0.71416902132E+00  0.80928893332E+00  0.15935559240E+01  0.93800000000E+00 0. -1.
         22    1    1    2    0    0 -0.52488541787E+00 -0.52925916710E+00  0.23756778171E+01  0.24898724984E+01  0.00000000000E+00 0. -1.
</event>
<event>
 5    1  0.5849602E+001  0.1593707E+01  0.7818608E-02  0.3360223E+00
         11   -1    0    0    0    0  0.00000000000E+00  0.00000000000E+00  0.39999999674E+01  0.40000000000E+01  0.51100000000E-03 0.  1.
    9000002   -1    0    0    0    0 -0.00000000000E+00 -0.00000000000E+00  0.00000000000E+00  0.93800000000E+00  0.93800000000E+00 0. -1.
         11    1    1    2    0    0 -0.16690006443E+00 -0.15161857807E+00  0.84859562918E+00  0.87804249767E+00  0.51100000000E-03 0.  1.
    9000002    1    1    2    0    0  0.45686529267E+00  0.44522465580E+00  0.29256571865E+00  0.11714903284E+01  0.93800000000E+00 0. -1.
         22    1    1    2    0    0 -0.28996522824E+00 -0.29360607774E+00  0.28588386195E+01  0.28884671739E+01  0.00000000000E+00 0.  1.
</event>
<event>
 5    1  0.5849602E+001  0.1599677E+01  0.7818608E-02  0.3353714E+00
         11   -1    0    0    0    0  0.00000000000E+00  0.00000000000E+00  0.39999999674E+01  0.40000000000E+01  0.51100000000E-03 0.  1.
    9000002   -1    0    0    0    0 -0.00000000000E+00 -0.00000000000E+00  0.00000000000E+00  0.93800000000E+00  0.93800000000E+00 0. -1.
         11    1    1    2    0    0 -0.78291247546E-01  0.13097020202E+00  0.11957695543E+01  0.12054658027E+01  0.51100000000E-03 0. -1.
    9000002    1    1    2    0    0  0.25035696794E+00 -0.42039059954E+00  0.16359709607E+00  0.10705208440E+01  0.93800000000E+00 0. -1.
         22    1    1    2    0    0 -0.17206572039E+00  0.28942039751E+00  0.26406333170E+01  0.26620133533E+01  0.00000000000E+00 0.  1.
</event>
<event>
 5    1  0.5849602E+001  0.1568588E+01  0.7818608E-02  0.3388179E+00
         11   -1    0    0    0    0  0.00000000000E+00  0.00000000000E+00  0.39999999674E+01  0.40000000000E+01  0.51100000000E-03 0. -1.
    9000002   -1    0    0    0    0 -0.00000000000E+00 -0.00000000000E+00  0.00000000000E+00  0.93800000000E+00  0.93800000000E+00 0. -1.
         11    1    1    2    0    0 -0.31170368821E-01  0.14089772932E+00  0.81762322067E+00  0.83026005211E+00  0.51100000000E-03 0. -1.
    9000002    1    1    2    0    0 -0.25272572817E+00  0.46668340902E-01  0.68122850976E-01  0.97495279401E+00  0.93800000000E+00 0. -1.
         22    1    1    2    0    0  0.28389609699E+00 -0.18756607022E+00  0.31142538957E+01  0.31327871539E+01  0.00000000000E+00 0. -1.
</event>
<event>
 5    1  0.5849602E+001  0.1595857E+01  0.7818608E-02  0.3357872E+00
         11   -1    0    0    0    0  0.00000000000E+00  0.00000000000E+00  0.39999999674E+01  0.40000000000E+01  0.51100000000E-03 0.  1.
    9000002   -1    0    0    0    0 -0.00000000000E+00 -0.00000000000E+00  0.00000000000E+00  0.93800000000E+00  0.93800000000E+00 0.  1.
         11    1    1    2    0    0 -0.33051971320E-01  0.37219376040E-03  0.42162419501E+00  0.42291818863E+00  0.51100000000E-03 0.  1.
    9000002    1    1    2    0    0  0.39016748237E-01 -0.33749604237E+00  0.80371134340E-01  0.10008643287E+01  0.93800000000E+00 0.  1.
         22    1    1    2    0    0 -0.59647769172E-02  0.33712384861E+00  0.34980046380E+01  0.35142174827E+01  0.00000000000E+00 0.  1.
</event>
<event>
 5    1  0.5849602E+001  0.1599677E+01  0.7818608E-02  0.3353715E+00
         11   -1    0    0    0    0  0.00000000000E+00  0.00000000000E+00  0.39999999674E+01  0.40000000000E+01  0.51100000000E-03 0. -1.
    9000002   -1    0    0    0    0 -0.00000000000E+00 -0.00000000000E+00  0.00000000000E+00  0.93800000000E+00  0.93800000000E+00 0.  1.
         11    1    1    2    0    0  0.36498837933E-01 -0.55890877801E-01  0.69908081214E+00  0.70226077664E+00  0.51100000000E-03 0.  1.
    9000002    1    1    2    0    0 -0.20398270224E+00  0.31514025227E+00  0.94766126217E-01  0.10147644752E+01  0.93800000000E+00 0.  1.
         22    1    1    2    0    0  0.16748386431E+00 -0.25924937447E+00  0.32061530290E+01  0.32209747482E+01  0.00000000000E+00 0. -1.
</event>
<event>
 5    1  0.5849602E+001  0.1598278E+01  0.7818608E-02  0.3355235E+00
         11   -1    0    0    0    0  0.00000000000E+00  0.00000000000E+00  0.39999999674E+01  0.40000000000E+01  0.51100000000E-03 0.  1.
    9000002   -1    0    0    0    0 -0.00000000000E+00 -0.00000000000E+00  0.00000000000E+00  0.93800000000E+00  0.93800000000E+00 0. -1.
         11    1    1    2    0    0  0.86237481816E-01 -0.10407948867E+00  0.10777554875E+01  0.10861982302E+01  0.51100000000E-03 0.  1.
    9000002    1    1    2    0    0 -0.17472082250E+00  0.42707058950E+00  0.14607802470E+00  0.10555090921E+01  0.93800000000E+00 0. -1.
         22    1    1    2    0    0  0.88483340685E-01 -0.32299110083E+00  0.27761664551E+01  0.27962926777E+01  0.00000000000E+00 0.  1.
</event>
<event>
 5    1  0.5849602E+001  0.1599263E+01  0.7818608E-02  0.3354163E+00
         11   -1    0    0    0    0  0.00000000000E+00  0.00000000000E+00  0.39999999674E+01  0.40000000000E+01  0.51100000000E-03 0. -1.
    9000002   -1    0    0    0    0 -0.00000000000E+00 -0.00000000000E+00  0.00000000000E+00  0.93800000000E+00  0.93800000000E+00 0.  1.
         11    1    1    2    0    0 -0.33021609905E-01  0.19582955995E-01  0.28830814873E+00  0.29085351748E+00  0.51100000000E-03 0. -1.
    9000002    1    1    2    0    0  0.40964657694E+00 -0.94079776989E-01  0.11983112717E+00  0.10348259861E+01  0.93800000000E+00 0.  1.
         22    1    1    2    0    0 -0.37662496703E+00  0.74496820994E-01  0.35918606915E+01  0.36123204964E+01  0.00000000000E+00 0. -1.
</event>
<event>
 5    1  0.5849602E+001  0.1590511E+01  0.7818608E-02  0.3363727E+00
         11   -1    0    0    0    0  0.00000000000E+00  0.00000000000E+00  0.39999999674E+01  0.40000000000E+01  0.51100000000E-03 0. -1.
    9000002   -1    0    0    0    0 -0.00000000000E+00 -0.00000000000E+00  0.00000000000E+00  0.93800000000E+00  0.93800000000E+00 0. -1.
         11    1    1    2    0    0  0.23255626190E+00  0.13880007243E+00  0.10309514067E+01  0.10659310199E+01  0.51100000000E-03 0. -1.
    9000002    1    1    2    0    0 -0.58521548908E+00 -0.21986987934E+00  0.28361983909E+00  0.11623700554E+01  0.93800000000E+00 0. -1.
         22    1    1    2    0    0  0.35265922718E+00  0.81069806906E-01  0.26854287215E+01  0.27096989247E+01  0.00000000000E+00 0. -1.
</event>
<event>
 5    1  0.5849602E+001  0.1599637E+01  0.7818608E-02  0.3353758E+00
         11   -1    0    0    0    0  0.00000000000E+00  0.00000000000E+00  0.39999999674E+01  0.40000000000E+01  0.51100000000E-03 0.  1.
    9000002   -1    0    0    0    0 -0.00000000000E+00 -0.00000000000E+00  0.00000000000E+00  0.93800000000E+00  0.93800000000E+00 0.  1.
         11    1    1    2    0    0 -0.10585815071E-01  0.13234189526E+00  0.14737294409E+01  0.14796976592E+01  0.51100000000E-03 0.  1.
    9000002    1    1    2    0    0  0.35469964013E-01 -0.36915796918E+00  0.92471490846E-01  0.10128823728E+01  0.93800000000E+00 0.  1.
         22    1    1    2    0    0 -0.24884148942E-01  0.23681607392E+00  0.24337990356E+01  0.24454199679E+01  0.00000000000E+00 0. -1.
</event>
<event>
 5    1  0.5849602E+001  0.1595582E+01  0.7818608E-02  0.3358172E+00
         11   -1    0    0    0    0  0.00000000000E+00  0.00000000000E+00  0.39999999674E+01  0.40000000000E+01  0.51100000000E-03 0.  1.
    9000002   -1    0    0    0    0 -0.00000000000E+00 -0.00000000000E+00  0.00000000000E+00  0.93800000000E+00  0.93800000000E+00 0.  1.
         11    1    1    2    0    0  0.19677982307E-02 -0.15969976323E+00  0.77186043376E+00  0.78821106115E+00  0.51100000000E-03 0.  1.
    9000002    1    1    2    0    0 -0.19672883116E-01  0.48341549341E+00  0.16345830480E+00  0.10680075744E+01  0.93800000000E+00 0.  1.
         22    1    1    2    0    0  0.17705084886E-01 -0.32371573018E+00  0.30646812288E+01  0.30817813644E+01  0.00000000000E+00 0.  1.
</event>
<event>
 5    1  0.5849602E+001  0.1599677E+01  0.7818608E-02  0.3353714E+00
         11   -1    0    0    0    0  0.00000000000E+00  0.00000000000E+00  0.39999999674E+01  0.40000000000E+01  0.51100000000E-03 0.  1.
    9000002   -1    0    0    0    0 -0.00000000000E+00 -0.00000000000E+00  0.00000000000E+00  0.93800000000E+00  0.93800000000E+00 0.  1.
         11    1    1    2    0    0 -0.11726191339E+00 -0.24108014175E-01  0.11259153509E+01  0.11322619799E+01  0.51100000000E-03 0.  1.
    9000002    1    1    2    0    0  0.40580450648E+00  0.82001585147E-01  0.11582626876E+00  0.10318242496E+01  0.93800000000E+00 0.  1.
         22    1    1    2    0    0 -0.28854259309E+00 -0.57893570972E-01  0.27582583477E+01  0.27739137705E+01  0.00000000000E+00 0.  1.
</event>
<event>
 5    1  0.5849602E+001  0.1599676E+01  0.7818608E-02  0.3353715E+00
         11   -1    0    0    0    0  0.00000000000E+00  0.00000000000E+00  0.39999999674E+01  0.40000000000E+01  0.51100000000E-03 0.  1.
    9000002   -1    0    0    0    0 -0.00000000000E+00 -0.00000000000E+00  0.00000000000E+00  0.93800000000E+00  0.93800000000E+00 0. -1.
         11    1    1    2    0    0  0.36610614142E-01  0.28895682709E-01  0.43067798229E+00  0.43319635628E+00  0.51100000000E-03 0.  1.
    9000002    1    1    2    0    0 -0.32422971965E+00 -0.26308113887E+00  0.11786625427E+00  0.10334761974E+01  0.93800000000E+00 0. -1.
         22    1    1    2    0    0  0.28761910551E+00  0.23418545616E+00  0.34514557308E+01  0.34713274463E+01  0.00000000000E+00 0.  1.
</event>
<event>
 5    1  0.5849602E+001  0.1585613E+01  0.7818608E-02  0.3369128E+00
         11   -1    0    0    0    0  0.00000000000E+00  0.00000000000E+00  0.39999999674E+01  0.40000000000E+01  0.51100000000E-03 0. -1.
    9000002   -1    0    0    0    0 -0.00000000000E+00 -0.00000000000E+00  0.00000000000E+00  0.93800000000E+00  0.93800000000E+00 0.  1.
         11    1    1    2    0    0 -0.15554401559E-01 -0.12489571341E+00  0.49815157024E+00  0.51380553393E+00  0.51100000000E-03 0. -1.
    9000002    1    1    2    0    0 -0.36394636745E+00  0.39280570949E+00  0.21073424907E+00  0.11004572720E+01  0.93800000000E+00 0.  1.
         22    1    1    2    0    0  0.37950076901E+00 -0.26790999608E+00  0.32911141481E+01  0.33237371941E+01  0.00000000000E+00 0. -1.
</event>
<event>
 5    1  0.5849602E+001  0.1599677E+01  0.7818608E-02  0.3353714E+00
         11   -1    0    0    0    0  0.00000000000E+00  0.00000000000E+00  0.39999999674E+01  0.40000000000E+01  0.51100000000E-03 0. -1.
    9000002   -1    0    0    0    0 -0.00000000000E+00 -0.00000000000E+00  0.00000000000E+00  0.93800000000E+00  0.93800000000E+00 0. -1.
         11    1    1    2    0    0 -0.94202621194E-01  0.74971463404E-01  0.87236747544E+00  0.88063620609E+00  0.51100000000E-03 0. -1.
    9000002    1    1    2    0    0  0.41377925012E+00 -0.32808221777E+00  0.19182356973E+00  0.10933853353E+01  0.93800000000E+00 0. -1.
         22    1    1    2    0    0 -0.31957662892E+00  0.25311075436E+00  0.29358089222E+01  0.29639784587E+01  0.00000000000E+00 0. -1.
</event>
<event>
 5    1  0.5849602E+001  0.1599666E+01  0.7818608E-02  0.3353726E+00
         11   -1    0    0    0    0  0.00000000000E+00  0.00000000000E+00  0.39999999674E+01  0.40000000000E+01  0.51100000000E-03 0. -1.
    9000002   -1    0    0    0    0 -0.00000000000E+00 -0.00000000000E+00  0.00000000000E+00  0.93800000000E+00  0.93800000000E+00 0.  1.
         11    1    1    2    0    0 -0.17995774271E+00 -0.77579674666E-01  0.14679742695E+01  0.14809969994E+01  0.51100000000E-03 0. -1.
    9000002    1    1    2    0    0  0.46115167213E+00  0.19642814149E+00  0.17203673417E+00  0.10773511579E+01  0.93800000000E+00 0.  1.
         22    1    1    2    0    0 -0.28119392942E+00 -0.11884846682E+00  0.23599889637E+01  0.23796518427E+01  0.00000000000E+00 0. -1.
</event>
<event>
 5    1  0.5849602E+001  0.1599152E+01  0.7818608E-02  0.3354284E+00
         11   -1    0    0    0    0  0.00000000000E+00  0.00000000000E+00  0.39999999674E+01  0.40000000000E+01  0.51100000000E-03 0. -1.
    9000002   -1    0    0    0    0 -0.00000000000E+00 -0.00000000000E+00  0.00000000000E+00  0.93800000000E+00  0.93800000000E+00 0.  1.
         11    1    1    2    0    0  0.83668805386E-01 -0.45372488958E-02  0.59887873746E+00  0.60471237702E+00  0.51100000000E-03 0. -1.
    9000002    1    1    2    0    0 -0.54528378801E+00 -0.97530619664E-01  0.21259594745E+00  0.11099043509E+01  0.93800000000E+00 0.  1.
         22    1    1    2    0    0  0.46161498262E+00  0.10206786856E+00  0.31885252825E+01  0.32233832721E+01  0.00000000000E+00 0. -1.
</event>
<event>
 5    1  0.5849602E+001  0.1598434E+01  0.7818608E-02  0.3355064E+00
         11   -1    0    0    0    0  0.00000000000E+00  0.00000000000E+00  0.39999999674E+01  0.40000000000E+01  0.51100000000E-03 0. -1.
    9000002   -1    0    0    0    0 -0.00000000000E+00 -0.00000000000E+00  0.00000000000E+00  0.93800000000E+00  0.93800000000E+00 0. -1.
         11    1    1    2    0    0 -0.64740541239E-01  0.13362676403E-01  0.94322893833E+00  0.94554269604E+00  0.51100000000E-03 0. -1.
    9000002    1    1    2    0    0  0.39019163502E+00  0.31787996353E-01  0.10429389758E+00  0.10217539850E+01  0.93800000000E+00 0. -1.
         22    1    1    2    0    0 -0.32545109378E+00 -0.45150672756E-01  0.29524771314E+01  0.29707033190E+01  0.00000000000E+00 0.  1.
</event>
<event>
 5    1  0.5849602E+001  0.1599677E+01  0.7818608E-02  0.3353714E+00
         11   -1    0    0    0    0  0.00000000000E+00  0.00000000000E+00  0.39999999674E+01  0.40000000000E+01  0.51100000000E-03 0.  1.
    9000002   -1    0    0    0    0 -0.00000000000E+00 -0.00000000000E+00  0.00000000000E+00  0.93800000000E+00  0.93800000000E+00 0.  1.
         11    1    1    2    0    0 -0.58384202643E-01  0.12410667716E+00  0.11270268463E+01  0.11353417793E+01  0.51100000000E-03 0. -1.
    9000002    1    1    2    0    0  0.19787588260E+00 -0.42263060295E+00  0.14827932873E+00  0.10581125889E+01  0.93800000000E+00 0.  1.
         22    1    1    2    0    0 -0.13949167995E+00  0.29852392579E+00  0.27246937924E+01  0.27445456318E+01  0.00000000000E+00 0.  1.
</event>
<event>
 5    1  0.5849602E+001  0.1599672E+01  0.7818608E-02  0.3353720E+00
         11   -1    0    0    0    0  0.00000000000E+00  0.00000000000E+00  0.39999999674E+01  0.40000000000E+01  0.51100000000E-03 0.  1.
    9000002   -1    0    0    0    0 -0.00000000000E+00 -0.00000000000E+00  0.00000000000E+00  0.93800000000E+00  0.93800000000E+00 0.  1.
         11    1    1    2    0    0 -0.31587840134E-01  0.23009505097E-01  0.44804281452E+00  0.44974420922E+00  0.51100000000E-03 0.  1.
    9000002    1    1    2    0    0  0.28095078053E+00 -0.21503111440E+00  0.83968407339E-01  0.10060151165E+01  0.93800000000E+00 0.  1.
         22    1    1    2    0    0 -0.24936294039E+00  0.19202160931E+00  0.34679887455E+01  0.34822406743E+01  0.00000000000E+00 0.  1.
</event>
<event>
 5    1  0.5849602E+001  0.1599674E+01  0.7818608E-02  0.3353718E+00
         11   -1    0    0    0    0  0.00000000000E+00  0.00000000000E+00  0.39999999674E+01  0.40000000000E+01  0.51100000000E-03 0. -1.
    9000002   -1    0    0    0    0 -0.00000000000E+00 -0.00000000000E+00  0.00000000000E+00  0.93800000000E+00  0.93800000000E+00 0.  1.
         11    1    1    2    0    0  0.20499588004E+00  0.83910331945E-01  0.14614156251E+01  0.14781069464E+01  0.51100000000E-03 0. -1.
    9000002    1    1    2    0    0 -0.52583858041E+00 -0.21278717041E+00  0.22300507022E+00  0.11186419686E+01  0.93800000000E+00 0.  1.
         22    1    1    2    0    0  0.32084270037E+00  0.12887683846E+00  0.23155792720E+01  0.23412510850E+01  0.00000000000E+00 0. -1.
</event>
<event>
 5    1  0.5849602E+001  0.1598486E+01  0.7818608E-02  0.3355008E+00
         11   -1    0    0    0    0  0.00000000000E+00  0.00000000000E+00  0.39999999674E+01  0.40000000000E+01  0.51100000000E-03 0. -1.
    9000002   -1    0    0    0    0 -0.00000000000E+00 -0.00000000000E+00  0.00000000000E+00  0.93800000000E+00  0.93800000000E+00 0. -1.
         11    1    1    2    0    0 -0.16711563027E-01  0.28162357356E+00  0.13823037282E+01  0.14107994087E+01  0.51100000000E-03 0. -1.
    9000002    1    1    2    0    0  0.63484781713E-01 -0.64645400130E+00  0.29895916919E+00  0.11794717793E+01  0.93800000000E+00 0. -1.
         22    1    1    2    0    0 -0.46773218686E-01  0.36483042774E+00  0.23187370700E+01  0.23477288120E+01  0.00000000000E+00 0. -1.
</event>
<event>
 5    1  0.5849602E+001  0.1599651E+01  0.7818608E-02  0.3353742E+00
         11   -1    0    0    0    0  0.00000000000E+00  0.00000000000E+00  0.39999999674E+01  0.40000000000E+01  0.51100000000E-03 0. -1.
    9000002   -1    0    0    0    0 -0.00000000000E+00 -0.00000000000E+00  0.00000000000E+00  0.93800000000E+00  0.93800000000E+00 0. -1.
         11    1    1    2    0    0  0.46876638753E-01  0.94075001996E-01  0.67855226303E+00  0.68664471165E+00  0.51100000000E-03 0. -1.
    9000002    1    1    2    0    0 -0.28277257367E+00 -0.53034663116E+00  0.25210910125E+00  0.11422043935E+01  0.93800000000E+00 0. -1.
         22    1    1    2    0    0  0.23589593492E+00  0.43627162917E+00  0.30693386031E+01  0.31091508948E+01  0.00000000000E+00 0. -1.
</event>
<event>
 5    1  0.5849602E+001  0.1599607E+01  0.7818608E-02  0.3353790E+00
         11   -1    0    0    0    0  0.00000000000E+00  0.00000000000E+00  0.39999999674E+01  0.40000000000E+01  0.51100000000E-03 0.  1.
    9000002   -1    0    0    0    0 -0.00000000000E+00 -0.00000000000E+00  0.00000000000E+00  0.93800000000E+00  0.93800000000E+00 0.  1.
         11    1    1    2    0    0 -0.35446406323E-01  0.25086645645E-01  0.41192910980E+00  0.41421207145E+00  0.51100000000E-03 0.  1.
    9000002    1    1    2    0    0  0.36895290728E+00 -0.18953422826E+00  0.11633515224E+00  0.10321953977E+01  0.93800000000E+00 0.  1.
         22    1    1    2    0    0 -0.33350650096E+00  0.16444758262E+00  0.34717357053E+01  0.34915925308E+01  0.00000000000E+00 0.  1.
</event>
<event>
 5    1  0.5849602E+001  0.1584973E+01  0.7818608E-02  0.3369836E+00
         11   -1    0    0    0    0  0.00000000000E+00  0.00000000000E+00  0.39999999674E+01  0.40000000000E+01  0.51100000000E-03 0. -1.
    9000002   -1    0    0    0    0 -0.00000000000E+00 -0.00000000000E+00  0.00000000000E+00  0.93800000000E+00  0.93800000000E+00 0.  1.
         11    1    1    2    0    0  0.78202059788E-01  0.19066809596E+00  0.64522240017E+00  0.67733454937E+00  0.51100000000E-03 0. -1.
    9000002    1    1    2    0    0  0.14141637072E+00 -0.78778029389E+00  0.49125690388E+00  0.13273182463E+01  0.93800000000E+00 0.  1.
         22    1    1    2    0    0 -0.21961843051E+00  0.59711219793E+00  0.28635206633E+01  0.29333472043E+01  0.00000000000E+00 0. -1.
</event>
<event>
 5    1  0.5849602E+001  0.1599674E+01  0.7818608E-02  0.3353717E+00
         11   -1    0    0    0    0  0.00000000000E+00  0.00000000000E+00  0.39999999674E+01  0.40000000000E+01  0.51100000000E-03 0.  1.
    9000002   -1    0    0    0    0 -0.00000000000E+00 -0.00000000000E+00  0.00000000000E+00  0.93800000000E+00  0.93800000000E+00 0.  1.
         11    1    1    2    0    0 -0.76109034627E-02  0.10857210114E+00  0.90789388226E+00  0.91439454808E+00  0.51100000000E-03 0.  1.
    9000002    1    1    2    0    0  0.25410711863E-01 -0.46343985386E+00  0.14662510346E+00  0.10567710837E+01  0.93800000000E+00 0.  1.
         22    1    1    2    0    0 -0.17799808400E-01  0.35486775271E+00  0.29454809816E+01  0.29668343682E+01  0.00000000000E+00 0.  1.
</event>
<event>
 5    1  0.5849602E+001  0.1599673E+01  0.7818608E-02  0.3353719E+00
         11   -1    0    0    0    0  0.00000000000E+00  0.00000000000E+00  0.39999999674E+01  0.40000000000E+01  0.51100000000E-03 0. -1.
    9000002   -1    0    0    0    0 -0.00000000000E+00 -0.00000000000E+00  0.00000000000E+00  0.93800000000E+00  0.93800000000E+00 0. -1.
         11    1    1    2    0    0  0.21701505265E-01 -0.11218099839E-01  0.25096799283E+00  0.25215470577E+00  0.51100000000E-03 0. -1.
    9000002    1    1    2    0    0 -0.34551789002E+00  0.15825031548E+00  0.97179530244E-01  0.10167170874E+01  0.93800000000E+00 0. -1.
         22    1    1    2    0    0  0.32381638476E+00 -0.14703221564E+00  0.36518524443E+01  0.36691282068E+01  0.00000000000E+00 0. -1.
</event>
<event>
 5    1  0.5849602E+001  0.1598633E+01  0.7818608E-02  0.3354848E+00
         11   -1    0    0    0    0  0.00000000000E+00  0.00000000000E+00  0.39999999674E+01  0.40000000000E+01  0.51100000000E-03 0.  1.
    9000002   -1    0    0    0    0 -0.00000000000E+00 -0.00000000000E+00  0.00000000000E+00  0.93800000000E+00  0.93800000000E+00 0.  1.
         11    1    1    2    0    0 -0.99569702982E-01  0.11684815175E-01  0.86552056055E+00  0.87130750170E+00  0.51100000000E-03 0.  1.
    9000002    1    1    2    0    0  0.57111588997E+00 -0.79109579495E-02  0.22726940043E+00  0.11214862119E+01  0.93800000000E+00 0.  1.
         22    1    1    2    0    0 -0.47154618699E+00 -0.37738572258E-02  0.29072100064E+01  0.29452062864E+01  0.00000000000E+00 0.  1.
</event>
<event>
 5    1  0.5849602E+001  0.1599676E+01  0.7818608E-02  0.3353715E+00
         11   -1    0    0    0    0  0.00000000000E+00  0.00000000000E+00  0.39999999674E+01  0.40000000000E+01  0.51100000000E-03 0.  1.
    9000002   -1    0    0    0    0 -0.00000000000E+00 -0.00000000000E+00  0.00000000000E+00  0.93800000000E+00  0.93800000000E+00 0. -1.
         11    1    1    2    0    0 -0.45804767780E-01  0.18115476078E-01  0.51869439076E+00  0.52102819439E+00  0.51100000000E-03 0. -1.
    9000002    1    1    2    0    0  0.34888941162E+00 -0.13940839955E+00  0.94928886080E-01  0.10148960621E+01  0.93800000000E+00 0. -1.
         22    1    1    2    0    0 -0.30308464384E+00  0.12129292347E+00  0.33863766905E+01  0.34020757435E+01  0.00000000000E+00 0.  1.
</event>
<event>
 5    1  0.5849602E+001  0.1489230E+01  0.7818608E-02  0.3483123E+00
         11   -1    0    0    0    0  0.00000000000E+00  0.00000000000E+00  0.39999999674E+01  0.40000000000E+01  0.51100000000E-03 0. -1.
    9000002   -1    0    0    0    0 -0.00000000000E+00 -0.00000000000E+00  0.00000000000E+00  0.93800000000E+00  0.93800000000E+00 0.  1.
         11    1    1    2    0    0  0.66995148531E-01  0.44447631200E+00  0.76495702030E+00  0.88724689117E+00  0.51100000000E-03 0. -1.
    9000002    1    1    2    0    0  0.88449354318E-01 -0.97943953335E-01  0.17012691860E+00  0.96239465642E+00  0.93800000000E+00 0.  1.
         22    1    1    2    0    0 -0.15544450285E+00 -0.34653235867E+00  0.30649160285E+01  0.30883584524E+01  0.00000000000E+00 0. -1.
</event>
<event>
 5    1  0.5849602E+001  0.1594719E+01  0.7818608E-02  0.3359115E+00
         11   -1    0    0    0    0  0.00000000000E+00  0.00000000000E+00  0.39999999674E+01  0.40000000000E+01  0.51100000000E-03 0. -1.
    9000002   -1    0    0    0    0 -0.00000000000E+00 -0.00000000000E+00  0.00000000000E+00  0.93800000000E+00  0.93800000000E+00 0. -1.
         11    1    1    2    0    0  0.50672114178E-01  0.17960461015E+00  0.12265158850E+01  0.12406316764E+01  0.51100000000E-03 0. -1.
    9000002    1    1    2    0    0  0.36228592817E-01 -0.41365413616E+00  0.12071706164E+00  0.10328789204E+01  0.93800000000E+00 0. -1.
         22    1    1    2    0    0 -0.86900706995E-01  0.23404952602E+00  0.26527670207E+01  0.26644894032E+01  0.00000000000E+00 0. -1.
</event>
<event>
 5    1  0.5849602E+001  0.1572370E+01  0.7818608E-02  0.3383909E+00
         11   -1    0    0    0    0  0.00000000000E+00  0.00000000000E+00  0.39999999674E+01  0.40000000000E+01  0.51100000000E-03 0. -1.
    9000002   -1    0    0    0    0 -0.00000000000E+00 -0.00000000000E+00  0.00000000000E+00  0.93800000000E+00  0.93800000000E+00 0.  1.
         11    1    1    2    0    0  0.29284812768E+00  0.83938469748E-01  0.66872451858E+00  0.73484585830E+00  0.51100000000E-03 0. -1.
    9000002    1    1    2    0    0 -0.73141614560E+00 -0.18996293826E+00  0.44856192881E+00  0.12853432615E+01  0.93800000000E+00 0.  1.
         22    1    1    2    0    0  0.43856801792E+00  0.10602446851E+00  0.28827135200E+01  0.29178108802E+01  0.00000000000E+00 0. -1.
</event>
<event>
 5    1  0.5849602E+001  0.1597918E+01  0.7818608E-02  0.3355626E+00
         11   -1    0    0    0    0  0.00000000000E+00  0.00000000000E+00  0.39999999674E+01  0.40000000000E+01  0.51100000000E-03 0.  1.
    9000002   -1    0    0    0    0 -0.00000000000E+00 -0.00000000000E+00  0.00000000000E+00  0.93800000000E+00  0.93800000000E+00 0. -1.
         11    1    1    2    0    0  0.35956522204E-02  0.20033046205E-01  0.13513881875E+00  0.13666386907E+00  0.51100000000E-03 0.  1.
    9000002    1    1    2    0    0 -0.42041330848E+00 -0.14822856795E+00  0.13639871786E+00  0.10474577168E+01  0.93800000000E+00 0. -1.
         22    1    1    2    0    0  0.41681765626E+00  0.12819552175E+00  0.37284624308E+01  0.37538784141E+01  0.00000000000E+00 0.  1.
</event>
<event>
 5    1  0.5849602E+001  0.1599676E+01  0.7818608E-02  0.3353715E+00
         11   -1    0    0    0    0  0.00000000000E+00  0.00000000000E+00  0.39999999674E+01  0.40000000000E+01  0.51100000000E-03 0.  1.
    9000002   -1    0    0    0    0 -0.00000000000E+00 -0.00000000000E+00  0.00000000000E+00  0.93800000000E+00  0.93800000000E+00 0. -1.
         11    1    1    2    0    0  0.42311490377E-02  0.15759690443E+00  0.14914935562E+01  0.14998026458E+01  0.51100000000E-03 0.  1.
    9000002    1    1    2    0    0 -0.14018386997E-01 -0.40930805840E+00  0.11327860918E+00  0.10297599940E+01  0.93800000000E+00 0. -1.
         22    1    1    2    0    0  0.97872379591E-02  0.25171115397E+00  0.23952278020E+01  0.24084373603E+01  0.00000000000E+00 0.  1.
</event>
<event>
 5    1  0.5849602E+001  0.1583585E+01  0.7818608E-02  0.3371374E+00
         11   -1    0    0    0    0  0.00000000000E+00  0.00000000000E+00  0.39999999674E+01  0.40000000000E+01  0.51100000000E-03 0. -1.
    9000002   -1    0    0    0    0 -0.00000000000E+00 -0.00000000000E+00  0.00000000000E+00  0.93800000000E+00  0.93800000000E+00 0.  1.
         11    1    1    2    0    0 -0.70151318631E-01 -0.24098854729E-01  0.15623515006E+00  0.17294983533E+00  0.51100000000E-03 0. -1.
    9000002    1    1    2    0    0  0.42373114140E+00 -0.21265893226E+00  0.16753675192E+00  0.10642764983E+01  0.93800000000E+00 0.  1.
         22    1    1    2    0    0 -0.35357982277E+00  0.23675778699E+00  0.36762280654E+01  0.37007736663E+01  0.00000000000E+00 0. -1.
</event>
<event>
 5    1  0.5849602E+001  0.1599623E+01  0.7818608E-02  0.3353773E+00
         11   -1    0    0    0    0  0.00000000000E+00  0.00000000000E+00  0.39999999674E+01  0.40000000000E+01  0.51100000000E-03 0. -1.
    9000002   -1    0    0    0    0 -0.00000000000E+00 -0.00000000000E+00  0.00000000000E+00  0.93800000000E+00  0.93800000000E+00 0. -1.
         11    1    1    2    0    0 -0.10907620606E-01 -0.14366311691E+00  0.14542341482E+01  0.14613539224E+01  0.51100000000E-03 0. -1.
    9000002    1    1    2    0    0  0.42819618753E-01  0.36732928677E+00  0.91953244545E-01  0.10124543070E+01  0.93800000000E+00 0. -1.
         22    1    1    2    0    0 -0.31911998147E-01 -0.22366616986E+00  0.24538125746E+01  0.24641917706E+01  0.00000000000E+00 0. -1.
</event>
<event>
 5    1  0.5849602E+001  0.1599671E+01  0.7818608E-02  0.3353720E+00
         11   -1    0    0    0    0  0.00000000000E+00  0.00000000000E+00  0.39999999674E+01  0.40000000000E+01  0.51100000000E-03 0.  1.
    9000002   -1    0    0    0    0 -0.00000000000E+00 -0.00000000000E+00  0.00000000000E+00  0.93800000000E+00  0.93800000000E+00 0. -1.
         11    1    1    2    0    0  0.79909553421E-01 -0.70235418575E-01  0.11721493867E+01  0.11769677127E+01  0.51100000000E-03 0.  1.
    9000002    1    1    2    0    0 -0.26332973847E+00  0.24240422129E+00  0.85974366161E-01  0.10076397914E+01  0.93800000000E+00 0. -1.
         22    1    1    2    0    0  0.18342018505E+00 -0.17216880271E+00  0.27418762145E+01  0.27533924959E+01  0.00000000000E+00 0.  1.
</event>
<event>
 5    1  0.5849602E+001  0.1592165E+01  0.7818608E-02  0.3361912E+00
         11   -1    0    0    0    0  0.00000000000E+00  0.00000000000E+00  0.39999999674E+01  0.40000000000E+01  0.51100000000E-03 0.  1.
    9000002   -1    0    0    0    0 -0.00000000000E+00 -0.00000000000E+00  0.00000000000E+00  0.93800000000E+00  0.93800000000E+00 0.  1.
         11    1    1    2    0    0 -0.23628577380E+00  0.16138207711E+00  0.14040078161E+01  0.14328689230E+01  0.51100000000E-03 0.  1.
    9000002    1    1    2    0    0  0.36247340262E+00 -0.46471284663E+00  0.24921846827E+00  0.11354729598E+01  0.93800000000E+00 0.  1.
         22    1    1    2    0    0 -0.12618762882E+00  0.30333076952E+00  0.23467736830E+01  0.23696581173E+01  0.00000000000E+00 0.  1.
</event>
<event>
 5    1  0.5849602E+001  0.1599136E+01  0.7818608E-02  0.3354302E+00
         11   -1    0    0    0    0  0.00000000000E+00  0.00000000000E+00  0.39999999674E+01  0.40000000000E+01  0.51100000000E-03 0.  1.
    9000002   -1    0    0    0    0 -0.00000000000E+00 -0.00000000000E+00  0.00000000000E+00  0.93800000000E+00  0.93800000000E+00 0.  1.
         11    1    1    2    0    0 -0.10845914874E+00  0.15728488611E+00  0.10372484292E+01  0.10546973439E+01  0.51100000000E-03 0.  1.
    9000002    1    1    2    0    0  0.43695880197E+00 -0.48634415521E+00  0.30248846243E+00  0.11827116732E+01  0.93800000000E+00 0.  1.
         22    1    1    2    0    0 -0.32849965323E+00  0.32905926910E+00  0.26602630758E+01  0.27005909829E+01  0.00000000000E+00 0.  1.
</event>
<event>
 5    1  0.5849602E+001  0.1599634E+01  0.7818608E-02  0.3353761E+00
         11   -1    0    0    0    0  0.00000000000E+00  0.00000000000E+00  0.39999999674E+01  0.40000000000E+01  0.51100000000E-03 0.  1.
    9000002   -1    0    0    0    0 -0.00000000000E+00 -0.00000000000E+00  0.00000000000E+00  0.93800000000E+00  0.93800000000E+00 0. -1.
         11    1    1    2    0    0  0.51165982342E-01  0.17916859873E-01  0.53663257786E+00  0.53936421494E+00  0.51100000000E-03 0.  1.
    9000002    1    1    2    0    0 -0.35614796977E+00 -0.94524062212E-01  0.91265692404E-01  0.10119039487E+01  0.93800000000E+00 0. -1.
         22    1    1    2    0    0  0.30498198743E+00  0.76607202339E-01  0.33721016971E+01  0.33867318364E+01  0.00000000000E+00 0.  1.
</event>
<event>
 5    1  0.5849602E+001  0.1599675E+01  0.7818608E-02  0.3353716E+00
         11   -1    0    0    0    0  0.00000000000E+00  0.00000000000E+00  0.39999999674E+01  0.40000000000E+01  0.51100000000E-03 0. -1.
    9000002   -1    0    0    0    0 -0.00000000000E+00 -0.00000000000E+00  0.00000000000E+00  0.93800000000E+00  0.93800000000E+00 0. -1.
         11    1    1    2    0    0 -0.31590167003E-01 -0.78577101423E-01  0.83298862378E+00  0.83728287215E+00  0.51100000000E-03 0. -1.
    9000002    1    1    2    0    0  0.14332648434E+00  0.36298664604E+00  0.10260571100E+00  0.10211139595E+01  0.93800000000E+00 0. -1.
         22    1    1    2    0    0 -0.11173631733E+00 -0.28440954462E+00  0.30644056326E+01  0.30796031684E+01  0.00000000000E+00 0. -1.
</event>
<event>
 5    1  0.5849602E+001  0.1599676E+01  0.7818608E-02  0.3353715E+00
         11   -1    0    0    0    0  0.00000000000E+00  0.00000000000E+00  0.39999999674E+01  0.40000000000E+01  0.51100000000E-03 0. -1.
    9000002   -1    0    0    0    0 -0.00000000000E+00 -0.00000000000E+00  0.00000000000E+00  0.93800000000E+00  0.93800000000E+00 0.  1.
         11    1    1    2    0    0  0.13182207597E-01  0.13991353580E+00  0.13801167003E+01  0.13872533783E+01  0.51100000000E-03 0. -1.
    9000002    1    1    2    0    0 -0.37829072156E-01 -0.39785268013E+00  0.10772883845E+00  0.10252645007E+01  0.93800000000E+00 0.  1.
         22    1    1    2    0    0  0.24646864558E-01  0.25793914434E+00  0.25121544286E+01  0.25254821210E+01  0.00000000000E+00 0. -1.
</event>
<event>
 5    1  0.5849602E+001  0.1599676E+01  0.7818608E-02  0.3353716E+00
         11   -1    0    0    0    0  0.00000000000E+00  0.00000000000E+00  0.39999999674E+01  0.40000000000E+01  0.51100000000E-03 0.  1.
    9000002   -1    0    0    0    0 -0.00000000000E+00 -0.00000000000E+00  0.00000000000E+00  0.93800000000E+00  0.93800000000E+00 0.  1.
         11    1    1    2    0    0 -0.99438414892E-01  0.10184133945E+00  0.95249517563E+00  0.96307163674E+00  0.51100000000E-03 0.  1.
    9000002    1    1    2    0    0  0.39035373862E+00 -0.40253234810E+00  0.21761169324E+00  0.11142742847E+01  0.93800000000E+00 0.  1.
         22    1    1    2    0    0 -0.29091532373E+00  0.30069100865E+00  0.28298930985E+01  0.28606540786E+01  0.00000000000E+00 0.  1.
</event>
<event>
 5    1  0.5849602E+001  0.1590287E+01  0.7818608E-02  0.3363973E+00
         11   -1    0    0    0    0  0.00000000000E+00  0.00000000000E+00  0.39999999674E+01  0.40000000000E+01  0.51100000000E-03 0. -1.
    9000002   -1    0    0    0    0 -0.00000000000E+00 -0.00000000000E+00  0.00000000000E+00  0.93800000000E+00  0.93800000000E+00 0.  1.
         11    1    1    2    0    0  0.92229896532E-01  0.93982506879E-01  0.14151101754E+01  0.14212234642E+01  0.51100000000E-03 0. -1.
    9000002    1    1    2    0    0 -0.47044939591E+00 -0.42757121459E-01  0.16038249046E+00  0.10624111016E+01  0.93800000000E+00 0.  1.
         22    1    1    2    0    0  0.37821949937E+00 -0.51225385420E-01  0.24245073015E+01  0.24543654342E+01  0.00000000000E+00 0. -1.
</event>
<event>
 5    1  0.5921581E+001  0.1585815E+01  0.7818608E-02  0.3368905E+00
         11   -1    0    0    0    0  0.00000000000E+00  0.00000000000E+00  0.39999999674E+01  0.40000000000E+01  0.51100000000E-03 0. -1.
    9000002   -1    0    0    0    0 -0.00000000000E+00 -0.00000000000E+00  0.00000000000E+00  0.93800000000E+00  0.93800000000E+00 0.  1.
         11    1    1    2    0    0  0.89849945262E-01  0.50319398600E-01  0.96065302036E+00  0.96615709964E+00  0.51100000000E-03 0. -1.
    9000002    1    1    2    0    0 -0.13907489425E+00  0.23671694477E+00  0.60961565350E-01  0.97925331279E+00  0.93800000000E+00 0.  1.
         22    1    1    2    0    0  0.49224948990E-01 -0.28703634337E+00  0.29783853816E+01  0.29925895876E+01  0.00000000000E+00 0. -1.
</event>
<event>
 5    1  0.5849602E+001  0.1598873E+01  0.7818608E-02  0.3354588E+00
         11   -1    0    0    0    0  0.00000000000E+00  0.00000000000E+00  0.39999999674E+01  0.40000000000E+01  0.51100000000E-03 0.  1.
    9000002   -1    0    0    0    0 -0.00000000000E+00 -0.00000000000E+00  0.00000000000E+00  0.93800000000E+00  0.93800000000E+00 0. -1.
         11    1    1    2    0    0 -0.14225899591E+00 -0.56435220588E-01  0.11692258675E+01  0.11791997059E+01  0.51100000000E-03 0.  1.
    9000002    1    1    2    0    0  0.55937525918E+00  0.18871320947E+00  0.24345365383E+00  0.11347365499E+01  0.93800000000E+00 0. -1.
         22    1    1    2    0    0 -0.41711626328E+00 -0.13227798888E+00  0.25873204460E+01  0.26240637442E+01  0.00000000000E+00 0.  1.
</event>
<event>
 5    1  0.5849602E+001  0.1597812E+01  0.7818608E-02  0.3355742E+00
         11   -1    0    0    0    0  0.00000000000E+00  0.00000000000E+00  0.39999999674E+01  0.40000000000E+01  0.51100000000E-03 0. -1.
    9000002   -1    0    0    0    0 -0.00000000000E+00 -0.00000000000E+00  0.00000000000E+00  0.93800000000E+00  0.93800000000E+00 0. -1.
         11    1    1    2    0    0  0.15506524967E+00  0.11787955591E+00  0.10168535736E+01  0.10353416212E+01  0.51100000000E-03 0. -1.
    9000002    1    1    2    0    0 -0.43543196890E+00 -0.53840166983E+00  0.34405265049E+00  0.12156042053E+01  0.93800000000E+00 0. -1.
         22    1    1    2    0    0  0.28036671922E+00  0.42052211391E+00  0.26390937433E+01  0.26870541735E+01  0.00000000000E+00 0. -1.
</event>
<event>
 5    1  0.5849602E+001  0.1598708E+01  0.7818608E-02  0.3354767E+00
         11   -1    0    0    0    0  0.00000000000E+00  0.00000000000E+00  0.39999999674E+01  0.40000000000E+01  0.51100000000E-03 0.  1.
    9000002   -1    0    0    0    0 -0.00000000000E+00 -0.00000000000E+00  0.00000000000E+00  0.93800000000E+00  0.93800000000E+00 0.  1.
         11    1    1    2    0    0  0.93972785793E-01 -0.14154349682E-03  0.59876501433E+00  0.60609463618E+00  0.51100000000E-03 0.  1.
    9000002    1    1    2    0    0 -0.43184909075E+00  0.16531557833E-01  0.12734988372E+00  0.10405906604E+01  0.93800000000E+00 0.  1.
         22    1    1    2    0    0  0.33787630496E+00 -0.16390014337E-01  0.32738850693E+01  0.32913147034E+01  0.00000000000E+00 0.  1.
</event>
<event>
 5    1  0.5849602E+001  0.1589179E+01  0.7818608E-02  0.3365193E+00
         11   -1    0    0    0    0  0.00000000000E+00  0.00000000000E+00  0.39999999674E+01  0.40000000000E+01  0.51100000000E-03 0.  1.
    9000002   -1    0    0    0    0 -0.00000000000E+00 -0.00000000000E+00  0.00000000000E+00  0.93800000000E+00  0.93800000000E+00 0.  1.
         11    1    1    2    0    0  0.51458140574E-01 -0.43362546054E-01  0.62208780029E+00  0.62571698316E+00  0.51100000000E-03 0.  1.
    9000002    1    1    2    0    0  0.23974487419E+00  0.20854519971E+00  0.75815057733E-01  0.99325758391E+00  0.93800000000E+00 0.  1.
         22    1    1    2    0    0 -0.29120301476E+00 -0.16518265366E+00  0.33020971093E+01  0.33190254329E+01  0.00000000000E+00 0.  1.
</event>
<event>
 5    1  0.5849602E+001  0.1599629E+01  0.7818608E-02  0.3353766E+00
         11   -1    0    0    0    0  0.00000000000E+00  0.00000000000E+00  0.39999999674E+01  0.40000000000E+01  0.51100000000E-03 0.  1.
    9000002   -1    0    0    0    0 -0.00000000000E+00 -0.00000000000E+00  0.00000000000E+00  0.93800000000E+00  0.93800000000E+00 0.  1.
         11    1    1    2    0    0  0.14356451493E+00 -0.12100474732E+00  0.13764523947E+01  0.13891991847E+01  0.51100000000E-03 0.  1.
    9000002    1    1    2    0    0 -0.41504092956E+00  0.32151929658E+00  0.18955006800E+00  0.10915158540E+01  0.93800000000E+00 0.  1.
         22    1    1    2    0    0  0.27147641464E+00 -0.20051454926E+00  0.24339975047E+01  0.24572849613E+01  0.00000000000E+00 0.  1.
</event>
<event>
 5    1  0.5849602E+001  0.1599671E+01  0.7818608E-02  0.3353720E+00
         11   -1    0    0    0    0  0.00000000000E+00  0.00000000000E+00  0.39999999674E+01  0.40000000000E+01  0.51100000000E-03 0. -1.
    9000002   -1    0    0    0    0 -0.00000000000E+00 -0.00000000000E+00  0.00000000000E+00  0.93800000000E+00  0.93800000000E+00 0. -1.
         11    1    1    2    0    0 -0.38176514549E-02  0.53573302059E-01  0.37483308246E+00  0.37866182008E+00  0.51100000000E-03 0. -1.
    9000002    1    1    2    0    0  0.27777440113E-01 -0.55408283111E+00  0.21278284684E+00  0.11103602613E+01  0.93800000000E+00 0. -1.
         22    1    1    2    0    0 -0.23959788658E-01  0.50050952905E+00  0.34123840381E+01  0.34489779186E+01  0.00000000000E+00 0.  1.
</event>
<event>
 5    1  0.5849602E+001  0.1599634E+01  0.7818608E-02  0.3353761E+00
         11   -1    0    0    0    0  0.00000000000E+00  0.00000000000E+00  0.39999999674E+01  0.40000000000E+01  0.51100000000E-03 0. -1.
    9000002   -1    0    0    0    0 -0.00000000000E+00 -0.00000000000E+00  0.00000000000E+00  0.93800000000E+00  0.93800000000E+00 0.  1.
         11    1    1    2    0    0 -0.70080930926E-01 -0.41680033023E-01  0.71639655990E+00  0.72102208994E+00  0.51100000000E-03 0. -1.
    9000002    1    1    2    0    0  0.36252277371E+00  0.19754480727E+00  0.11519947654E+00  0.10312912449E+01  0.93800000000E+00 0.  1.
         22    1    1    2    0    0 -0.29244184279E+00 -0.15586477425E+00  0.31684039309E+01  0.31856866652E+01  0.00000000000E+00 0. -1.
</event>
<event>
 5    1  0.5849602E+001  0.1599223E+01  0.7818608E-02  0.3354207E+00
         11   -1    0    0    0    0  0.00000000000E+00  0.00000000000E+00  0.39999999674E+01  0.40000000000E+01  0.51100000000E-03 0.  1.
    9000002   -1    0    0    0    0 -0.00000000000E+00 -0.00000000000E+00  0.00000000000E+00  0.93800000000E+00  0.93800000000E+00 0. -1.
         11    1    1    2    0    0  0.45223393962E-01  0.33205714004E-01  0.45476707139E+00  0.45821515159E+00  0.51100000000E-03 0.  1.
    9000002    1    1    2    0    0 -0.36663500504E+00 -0.41547895293E+00  0.21267259109E+00  0.11100079361E+01  0.93800000000E+00 0. -1.
         22    1    1    2    0    0  0.32141161108E+00  0.38227323893E+00  0.33325603049E+01  0.33697769123E+01  0.00000000000E+00 0.  1.
</event>
<event>
 5    1  0.5849602E+001  0.1599670E+01  0.7818608E-02  0.3353721E+00
         11   -1    0    0    0    0  0.00000000000E+00  0.00000000000E+00  0.39999999674E+01  0.40000000000E+01  0.51100000000E-03 0.  1.
    9000002   -1    0    0    0    0 -0.00000000000E+00 -0.00000000000E+00  0.00000000000E+00  0.93800000000E+00  0.93800000000E+00 0.  1.
         11    1    1    2    0    0  0.10325149923E+00 -0.15531828452E+00  0.14431180804E+01  0.14551201658E+01  0.51100000000E-03 0.  1.
    9000002    1    1    2    0    0 -0.26664261691E+00  0.41490889411E+00  0.16633429469E+00  0.10727342509E+01  0.93800000000E+00 0.  1.
         22    1    1    2    0    0  0.16339111768E+00 -0.25959060959E+00  0.23905475922E+01  0.24101455833E+01  0.00000000000E+00 0.  1.
</event>
<event>
 5    1  0.5849602E+001  0.1599617E+01  0.7818608E-02  0.3353779E+00
         11   -1    0    0    0    0  0.00000000000E+00  0.00000000000E+00  0.39999999674E+01  0.40000000000E+01  0.51100000000E-03 0.  1.
    9000002   -1    0    0    0    0 -0.00000000000E+00 -0.00000000000E+00  0.00000000000E+00  0.93800000000E+00  0.93800000000E+00 0.  1.
         11    1    1    2    0    0 -0.19429009732E-01  0.28612229841E-01  0.42666982922E+00  0.42806956257E+00  0.51100000000E-03 0.  1.
    9000002    1    1    2    0    0  0.17489089453E+00 -0.31545115308E+00  0.87383967619E-01  0.10087498266E+01  0.93800000000E+00 0.  1.
         22    1    1    2    0    0 -0.15546188480E+00  0.28683892324E+00  0.34859461705E+01  0.35011806108E+01  0.00000000000E+00 0.  1.
</event>
<event>
 5    1  0.5849602E+001  0.1599605E+01  0.7818608E-02  0.3353792E+00
         11   -1    0    0    0    0  0.00000000000E+00  0.00000000000E+00  0.39999999674E+01  0.40000000000E+01  0.51100000000E-03 0. -1.
    9000002   -1    0    0    0    0 -0.00000000000E+00 -0.00000000000E+00  0.00000000000E+00  0.93800000000E+00  0.93800000000E+00 0. -1.
         11    1    1    2    0    0 -0.23351079437E+00 -0.18522867406E+00  0.92497468712E+00  0.97181036510E+00  0.51100000000E-03 0. -1.
    9000002    1    1    2    0    0  0.79464695012E+00  0.60850820320E+00  0.80642576545E+00  0.15911984552E+01  0.93800000000E+00 0. -1.
         22    1    1    2    0    0 -0.56113615575E+00 -0.42327952915E+00  0.22685995148E+01  0.23749911797E+01  0.00000000000E+00 0. -1.
</event>
<event>
 5    1  0.5849602E+001  0.1573112E+01  0.7818608E-02  0.3383074E+00
         11   -1    0    0    0    0  0.00000000000E+00  0.00000000000E+00  0.39999999674E+01  0.40000000000E+01  0.51100000000E-03 0. -1.
    9000002   -1    0    0    0    0 -0.00000000000E+00 -0.00000000000E+00  0.00000000000E+00  0.93800000000E+00  0.93800000000E+00 0.  1.
         11    1    1    2    0    0 -0.83427574989E-02  0.11993540542E+00  0.75088399080E+00  0.76044798101E+00  0.51100000000E-03 0. -1.
    9000002    1    1    2    0    0 -0.16254182633E+00  0.15239371384E+00  0.53264627386E-01  0.96556968151E+00  0.93800000000E+00 0.  1.
         22    1    1    2    0    0  0.17088458383E+00 -0.27232911926E+00  0.31958513492E+01  0.32119823375E+01  0.00000000000E+00 0. -1.
</event>
<event>
 5    1  0.5849602E+001  0.1569306E+01  0.7818608E-02  0.3387367E+00
         11   -1    0    0    0    0  0.00000000000E+00  0.00000000000E+00  0.39999999674E+01  0.40000000000E+01  0.51100000000E-03 0. -1.
    9000002   -1    0    0    0    0 -0.00000000000E+00 -0.00000000000E+00  0.00000000000E+00  0.93800000000E+00  0.93800000000E+00 0. -1.
         11    1    1    2    0    0 -0.23502335998E+00  0.91418854435E-01  0.14148432063E+01  0.14371412409E+01  0.51100000000E-03 0. -1.
    9000002    1    1    2    0    0  0.97157700471E-01 -0.33254957105E+00  0.10526690107E+00  0.10054620612E+01  0.93800000000E+00 0. -1.
         22    1    1    2    0    0  0.13786565951E+00  0.24113071662E+00  0.24798898600E+01  0.24953966980E+01  0.00000000000E+00 0. -1.
</event>
<event>
 5    1  0.5849602E+001  0.1567340E+01  0.7818608E-02  0.3389593E+00
         11   -1    0    0    0    0  0.00000000000E+00  0.00000000000E+00  0.39999999674E+01  0.40000000000E+01  0.51100000000E-03 0.  1.
    9000002   -1    0    0    0    0 -0.00000000000E+00 -0.00000000000E+00  0.00000000000E+00  0.93800000000E+00  0.93800000000E+00 0. -1.
         11    1    1    2    0    0  0.45465360738E-01 -0.78964801416E-01  0.12952629419E+01  0.12984640498E+01  0.51100000000E-03 0.  1.
    9000002    1    1    2    0    0  0.33276409443E+00 -0.15705745920E+00  0.11779112378E+00  0.10144544035E+01  0.93800000000E+00 0. -1.
         22    1    1    2    0    0 -0.37822945516E+00  0.23602226061E+00  0.25869459017E+01  0.26250815466E+01  0.00000000000E+00 0.  1.
</event>
<event>
 5    1  0.5849602E+001  0.1599264E+01  0.7818608E-02  0.3354163E+00
         11   -1    0    0    0    0  0.00000000000E+00  0.00000000000E+00  0.39999999674E+01  0.40000000000E+01  0.51100000000E-03 0.  1.
    9000002   -1    0    0    0    0 -0.00000000000E+00 -0.00000000000E+00  0.00000000000E+00  0.93800000000E+00  0.93800000000E+00 0. -1.
         11    1    1    2    0    0 -0.31572235806E-01 -0.21928212290E-01  0.20029806582E+00  0.20395398711E+00  0.51100000000E-03 0.  1.
    9000002    1    1    2    0    0  0.46506126366E+00  0.25574992738E+00  0.19425291847E+00  0.10951110449E+01  0.93800000000E+00 0. -1.
         22    1    1    2    0    0 -0.43348902786E+00 -0.23382171509E+00  0.36054489831E+01  0.36389349680E+01  0.00000000000E+00 0.  1.
</event>
<event>
 5    1  0.5849602E+001  0.1599677E+01  0.7818608E-02  0.3353714E+00
         11   -1    0    0    0    0  0.00000000000E+00  0.00000000000E+00  0.39999999674E+01  0.40000000000E+01  0.51100000000E-03 0. -1.
    9000002   -1    0    0    0    0 -0.00000000000E+00 -0.00000000000E+00  0.00000000000E+00  0.93800000000E+00  0.93800000000E+00 0. -1.
         11    1    1    2    0    0 -0.86959456626E-01 -0.10670707331E-01  0.56750996633E+00  0.57423308342E+00  0.51100000000E-03 0.  1.
    9000002    1    1    2    0    0  0.57751720056E+00  0.68919210601E-01  0.23510907305E+00  0.11284486035E+01  0.93800000000E+00 0. -1.
         22    1    1    2    0    0 -0.49055774393E+00 -0.58248503270E-01  0.31973809280E+01  0.32353183131E+01  0.00000000000E+00 0. -1.
</event>
<event>
 5    1  0.5849602E+001  0.1599628E+01  0.7818608E-02  0.3353767E+00
         11   -1    0    0    0    0  0.00000000000E+00  0.00000000000E+00  0.39999999674E+01  0.40000000000E+01  0.51100000000E-03 0.  1.
    9000002   -1    0    0    0    0 -0.00000000000E+00 -0.00000000000E+00  0.00000000000E+00  0.93800000000E+00  0.93800000000E+00 0. -1.
         11    1    1    2    0    0  0.16779906398E-01 -0.28528145997E-02  0.16711135913E+00  0.16797669863E+00  0.51100000000E-03 0.  1.
    9000002    1    1    2    0    0 -0.42565573499E+00  0.13476525316E+00  0.13536357126E+00  0.10476219617E+01  0.93800000000E+00 0. -1.
         22    1    1    2    0    0  0.40887582859E+00 -0.13191243856E+00  0.36975250370E+01  0.37224013397E+01  0.00000000000E+00 0.  1.
</event>
<event>
 5    1  0.5849602E+001  0.1599677E+01  0.7818608E-02  0.3353715E+00
         11   -1    0    0    0    0  0.00000000000E+00  0.00000000000E+00  0.39999999674E+01  0.40000000000E+01  0.51100000000E-03 0. -1.
    9000002   -1    0    0    0    0 -0.00000000000E+00 -0.00000000000E+00  0.00000000000E+00  0.93800000000E+00  0.93800000000E+00 0.  1.
         11    1    1    2    0    0  0.74270785926E-01 -0.22725575985E-01  0.72813297049E+00  0.73226394509E+00  0.51100000000E-03 0. -1.
    9000002    1    1    2    0    0 -0.39419730592E+00  0.11918659824E+00  0.11457363507E+00  0.10308094291E+01  0.93800000000E+00 0.  1.
         22    1    1    2    0    0  0.31992652000E+00 -0.96461022260E-01  0.31572933618E+01  0.31749266258E+01  0.00000000000E+00 0.  1.
</event>
<event>
 5    1  0.5849602E+001  0.1575454E+01  0.7818608E-02  0.3380444E+00
         11   -1    0    0    0    0  0.00000000000E+00  0.00000000000E+00  0.39999999674E+01  0.40000000000E+01  0.51100000000E-03 0. -1.
    9000002   -1    0    0    0    0 -0.00000000000E+00 -0.00000000000E+00  0.00000000000E+00  0.93800000000E+00  0.93800000000E+00 0. -1.
         11    1    1    2    0    0  0.73274195440E-01  0.13483282206E+00  0.11728395876E+01  0.11828364033E+01  0.51100000000E-03 0. -1.
    9000002    1    1    2    0    0  0.23185477143E+00 -0.13263393332E+00  0.66353654416E-01  0.97754549907E+00  0.93800000000E+00 0. -1.
         22    1    1    2    0    0 -0.30512896687E+00 -0.21988887368E-02  0.27608067254E+01  0.27776180976E+01  0.00000000000E+00 0. -1.
</event>
<event>
 5    1  0.5849602E+001  0.1551979E+01  0.7818608E-02  0.3407192E+00
         11   -1    0    0    0    0  0.00000000000E+00  0.00000000000E+00  0.39999999674E+01  0.40000000000E+01  0.51100000000E-03 0.  1.
    9000002   -1    0    0    0    0 -0.00000000000E+00 -0.00000000000E+00  0.00000000000E+00  0.93800000000E+00  0.93800000000E+00 0. -1.
         11    1    1    2    0    0 -0.18350933623E+00 -0.30772367543E-01  0.13927477291E+01  0.14051224548E+01  0.51100000000E-03 0.  1.
    9000002    1    1    2    0    0  0.92158691414E-01  0.62991045543E+00  0.33632919976E+00  0.11824727214E+01  0.93800000000E+00 0. -1.
         22    1    1    2    0    0  0.91350644821E-01 -0.59913808789E+00  0.22709230385E+01  0.23504048238E+01  0.00000000000E+00 0. -1.
</event>
<event>
 5    1  0.5849602E+001  0.1598833E+01  0.7818608E-02  0.3354631E+00
         11   -1    0    0    0    0  0.00000000000E+00  0.00000000000E+00  0.39999999674E+01  0.40000000000E+01  0.51100000000E-03 0.  1.
    9000002   -1    0    0    0    0 -0.00000000000E+00 -0.00000000000E+00  0.00000000000E+00  0.93800000000E+00  0.93800000000E+00 0.  1.
         11    1    1    2    0    0 -0.30161090842E-02  0.20931984274E-02  0.63079856178E-01  0.63188668051E-01  0.51100000000E-03 0.  1.
    9000002    1    1    2    0    0 -0.35776572145E+00 -0.10694657506E+00  0.94432829367E-01  0.10139997242E+01  0.93800000000E+00 0.  1.
         22    1    1    2    0    0  0.36078183053E+00  0.10485337663E+00  0.38424872818E+01  0.38608116078E+01  0.00000000000E+00 0.  1.
</event>
<event>
 5    1  0.5849602E+001  0.1546098E+01  0.7818608E-02  0.3414028E+00
         11   -1    0    0    0    0  0.00000000000E+00  0.00000000000E+00  0.39999999674E+01  0.40000000000E+01  0.51100000000E-03 0.  1.
    9000002   -1    0    0    0    0 -0.00000000000E+00 -0.00000000000E+00  0.00000000000E+00  0.93800000000E+00  0.93800000000E+00 0.  1.
         11    1    1    2    0    0 -0.84711016816E-01  0.37045788578E-02 -0.81071306431E-01  0.11731367406E+00  0.51100000000E-03 0.  1.
    9000002    1    1    2    0    0  0.21537259965E+00  0.38821556900E+00  0.39320551943E+00  0.11097527946E+01  0.93800000000E+00 0.  1.
         22    1    1    2    0    0 -0.13066158283E+00 -0.39192014786E+00  0.36878657544E+01  0.37109335313E+01  0.00000000000E+00 0.  1.
</event>
<event>
 5    1  0.5849602E+001  0.1599651E+01  0.7818608E-02  0.3353742E+00
         11   -1    0    0    0    0  0.00000000000E+00  0.00000000000E+00  0.39999999674E+01  0.40000000000E+01  0.51100000000E-03 0.  1.
    9000002   -1    0    0    0    0 -0.00000000000E+00 -0.00000000000E+00  0.00000000000E+00  0.93800000000E+00  0.93800000000E+00 0.  1.
         11    1    1    2    0    0 -0.84932246476E-02 -0.68292966356E-01  0.79645682708E+00  0.79942466978E+00  0.51100000000E-03 0.  1.
    9000002    1    1    2    0    0  0.33751039694E-01  0.35831064943E+00  0.86965419331E-01  0.10084307801E+01  0.93800000000E+00 0.  1.
         22    1    1    2    0    0 -0.25257815047E-01 -0.29001768308E+00  0.31165777209E+01  0.31301445501E+01  0.00000000000E+00 0.  1.
</event>
<event>
 5    1  0.5849602E+001  0.1598582E+01  0.7818608E-02  0.3354904E+00
         11   -1    0    0    0    0  0.00000000000E+00  0.00000000000E+00  0.39999999674E+01  0.40000000000E+01  0.51100000000E-03 0.  1.
    9000002   -1    0    0    0    0 -0.00000000000E+00 -0.00000000000E+00  0.00000000000E+00  0.93800000000E+00  0.93800000000E+00 0. -1.
         11    1    1    2    0    0 -0.26858841286E-01  0.95942519962E-01  0.83244138728E+00  0.83838254328E+00  0.51100000000E-03 0.  1.
    9000002    1    1    2    0    0 -0.20533509612E-01 -0.40354747038E+00  0.11110230859E+00  0.10273557849E+01  0.93800000000E+00 0. -1.
         22    1    1    2    0    0  0.47392350899E-01  0.30760495041E+00  0.30564562715E+01  0.30722616718E+01  0.00000000000E+00 0.  1.
</event>
<event>
 5    1  0.5849602E+001  0.1599677E+01  0.7818608E-02  0.3353714E+00
         11   -1    0    0    0    0  0.00000000000E+00  0.00000000000E+00  0.39999999674E+01  0.40000000000E+01  0.51100000000E-03 0.  1.
    9000002   -1    0    0    0    0 -0.00000000000E+00 -0.00000000000E+00  0.00000000000E+00  0.93800000000E+00  0.93800000000E+00 0.  1.
         11    1    1    2    0    0  0.78949142740E-01 -0.98237584826E-01  0.11457778441E+01  0.11526884746E+01  0.51100000000E-03 0.  1.
    9000002    1    1    2    0    0 -0.26822523448E+00  0.33202161783E+00  0.12332683612E+00  0.10379001106E+01  0.93800000000E+00 0.  1.
         22    1    1    2    0    0  0.18927609174E+00 -0.23378403300E+00  0.27308952871E+01  0.27474114148E+01  0.00000000000E+00 0.  1.
</event>
<event>
 5    1  0.5849602E+001  0.1599648E+01  0.7818608E-02  0.3353746E+00
         11   -1    0    0    0    0  0.00000000000E+00  0.00000000000E+00  0.39999999674E+01  0.40000000000E+01  0.51100000000E-03 0.  1.
    9000002   -1    0    0    0    0 -0.00000000000E+00 -0.00000000000E+00  0.00000000000E+00  0.93800000000E+00  0.93800000000E+00 0.  1.
         11    1    1    2    0    0 -0.28891541421E+00  0.96225674899E-01  0.14304754620E+01  0.14625292495E+01  0.51100000000E-03 0.  1.
    9000002    1    1    2    0    0  0.72880511209E+00 -0.22605168614E+00  0.42382349870E+00  0.12812987998E+01  0.93800000000E+00 0. -1.
         22    1    1    2    0    0 -0.43988969789E+00  0.12982601124E+00  0.21457010067E+01  0.21941719507E+01  0.00000000000E+00 0.  1.
</event>
<event>
 5    1  0.5849602E+001  0.1504918E+01  0.7818608E-02  0.3463502E+00
         11   -1    0    0    0    0  0.00000000000E+00  0.00000000000E+00  0.39999999674E+01  0.40000000000E+01  0.51100000000E-03 0. -1.
    9000002   -1    0    0    0    0 -0.00000000000E+00 -0.00000000000E+00  0.00000000000E+00  0.93800000000E+00  0.93800000000E+00 0. -1.
         11    1    1    2    0    0  0.26294472204E+00  0.60263824804E-01  0.70313178842E+00  0.75310439411E+00  0.51100000000E-03 0. -1.
    9000002    1    1    2    0    0  0.10213786167E+00 -0.27829350296E-01  0.80136495870E-01  0.94735023803E+00  0.93800000000E+00 0. -1.
         22    1    1    2    0    0 -0.36508258370E+00 -0.32434474509E-01  0.32167316831E+01  0.32375453679E+01  0.00000000000E+00 0. -1.
</event>
<event>
 5    1  0.5849602E+001  0.1599531E+01  0.7818608E-02  0.3353873E+00
         11   -1    0    0    0    0  0.00000000000E+00  0.00000000000E+00  0.39999999674E+01  0.40000000000E+01  0.51100000000E-03 0. -1.
    9000002   -1    0    0    0    0 -0.00000000000E+00 -0.00000000000E+00  0.00000000000E+00  0.93800000000E+00  0.93800000000E+00 0. -1.
         11    1    1    2    0    0  0.41758554347E-01  0.13559255026E+00  0.10490447692E+01  0.10585954399E+01  0.51100000000E-03 0. -1.
    9000002    1    1    2    0    0 -0.18312539159E+00 -0.45908606825E+00  0.16720457501E+00  0.10733574880E+01  0.93800000000E+00 0. -1.
         22    1    1    2    0    0  0.14136683724E+00  0.32349351799E+00  0.27837506232E+01  0.28060470721E+01  0.00000000000E+00 0. -1.
</event>
<event>
 5    1  0.5849602E+001  0.1568139E+01  0.7818608E-02  0.3388687E+00
         11   -1    0    0    0    0  0.00000000000E+00  0.00000000000E+00  0.39999999674E+01  0.40000000000E+01  0.51100000000E-03 0.  1.
    9000002   -1    0    0    0    0 -0.00000000000E+00 -0.00000000000E+00  0.00000000000E+00  0.93800000000E+00  0.93800000000E+00 0. -1.
         11    1    1    2    0    0 -0.66087528309E-01 -0.26528011456E+00  0.14635691559E+01  0.14888841580E+01  0.51100000000E-03 0.  1.
    9000002    1    1    2    0    0  0.29630722578E+00  0.16778522371E+00  0.10335971189E+00  0.10032333145E+01  0.93800000000E+00 0. -1.
         22    1    1    2    0    0 -0.23021969747E+00  0.97494890858E-01  0.24330710995E+01  0.24458825275E+01  0.00000000000E+00 0.  1.
</event>
<event>
 5    1  0.5849602E+001  0.1598797E+01  0.7818608E-02  0.3354670E+00
         11   -1    0    0    0    0  0.00000000000E+00  0.00000000000E+00  0.39999999674E+01  0.40000000000E+01  0.51100000000E-03 0. -1.
    9000002   -1    0    0    0    0 -0.00000000000E+00 -0.00000000000E+00  0.00000000000E+00  0.93800000000E+00  0.93800000000E+00 0. -1.
         11    1    1    2    0    0  0.61862235490E-01 -0.26888530892E-01  0.90826905720E+00  0.91077048187E+00  0.51100000000E-03 0. -1.
    9000002    1    1    2    0    0 -0.33746453885E+00  0.22268395646E+00  0.11106011605E+00  0.10274477159E+01  0.93800000000E+00 0. -1.
         22    1    1    2    0    0  0.27560230336E+00 -0.19579542557E+00  0.29806707941E+01  0.29997818023E+01  0.00000000000E+00 0. -1.
</event>
<event>
 5    1  0.5849602E+001  0.1599677E+01  0.7818608E-02  0.3353714E+00
         11   -1    0    0    0    0  0.00000000000E+00  0.00000000000E+00  0.39999999674E+01  0.40000000000E+01  0.51100000000E-03 0.  1.
    9000002   -1    0    0    0    0 -0.00000000000E+00 -0.00000000000E+00  0.00000000000E+00  0.93800000000E+00  0.93800000000E+00 0.  1.
         11    1    1    2    0    0  0.97009081381E-01  0.81873594646E-01  0.13235123310E+01  0.13295861006E+01  0.51100000000E-03 0.  1.
    9000002    1    1    2    0    0 -0.28528418334E+00 -0.24203507660E+00  0.94109857925E-01  0.10142330644E+01  0.93800000000E+00 0.  1.
         22    1    1    2    0    0  0.18827510196E+00  0.16016148195E+00  0.25823777784E+01  0.25941808350E+01  0.00000000000E+00 0.  1.
</event>
<event>
 5    1  0.5849602E+001  0.1599673E+01  0.7818608E-02  0.3353719E+00
         11   -1    0    0    0    0  0.00000000000E+00  0.00000000000E+00  0.39999999674E+01  0.40000000000E+01  0.51100000000E-03 0.  1.
    9000002   -1    0    0    0    0 -0.00000000000E+00 -0.00000000000E+00  0.00000000000E+00  0.93800000000E+00  0.93800000000E+00 0. -1.
         11    1    1    2    0    0  0.17407535849E+00  0.28275922830E-01  0.12044010738E+01  0.12172444150E+01  0.51100000000E-03 0.  1.
    9000002    1    1    2    0    0 -0.54884349344E+00 -0.81624434660E-01  0.21286360269E+00  0.11104263334E+01  0.93800000000E+00 0. -1.
         22    1    1    2    0    0  0.37476813495E+00  0.53348511830E-01  0.25827352909E+01  0.26103292515E+01  0.00000000000E+00 0.  1.
</event>
<event>
 5    1  0.5849602E+001  0.1463670E+01  0.7818608E-02  0.3516067E+00
         11   -1    0    0    0    0  0.00000000000E+00  0.00000000000E+00  0.39999999674E+01  0.40000000000E+01  0.51100000000E-03 0. -1.
    9000002   -1    0    0    0    0 -0.00000000000E+00 -0.00000000000E+00  0.00000000000E+00  0.93800000000E+00  0.93800000000E+00 0. -1.
         11    1    1    2    0    0  0.51686334453E-01 -0.11016312573E+00  0.26305668758E-01  0.12449755327E+00  0.51100000000E-03 0. -1.
    9000002    1    1    2    0    0  0.41899306291E+00  0.10593615714E+00  0.25321012749E+00  0.10633611921E+01  0.93800000000E+00 0. -1.
         22    1    1    2    0    0 -0.47067939736E+00  0.42269685928E-02  0.37204841711E+01  0.37501412547E+01  0.00000000000E+00 0. -1.
</event>
<event>
 5    1  0.5849602E+001  0.1599667E+01  0.7818608E-02  0.3353725E+00
         11   -1    0    0    0    0  0.00000000000E+00  0.00000000000E+00  0.39999999674E+01  0.40000000000E+01  0.51100000000E-03 0.  1.
    9000002   -1    0    0    0    0 -0.00000000000E+00 -0.00000000000E+00  0.00000000000E+00  0.93800000000E+00  0.93800000000E+00 0.  1.
         11    1    1    2    0    0 -0.50694788455E-02 -0.83925361216E-02  0.10203640122E+00  0.10250767080E+00  0.51100000000E-03 0.  1.
    9000002    1    1    2    0    0  0.22349917937E+00  0.29161035657E+00  0.90697887911E-01  0.10114635881E+01  0.93800000000E+00 0.  1.
         22    1    1    2    0    0 -0.21842970053E+00 -0.28321782045E+00  0.38072656782E+01  0.38240287411E+01  0.00000000000E+00 0.  1.
</event>
<event>
 5    1  0.5849602E+001  0.1599443E+01  0.7818608E-02  0.3353968E+00
         11   -1    0    0    0    0  0.00000000000E+00  0.00000000000E+00  0.39999999674E+01  0.40000000000E+01  0.51100000000E-03 0. -1.
    9000002   -1    0    0    0    0 -0.00000000000E+00 -0.00000000000E+00  0.00000000000E+00  0.93800000000E+00  0.93800000000E+00 0.  1.
         11    1    1    2    0    0  0.66930130555E-01  0.39066194674E-02  0.33637020303E+00  0.34298699488E+00  0.51100000000E-03 0. -1.
    9000002    1    1    2    0    0 -0.65417718353E+00  0.41397946868E-01  0.30383957432E+00  0.11839865136E+01  0.93800000000E+00 0.  1.
         22    1    1    2    0    0  0.58724705298E+00 -0.45304566335E-01  0.33597901900E+01  0.34110264915E+01  0.00000000000E+00 0. -1.
</event>
<event>
 5    1  0.5849602E+001  0.1599236E+01  0.7818608E-02  0.3354193E+00
         11   -1    0    0    0    0  0.00000000000E+00  0.00000000000E+00  0.39999999674E+01  0.40000000000E+01  0.51100000000E-03 0.  1.
    9000002   -1    0    0    0    0 -0.00000000000E+00 -0.00000000000E+00  0.00000000000E+00  0.93800000000E+00  0.93800000000E+00 0.  1.
         11    1    1    2    0    0 -0.41766689641E-01 -0.55075311581E-01  0.66893059653E+00  0.67249249097E+00  0.51100000000E-03 0.  1.
    9000002    1    1    2    0    0  0.28542843006E+00  0.21867670299E+00  0.87139800426E-01  0.10083284355E+01  0.93800000000E+00 0.  1.
         22    1    1    2    0    0 -0.24366174042E+00 -0.16360139140E+00  0.32439295704E+01  0.32571790735E+01  0.00000000000E+00 0.  1.
</event>
<event>
 5    1  0.5849602E+001  0.1589776E+01  0.7818608E-02  0.3364536E+00
         11   -1    0    0    0    0  0.00000000000E+00  0.00000000000E+00  0.39999999674E+01  0.40000000000E+01  0.51100000000E-03 0.  1.
    9000002   -1    0    0    0    0 -0.00000000000E+00 -0.00000000000E+00  0.00000000000E+00  0.93800000000E+00  0.93800000000E+00 0.  1.
         11    1    1    2    0    0  0.47680171614E-02 -0.11197619547E+00  0.10792786417E+01  0.10850825083E+01  0.51100000000E-03 0.  1.
    9000002    1    1    2    0    0 -0.30562707964E+00  0.14634597491E+00  0.84860207718E-01  0.10009347187E+01  0.93800000000E+00 0.  1.
         22    1    1    2    0    0  0.30085906248E+00 -0.34369779447E-01  0.28358611179E+01  0.28519827730E+01  0.00000000000E+00 0. -1.
</event>
<event>
 5    1  0.5849602E+001  0.1599646E+01  0.7818608E-02  0.3353748E+00
         11   -1    0    0    0    0  0.00000000000E+00  0.00000000000E+00  0.39999999674E+01  0.40000000000E+01  0.51100000000E-03 0.  1.
    9000002   -1    0    0    0    0 -0.00000000000E+00 -0.00000000000E+00  0.00000000000E+00  0.93800000000E+00  0.93800000000E+00 0.  1.
         11    1    1    2    0    0  0.80412293065E-01 -0.11240118110E+00  0.12766105801E+01  0.12840697009E+01  0.51100000000E-03 0.  1.
    9000002    1    1    2    0    0 -0.24229812118E+00  0.32338961469E+00  0.11022600342E+00  0.10272696794E+01  0.93800000000E+00 0.  1.
         22    1    1    2    0    0  0.16188582811E+00 -0.21098843359E+00  0.26131633839E+01  0.26266606197E+01  0.00000000000E+00 0.  1.
</event>
<event>
 5    1  0.5849602E+001  0.1594306E+01  0.7818608E-02  0.3359566E+00
         11   -1    0    0    0    0  0.00000000000E+00  0.00000000000E+00  0.39999999674E+01  0.40000000000E+01  0.51100000000E-03 0. -1.
    9000002   -1    0    0    0    0 -0.00000000000E+00 -0.00000000000E+00  0.00000000000E+00  0.93800000000E+00  0.93800000000E+00 0. -1.
         11    1    1    2    0    0 -0.27462455610E-01 -0.21698811701E-01  0.81223310673E+00  0.81298702676E+00  0.51100000000E-03 0. -1.
    9000002    1    1    2    0    0  0.43997022851E+00 -0.44299349901E-01  0.13727839404E+00  0.10460523848E+01  0.93800000000E+00 0. -1.
         22    1    1    2    0    0 -0.41250777290E+00  0.65998161602E-01  0.30504884666E+01  0.30789605884E+01  0.00000000000E+00 0. -1.
</event>
<event>
 5    1  0.5849602E+001  0.1599675E+01  0.7818608E-02  0.3353717E+00
         11   -1    0    0    0    0  0.00000000000E+00  0.00000000000E+00  0.39999999674E+01  0.40000000000E+01  0.51100000000E-03 0.  1.
    9000002   -1    0    0    0    0 -0.00000000000E+00 -0.00000000000E+00  0.00000000000E+00  0.93800000000E+00  0.93800000000E+00 0. -1.
         11    1    1    2    0    0  0.15837630252E-01  0.82769534502E-01  0.95044986409E+00  0.95417861622E+00  0.51100000000E-03 0.  1.
    9000002    1    1    2    0    0 -0.67783980569E-01 -0.34692270529E+00  0.83814523168E-01  0.10058920945E+01  0.93800000000E+00 0. -1.
         22    1    1    2    0    0  0.51946350318E-01  0.26415317079E+00  0.29657355801E+01  0.29779292893E+01  0.00000000000E+00 0.  1.
</event>
<event>
 5    1  0.5849602E+001  0.1599632E+01  0.7818608E-02  0.3353763E+00
         11   -1    0    0    0    0  0.00000000000E+00  0.00000000000E+00  0.39999999674E+01  0.40000000000E+01  0.51100000000E-03 0.  1.
    9000002   -1    0    0    0    0 -0.00000000000E+00 -0.00000000000E+00  0.00000000000E+00  0.93800000000E+00  0.93800000000E+00 0. -1.
         11    1    1    2    0    0 -0.16089553412E+00  0.15167743755E+00  0.11672815691E+01  0.11880403784E+01  0.51100000000E-03 0.  1.
    9000002    1    1    2    0    0  0.52512709963E+00 -0.46668864523E+00  0.35302425314E+00  0.12239390858E+01  0.93800000000E+00 0. -1.
         22    1    1    2    0    0 -0.36423156551E+00  0.31501120768E+00  0.24796941451E+01  0.25260205358E+01  0.00000000000E+00 0. -1.
</event>
<event>
 5    1  0.5849602E+001  0.1599677E+01  0.7818608E-02  0.3353714E+00
         11   -1    0    0    0    0  0.00000000000E+00  0.00000000000E+00  0.39999999674E+01  0.40000000000E+01  0.51100000000E-03 0. -1.
    9000002   -1    0    0    0    0 -0.00000000000E+00 -0.00000000000E+00  0.00000000000E+00  0.93800000000E+00  0.93800000000E+00 0.  1.
         11    1    1    2    0    0 -0.79165279651E-01 -0.84265814084E-01  0.12421986988E+01  0.12475679290E+01  0.51100000000E-03 0. -1.
    9000002    1    1    2    0    0  0.24920002799E+00  0.26331636758E+00  0.88254030986E-01  0.10094894439E+01  0.93800000000E+00 0.  1.
         22    1    1    2    0    0 -0.17003474834E+00 -0.17905055350E+00  0.26695472375E+01  0.26809426271E+01  0.00000000000E+00 0.  1.
</event>
<event>
 5    1  0.5849602E+001  0.1599669E+01  0.7818608E-02  0.3353723E+00
         11   -1    0    0    0    0  0.00000000000E+00  0.00000000000E+00  0.39999999674E+01  0.40000000000E+01  0.51100000000E-03 0.  1.
    9000002   -1    0    0    0    0 -0.00000000000E+00 -0.00000000000E+00  0.00000000000E+00  0.93800000000E+00  0.93800000000E+00 0.  1.
         11    1    1    2    0    0  0.12762409320E+00  0.68706859208E-03  0.12773015311E+01  0.12836618883E+01  0.51100000000E-03 0.  1.
    9000002    1    1    2    0    0 -0.38046309890E+00 -0.43207850233E-02  0.97419876943E-01  0.10169097655E+01  0.93800000000E+00 0.  1.
         22    1    1    2    0    0  0.25283900571E+00  0.36337164312E-02  0.26252785594E+01  0.26374283461E+01  0.00000000000E+00 0.  1.
</event>
<event>
 5    1  0.5849602E+001  0.1533909E+01  0.7818608E-02  0.3428375E+00
         11   -1    0    0    0    0  0.00000000000E+00  0.00000000000E+00  0.39999999674E+01  0.40000000000E+01  0.51100000000E-03 0. -1.
    9000002   -1    0    0    0    0 -0.00000000000E+00 -0.00000000000E+00  0.00000000000E+00  0.93800000000E+00  0.93800000000E+00 0. -1.
         11    1    1    2    0    0  0.91667605475E-01  0.98583625250E-01  0.26511729039E+00  0.29733671123E+00  0.51100000000E-03 0. -1.
    9000002    1    1    2    0    0  0.24111951149E+00  0.25039692832E+00  0.13591274370E+00  0.10095313341E+01  0.93800000000E+00 0. -1.
         22    1    1    2    0    0 -0.33278711696E+00 -0.34898055357E+00  0.35989699333E+01  0.36311319547E+01  0.00000000000E+00 0. -1.
</event>
<event>
 5    1  0.5849602E+001  0.1599614E+01  0.7818608E-02  0.3353783E+00
         11   -1    0    0    0    0  0.00000000000E+00  0.00000000000E+00  0.39999999674E+01  0.40000000000E+01  0.51100000000E-03 0. -1.
    9000002   -1    0    0    0    0 -0.00000000000E+00 -0.00000000000E+00  0.00000000000E+00  0.93800000000E+00  0.93800000000E+00 0.  1.
         11    1    1    2    0    0  0.61630888845E-01 -0.35781316766E-01  0.66515873749E+00  0.66896567645E+00  0.51100000000E-03 0. -1.
    9000002    1    1    2    0    0 -0.32426988298E+00  0.19026377565E+00  0.95112553004E-01  0.10150082064E+01  0.93800000000E+00 0.  1.
         22    1    1    2    0    0  0.26263899413E+00 -0.15448245889E+00  0.32397286769E+01  0.32540261171E+01  0.00000000000E+00 0. -1.
</event>
<event>
 5    1  0.5849602E+001  0.1597704E+01  0.7818608E-02  0.3355859E+00
         11   -1    0    0    0    0  0.00000000000E+00  0.00000000000E+00  0.39999999674E+01  0.40000000000E+01  0.51100000000E-03 0. -1.
    9000002   -1    0    0    0    0 -0.00000000000E+00 -0.00000000000E+00  0.00000000000E+00  0.93800000000E+00  0.93800000000E+00 0.  1.
         11    1    1    2    0    0 -0.48892167659E-01  0.29073934380E+00  0.14082330916E+01  0.14387635356E+01  0.51100000000E-03 0. -1.
    9000002    1    1    2    0    0  0.56908919271E-01 -0.64594706583E+00  0.29868024507E+00  0.11787875660E+01  0.93800000000E+00 0.  1.
         22    1    1    2    0    0 -0.80167516121E-02  0.35520772203E+00  0.22930866307E+01  0.23204488984E+01  0.00000000000E+00 0. -1.
</event>
<event>
 5    1  0.5849602E+001  0.1590835E+01  0.7818608E-02  0.3363371E+00
         11   -1    0    0    0    0  0.00000000000E+00  0.00000000000E+00  0.39999999674E+01  0.40000000000E+01  0.51100000000E-03 0.  1.
    9000002   -1    0    0    0    0 -0.00000000000E+00 -0.00000000000E+00  0.00000000000E+00  0.93800000000E+00  0.93800000000E+00 0. -1.
         11    1    1    2    0    0  0.35376702009E-01 -0.11224035165E+00  0.80179596690E+00  0.81038659987E+00  0.51100000000E-03 0.  1.
    9000002    1    1    2    0    0  0.26304834242E+00  0.45475429329E+00  0.19796228318E+00  0.10931738029E+01  0.93800000000E+00 0. -1.
         22    1    1    2    0    0 -0.29842504443E+00 -0.34251394164E+00  0.30002417173E+01  0.30344395973E+01  0.00000000000E+00 0.  1.
</event>
<event>
 5    1  0.5849602E+001  0.1597538E+01  0.7818608E-02  0.3356040E+00
         11   -1    0    0    0    0  0.00000000000E+00  0.00000000000E+00  0.39999999674E+01  0.40000000000E+01  0.51100000000E-03 0.  1.
    9000002   -1    0    0    0    0 -0.00000000000E+00 -0.00000000000E+00  0.00000000000E+00  0.93800000000E+00  0.93800000000E+00 0. -1.
         11    1    1    2    0    0 -0.36768995278E-01  0.18396907196E+00  0.93658527263E+00  0.95519045875E+00  0.51100000000E-03 0.  1.
    9000002    1    1    2    0    0  0.78839945423E-01 -0.55834859030E+00  0.22226059475E+00  0.11167867555E+01  0.93800000000E+00 0. -1.
         22    1    1    2    0    0 -0.42070950145E-01  0.37437951834E+00  0.28411541000E+01  0.28660227857E+01  0.00000000000E+00 0.  1.
</event>
<event>
 5    1  0.5849602E+001  0.1599313E+01  0.7818608E-02  0.3354110E+00
         11   -1    0    0    0    0  0.00000000000E+00  0.00000000000E+00  0.39999999674E+01  0.40000000000E+01  0.51100000000E-03 0. -1.
    9000002   -1    0    0    0    0 -0.00000000000E+00 -0.00000000000E+00  0.00000000000E+00  0.93800000000E+00  0.93800000000E+00 0. -1.
         11    1    1    2    0    0  0.13584140056E+00 -0.22075185829E-01  0.14344034617E+01  0.14409905454E+01  0.51100000000E-03 0. -1.
    9000002    1    1    2    0    0 -0.37132949241E+00  0.12015100095E+00  0.10291906301E+00  0.10211553205E+01  0.93800000000E+00 0. -1.
         22    1    1    2    0    0  0.23548809184E+00 -0.98075815120E-01  0.24626774426E+01  0.24758541341E+01  0.00000000000E+00 0. -1.
</event>
<event>
 5    1  0.5849602E+001  0.1599648E+01  0.7818608E-02  0.3353746E+00
         11   -1    0    0    0    0  0.00000000000E+00  0.00000000000E+00  0.39999999674E+01  0.40000000000E+01  0.51100000000E-03 0.  1.
    9000002   -1    0    0    0    0 -0.00000000000E+00 -0.00000000000E+00  0.00000000000E+00  0.93800000000E+00  0.93800000000E+00 0. -1.
         11    1    1    2    0    0 -0.10784113290E+00  0.13889659739E-01  0.11145641830E+01  0.11198554424E+01  0.51100000000E-03 0.  1.
    9000002    1    1    2    0    0  0.39600424003E+00 -0.41464814036E-01  0.10693664761E+00  0.10246063320E+01  0.93800000000E+00 0. -1.
         22    1    1    2    0    0 -0.28816310713E+00  0.27575154297E-01  0.27784991367E+01  0.27935382257E+01  0.00000000000E+00 0.  1.
</event>
<event>
 5    1  0.5849602E+001  0.1599520E+01  0.7818608E-02  0.3353885E+00
         11   -1    0    0    0    0  0.00000000000E+00  0.00000000000E+00  0.39999999674E+01  0.40000000000E+01  0.51100000000E-03 0. -1.
    9000002   -1    0    0    0    0 -0.00000000000E+00 -0.00000000000E+00  0.00000000000E+00  0.93800000000E+00  0.93800000000E+00 0.  1.
         11    1    1    2    0    0  0.12342491192E+00 -0.26000060226E+00  0.12879261846E+01  0.13196924415E+01  0.51100000000E-03 0. -1.
    9000002    1    1    2    0    0 -0.36000840204E+00  0.73845790977E+00  0.50111356454E+00  0.13438321839E+01  0.93800000000E+00 0.  1.
         22    1    1    2    0    0  0.23658349012E+00 -0.47845730751E+00  0.22109602182E+01  0.22744753746E+01  0.00000000000E+00 0. -1.
</event>
<event>
 5    1  0.5849602E+001  0.1599664E+01  0.7818608E-02  0.3353728E+00
         11   -1    0    0    0    0  0.00000000000E+00  0.00000000000E+00  0.39999999674E+01  0.40000000000E+01  0.51100000000E-03 0.  1.
    9000002   -1    0    0    0    0 -0.00000000000E+00 -0.00000000000E+00  0.00000000000E+00  0.93800000000E+00  0.93800000000E+00 0.  1.
         11    1    1    2    0    0  0.39519119205E-01  0.63279502446E-01  0.45418247182E+00  0.46026952434E+00  0.51100000000E-03 0.  1.
    9000002    1    1    2    0    0 -0.31770095512E+00 -0.50161197990E+00  0.24565971344E+00  0.11369877616E+01  0.93800000000E+00 0.  1.
         22    1    1    2    0    0  0.27818183592E+00  0.43833247746E+00  0.33001577821E+01  0.33407427140E+01  0.00000000000E+00 0.  1.
</event>
<event>
 5    1  0.5849602E+001  0.1599676E+01  0.7818608E-02  0.3353715E+00
         11   -1    0    0    0    0  0.00000000000E+00  0.00000000000E+00  0.39999999674E+01  0.40000000000E+01  0.51100000000E-03 0. -1.
    9000002   -1    0    0    0    0 -0.00000000000E+00 -0.00000000000E+00  0.00000000000E+00  0.93800000000E+00  0.93800000000E+00 0.  1.
         11    1    1    2    0    0 -0.39850900965E+00  0.77515038625E-01  0.13788566427E+01  0.14373809217E+01  0.51100000000E-03 0. -1.
    9000002    1    1    2    0    0  0.94650634671E+00 -0.18401640867E+00  0.73356518306E+00  0.15322200171E+01  0.93800000000E+00 0.  1.
         22    1    1    2    0    0 -0.54799733706E+00  0.10650137005E+00  0.18875781416E+01  0.19683990612E+01  0.00000000000E+00 0. -1.
</event>
<event>
 5    1  0.5849602E+001  0.1599677E+01  0.7818608E-02  0.3353714E+00
         11   -1    0    0    0    0  0.00000000000E+00  0.00000000000E+00  0.39999999674E+01  0.40000000000E+01  0.51100000000E-03 0.  1.
    9000002   -1    0    0    0    0 -0.00000000000E+00 -0.00000000000E+00  0.00000000000E+00  0.93800000000E+00  0.93800000000E+00 0. -1.
         11    1    1    2    0    0  0.80642512964E-01  0.17914692336E+00  0.12753695064E+01  0.12904125209E+01  0.51100000000E-03 0.  1.
    9000002    1    1    2    0    0 -0.23889879319E+00 -0.52772833542E+00  0.23311722098E+00  0.11268351557E+01  0.93800000000E+00 0. -1.
         22    1    1    2    0    0  0.15825628023E+00  0.34858141207E+00  0.24915132400E+01  0.25207523234E+01  0.00000000000E+00 0.  1.
</event>
<event>
 5    1  0.5849602E+001  0.1596390E+01  0.7818608E-02  0.3357291E+00
         11   -1    0    0    0    0  0.00000000000E+00  0.00000000000E+00  0.39999999674E+01  0.40000000000E+01  0.51100000000E-03 0. -1.
    9000002   -1    0    0    0    0 -0.00000000000E+00 -0.00000000000E+00  0.00000000000E+00  0.93800000000E+00  0.93800000000E+00 0.  1.
         11    1    1    2    0    0 -0.23536637953E-01 -0.20920959631E-01  0.86019128363E+00  0.86076766054E+00  0.51100000000E-03 0. -1.
    9000002    1    1    2    0    0  0.36129222303E+00  0.39837779450E-01  0.91395877339E-01  0.10101070861E+01  0.93800000000E+00 0.  1.
         22    1    1    2    0    0 -0.33775558508E+00 -0.18916819819E-01  0.30484128064E+01  0.30671252533E+01  0.00000000000E+00 0. -1.
</event>
<event>
 5    1  0.5849602E+001  0.1599676E+01  0.7818608E-02  0.3353715E+00
         11   -1    0    0    0    0  0.00000000000E+00  0.00000000000E+00  0.39999999674E+01  0.40000000000E+01  0.51100000000E-03 0. -1.
    9000002   -1    0    0    0    0 -0.00000000000E+00 -0.00000000000E+00  0.00000000000E+00  0.93800000000E+00  0.93800000000E+00 0.  1.
         11    1    1    2    0    0 -0.20191566329E-01 -0.16335845947E+00  0.11163611778E+01  0.11284308689E+01  0.51100000000E-03 0. -1.
    9000002    1    1    2    0    0  0.67778328146E-01  0.55749135706E+00  0.21832858477E+00  0.11148550964E+01  0.93800000000E+00 0.  1.
         22    1    1    2    0    0 -0.47586761817E-01 -0.39413289759E+00  0.26653102048E+01  0.26947140347E+01  0.00000000000E+00 0. -1.
</event>
<event>
 5    1  0.5849602E+001  0.1547036E+01  0.7818608E-02  0.3412934E+00
         11   -1    0    0    0    0  0.00000000000E+00  0.00000000000E+00  0.39999999674E+01  0.40000000000E+01  0.51100000000E-03 0.  1.
    9000002   -1    0    0    0    0 -0.00000000000E+00 -0.00000000000E+00  0.00000000000E+00  0.93800000000E+00  0.93800000000E+00 0. -1.
         11    1    1    2    0    0  0.14857100814E+00 -0.25796718556E+00  0.12641582788E+01  0.12987366277E+01  0.51100000000E-03 0.  1.
    9000002    1    1    2    0    0  0.12443814758E+00  0.24939960426E+00  0.93666146916E-01  0.98300679665E+00  0.93800000000E+00 0. -1.
         22    1    1    2    0    0 -0.27300915572E+00  0.85675813056E-02  0.26421755417E+01  0.26562565756E+01  0.00000000000E+00 0.  1.
</event>
<event>
 5    1  0.5849602E+001  0.1599071E+01  0.7818608E-02  0.3354373E+00
         11   -1    0    0    0    0  0.00000000000E+00  0.00000000000E+00  0.39999999674E+01  0.40000000000E+01  0.51100000000E-03 0. -1.
    9000002   -1    0    0    0    0 -0.00000000000E+00 -0.00000000000E+00  0.00000000000E+00  0.93800000000E+00  0.93800000000E+00 0.  1.
         11    1    1    2    0    0 -0.14563653644E+00 -0.16521034268E+00  0.65093126757E+00  0.68717991407E+00  0.51100000000E-03 0. -1.
    9000002    1    1    2    0    0  0.71218074530E+00  0.69341002233E+00  0.79328865104E+00  0.15802435752E+01  0.93800000000E+00 0.  1.
         22    1    1    2    0    0 -0.56654420885E+00 -0.52819967965E+00  0.25557800488E+01  0.26705765107E+01  0.00000000000E+00 0. -1.
</event>
<event>
 5    1  0.5849602E+001  0.1595069E+01  0.7818608E-02  0.3358733E+00
         11   -1    0    0    0    0  0.00000000000E+00  0.00000000000E+00  0.39999999674E+01  0.40000000000E+01  0.51100000000E-03 0. -1.
    9000002   -1    0    0    0    0 -0.00000000000E+00 -0.00000000000E+00  0.00000000000E+00  0.93800000000E+00  0.93800000000E+00 0. -1.
         11    1    1    2    0    0  0.21398123552E-01  0.20455859618E+00  0.11479709110E+01  0.11662502187E+01  0.51100000000E-03 0. -1.
    9000002    1    1    2    0    0 -0.14496932890E+00 -0.44418894383E+00  0.15271279670E+00  0.10590019464E+01  0.93800000000E+00 0. -1.
         22    1    1    2    0    0  0.12357120535E+00  0.23963034765E+00  0.26993162596E+01  0.27127478349E+01  0.00000000000E+00 0. -1.
</event>
<event>
 5    1  0.5849602E+001  0.1585485E+01  0.7818608E-02  0.3369270E+00
         11   -1    0    0    0    0  0.00000000000E+00  0.00000000000E+00  0.39999999674E+01  0.40000000000E+01  0.51100000000E-03 0. -1.
    9000002   -1    0    0    0    0 -0.00000000000E+00 -0.00000000000E+00  0.00000000000E+00  0.93800000000E+00  0.93800000000E+00 0.  1.
         11    1    1    2    0    0 -0.21972333432E+00 -0.62309221511E-01  0.76256638933E+00  0.79603300307E+00  0.51100000000E-03 0. -1.
    9000002    1    1    2    0    0  0.56830462429E+00  0.42837054787E-01  0.23901137580E+00  0.11232878514E+01  0.93800000000E+00 0.  1.
         22    1    1    2    0    0 -0.34858128998E+00  0.19472166723E-01  0.29984222022E+01  0.30186791456E+01  0.00000000000E+00 0. -1.
</event>
<event>
 5    1  0.5849602E+001  0.1599461E+01  0.7818608E-02  0.3353948E+00
         11   -1    0    0    0    0  0.00000000000E+00  0.00000000000E+00  0.39999999674E+01  0.40000000000E+01  0.51100000000E-03 0.  1.
    9000002   -1    0    0    0    0 -0.00000000000E+00 -0.00000000000E+00  0.00000000000E+00  0.93800000000E+00  0.93800000000E+00 0.  1.
         11    1    1    2    0    0 -0.13093872211E+00  0.45655854269E-01  0.12076284133E+01  0.12155640879E+01  0.51100000000E-03 0.  1.
    9000002    1    1    2    0    0  0.37088034710E+00 -0.16149513937E+00  0.11061810563E+00  0.10274790884E+01  0.93800000000E+00 0.  1.
         22    1    1    2    0    0 -0.23994162499E+00  0.11583928510E+00  0.26817534484E+01  0.26949568237E+01  0.00000000000E+00 0.  1.
</event>
<event>
 5    1  0.5849602E+001  0.1599671E+01  0.7818608E-02  0.3353721E+00
         11   -1    0    0    0    0  0.00000000000E+00  0.00000000000E+00  0.39999999674E+01  0.40000000000E+01  0.51100000000E-03 0.  1.
    9000002   -1    0    0    0    0 -0.00000000000E+00 -0.00000000000E+00  0.00000000000E+00  0.93800000000E+00  0.93800000000E+00 0. -1.
         11    1    1    2    0    0 -0.12636485278E+00  0.47150650551E-01  0.13077692644E+01  0.13147060393E+01  0.51100000000E-03 0.  1.
    9000002    1    1    2    0    0  0.38372023026E+00 -0.13780671771E+00  0.11224422952E+00  0.10289191774E+01  0.93800000000E+00 0. -1.
         22    1    1    2    0    0 -0.25735537749E+00  0.90656067162E-01  0.25799864735E+01  0.25943747833E+01  0.00000000000E+00 0.  1.
</event>
<event>
 5    1  0.5849602E+001  0.1599661E+01  0.7818608E-02  0.3353731E+00
         11   -1    0    0    0    0  0.00000000000E+00  0.00000000000E+00  0.39999999674E+01  0.40000000000E+01  0.51100000000E-03 0.  1.
    9000002   -1    0    0    0    0 -0.00000000000E+00 -0.00000000000E+00  0.00000000000E+00  0.93800000000E+00  0.93800000000E+00 0. -1.
         11    1    1    2    0    0 -0.76751988039E-01 -0.11823161376E+00  0.13861491281E+01  0.13932979755E+01  0.51100000000E-03 0.  1.
    9000002    1    1    2    0    0  0.22623551638E+00  0.32488327428E+00  0.10567636126E+00  0.10235932513E+01  0.93800000000E+00 0. -1.
         22    1    1    2    0    0 -0.14948352834E+00 -0.20665166053E+00  0.25081744780E+01  0.25211087732E+01  0.00000000000E+00 0. -1.
</event>
<event>
 5    1  0.5849602E+001  0.1599676E+01  0.7818608E-02  0.3353715E+00
         11   -1    0    0    0    0  0.00000000000E+00  0.00000000000E+00  0.39999999674E+01  0.40000000000E+01  0.51100000000E-03 0.  1.
    9000002   -1    0    0    0    0 -0.00000000000E+00 -0.00000000000E+00  0.00000000000E+00  0.93800000000E+00  0.93800000000E+00 0.  1.
         11    1    1    2    0    0  0.53631619544E-02 -0.11354856697E+00  0.11858347263E+01  0.11912708759E+01  0.51100000000E-03 0.  1.
    9000002    1    1    2    0    0 -0.16514965783E-01  0.37661545420E+00  0.95584386360E-01  0.10154271610E+01  0.93800000000E+00 0.  1.
         22    1    1    2    0    0  0.11151803828E-01 -0.26306688724E+00  0.27185808547E+01  0.27313019631E+01  0.00000000000E+00 0.  1.
</event>
<event>
 5    1  0.5849602E+001  0.1599664E+01  0.7818608E-02  0.3353728E+00
         11   -1    0    0    0    0  0.00000000000E+00  0.00000000000E+00  0.39999999674E+01  0.40000000000E+01  0.51100000000E-03 0. -1.
    9000002   -1    0    0    0    0 -0.00000000000E+00 -0.00000000000E+00  0.00000000000E+00  0.93800000000E+00  0.93800000000E+00 0.  1.
         11    1    1    2    0    0 -0.98422756616E-01  0.33460019886E-01  0.97093285975E+00  0.97648220220E+00  0.51100000000E-03 0. -1.
    9000002    1    1    2    0    0  0.38661761997E+00 -0.14703321781E+00  0.11562196744E+00  0.10316512931E+01  0.93800000000E+00 0.  1.
         22    1    1    2    0    0 -0.28819486336E+00  0.11357319792E+00  0.29134451402E+01  0.29298665047E+01  0.00000000000E+00 0. -1.
</event>
<event>
 5    1  0.5849602E+001  0.1599676E+01  0.7818608E-02  0.3353715E+00
         11   -1    0    0    0    0  0.00000000000E+00  0.00000000000E+00  0.39999999674E+01  0.40000000000E+01  0.51100000000E-03 0. -1.
    9000002   -1    0    0    0    0 -0.00000000000E+00 -0.00000000000E+00  0.00000000000E+00  0.93800000000E+00  0.93800000000E+00 0.  1.
         11    1    1    2    0    0 -0.13780761353E+00 -0.84598728125E-01  0.14569751149E+01  0.14659210857E+01  0.51100000000E-03 0. -1.
    9000002    1    1    2    0    0  0.36466277681E+00  0.22370260795E+00  0.12391180564E+00  0.10383736963E+01  0.93800000000E+00 0.  1.
         22    1    1    2    0    0 -0.22685516329E+00 -0.13910387982E+00  0.24191130468E+01  0.24337052179E+01  0.00000000000E+00 0. -1.
</event>
<event>
 5    1  0.5849602E+001  0.1518717E+01  0.7818608E-02  0.3446603E+00
         11   -1    0    0    0    0  0.00000000000E+00  0.00000000000E+00  0.39999999674E+01  0.40000000000E+01  0.51100000000E-03 0.  1.
    9000002   -1    0    0    0    0 -0.00000000000E+00 -0.00000000000E+00  0.00000000000E+00  0.93800000000E+00  0.93800000000E+00 0. -1.
         11    1    1    2    0    0 -0.20026157161E+00 -0.16704673054E+00  0.81665194880E+00  0.85728056892E+00  0.51100000000E-03 0.  1.
    9000002    1    1    2    0    0 -0.17202031140E-02 -0.13107804611E+00  0.73360012927E-01  0.94995268554E+00  0.93800000000E+00 0. -1.
         22    1    1    2    0    0  0.20198177473E+00  0.29812477665E+00  0.31099880056E+01  0.31307667455E+01  0.00000000000E+00 0.  1.
</event>
<event>
 5    1  0.5849602E+001  0.1599639E+01  0.7818608E-02  0.3353755E+00
         11   -1    0    0    0    0  0.00000000000E+00  0.00000000000E+00  0.39999999674E+01  0.40000000000E+01  0.51100000000E-03 0.  1.
    9000002   -1    0    0    0    0 -0.00000000000E+00 -0.00000000000E+00  0.00000000000E+00  0.93800000000E+00  0.93800000000E+00 0. -1.
         11    1    1    2    0    0  0.25835563694E-01  0.42475681139E-03  0.25036115454E+00  0.25169152865E+00  0.51100000000E-03 0.  1.
    9000002    1    1    2    0    0 -0.35995613884E+00 -0.42493261480E-01  0.88242147556E-01  0.10094576642E+01  0.93800000000E+00 0. -1.
         22    1    1    2    0    0  0.33412057514E+00  0.42068504669E-01  0.36613966653E+01  0.36768508072E+01  0.00000000000E+00 0.  1.
</event>
<event>
 5    1  0.5849602E+001  0.1587254E+01  0.7818608E-02  0.3367315E+00
         11   -1    0    0    0    0  0.00000000000E+00  0.00000000000E+00  0.39999999674E+01  0.40000000000E+01  0.51100000000E-03 0.  1.
    9000002   -1    0    0    0    0 -0.00000000000E+00 -0.00000000000E+00  0.00000000000E+00  0.93800000000E+00  0.93800000000E+00 0.  1.
         11    1    1    2    0    0  0.46257616064E-01  0.31719817129E-01  0.36147992769E+00  0.36580584069E+00  0.51100000000E-03 0.  1.
    9000002    1    1    2    0    0  0.30433614285E+00 -0.10074943947E+00  0.78594252142E-01  0.99438020589E+00  0.93800000000E+00 0.  1.
         22    1    1    2    0    0 -0.35059375891E+00  0.69029622344E-01  0.35599257875E+01  0.35778139534E+01  0.00000000000E+00 0.  1.
</event>
<event>
 5    1  0.5849602E+001  0.1598435E+01  0.7818608E-02  0.3355063E+00
         11   -1    0    0    0    0  0.00000000000E+00  0.00000000000E+00  0.39999999674E+01  0.40000000000E+01  0.51100000000E-03 0. -1.
    9000002   -1    0    0    0    0 -0.00000000000E+00 -0.00000000000E+00  0.00000000000E+00  0.93800000000E+00  0.93800000000E+00 0. -1.
         11    1    1    2    0    0 -0.21475563162E-01  0.24877340996E-01  0.76294635933E+00  0.76365403832E+00  0.51100000000E-03 0. -1.
    9000002    1    1    2    0    0  0.27674668299E+00 -0.17610337638E+00  0.72966481776E-01  0.99637805735E+00  0.93800000000E+00 0. -1.
         22    1    1    2    0    0 -0.25527111982E+00  0.15122603538E+00  0.31640871263E+01  0.31779679043E+01  0.00000000000E+00 0. -1.
</event>
<event>
 5    1  0.5849602E+001  0.1576469E+01  0.7818608E-02  0.3379306E+00
         11   -1    0    0    0    0  0.00000000000E+00  0.00000000000E+00  0.39999999674E+01  0.40000000000E+01  0.51100000000E-03 0.  1.
    9000002   -1    0    0    0    0 -0.00000000000E+00 -0.00000000000E+00  0.00000000000E+00  0.93800000000E+00  0.93800000000E+00 0. -1.
         11    1    1    2    0    0 -0.13637939128E+00 -0.83384362773E-02  0.12323799850E+01  0.12399312708E+01  0.51100000000E-03 0.  1.
    9000002    1    1    2    0    0 -0.72750135467E-01  0.21752665492E+00  0.52690653146E-01  0.96707328199E+00  0.93800000000E+00 0. -1.
         22    1    1    2    0    0  0.20912952674E+00 -0.20918821864E+00  0.27149293292E+01  0.27309954472E+01  0.00000000000E+00 0.  1.
</event>
<event>
 5    1  0.5849602E+001  0.1599277E+01  0.7818608E-02  0.3354149E+00
         11   -1    0    0    0    0  0.00000000000E+00  0.00000000000E+00  0.39999999674E+01  0.40000000000E+01  0.51100000000E-03 0. -1.
    9000002   -1    0    0    0    0 -0.00000000000E+00 -0.00000000000E+00  0.00000000000E+00  0.93800000000E+00  0.93800000000E+00 0. -1.
         11    1    1    2    0    0 -0.49881590484E-01 -0.15362346496E+00  0.12968385966E+01  0.13068584272E+01  0.51100000000E-03 0. -1.
    9000002    1    1    2    0    0  0.16258504399E+00  0.39244020013E+00  0.12245364058E+00  0.10369581001E+01  0.93800000000E+00 0. -1.
         22    1    1    2    0    0 -0.11270345351E+00 -0.23881673517E+00  0.25807077302E+01  0.25941834727E+01  0.00000000000E+00 0. -1.
</event>
<event>
 5    1  0.5849602E+001  0.1599338E+01  0.7818608E-02  0.3354083E+00
         11   -1    0    0    0    0  0.00000000000E+00  0.00000000000E+00  0.39999999674E+01  0.40000000000E+01  0.51100000000E-03 0. -1.
    9000002   -1    0    0    0    0 -0.00000000000E+00 -0.00000000000E+00  0.00000000000E+00  0.93800000000E+00  0.93800000000E+00 0. -1.
         11    1    1    2    0    0 -0.41220042679E-01  0.10367735810E+00  0.90297954499E+00  0.90984636412E+00  0.51100000000E-03 0. -1.
    9000002    1    1    2    0    0  0.15814614916E+00 -0.36807661103E+00  0.10854508907E+00  0.10257273675E+01  0.93800000000E+00 0. -1.
         22    1    1    2    0    0 -0.11692610648E+00  0.26439925293E+00  0.29884753333E+01  0.30024262684E+01  0.00000000000E+00 0. -1.
</event>
<event>
 5    1  0.5849602E+001  0.1483920E+01  0.7818608E-02  0.3489866E+00
         11   -1    0    0    0    0  0.00000000000E+00  0.00000000000E+00  0.39999999674E+01  0.40000000000E+01  0.51100000000E-03 0. -1.
    9000002   -1    0    0    0    0 -0.00000000000E+00 -0.00000000000E+00  0.00000000000E+00  0.93800000000E+00  0.93800000000E+00 0.  1.
         11    1    1    2    0    0 -0.13908676580E+00 -0.20590984614E+00  0.39910361761E+00  0.47013609930E+00  0.51100000000E-03 0. -1.
    9000002    1    1    2    0    0  0.34207354165E-01 -0.10728651238E+00  0.98419308005E-01  0.94984782939E+00  0.93800000000E+00 0.  1.
         22    1    1    2    0    0  0.10487941164E+00  0.31319635852E+00  0.35024770417E+01  0.35180160713E+01  0.00000000000E+00 0. -1.
</event>
<event>
 5    1  0.5849602E+001  0.1599570E+01  0.7818608E-02  0.3353830E+00
         11   -1    0    0    0    0  0.00000000000E+00  0.00000000000E+00  0.39999999674E+01  0.40000000000E+01  0.51100000000E-03 0.  1.
    9000002   -1    0    0    0    0 -0.00000000000E+00 -0.00000000000E+00  0.00000000000E+00  0.93800000000E+00  0.93800000000E+00 0.  1.
         11    1    1    2    0    0  0.23537982859E-01 -0.15915734403E-01  0.28635931723E+00  0.28776599334E+00  0.51100000000E-03 0.  1.
    9000002    1    1    2    0    0 -0.36780693810E+00  0.28588932770E+00  0.14783887094E+00  0.10576932368E+01  0.93800000000E+00 0.  1.
         22    1    1    2    0    0  0.34426895524E+00 -0.26997359330E+00  0.35658017792E+01  0.35925407699E+01  0.00000000000E+00 0.  1.
</event>
<event>
 5    1  0.5849602E+001  0.1578624E+01  0.7818608E-02  0.3376896E+00
         11   -1    0    0    0    0  0.00000000000E+00  0.00000000000E+00  0.39999999674E+01  0.40000000000E+01  0.51100000000E-03 0.  1.
    9000002   -1    0    0    0    0 -0.00000000000E+00 -0.00000000000E+00  0.00000000000E+00  0.93800000000E+00  0.93800000000E+00 0.  1.
         11    1    1    2    0    0  0.13655662769E+00 -0.32786580940E-01  0.30397172652E+00  0.33484585125E+00  0.51100000000E-03 0.  1.
    9000002    1    1    2    0    0 -0.52667078437E+00  0.51991818260E-01  0.21245827083E+00  0.10977557930E+01  0.93800000000E+00 0.  1.
         22    1    1    2    0    0  0.39011415668E+00 -0.19205237320E-01  0.34835699700E+01  0.35053983557E+01  0.00000000000E+00 0.  1.
</event>
<event>
 5    1  0.5849602E+001  0.1599538E+01  0.7818608E-02  0.3353865E+00
         11   -1    0    0    0    0  0.00000000000E+00  0.00000000000E+00  0.39999999674E+01  0.40000000000E+01  0.51100000000E-03 0. -1.
    9000002   -1    0    0    0    0 -0.00000000000E+00 -0.00000000000E+00  0.00000000000E+00  0.93800000000E+00  0.93800000000E+00 0. -1.
         11    1    1    2    0    0  0.10243770609E+00  0.18084349333E+00  0.12787572302E+01  0.12955377909E+01  0.51100000000E-03 0. -1.
    9000002    1    1    2    0    0 -0.33296819992E+00 -0.50796677448E+00  0.25792848448E+00  0.11468518515E+01  0.93800000000E+00 0. -1.
         22    1    1    2    0    0  0.23053049382E+00  0.32712328115E+00  0.24633142527E+01  0.24956103576E+01  0.00000000000E+00 0. -1.
</event>
<event>
 5    1  0.5849602E+001  0.1487316E+01  0.7818608E-02  0.3485548E+00
         11   -1    0    0    0    0  0.00000000000E+00  0.00000000000E+00  0.39999999674E+01  0.40000000000E+01  0.51100000000E-03 0. -1.
    9000002   -1    0    0    0    0 -0.00000000000E+00 -0.00000000000E+00  0.00000000000E+00  0.93800000000E+00  0.93800000000E+00 0.  1.
         11    1    1    2    0    0 -0.10172077452E+00  0.48594737663E-01  0.54006294634E-01  0.12500202190E+00  0.51100000000E-03 0. -1.
    9000002    1    1    2    0    0 -0.48731066299E+00 -0.71599189041E-01  0.27443745414E+00  0.10944213276E+01  0.93800000000E+00 0.  1.
         22    1    1    2    0    0  0.58903143751E+00  0.23004451378E-01  0.36715562186E+01  0.37185766505E+01  0.00000000000E+00 0. -1.
</event>
<event>
 5    1  0.5849602E+001  0.1599391E+01  0.7818608E-02  0.3354024E+00
         11   -1    0    0    0    0  0.00000000000E+00  0.00000000000E+00  0.39999999674E+01  0.40000000000E+01  0.51100000000E-03 0. -1.
    9000002   -1    0    0    0    0 -0.00000000000E+00 -0.00000000000E+00  0.00000000000E+00  0.93800000000E+00  0.93800000000E+00 0. -1.
         11    1    1    2    0    0  0.14819212629E+00  0.35464917281E-01  0.12516861363E+01  0.12609270841E+01  0.51100000000E-03 0. -1.
    9000002    1    1    2    0    0 -0.44334039821E+00 -0.52418299587E-01  0.13553537267E+00  0.10476221762E+01  0.93800000000E+00 0. -1.
         22    1    1    2    0    0  0.29514827192E+00  0.16953382307E-01  0.26127784584E+01  0.26294507397E+01  0.00000000000E+00 0. -1.
</event>
<event>
 5    1  0.5849602E+001  0.1546784E+01  0.7818608E-02  0.3413228E+00
         11   -1    0    0    0    0  0.00000000000E+00  0.00000000000E+00  0.39999999674E+01  0.40000000000E+01  0.51100000000E-03 0. -1.
    9000002   -1    0    0    0    0 -0.00000000000E+00 -0.00000000000E+00  0.00000000000E+00  0.93800000000E+00  0.93800000000E+00 0.  1.
         11    1    1    2    0    0 -0.95910730633E-01 -0.83464286746E-01  0.14339937080E+00  0.19164758303E+00  0.51100000000E-03 0. -1.
    9000002    1    1    2    0    0  0.40574010261E-01  0.47326780234E+00  0.20204652551E+00  0.10706518862E+01  0.93800000000E+00 0.  1.
         22    1    1    2    0    0  0.55336720372E-01 -0.38980351559E+00  0.36545540710E+01  0.36757005307E+01  0.00000000000E+00 0. -1.
</event>
<event>
 5    1  0.5849602E+001  0.1599676E+01  0.7818608E-02  0.3353715E+00
         11   -1    0    0    0    0  0.00000000000E+00  0.00000000000E+00  0.39999999674E+01  0.40000000000E+01  0.51100000000E-03 0. -1.
    9000002   -1    0    0    0    0 -0.00000000000E+00 -0.00000000000E+00  0.00000000000E+00  0.93800000000E+00  0.93800000000E+00 0.  1.
         11    1    1    2    0    0 -0.11761092633E+00  0.44529157771E-01  0.13356829018E+01  0.13415901949E+01  0.51100000000E-03 0. -1.
    9000002    1    1    2    0    0  0.34664296260E+00 -0.13036820733E+00  0.92179186950E-01  0.10126688578E+01  0.93800000000E+00 0.  1.
         22    1    1    2    0    0 -0.22903203628E+00  0.85839049562E-01  0.25721378786E+01  0.25837409473E+01  0.00000000000E+00 0. -1.
</event>
<event>
 5    1  0.5849602E+001  0.1597765E+01  0.7818608E-02  0.3355793E+00
         11   -1    0    0    0    0  0.00000000000E+00  0.00000000000E+00  0.39999999674E+01  0.40000000000E+01  0.51100000000E-03 0. -1.
    9000002   -1    0    0    0    0 -0.00000000000E+00 -0.00000000000E+00  0.00000000000E+00  0.93800000000E+00  0.93800000000E+00 0. -1.
         11    1    1    2    0    0 -0.42424583878E-02  0.64592715907E-01  0.40754712855E+00  0.41265620135E+00  0.51100000000E-03 0. -1.
    9000002    1    1    2    0    0  0.17786936258E+00 -0.34078440912E+00  0.10105573145E+00  0.10187383298E+01  0.93800000000E+00 0. -1.
         22    1    1    2    0    0 -0.17362690419E+00  0.27619169321E+00  0.34913971074E+01  0.35066054689E+01  0.00000000000E+00 0. -1.
</event>
<event>
 5    1  0.5849602E+001  0.1596217E+01  0.7818608E-02  0.3357480E+00
         11   -1    0    0    0    0  0.00000000000E+00  0.00000000000E+00  0.39999999674E+01  0.40000000000E+01  0.51100000000E-03 0.  1.
    9000002   -1    0    0    0    0 -0.00000000000E+00 -0.00000000000E+00  0.00000000000E+00  0.93800000000E+00  0.93800000000E+00 0.  1.
         11    1    1    2    0    0  0.62059974332E-02  0.90404283803E-02  0.22012069381E-01  0.24597480946E-01  0.51100000000E-03 0.  1.
    9000002    1    1    2    0    0  0.34880979715E+00 -0.31612019201E+00  0.15402697310E+00  0.10607396282E+01  0.93800000000E+00 0.  1.
         22    1    1    2    0    0 -0.35501579458E+00  0.30707976363E+00  0.38239609249E+01  0.38526628909E+01  0.00000000000E+00 0.  1.
</event>
<event>
 5    1  0.5849602E+001  0.1599621E+01  0.7818608E-02  0.3353775E+00
         11   -1    0    0    0    0  0.00000000000E+00  0.00000000000E+00  0.39999999674E+01  0.40000000000E+01  0.51100000000E-03 0. -1.
    9000002   -1    0    0    0    0 -0.00000000000E+00 -0.00000000000E+00  0.00000000000E+00  0.93800000000E+00  0.93800000000E+00 0. -1.
         11    1    1    2    0    0  0.34617268787E+00  0.48301806732E-01  0.12882466402E+01  0.13348214343E+01  0.51100000000E-03 0. -1.
    9000002    1    1    2    0    0 -0.88683017065E+00 -0.13311956078E+00  0.61476900323E+00  0.14359573449E+01  0.93800000000E+00 0. -1.
         22    1    1    2    0    0  0.54065748278E+00  0.84817754047E-01  0.20969843240E+01  0.21672212208E+01  0.00000000000E+00 0. -1.
</event>
<event>
 5    1  0.5849602E+001  0.1599676E+01  0.7818608E-02  0.3353715E+00
         11   -1    0    0    0    0  0.00000000000E+00  0.00000000000E+00  0.39999999674E+01  0.40000000000E+01  0.51100000000E-03 0. -1.
    9000002   -1    0    0    0    0 -0.00000000000E+00 -0.00000000000E+00  0.00000000000E+00  0.93800000000E+00  0.93800000000E+00 0. -1.
         11    1    1    2    0    0 -0.73780000706E-01 -0.10809770842E+00  0.11565342330E+01  0.11639159318E+01  0.51100000000E-03 0. -1.
    9000002    1    1    2    0    0  0.24960325488E+00  0.36056351520E+00  0.13039561950E+00  0.10436258194E+01  0.93800000000E+00 0. -1.
         22    1    1    2    0    0 -0.17582325418E+00 -0.25246580678E+00  0.27130701149E+01  0.27304582488E+01  0.00000000000E+00 0.  1.
</event>
<event>
 5    1  0.5849602E+001  0.1599669E+01  0.7818608E-02  0.3353723E+00
         11   -1    0    0    0    0  0.00000000000E+00  0.00000000000E+00  0.39999999674E+01  0.40000000000E+01  0.51100000000E-03 0.  1.
    9000002   -1    0    0    0    0 -0.00000000000E+00 -0.00000000000E+00  0.00000000000E+00  0.93800000000E+00  0.93800000000E+00 0.  1.
         11    1    1    2    0    0 -0.44638466608E-01  0.93044754171E-02  0.38672654886E+00  0.38940576611E+00  0.51100000000E-03 0.  1.
    9000002    1    1    2    0    0  0.46406194163E+00 -0.90497010335E-01  0.15236127514E+00  0.10614146940E+01  0.93800000000E+00 0. -1.
         22    1    1    2    0    0 -0.41942347502E+00  0.81192534918E-01  0.34609121434E+01  0.34871795399E+01  0.00000000000E+00 0.  1.
</event>
<event>
 5    1  0.5849602E+001  0.1599663E+01  0.7818608E-02  0.3353730E+00
         11   -1    0    0    0    0  0.00000000000E+00  0.00000000000E+00  0.39999999674E+01  0.40000000000E+01  0.51100000000E-03 0. -1.
    9000002   -1    0    0    0    0 -0.00000000000E+00 -0.00000000000E+00  0.00000000000E+00  0.93800000000E+00  0.93800000000E+00 0. -1.
         11    1    1    2    0    0  0.22891736212E-01  0.76102535457E-01  0.87073095394E+00  0.87435020601E+00  0.51100000000E-03 0. -1.
    9000002    1    1    2    0    0 -0.99755990212E-01 -0.35827852823E+00  0.92985486610E-01  0.10133139011E+01  0.93800000000E+00 0. -1.
         22    1    1    2    0    0  0.76864253999E-01  0.28217599277E+00  0.30362835268E+01  0.30503358929E+01  0.00000000000E+00 0. -1.
</event>
<event>
 5    1  0.5849602E+001  0.1599648E+01  0.7818608E-02  0.3353746E+00
         11   -1    0    0    0    0  0.00000000000E+00  0.00000000000E+00  0.39999999674E+01  0.40000000000E+01  0.51100000000E-03 0.  1.
    9000002   -1    0    0    0    0 -0.00000000000E+00 -0.00000000000E+00  0.00000000000E+00  0.93800000000E+00  0.93800000000E+00 0. -1.
         11    1    1    2    0    0  0.15524468030E-01 -0.16345916696E-01  0.18240202687E+00  0.18379052921E+00  0.51100000000E-03 0.  1.
    9000002    1    1    2    0    0 -0.28157252196E+00  0.31536997075E+00  0.12095424720E+00  0.10359610193E+01  0.93800000000E+00 0. -1.
         22    1    1    2    0    0  0.26604805393E+00 -0.29902405406E+00  0.36966436933E+01  0.37182484515E+01  0.00000000000E+00 0.  1.
</event>
<event>
 5    1  0.5849602E+001  0.1554835E+01  0.7818608E-02  0.3403892E+00
         11   -1    0    0    0    0  0.00000000000E+00  0.00000000000E+00  0.39999999674E+01  0.40000000000E+01  0.51100000000E-03 0.  1.
    9000002   -1    0    0    0    0 -0.00000000000E+00 -0.00000000000E+00  0.00000000000E+00  0.93800000000E+00  0.93800000000E+00 0. -1.
         11    1    1    2    0    0 -0.53235317597E-01 -0.92773301395E-01  0.22489038579E+00  0.24903178760E+00  0.51100000000E-03 0.  1.
    9000002    1    1    2    0    0 -0.23775856782E+00 -0.13058065068E+00  0.84402343433E-01  0.98007560855E+00  0.93800000000E+00 0. -1.
         22    1    1    2    0    0  0.29099388542E+00  0.22335395207E+00  0.36907072381E+01  0.37088926039E+01  0.00000000000E+00 0.  1.
</event>
<event>
 5    1  0.5849602E+001  0.1487295E+01  0.7818608E-02  0.3485574E+00
         11   -1    0    0    0    0  0.00000000000E+00  0.00000000000E+00  0.39999999674E+01  0.40000000000E+01  0.51100000000E-03 0. -1.
    9000002   -1    0    0    0    0 -0.00000000000E+00 -0.00000000000E+00  0.00000000000E+00  0.93800000000E+00  0.93800000000E+00 0. -1.
         11    1    1    2    0    0  0.22747618001E+00  0.36596778525E+00  0.99710916634E+00  0.10862342211E+01  0.51100000000E-03 0. -1.
    9000002    1    1    2    0    0  0.43884347852E+00 -0.17594009820E+00  0.34588601194E+00  0.11059021883E+01  0.93800000000E+00 0. -1.
         22    1    1    2    0    0 -0.66631965853E+00 -0.19002768705E+00  0.26570047891E+01  0.27458635906E+01  0.00000000000E+00 0. -1.
</event>
<event>
 5    1  0.5849602E+001  0.1599604E+01  0.7818608E-02  0.3353793E+00
         11   -1    0    0    0    0  0.00000000000E+00  0.00000000000E+00  0.39999999674E+01  0.40000000000E+01  0.51100000000E-03 0.  1.
    9000002   -1    0    0    0    0 -0.00000000000E+00 -0.00000000000E+00  0.00000000000E+00  0.93800000000E+00  0.93800000000E+00 0. -1.
         11    1    1    2    0    0  0.33604423616E-02 -0.48824322463E-03  0.39598227241E-01  0.39746844855E-01  0.51100000000E-03 0.  1.
    9000002    1    1    2    0    0 -0.39298753093E+00 -0.13757787792E+00  0.11725239403E+00  0.10329370726E+01  0.93800000000E+00 0. -1.
         22    1    1    2    0    0  0.38962708857E+00  0.13806612114E+00  0.38431493461E+01  0.38653160826E+01  0.00000000000E+00 0.  1.
</event>
<event>
 5    1  0.5849602E+001  0.1598474E+01  0.7818608E-02  0.3355021E+00
         11   -1    0    0    0    0  0.00000000000E+00  0.00000000000E+00  0.39999999674E+01  0.40000000000E+01  0.51100000000E-03 0.  1.
    9000002   -1    0    0    0    0 -0.00000000000E+00 -0.00000000000E+00  0.00000000000E+00  0.93800000000E+00  0.93800000000E+00 0. -1.
         11    1    1    2    0    0  0.44255196069E-01 -0.72640190024E-01  0.72625129887E+00  0.73121565206E+00  0.51100000000E-03 0.  1.
    9000002    1    1    2    0    0 -0.34008174931E+00  0.24840645346E+00  0.12098547159E+00  0.10352984336E+01  0.93800000000E+00 0. -1.
         22    1    1    2    0    0  0.29582655324E+00 -0.17576626343E+00  0.31527631969E+01  0.31714859143E+01  0.00000000000E+00 0.  1.
</event>
<event>
 5    1  0.5849602E+001  0.1599562E+01  0.7818608E-02  0.3353839E+00
         11   -1    0    0    0    0  0.00000000000E+00  0.00000000000E+00  0.39999999674E+01  0.40000000000E+01  0.51100000000E-03 0.  1.
    9000002   -1    0    0    0    0 -0.00000000000E+00 -0.00000000000E+00  0.00000000000E+00  0.93800000000E+00  0.93800000000E+00 0. -1.
         11    1    1    2    0    0  0.82937619250E-01 -0.15827966770E+00  0.10296937760E+01  0.10450840327E+01  0.51100000000E-03 0.  1.
    9000002    1    1    2    0    0 -0.33026692609E+00  0.54332006559E+00  0.28444045412E+00  0.11683421195E+01  0.93800000000E+00 0. -1.
         22    1    1    2    0    0  0.24732930684E+00 -0.38504039789E+00  0.26858657372E+01  0.27245738478E+01  0.00000000000E+00 0.  1.
</event>
<event>
 5    1  0.5849602E+001  0.1572441E+01  0.7818608E-02  0.3383829E+00
         11   -1    0    0    0    0  0.00000000000E+00  0.00000000000E+00  0.39999999674E+01  0.40000000000E+01  0.51100000000E-03 0.  1.
    9000002   -1    0    0    0    0 -0.00000000000E+00 -0.00000000000E+00  0.00000000000E+00  0.93800000000E+00  0.93800000000E+00 0.  1.
         11    1    1    2    0    0  0.28270652204E+00  0.13502608574E+00  0.94436980334E+00  0.99498221492E+00  0.51100000000E-03 0.  1.
    9000002    1    1    2    0    0 -0.42691778445E+00 -0.43153117421E+00  0.28529756749E+00  0.11531334056E+01  0.93800000000E+00 0.  1.
         22    1    1    2    0    0  0.14421126241E+00  0.29650508847E+00  0.27703325965E+01  0.27898843795E+01  0.00000000000E+00 0.  1.
</event>
<event>
 5    1  0.5849602E+001  0.1599341E+01  0.7818608E-02  0.3354079E+00
         11   -1    0    0    0    0  0.00000000000E+00  0.00000000000E+00  0.39999999674E+01  0.40000000000E+01  0.51100000000E-03 0. -1.
    9000002   -1    0    0    0    0 -0.00000000000E+00 -0.00000000000E+00  0.00000000000E+00  0.93800000000E+00  0.93800000000E+00 0.  1.
         11    1    1    2    0    0 -0.71037728232E-01 -0.31353070227E-01  0.74544882414E+00  0.74948221085E+00  0.51100000000E-03 0. -1.
    9000002    1    1    2    0    0  0.39956278151E+00  0.24611369019E+00  0.15030316596E+00  0.10595552872E+01  0.93800000000E+00 0.  1.
         22    1    1    2    0    0 -0.32852505328E+00 -0.21476061996E+00  0.31042479773E+01  0.31289625020E+01  0.00000000000E+00 0. -1.
</event>
<event>
 5    1  0.5849602E+001  0.1597884E+01  0.7818608E-02  0.3355663E+00
         11   -1    0    0    0    0  0.00000000000E+00  0.00000000000E+00  0.39999999674E+01  0.40000000000E+01  0.51100000000E-03 0. -1.
    9000002   -1    0    0    0    0 -0.00000000000E+00 -0.00000000000E+00  0.00000000000E+00  0.93800000000E+00  0.93800000000E+00 0. -1.
         11    1    1    2    0    0  0.12967905911E+00  0.38082319685E-01  0.14535081776E+01  0.14597784780E+01  0.51100000000E-03 0. -1.
    9000002    1    1    2    0    0 -0.29060287922E+00 -0.22141996114E+00  0.91111919758E-01  0.10107532906E+01  0.93800000000E+00 0. -1.
         22    1    1    2    0    0  0.16092382012E+00  0.18333764146E+00  0.24553798700E+01  0.24674682313E+01  0.00000000000E+00 0. -1.
</event>
<event>
 5    1  0.5849602E+001  0.1599530E+01  0.7818608E-02  0.3353874E+00
         11   -1    0    0    0    0  0.00000000000E+00  0.00000000000E+00  0.39999999674E+01  0.40000000000E+01  0.51100000000E-03 0.  1.
    9000002   -1    0    0    0    0 -0.00000000000E+00 -0.00000000000E+00  0.00000000000E+00  0.93800000000E+00  0.93800000000E+00 0. -1.
         11    1    1    2    0    0 -0.14183042325E+00 -0.82560095348E-01  0.11162374886E+01  0.11282368680E+01  0.51100000000E-03 0.  1.
    9000002    1    1    2    0    0  0.44220682731E+00  0.30083058365E+00  0.19715125290E+00  0.10976149301E+01  0.93800000000E+00 0. -1.
         22    1    1    2    0    0 -0.30037640406E+00 -0.21827048830E+00  0.26866112259E+01  0.27121482019E+01  0.00000000000E+00 0.  1.
</event>
<event>
 5    1  0.5849602E+001  0.1599599E+01  0.7818608E-02  0.3353799E+00
         11   -1    0    0    0    0  0.00000000000E+00  0.00000000000E+00  0.39999999674E+01  0.40000000000E+01  0.51100000000E-03 0.  1.
    9000002   -1    0    0    0    0 -0.00000000000E+00 -0.00000000000E+00  0.00000000000E+00  0.93800000000E+00  0.93800000000E+00 0. -1.
         11    1    1    2    0    0 -0.54991411537E-01 -0.80401203957E-01  0.96604500432E+00  0.97094367521E+00  0.51100000000E-03 0.  1.
    9000002    1    1    2    0    0  0.18740129862E+00  0.31309264883E+00  0.89489991519E-01  0.10104448090E+01  0.93800000000E+00 0. -1.
         22    1    1    2    0    0 -0.13240988708E+00 -0.23269144487E+00  0.29444649715E+01  0.29566115158E+01  0.00000000000E+00 0.  1.
</event>
<event>
 5    1  0.5849602E+001  0.1599650E+01  0.7818608E-02  0.3353744E+00
         11   -1    0    0    0    0  0.00000000000E+00  0.00000000000E+00  0.39999999674E+01  0.40000000000E+01  0.51100000000E-03 0. -1.
    9000002   -1    0    0    0    0 -0.00000000000E+00 -0.00000000000E+00  0.00000000000E+00  0.93800000000E+00  0.93800000000E+00 0.  1.
         11    1    1    2    0    0  0.25542598555E-01  0.19964226941E-01  0.28836169582E+00  0.29017877841E+00  0.51100000000E-03 0. -1.
    9000002    1    1    2    0    0 -0.30061633208E+00 -0.26517311782E+00  0.10842132425E+00  0.10258099946E+01  0.93800000000E+00 0.  1.
         22    1    1    2    0    0  0.27507373353E+00  0.24520889088E+00  0.36032169473E+01  0.36220112270E+01  0.00000000000E+00 0. -1.
</event>
<event>
 5    1  0.5849602E+001  0.1588647E+01  0.7818608E-02  0.3365779E+00
         11   -1    0    0    0    0  0.00000000000E+00  0.00000000000E+00  0.39999999674E+01  0.40000000000E+01  0.51100000000E-03 0.  1.
    9000002   -1    0    0    0    0 -0.00000000000E+00 -0.00000000000E+00  0.00000000000E+00  0.93800000000E+00  0.93800000000E+00 0.  1.
         11    1    1    2    0    0  0.19832092263E+00  0.36910345904E+00  0.14381226465E+01  0.14979204115E+01  0.51100000000E-03 0.  1.
    9000002    1    1    2    0    0 -0.61512891115E+00 -0.61613894565E+00  0.58943967954E+00  0.14090045825E+01  0.93800000000E+00 0.  1.
         22    1    1    2    0    0  0.41680798852E+00  0.24703548661E+00  0.19724376414E+01  0.20310750060E+01  0.00000000000E+00 0.  1.
</event>
<event>
 5    1  0.5849602E+001  0.1599677E+01  0.7818608E-02  0.3353714E+00
         11   -1    0    0    0    0  0.00000000000E+00  0.00000000000E+00  0.39999999674E+01  0.40000000000E+01  0.51100000000E-03 0.  1.
    9000002   -1    0    0    0    0 -0.00000000000E+00 -0.00000000000E+00  0.00000000000E+00  0.93800000000E+00  0.93800000000E+00 0.  1.
         11    1    1    2    0    0  0.16069021962E+00 -0.52781148708E-02  0.14640487508E+01  0.14728503695E+01  0.51100000000E-03 0.  1.
    9000002    1    1    2    0    0 -0.42588279345E+00  0.12907751227E-01  0.12288058500E+00  0.10375386267E+01  0.93800000000E+00 0.  1.
         22    1    1    2    0    0  0.26519257383E+00 -0.76296363560E-02  0.24130706316E+01  0.24276110038E+01  0.00000000000E+00 0.  1.
</event>
<event>
 5    1  0.5849602E+001  0.1578478E+01  0.7818608E-02  0.3377059E+00
         11   -1    0    0    0    0  0.00000000000E+00  0.00000000000E+00  0.39999999674E+01  0.40000000000E+01  0.51100000000E-03 0.  1.
    9000002   -1    0    0    0    0 -0.00000000000E+00 -0.00000000000E+00  0.00000000000E+00  0.93800000000E+00  0.93800000000E+00 0.  1.
         11    1    1    2    0    0 -0.20471021478E-01 -0.25346446441E-01  0.35769047959E-01  0.48385855169E-01  0.51100000000E-03 0.  1.
    9000002    1    1    2    0    0 -0.67938268424E-01 -0.36703617110E+00  0.11120188127E+00  0.10156480776E+01  0.93800000000E+00 0.  1.
         22    1    1    2    0    0  0.88409289902E-01  0.39238261754E+00  0.38530290381E+01  0.38739660672E+01  0.00000000000E+00 0.  1.
</event>
<event>
 5    1  0.5849602E+001  0.1599271E+01  0.7818608E-02  0.3354155E+00
         11   -1    0    0    0    0  0.00000000000E+00  0.00000000000E+00  0.39999999674E+01  0.40000000000E+01  0.51100000000E-03 0.  1.
    9000002   -1    0    0    0    0 -0.00000000000E+00 -0.00000000000E+00  0.00000000000E+00  0.93800000000E+00  0.93800000000E+00 0. -1.
         11    1    1    2    0    0  0.78667053737E-01  0.40554618645E-01  0.64294288517E+00  0.64900616111E+00  0.51100000000E-03 0.  1.
    9000002    1    1    2    0    0 -0.45047443496E+00 -0.13619495801E+00  0.15125062703E+00  0.10602815830E+01  0.93800000000E+00 0. -1.
         22    1    1    2    0    0  0.37180738122E+00  0.95640339360E-01  0.32058064552E+01  0.32287122559E+01  0.00000000000E+00 0.  1.
</event>
<event>
 5    1  0.5849602E+001  0.1599661E+01  0.7818608E-02  0.3353731E+00
         11   -1    0    0    0    0  0.00000000000E+00  0.00000000000E+00  0.39999999674E+01  0.40000000000E+01  0.51100000000E-03 0. -1.
    9000002   -1    0    0    0    0 -0.00000000000E+00 -0.00000000000E+00  0.00000000000E+00  0.93800000000E+00  0.93800000000E+00 0.  1.
         11    1    1    2    0    0 -0.94681281120E-02  0.28029740239E-01  0.22952704044E+00  0.23142652226E+00  0.51100000000E-03 0. -1.
    9000002    1    1    2    0    0  0.13760883676E+00 -0.49755677490E+00  0.18295609699E+00  0.10861932929E+01  0.93800000000E+00 0.  1.
         22    1    1    2    0    0 -0.12814070865E+00  0.46952703466E+00  0.35875168299E+01  0.36203801848E+01  0.00000000000E+00 0. -1.
</event>
<event>
 5    1  0.5849602E+001  0.1599643E+01  0.7818608E-02  0.3353751E+00
         11   -1    0    0    0    0  0.00000000000E+00  0.00000000000E+00  0.39999999674E+01  0.40000000000E+01  0.51100000000E-03 0. -1.
    9000002   -1    0    0    0    0 -0.00000000000E+00 -0.00000000000E+00  0.00000000000E+00  0.93800000000E+00  0.93800000000E+00 0. -1.
         11    1    1    2    0    0  0.98960603049E-01  0.10843772832E+00  0.14390583042E+01  0.14465272227E+01  0.51100000000E-03 0. -1.
    9000002    1    1    2    0    0 -0.26599870446E+00 -0.27579802955E+00  0.98852051998E-01  0.10180548080E+01  0.93800000000E+00 0. -1.
         22    1    1    2    0    0  0.16703810141E+00  0.16736030123E+00  0.24620896112E+01  0.24734179693E+01  0.00000000000E+00 0. -1.
</event>
<event>
 5    1  0.5849602E+001  0.1498985E+01  0.7818608E-02  0.3470870E+00
         11   -1    0    0    0    0  0.00000000000E+00  0.00000000000E+00  0.39999999674E+01  0.40000000000E+01  0.51100000000E-03 0. -1.
    9000002   -1    0    0    0    0 -0.00000000000E+00 -0.00000000000E+00  0.00000000000E+00  0.93800000000E+00  0.93800000000E+00 0. -1.
         11    1    1    2    0    0 -0.17088893506E-01  0.32960909956E+00  0.88404457944E+00  0.94364679215E+00  0.51100000000E-03 0. -1.
    9000002    1    1    2    0    0 -0.91000788390E-01 -0.43070154279E-01  0.84164925618E-01  0.94713458198E+00  0.93800000000E+00 0. -1.
         22    1    1    2    0    0  0.10808968190E+00 -0.28653894528E+00  0.30317904623E+01  0.30472186259E+01  0.00000000000E+00 0. -1.
</event>
<event>
 5    1  0.5849602E+001  0.1567395E+01  0.7818608E-02  0.3389530E+00
         11   -1    0    0    0    0  0.00000000000E+00  0.00000000000E+00  0.39999999674E+01  0.40000000000E+01  0.51100000000E-03 0.  1.
    9000002   -1    0    0    0    0 -0.00000000000E+00 -0.00000000000E+00  0.00000000000E+00  0.93800000000E+00  0.93800000000E+00 0. -1.
         11    1    1    2    0    0 -0.13614855054E+00  0.35402213147E-01  0.53023392173E+00  0.54857817801E+00  0.51100000000E-03 0.  1.
    9000002    1    1    2    0    0 -0.91531150155E-01 -0.28472849020E+00  0.85365093930E-01  0.98822035187E+00  0.93800000000E+00 0. -1.
         22    1    1    2    0    0  0.22767970070E+00  0.24932627705E+00  0.33844009517E+01  0.34012014701E+01  0.00000000000E+00 0.  1.
</event>
<event>
 5    1  0.5849602E+001  0.1599675E+01  0.7818608E-02  0.3353716E+00
         11   -1    0    0    0    0  0.00000000000E+00  0.00000000000E+00  0.39999999674E+01  0.40000000000E+01  0.51100000000E-03 0. -1.
    9000002   -1    0    0    0    0 -0.00000000000E+00 -0.00000000000E+00  0.00000000000E+00  0.93800000000E+00  0.93800000000E+00 0.  1.
         11    1    1    2    0    0  0.83202884354E-01  0.79895958939E-01  0.97470102666E+00  0.98150315166E+00  0.51100000000E-03 0.  1.
    9000002    1    1    2    0    0 -0.33236422767E+00 -0.31100639842E+00  0.14083109021E+00  0.10520781129E+01  0.93800000000E+00 0.  1.
         22    1    1    2    0    0  0.24916134331E+00  0.23111043949E+00  0.28844678505E+01  0.29044187354E+01  0.00000000000E+00 0. -1.
</event>
<event>
 5    1  0.5849602E+001  0.1599649E+01  0.7818608E-02  0.3353744E+00
         11   -1    0    0    0    0  0.00000000000E+00  0.00000000000E+00  0.39999999674E+01  0.40000000000E+01  0.51100000000E-03 0.  1.
    9000002   -1    0    0    0    0 -0.00000000000E+00 -0.00000000000E+00  0.00000000000E+00  0.93800000000E+00  0.93800000000E+00 0. -1.
         11    1    1    2    0    0 -0.10589287764E+00  0.36867953845E-01  0.83850702546E+00  0.84597094538E+00  0.51100000000E-03 0.  1.
    9000002    1    1    2    0    0  0.48949589493E+00 -0.14520823961E+00  0.17880472352E+00  0.10828235282E+01  0.93800000000E+00 0. -1.
         22    1    1    2    0    0 -0.38360301730E+00  0.10834028576E+00  0.29826882184E+01  0.30092055265E+01  0.00000000000E+00 0.  1.
</event>
<event>
 5    1  0.5849602E+001  0.1599674E+01  0.7818608E-02  0.3353717E+00
         11   -1    0    0    0    0  0.00000000000E+00  0.00000000000E+00  0.39999999674E+01  0.40000000000E+01  0.51100000000E-03 0. -1.
    9000002   -1    0    0    0    0 -0.00000000000E+00 -0.00000000000E+00  0.00000000000E+00  0.93800000000E+00  0.93800000000E+00 0. -1.
         11    1    1    2    0    0  0.98937658296E-01 -0.97196958474E-01  0.14817308125E+01  0.14882077714E+01  0.51100000000E-03 0. -1.
    9000002    1    1    2    0    0 -0.26073009215E+00  0.26172248994E+00  0.91715380119E-01  0.10122917335E+01  0.93800000000E+00 0. -1.
         22    1    1    2    0    0  0.16179243386E+00 -0.16452553147E+00  0.24265537747E+01  0.24375004951E+01  0.00000000000E+00 0. -1.
</event>
<event>
 5    1  0.5849602E+001  0.1599676E+01  0.7818608E-02  0.3353715E+00
         11   -1    0    0    0    0  0.00000000000E+00  0.00000000000E+00  0.39999999674E+01  0.40000000000E+01  0.51100000000E-03 0.  1.
    9000002   -1    0    0    0    0 -0.00000000000E+00 -0.00000000000E+00  0.00000000000E+00  0.93800000000E+00  0.93800000000E+00 0.  1.
         11    1    1    2    0    0 -0.53240316911E-01 -0.33883253296E-01  0.67399332372E+00  0.67694155415E+00  0.51100000000E-03 0.  1.
    9000002    1    1    2    0    0  0.31303687395E+00  0.19350581394E+00  0.90998402911E-01  0.10117120607E+01  0.93800000000E+00 0.  1.
         22    1    1    2    0    0 -0.25979655704E+00 -0.15962256065E+00  0.32350082407E+01  0.32493463851E+01  0.00000000000E+00 0.  1.
</event>
<event>
 5    1  0.5849602E+001  0.1599676E+01  0.7818608E-02  0.3353715E+00
         11   -1    0    0    0    0  0.00000000000E+00  0.00000000000E+00  0.39999999674E+01  0.40000000000E+01  0.51100000000E-03 0. -1.
    9000002   -1    0    0    0    0 -0.00000000000E+00 -0.00000000000E+00  0.00000000000E+00  0.93800000000E+00  0.93800000000E+00 0. -1.
         11    1    1    2    0    0  0.45123844516E-01 -0.10239210722E-01  0.24801001750E+00  0.25228997737E+00  0.51100000000E-03 0. -1.
    9000002    1    1    2    0    0 -0.66821216195E+00  0.14671833103E+00  0.33309333909E+00  0.12078199098E+01  0.93800000000E+00 0. -1.
         22    1    1    2    0    0  0.62308831743E+00 -0.13647912030E+00  0.34188966108E+01  0.34778901128E+01  0.00000000000E+00 0. -1.
</event>
<event>
 5    1  0.5849602E+001  0.1599674E+01  0.7818608E-02  0.3353717E+00
         11   -1    0    0    0    0  0.00000000000E+00  0.00000000000E+00  0.39999999674E+01  0.40000000000E+01  0.51100000000E-03 0. -1.
    9000002   -1    0    0    0    0 -0.00000000000E+00 -0.00000000000E+00  0.00000000000E+00  0.93800000000E+00  0.93800000000E+00 0. -1.
         11    1    1    2    0    0  0.51549036523E-01 -0.11160016951E+00  0.12030075994E+01  0.12092722796E+01  0.51100000000E-03 0. -1.
    9000002    1    1    2    0    0 -0.16367069904E+00  0.35666342436E+00  0.10377627888E+00  0.10220618436E+01  0.93800000000E+00 0. -1.
         22    1    1    2    0    0  0.11212166251E+00 -0.24506325485E+00  0.26932160891E+01  0.27066658768E+01  0.00000000000E+00 0. -1.
</event>
<event>
 5    1  0.5849602E+001  0.1599510E+01  0.7818608E-02  0.3353895E+00
         11   -1    0    0    0    0  0.00000000000E+00  0.00000000000E+00  0.39999999674E+01  0.40000000000E+01  0.51100000000E-03 0.  1.
    9000002   -1    0    0    0    0 -0.00000000000E+00 -0.00000000000E+00  0.00000000000E+00  0.93800000000E+00  0.93800000000E+00 0.  1.
         11    1    1    2    0    0 -0.55063863196E-02 -0.11671205818E+00  0.95368901804E+00  0.96081997745E+00  0.51100000000E-03 0.  1.
    9000002    1    1    2    0    0 -0.19418746468E-01  0.50291562588E+00  0.17364552891E+00  0.10785629255E+01  0.93800000000E+00 0.  1.
         22    1    1    2    0    0  0.24925132787E-01 -0.38620356769E+00  0.28726654204E+01  0.28986170971E+01  0.00000000000E+00 0.  1.
</event>
<event>
 5    1  0.5849602E+001  0.1587557E+01  0.7818608E-02  0.3366981E+00
         11   -1    0    0    0    0  0.00000000000E+00  0.00000000000E+00  0.39999999674E+01  0.40000000000E+01  0.51100000000E-03 0.  1.
    9000002   -1    0    0    0    0 -0.00000000000E+00 -0.00000000000E+00  0.00000000000E+00  0.93800000000E+00  0.93800000000E+00 0. -1.
         11    1    1    2    0    0  0.97234646779E-02 -0.43002437037E-02  0.19528471082E-02  0.10821857238E-01  0.51100000000E-03 0.  1.
    9000002    1    1    2    0    0  0.19408622559E+00  0.35452081002E+00  0.12042965131E+00  0.10284462886E+01  0.93800000000E+00 0. -1.
         22    1    1    2    0    0 -0.20380969027E+00 -0.35022056632E+00  0.38776174689E+01  0.38987318541E+01  0.00000000000E+00 0.  1.
</event>
<event>
 5    1  0.5849602E+001  0.1598421E+01  0.7818608E-02  0.3355078E+00
         11   -1    0    0    0    0  0.00000000000E+00  0.00000000000E+00  0.39999999674E+01  0.40000000000E+01  0.51100000000E-03 0. -1.
    9000002   -1    0    0    0    0 -0.00000000000E+00 -0.00000000000E+00  0.00000000000E+00  0.93800000000E+00  0.93800000000E+00 0.  1.
         11    1    1    2    0    0 -0.41286611662E-01  0.14701209333E+00  0.12654133576E+01  0.12745934122E+01  0.51100000000E-03 0. -1.
    9000002    1    1    2    0    0  0.21376339603E+00 -0.36440627775E+00  0.12181457704E+00  0.10359389538E+01  0.93800000000E+00 0.  1.
         22    1    1    2    0    0 -0.17247678437E+00  0.21739418441E+00  0.26127720327E+01  0.26274676340E+01  0.00000000000E+00 0. -1.
</event>
<event>
 5    1  0.5849602E+001  0.1581458E+01  0.7818608E-02  0.3373738E+00
         11   -1    0    0    0    0  0.00000000000E+00  0.00000000000E+00  0.39999999674E+01  0.40000000000E+01  0.51100000000E-03 0. -1.
    9000002   -1    0    0    0    0 -0.00000000000E+00 -0.00000000000E+00  0.00000000000E+00  0.93800000000E+00  0.93800000000E+00 0.  1.
         11    1    1    2    0    0 -0.69014644300E-01 -0.20037818530E-01  0.54381152521E+00  0.54853967165E+00  0.51100000000E-03 0. -1.
    9000002    1    1    2    0    0 -0.26981573154E+00 -0.11286561197E+00  0.71367691307E-01  0.98512766823E+00  0.93800000000E+00 0.  1.
         22    1    1    2    0    0  0.33883037584E+00  0.13290343050E+00  0.33848207508E+01  0.34043326601E+01  0.00000000000E+00 0. -1.
</event>
<event>
 5    1  0.5849602E+001  0.1586830E+01  0.7818608E-02  0.3367783E+00
         11   -1    0    0    0    0  0.00000000000E+00  0.00000000000E+00  0.39999999674E+01  0.40000000000E+01  0.51100000000E-03 0. -1.
    9000002   -1    0    0    0    0 -0.00000000000E+00 -0.00000000000E+00  0.00000000000E+00  0.93800000000E+00  0.93800000000E+00 0. -1.
         11    1    1    2    0    0  0.18373812324E-01 -0.24255848217E-01  0.63623482569E+00  0.63696228907E+00  0.51100000000E-03 0. -1.
    9000002    1    1    2    0    0 -0.68761723191E+00  0.42556052558E-02  0.35112657374E+00  0.12148948261E+01  0.93800000000E+00 0. -1.
         22    1    1    2    0    0  0.66924341959E+00  0.20000242961E-01  0.30126385679E+01  0.30861428848E+01  0.00000000000E+00 0. -1.
</event>
<event>
 5    1  0.5849602E+001  0.1599676E+01  0.7818608E-02  0.3353715E+00
         11   -1    0    0    0    0  0.00000000000E+00  0.00000000000E+00  0.39999999674E+01  0.40000000000E+01  0.51100000000E-03 0. -1.
    9000002   -1    0    0    0    0 -0.00000000000E+00 -0.00000000000E+00  0.00000000000E+00  0.93800000000E+00  0.93800000000E+00 0.  1.
         11    1    1    2    0    0  0.55103186876E-01 -0.82807291163E-01  0.67319487990E+00  0.68050350191E+00  0.51100000000E-03 0. -1.
    9000002    1    1    2    0    0 -0.30481805088E+00  0.46842049106E+00  0.21609649330E+00  0.11130469420E+01  0.93800000000E+00 0.  1.
         22    1    1    2    0    0  0.24971486400E+00 -0.38561319990E+00  0.31107085942E+01  0.31444495561E+01  0.00000000000E+00 0. -1.
</event>
<event>
 5    1  0.5849602E+001  0.1572296E+01  0.7818608E-02  0.3383993E+00
         11   -1    0    0    0    0  0.00000000000E+00  0.00000000000E+00  0.39999999674E+01  0.40000000000E+01  0.51100000000E-03 0. -1.
    9000002   -1    0    0    0    0 -0.00000000000E+00 -0.00000000000E+00  0.00000000000E+00  0.93800000000E+00  0.93800000000E+00 0.  1.
         11    1    1    2    0    0  0.85046413317E-01  0.75991356957E-01  0.11576457527E+01  0.11632504153E+01  0.51100000000E-03 0. -1.
    9000002    1    1    2    0    0  0.25628678263E+00  0.29908379061E-01  0.65556705362E-01  0.97504825917E+00  0.93800000000E+00 0.  1.
         22    1    1    2    0    0 -0.34133319594E+00 -0.10589973602E+00  0.27767975093E+01  0.27997013255E+01  0.00000000000E+00 0.  1.
</event>
<event>
 5    1  0.5849602E+001  0.1578568E+01  0.7818608E-02  0.3376959E+00
         11   -1    0    0    0    0  0.00000000000E+00  0.00000000000E+00  0.39999999674E+01  0.40000000000E+01  0.51100000000E-03 0. -1.
    9000002   -1    0    0    0    0 -0.00000000000E+00 -0.00000000000E+00  0.00000000000E+00  0.93800000000E+00  0.93800000000E+00 0. -1.
         11    1    1    2    0    0  0.55050574427E-01 -0.90716640396E-01  0.13940333446E+01  0.13980662722E+01  0.51100000000E-03 0. -1.
    9000002    1    1    2    0    0  0.25572343887E+00  0.23535186791E-01  0.60190722086E-01  0.97437944623E+00  0.93800000000E+00 0. -1.
         22    1    1    2    0    0 -0.31077401330E+00  0.67181453605E-01  0.25457759007E+01  0.25655542815E+01  0.00000000000E+00 0. -1.
</event>
<event>
 5    1  0.5849602E+001  0.1599652E+01  0.7818608E-02  0.3353741E+00
         11   -1    0    0    0    0  0.00000000000E+00  0.00000000000E+00  0.39999999674E+01  0.40000000000E+01  0.51100000000E-03 0. -1.
    9000002   -1    0    0    0    0 -0.00000000000E+00 -0.00000000000E+00  0.00000000000E+00  0.93800000000E+00  0.93800000000E+00 0.  1.
         11    1    1    2    0    0 -0.12444990648E+00  0.19821841290E-01  0.11807038771E+01  0.11874100349E+01  0.51100000000E-03 0. -1.
    9000002    1    1    2    0    0  0.39226873125E+00 -0.63906519065E-01  0.10653192154E+00  0.10242811387E+01  0.93800000000E+00 0.  1.
         22    1    1    2    0    0 -0.26781882477E+00  0.44084677775E-01  0.27127641688E+01  0.27263088264E+01  0.00000000000E+00 0. -1.
</event>
<event>
 5    1  0.5849602E+001  0.1599675E+01  0.7818608E-02  0.3353717E+00
         11   -1    0    0    0    0  0.00000000000E+00  0.00000000000E+00  0.39999999674E+01  0.40000000000E+01  0.51100000000E-03 0. -1.
    9000002   -1    0    0    0    0 -0.00000000000E+00 -0.00000000000E+00  0.00000000000E+00  0.93800000000E+00  0.93800000000E+00 0.  1.
         11    1    1    2    0    0  0.18163922895E+00  0.14610439560E+00  0.94021169649E+00  0.96867827437E+00  0.51100000000E-03 0. -1.
    9000002    1    1    2    0    0 -0.67106595686E+00 -0.53221523068E+00  0.55156947207E+00  0.13847943720E+01  0.93800000000E+00 0.  1.
         22    1    1    2    0    0  0.48942672791E+00  0.38611083508E+00  0.25082187988E+01  0.25845273536E+01  0.00000000000E+00 0. -1.
</event>
<event>
 5    1  0.5849602E+001  0.1590031E+01  0.7818608E-02  0.3364255E+00
         11   -1    0    0    0    0  0.00000000000E+00  0.00000000000E+00  0.39999999674E+01  0.40000000000E+01  0.51100000000E-03 0. -1.
    9000002   -1    0    0    0    0 -0.00000000000E+00 -0.00000000000E+00  0.00000000000E+00  0.93800000000E+00  0.93800000000E+00 0.  1.
         11    1    1    2    0    0 -0.57173986724E-02  0.18539999489E-01  0.93607917427E-01  0.95598763353E-01  0.51100000000E-03 0. -1.
    9000002    1    1    2    0    0 -0.52345128651E+00  0.52773411203E+00  0.41129020855E+00  0.12655070833E+01  0.93800000000E+00 0.  1.
         22    1    1    2    0    0  0.52916868519E+00 -0.54627411152E+00  0.34951018414E+01  0.35768941533E+01  0.00000000000E+00 0. -1.
</event>
<event>
 5    1  0.5849602E+001  0.1599674E+01  0.7818608E-02  0.3353717E+00
         11   -1    0    0    0    0  0.00000000000E+00  0.00000000000E+00  0.39999999674E+01  0.40000000000E+01  0.51100000000E-03 0.  1.
    9000002   -1    0    0    0    0 -0.00000000000E+00 -0.00000000000E+00  0.00000000000E+00  0.93800000000E+00  0.93800000000E+00 0. -1.
         11    1    1    2    0    0 -0.60170410733E-01  0.73182114290E-01  0.10387015609E+01  0.10430135637E+01  0.51100000000E-03 0.  1.
    9000002    1    1    2    0    0  0.23184515319E+00 -0.27189715437E+00  0.85683020494E-01  0.10074054882E+01  0.93800000000E+00 0. -1.
         22    1    1    2    0    0 -0.17167474246E+00  0.19871504008E+00  0.28756153859E+01  0.28875809482E+01  0.00000000000E+00 0.  1.
</event>
<event>
 5    1  0.5849602E+001  0.1599643E+01  0.7818608E-02  0.3353751E+00
         11   -1    0    0    0    0  0.00000000000E+00  0.00000000000E+00  0.39999999674E+01  0.40000000000E+01  0.51100000000E-03 0. -1.
    9000002   -1    0    0    0    0 -0.00000000000E+00 -0.00000000000E+00  0.00000000000E+00  0.93800000000E+00  0.93800000000E+00 0. -1.
         11    1    1    2    0    0  0.44415441903E-02 -0.62751672047E-01  0.54628600727E+00  0.54989650164E+00  0.51100000000E-03 0. -1.
    9000002    1    1    2    0    0 -0.21845758183E-02  0.46091148008E+00  0.14455389900E+00  0.10550753502E+01  0.93800000000E+00 0. -1.
         22    1    1    2    0    0 -0.22569683721E-02 -0.39815980803E+00  0.33091600611E+01  0.33330281482E+01  0.00000000000E+00 0. -1.
</event>
<event>
 5    1  0.5849602E+001  0.1572430E+01  0.7818608E-02  0.3383842E+00
         11   -1    0    0    0    0  0.00000000000E+00  0.00000000000E+00  0.39999999674E+01  0.40000000000E+01  0.51100000000E-03 0. -1.
    9000002   -1    0    0    0    0 -0.00000000000E+00 -0.00000000000E+00  0.00000000000E+00  0.93800000000E+00  0.93800000000E+00 0. -1.
         11    1    1    2    0    0 -0.70413311629E-01 -0.23633477671E+00  0.12630293357E+01  0.12868782091E+01  0.51100000000E-03 0. -1.
    9000002    1    1    2    0    0 -0.22703988135E+00  0.36156895898E+00  0.14688803886E+00  0.10410087972E+01  0.93800000000E+00 0. -1.
         22    1    1    2    0    0  0.29745319298E+00 -0.12523418227E+00  0.25900825928E+01  0.26101129937E+01  0.00000000000E+00 0.  1.
</event>
<event>
 5    1  0.5849602E+001  0.1599502E+01  0.7818608E-02  0.3353904E+00
         11   -1    0    0    0    0  0.00000000000E+00  0.00000000000E+00  0.39999999674E+01  0.40000000000E+01  0.51100000000E-03 0. -1.
    9000002   -1    0    0    0    0 -0.00000000000E+00 -0.00000000000E+00  0.00000000000E+00  0.93800000000E+00  0.93800000000E+00 0.  1.
         11    1    1    2    0    0  0.39207612591E-01  0.24040245402E-01  0.61444156707E+00  0.61616058844E+00  0.51100000000E-03 0. -1.
    9000002    1    1    2    0    0 -0.28298171233E+00 -0.21919906890E+00  0.86128372215E-01  0.10076651119E+01  0.93800000000E+00 0.  1.
         22    1    1    2    0    0  0.24377409974E+00  0.19515882350E+00  0.32994300281E+01  0.33141742996E+01  0.00000000000E+00 0. -1.
</event>
<event>
 5    1  0.5849602E+001  0.1599677E+01  0.7818608E-02  0.3353714E+00
         11   -1    0    0    0    0  0.00000000000E+00  0.00000000000E+00  0.39999999674E+01  0.40000000000E+01  0.51100000000E-03 0.  1.
    9000002   -1    0    0    0    0 -0.00000000000E+00 -0.00000000000E+00  0.00000000000E+00  0.93800000000E+00  0.93800000000E+00 0. -1.
         11    1    1    2    0    0 -0.14903461116E+00  0.47290739570E-01  0.14533314306E+01  0.14617182483E+01  0.51100000000E-03 0.  1.
    9000002    1    1    2    0    0  0.39757992345E+00 -0.12523361399E+00  0.11745996086E+00  0.10331476642E+01  0.93800000000E+00 0. -1.
         22    1    1    2    0    0 -0.24854531229E+00  0.77942874420E-01  0.24292085759E+01  0.24431340875E+01  0.00000000000E+00 0.  1.
</event>
<event>
 5    1  0.5849602E+001  0.1597894E+01  0.7818608E-02  0.3355652E+00
         11   -1    0    0    0    0  0.00000000000E+00  0.00000000000E+00  0.39999999674E+01  0.40000000000E+01  0.51100000000E-03 0. -1.
    9000002   -1    0    0    0    0 -0.00000000000E+00 -0.00000000000E+00  0.00000000000E+00  0.93800000000E+00  0.93800000000E+00 0. -1.
         11    1    1    2    0    0 -0.10654655372E-01  0.11889378490E-01  0.36762900596E+00  0.36797584995E+00  0.51100000000E-03 0. -1.
    9000002    1    1    2    0    0  0.35122835366E+00 -0.32608800754E+00  0.15828513896E+00  0.10651727232E+01  0.93800000000E+00 0. -1.
         22    1    1    2    0    0 -0.34057369829E+00  0.31419862905E+00  0.34740858224E+01  0.35048514268E+01  0.00000000000E+00 0. -1.
</event>
<event>
 5    1  0.5849602E+001  0.1594170E+01  0.7818608E-02  0.3359716E+00
         11   -1    0    0    0    0  0.00000000000E+00  0.00000000000E+00  0.39999999674E+01  0.40000000000E+01  0.51100000000E-03 0. -1.
    9000002   -1    0    0    0    0 -0.00000000000E+00 -0.00000000000E+00  0.00000000000E+00  0.93800000000E+00  0.93800000000E+00 0.  1.
         11    1    1    2    0    0  0.28381462867E+00 -0.12450119967E+00  0.14212813778E+01  0.14546794520E+01  0.51100000000E-03 0. -1.
    9000002    1    1    2    0    0 -0.55382428722E+00  0.46149844520E+00  0.37993768703E+00  0.12425372437E+01  0.93800000000E+00 0.  1.
         22    1    1    2    0    0  0.27000965855E+00 -0.33699724553E+00  0.21987809025E+01  0.22407833042E+01  0.00000000000E+00 0. -1.
</event>
<event>
 5    1  0.5849602E+001  0.1599673E+01  0.7818608E-02  0.3353718E+00
         11   -1    0    0    0    0  0.00000000000E+00  0.00000000000E+00  0.39999999674E+01  0.40000000000E+01  0.51100000000E-03 0.  1.
    9000002   -1    0    0    0    0 -0.00000000000E+00 -0.00000000000E+00  0.00000000000E+00  0.93800000000E+00  0.93800000000E+00 0. -1.
         11    1    1    2    0    0 -0.52743387033E-01  0.98066044261E-01  0.11702466891E+01  0.11755323851E+01  0.51100000000E-03 0.  1.
    9000002    1    1    2    0    0  0.17779763891E+00 -0.32056119510E+00  0.90269789249E-01  0.10111202278E+01  0.93800000000E+00 0. -1.
         22    1    1    2    0    0 -0.12505425187E+00  0.22249515084E+00  0.27394834890E+01  0.27513473871E+01  0.00000000000E+00 0.  1.
</event>
<event>
 5    1  0.5849602E+001  0.1599646E+01  0.7818608E-02  0.3353747E+00
         11   -1    0    0    0    0  0.00000000000E+00  0.00000000000E+00  0.39999999674E+01  0.40000000000E+01  0.51100000000E-03 0.  1.
    9000002   -1    0    0    0    0 -0.00000000000E+00 -0.00000000000E+00  0.00000000000E+00  0.93800000000E+00  0.93800000000E+00 0.  1.
         11    1    1    2    0    0  0.26206480587E-01  0.80230237006E-01  0.62205574487E+00  0.62775574980E+00  0.51100000000E-03 0.  1.
    9000002    1    1    2    0    0 -0.14717618802E+00 -0.46782612473E+00  0.16441718237E+00  0.10711671780E+01  0.93800000000E+00 0.  1.
         22    1    1    2    0    0  0.12096970743E+00  0.38759588773E+00  0.32135270401E+01  0.32390770722E+01  0.00000000000E+00 0.  1.
</event>
<event>
 5    1  0.5849602E+001  0.1561898E+01  0.7818608E-02  0.3395786E+00
         11   -1    0    0    0    0  0.00000000000E+00  0.00000000000E+00  0.39999999674E+01  0.40000000000E+01  0.51100000000E-03 0. -1.
    9000002   -1    0    0    0    0 -0.00000000000E+00 -0.00000000000E+00  0.00000000000E+00  0.93800000000E+00  0.93800000000E+00 0.  1.
         11    1    1    2    0    0 -0.66534702908E-01  0.24037188357E-01  0.13237076681E+00  0.15008975362E+00  0.51100000000E-03 0. -1.
    9000002    1    1    2    0    0 -0.47743739374E+00  0.56237075896E-01  0.19197850567E+00  0.10713583995E+01  0.93800000000E+00 0.  1.
         22    1    1    2    0    0  0.54397209664E+00 -0.80274264254E-01  0.36756506949E+01  0.37165518468E+01  0.00000000000E+00 0. -1.
</event>
<event>
 5    1  0.5849602E+001  0.1599674E+01  0.7818608E-02  0.3353717E+00
         11   -1    0    0    0    0  0.00000000000E+00  0.00000000000E+00  0.39999999674E+01  0.40000000000E+01  0.51100000000E-03 0. -1.
    9000002   -1    0    0    0    0 -0.00000000000E+00 -0.00000000000E+00  0.00000000000E+00  0.93800000000E+00  0.93800000000E+00 0. -1.
         11    1    1    2    0    0 -0.48628025599E+00 -0.93274107370E-01  0.11218466077E+01  0.12262579740E+01  0.51100000000E-03 0. -1.
    9000002    1    1    2    0    0  0.11638726191E+01  0.21882874322E+00  0.13129162658E+01  0.20015190764E+01  0.93800000000E+00 0. -1.
         22    1    1    2    0    0 -0.67759236313E+00 -0.12555463585E+00  0.15652370938E+01  0.17102229495E+01  0.00000000000E+00 0. -1.
</event>
<event>
 5    1  0.5849602E+001  0.1599662E+01  0.7818608E-02  0.3353730E+00
         11   -1    0    0    0    0  0.00000000000E+00  0.00000000000E+00  0.39999999674E+01  0.40000000000E+01  0.51100000000E-03 0. -1.
    9000002   -1    0    0    0    0 -0.00000000000E+00 -0.00000000000E+00  0.00000000000E+00  0.93800000000E+00  0.93800000000E+00 0. -1.
         11    1    1    2    0    0  0.96761743288E-03  0.16937733981E+00  0.13709357403E+01  0.13813597231E+01  0.51100000000E-03 0. -1.
    9000002    1    1    2    0    0  0.62421770305E-02 -0.46721798298E+00  0.14868693915E+00  0.10584344166E+01  0.93800000000E+00 0. -1.
         22    1    1    2    0    0 -0.72097944634E-02  0.29784064317E+00  0.24803772880E+01  0.24982058603E+01  0.00000000000E+00 0. -1.
</event>
<event>
 5    1  0.5849602E+001  0.1555485E+01  0.7818608E-02  0.3403142E+00
         11   -1    0    0    0    0  0.00000000000E+00  0.00000000000E+00  0.39999999674E+01  0.40000000000E+01  0.51100000000E-03 0.  1.
    9000002   -1    0    0    0    0 -0.00000000000E+00 -0.00000000000E+00  0.00000000000E+00  0.93800000000E+00  0.93800000000E+00 0.  1.
         11    1    1    2    0    0  0.15946292105E+00 -0.15452704409E+00  0.96546293576E+00  0.99066945647E+00  0.51100000000E-03 0.  1.
    9000002    1    1    2    0    0  0.16531831381E+00  0.26915040289E+00  0.10240405252E+00  0.99503903151E+00  0.93800000000E+00 0.  1.
         22    1    1    2    0    0 -0.32478123486E+00 -0.11462335880E+00  0.29321329791E+01  0.29522915120E+01  0.00000000000E+00 0.  1.
</event>
<event>
 5    1  0.5849602E+001  0.1572666E+01  0.7818608E-02  0.3383576E+00
         11   -1    0    0    0    0  0.00000000000E+00  0.00000000000E+00  0.39999999674E+01  0.40000000000E+01  0.51100000000E-03 0. -1.
    9000002   -1    0    0    0    0 -0.00000000000E+00 -0.00000000000E+00  0.00000000000E+00  0.93800000000E+00  0.93800000000E+00 0. -1.
         11    1    1    2    0    0  0.48822104655E-01  0.73410552357E-01  0.34580218686E+00  0.35686428886E+00  0.51100000000E-03 0. -1.
    9000002    1    1    2    0    0  0.30823871479E+00  0.10862762051E+00  0.93214599721E-01  0.99766929733E+00  0.93800000000E+00 0. -1.
         22    1    1    2    0    0 -0.35706081945E+00 -0.18203817287E+00  0.35609831808E+01  0.35834664138E+01  0.00000000000E+00 0. -1.
</event>
<event>
 5    1  0.5849602E+001  0.1599581E+01  0.7818608E-02  0.3353818E+00
         11   -1    0    0    0    0  0.00000000000E+00  0.00000000000E+00  0.39999999674E+01  0.40000000000E+01  0.51100000000E-03 0.  1.
    9000002   -1    0    0    0    0 -0.00000000000E+00 -0.00000000000E+00  0.00000000000E+00  0.93800000000E+00  0.93800000000E+00 0. -1.
         11    1    1    2    0    0  0.24435322303E-02  0.19039086368E+00  0.12607641922E+01  0.12750612774E+01  0.51100000000E-03 0.  1.
    9000002    1    1    2    0    0 -0.29378305288E-01 -0.54740067462E+00  0.20758188951E+00  0.11060944011E+01  0.93800000000E+00 0. -1.
         22    1    1    2    0    0  0.26934773057E-01  0.35700981093E+00  0.25316538857E+01  0.25568443214E+01  0.00000000000E+00 0.  1.
</event>
<event>
 5    1  0.5849602E+001  0.1534957E+01  0.7818608E-02  0.3427132E+00
         11   -1    0    0    0    0  0.00000000000E+00  0.00000000000E+00  0.39999999674E+01  0.40000000000E+01  0.51100000000E-03 0.  1.
    9000002   -1    0    0    0    0 -0.00000000000E+00 -0.00000000000E+00  0.00000000000E+00  0.93800000000E+00  0.93800000000E+00 0.  1.
         11    1    1    2    0    0  0.12192236915E-01  0.71671612646E+00  0.11208427706E+01  0.13304583549E+01  0.51100000000E-03 0.  1.
    9000002    1    1    2    0    0 -0.64008722554E-02 -0.10422317865E+01  0.10555047441E+01  0.17550562193E+01  0.93800000000E+00 0.  1.
         22    1    1    2    0    0 -0.57913646600E-02  0.32551566008E+00  0.18236524526E+01  0.18524854258E+01  0.00000000000E+00 0.  1.
</event>
<event>
 5    1  0.5849602E+001  0.1599546E+01  0.7818608E-02  0.3353856E+00
         11   -1    0    0    0    0  0.00000000000E+00  0.00000000000E+00  0.39999999674E+01  0.40000000000E+01  0.51100000000E-03 0. -1.
    9000002   -1    0    0    0    0 -0.00000000000E+00 -0.00000000000E+00  0.00000000000E+00  0.93800000000E+00  0.93800000000E+00 0. -1.
         11    1    1    2    0    0  0.13644083399E-01 -0.14639868232E-01  0.17635573851E+00  0.17748829364E+00  0.51100000000E-03 0. -1.
    9000002    1    1    2    0    0 -0.40177891201E+00  0.24976377550E+00  0.15265673703E+00  0.10615819879E+01  0.93800000000E+00 0. -1.
         22    1    1    2    0    0  0.38813482861E+00 -0.23512390727E+00  0.36709874918E+01  0.36989297184E+01  0.00000000000E+00 0. -1.
</event>
<event>
 5    1  0.5849602E+001  0.1599648E+01  0.7818608E-02  0.3353745E+00
         11   -1    0    0    0    0  0.00000000000E+00  0.00000000000E+00  0.39999999674E+01  0.40000000000E+01  0.51100000000E-03 0.  1.
    9000002   -1    0    0    0    0 -0.00000000000E+00 -0.00000000000E+00  0.00000000000E+00  0.93800000000E+00  0.93800000000E+00 0.  1.
         11    1    1    2    0    0  0.84490016318E-02 -0.26096884715E+00  0.85835486880E+00  0.89718976071E+00  0.51100000000E-03 0.  1.
    9000002    1    1    2    0    0 -0.36556809377E-01  0.96838251031E+00  0.74286851565E+00  0.15397398216E+01  0.93800000000E+00 0.  1.
         22    1    1    2    0    0  0.28107807745E-01 -0.70741366316E+00  0.23987765829E+01  0.25010704177E+01  0.00000000000E+00 0.  1.
</event>
<event>
 5    1  0.5849602E+001  0.1489159E+01  0.7818608E-02  0.3483213E+00
         11   -1    0    0    0    0  0.00000000000E+00  0.00000000000E+00  0.39999999674E+01  0.40000000000E+01  0.51100000000E-03 0. -1.
    9000002   -1    0    0    0    0 -0.00000000000E+00 -0.00000000000E+00  0.00000000000E+00  0.93800000000E+00  0.93800000000E+00 0. -1.
         11    1    1    2    0    0 -0.30989886417E+00  0.11345824851E+00  0.10250173368E+01  0.10768337300E+01  0.51100000000E-03 0. -1.
    9000002    1    1    2    0    0 -0.36519420752E-01  0.14307732771E+00  0.10085521027E+00  0.95489295905E+00  0.93800000000E+00 0. -1.
         22    1    1    2    0    0  0.34641828492E+00 -0.25653557622E+00  0.28741274203E+01  0.29062733110E+01  0.00000000000E+00 0. -1.
</event>
<event>
 5    1  0.5849602E+001  0.1599676E+01  0.7818608E-02  0.3353715E+00
         11   -1    0    0    0    0  0.00000000000E+00  0.00000000000E+00  0.39999999674E+01  0.40000000000E+01  0.51100000000E-03 0.  1.
    9000002   -1    0    0    0    0 -0.00000000000E+00 -0.00000000000E+00  0.00000000000E+00  0.93800000000E+00  0.93800000000E+00 0.  1.
         11    1    1    2    0    0  0.22500010943E-01 -0.32319622918E-01  0.27001659641E+00  0.27287365570E+00  0.51100000000E-03 0. -1.
    9000002    1    1    2    0    0 -0.31985205465E+00  0.44869064161E+00  0.20975842298E+00  0.11079130041E+01  0.93800000000E+00 0.  1.
         22    1    1    2    0    0  0.29735204370E+00 -0.41637101869E+00  0.35202249480E+01  0.35572133402E+01  0.00000000000E+00 0.  1.
</event>
<event>
 5    1  0.5849602E+001  0.1567700E+01  0.7818608E-02  0.3389185E+00
         11   -1    0    0    0    0  0.00000000000E+00  0.00000000000E+00  0.39999999674E+01  0.40000000000E+01  0.51100000000E-03 0. -1.
    9000002   -1    0    0    0    0 -0.00000000000E+00 -0.00000000000E+00  0.00000000000E+00  0.93800000000E+00  0.93800000000E+00 0. -1.
         11    1    1    2    0    0  0.13077949309E+00 -0.11265558612E+00  0.12313209044E+01  0.12433607632E+01  0.51100000000E-03 0. -1.
    9000002    1    1    2    0    0  0.17785910062E+00  0.55881546731E+00  0.27130154801E+00  0.11390158542E+01  0.93800000000E+00 0. -1.
         22    1    1    2    0    0 -0.30863859372E+00 -0.44615988120E+00  0.24973775150E+01  0.25556233825E+01  0.00000000000E+00 0.  1.
</event>
<event>
 5    1  0.5849602E+001  0.1598458E+01  0.7818608E-02  0.3355039E+00
         11   -1    0    0    0    0  0.00000000000E+00  0.00000000000E+00  0.39999999674E+01  0.40000000000E+01  0.51100000000E-03 0. -1.
    9000002   -1    0    0    0    0 -0.00000000000E+00 -0.00000000000E+00  0.00000000000E+00  0.93800000000E+00  0.93800000000E+00 0. -1.
         11    1    1    2    0    0 -0.62073696877E-01 -0.31594170376E-01  0.11680990553E+01  0.11701739186E+01  0.51100000000E-03 0. -1.
    9000002    1    1    2    0    0  0.26301939248E+00  0.22312882797E+00  0.80702798831E-01  0.10026577763E+01  0.93800000000E+00 0. -1.
         22    1    1    2    0    0 -0.20094569561E+00 -0.19153465759E+00  0.27511981132E+01  0.27651683051E+01  0.00000000000E+00 0. -1.
</event>
<event>
 5    1  0.5849602E+001  0.1599677E+01  0.7818608E-02  0.3353714E+00
         11   -1    0    0    0    0  0.00000000000E+00  0.00000000000E+00  0.39999999674E+01  0.40000000000E+01  0.51100000000E-03 0.  1.
    9000002   -1    0    0    0    0 -0.00000000000E+00 -0.00000000000E+00  0.00000000000E+00  0.93800000000E+00  0.93800000000E+00 0. -1.
         11    1    1    2    0    0  0.15582575409E-01  0.99817382957E-01  0.11183272321E+01  0.11228812875E+01  0.51100000000E-03 0.  1.
    9000002    1    1    2    0    0 -0.55559662148E-01 -0.35099669832E+00  0.84726553893E-01  0.10066320814E+01  0.93800000000E+00 0. -1.
         22    1    1    2    0    0  0.39977086739E-01  0.25117931536E+00  0.27969461814E+01  0.28084866312E+01  0.00000000000E+00 0. -1.
</event>
<event>
 5    1  0.5849602E+001  0.1599563E+01  0.7818608E-02  0.3353838E+00
         11   -1    0    0    0    0  0.00000000000E+00  0.00000000000E+00  0.39999999674E+01  0.40000000000E+01  0.51100000000E-03 0. -1.
    9000002   -1    0    0    0    0 -0.00000000000E+00 -0.00000000000E+00  0.00000000000E+00  0.93800000000E+00  0.93800000000E+00 0.  1.
         11    1    1    2    0    0 -0.63691339227E-01  0.97385318633E-01  0.12792331940E+01  0.12845148161E+01  0.51100000000E-03 0. -1.
    9000002    1    1    2    0    0  0.23058396223E+00 -0.28987459825E+00  0.92298301456E-01  0.10126989794E+01  0.93800000000E+00 0.  1.
         22    1    1    2    0    0 -0.16689262301E+00  0.19248927962E+00  0.26284684719E+01  0.26407862046E+01  0.00000000000E+00 0. -1.
</event>
<event>
 5    1  0.5849602E+001  0.1597027E+01  0.7818608E-02  0.3356597E+00
         11   -1    0    0    0    0  0.00000000000E+00  0.00000000000E+00  0.39999999674E+01  0.40000000000E+01  0.51100000000E-03 0. -1.
    9000002   -1    0    0    0    0 -0.00000000000E+00 -0.00000000000E+00  0.00000000000E+00  0.93800000000E+00  0.93800000000E+00 0.  1.
         11    1    1    2    0    0  0.38912949571E-01  0.55708112852E-01  0.47677042025E+00  0.48158893907E+00  0.51100000000E-03 0. -1.
    9000002    1    1    2    0    0 -0.61202498650E+00 -0.43382836172E+00  0.41119062644E+00  0.12695287956E+01  0.93800000000E+00 0.  1.
         22    1    1    2    0    0  0.57311203693E+00  0.37812024887E+00  0.31120389207E+01  0.31868822654E+01  0.00000000000E+00 0. -1.
</event>
<event>
 5    1  0.5849602E+001  0.1599672E+01  0.7818608E-02  0.3353720E+00
         11   -1    0    0    0    0  0.00000000000E+00  0.00000000000E+00  0.39999999674E+01  0.40000000000E+01  0.51100000000E-03 0.  1.
    9000002   -1    0    0    0    0 -0.00000000000E+00 -0.00000000000E+00  0.00000000000E+00  0.93800000000E+00  0.93800000000E+00 0. -1.
         11    1    1    2    0    0 -0.11680735230E+00  0.21654771068E-01  0.81832072286E+00  0.82689899822E+00  0.51100000000E-03 0.  1.
    9000002    1    1    2    0    0  0.54160231838E+00 -0.90042683619E-01  0.20817218404E+00  0.11066256885E+01  0.93800000000E+00 0. -1.
         22    1    1    2    0    0 -0.42479496608E+00  0.68387912551E-01  0.29735070605E+01  0.30044753133E+01  0.00000000000E+00 0.  1.
</event>
<event>
 5    1  0.5849602E+001  0.1581806E+01  0.7818608E-02  0.3373350E+00
         11   -1    0    0    0    0  0.00000000000E+00  0.00000000000E+00  0.39999999674E+01  0.40000000000E+01  0.51100000000E-03 0.  1.
    9000002   -1    0    0    0    0 -0.00000000000E+00 -0.00000000000E+00  0.00000000000E+00  0.93800000000E+00  0.93800000000E+00 0.  1.
         11    1    1    2    0    0  0.13539390192E+00 -0.21463873381E-02  0.96651809646E+00  0.97595778984E+00  0.51100000000E-03 0.  1.
    9000002    1    1    2    0    0 -0.71124064633E-01  0.30520247430E+00  0.79822630885E-01  0.99218084808E+00  0.93800000000E+00 0.  1.
         22    1    1    2    0    0 -0.64269837286E-01 -0.30305608696E+00  0.29536592400E+01  0.29698613621E+01  0.00000000000E+00 0.  1.
</event>
<event>
 5    1  0.5849602E+001  0.1599675E+01  0.7818608E-02  0.3353716E+00
         11   -1    0    0    0    0  0.00000000000E+00  0.00000000000E+00  0.39999999674E+01  0.40000000000E+01  0.51100000000E-03 0. -1.
    9000002   -1    0    0    0    0 -0.00000000000E+00 -0.00000000000E+00  0.00000000000E+00  0.93800000000E+00  0.93800000000E+00 0. -1.
         11    1    1    2    0    0 -0.73923515506E-01  0.38134901805E-01  0.79965207712E+00  0.80396682919E+00  0.51100000000E-03 0.  1.
    9000002    1    1    2    0    0  0.35903866358E+00 -0.19127533254E+00  0.11172965667E+00  0.10285049980E+01  0.93800000000E+00 0. -1.
         22    1    1    2    0    0 -0.28511514808E+00  0.15314043073E+00  0.30886182336E+01  0.31055281728E+01  0.00000000000E+00 0. -1.
</event>
<event>
 5    1  0.5849602E+001  0.1599655E+01  0.7818608E-02  0.3353738E+00
         11   -1    0    0    0    0  0.00000000000E+00  0.00000000000E+00  0.39999999674E+01  0.40000000000E+01  0.51100000000E-03 0. -1.
    9000002   -1    0    0    0    0 -0.00000000000E+00 -0.00000000000E+00  0.00000000000E+00  0.93800000000E+00  0.93800000000E+00 0.  1.
         11    1    1    2    0    0 -0.20590057914E-02 -0.31867651756E-01  0.29902566120E+00  0.30072644365E+00  0.51100000000E-03 0. -1.
    9000002    1    1    2    0    0 -0.12136058189E-01  0.41560036519E+00  0.11686547343E+00  0.10326531297E+01  0.93800000000E+00 0.  1.
         22    1    1    2    0    0  0.14195063980E-01 -0.38373271343E+00  0.35841088327E+01  0.36046204266E+01  0.00000000000E+00 0. -1.
</event>
<event>
 5    1  0.5849602E+001  0.1591850E+01  0.7818608E-02  0.3362257E+00
         11   -1    0    0    0    0  0.00000000000E+00  0.00000000000E+00  0.39999999674E+01  0.40000000000E+01  0.51100000000E-03 0.  1.
    9000002   -1    0    0    0    0 -0.00000000000E+00 -0.00000000000E+00  0.00000000000E+00  0.93800000000E+00  0.93800000000E+00 0.  1.
         11    1    1    2    0    0  0.11267458907E-01 -0.96754149132E-02  0.12008479951E-01  0.19105862862E-01  0.51100000000E-03 0.  1.
    9000002    1    1    2    0    0 -0.29122101230E+00  0.22668860670E+00  0.97925158155E-01  0.10127342885E+01  0.93800000000E+00 0.  1.
         22    1    1    2    0    0  0.27995355339E+00 -0.21701319179E+00  0.38900663293E+01  0.39061598487E+01  0.00000000000E+00 0.  1.
</event>
<event>
 5    1  0.5849602E+001  0.1486818E+01  0.7818608E-02  0.3486180E+00
         11   -1    0    0    0    0  0.00000000000E+00  0.00000000000E+00  0.39999999674E+01  0.40000000000E+01  0.51100000000E-03 0.  1.
    9000002   -1    0    0    0    0 -0.00000000000E+00 -0.00000000000E+00  0.00000000000E+00  0.93800000000E+00  0.93800000000E+00 0.  1.
         11    1    1    2    0    0  0.71883782274E-01  0.35065151579E+00  0.13391504060E+01  0.13861629899E+01  0.51100000000E-03 0.  1.
    9000002    1    1    2    0    0 -0.34710364899E+00  0.91511941651E-01  0.18429346831E+00  0.10211089369E+01  0.93800000000E+00 0.  1.
         22    1    1    2    0    0  0.27521986671E+00 -0.44216345744E+00  0.24765560931E+01  0.25307280731E+01  0.00000000000E+00 0.  1.
</event>
<event>
 5    1  0.5849602E+001  0.1595175E+01  0.7818608E-02  0.3358616E+00
         11   -1    0    0    0    0  0.00000000000E+00  0.00000000000E+00  0.39999999674E+01  0.40000000000E+01  0.51100000000E-03 0.  1.
    9000002   -1    0    0    0    0 -0.00000000000E+00 -0.00000000000E+00  0.00000000000E+00  0.93800000000E+00  0.93800000000E+00 0.  1.
         11    1    1    2    0    0  0.14033246862E-01 -0.64348415349E-01  0.11708345272E+01  0.11726855511E+01  0.51100000000E-03 0.  1.
    9000002    1    1    2    0    0 -0.16661972993E+00  0.42587341364E+00  0.14611351754E+00  0.10537188709E+01  0.93800000000E+00 0.  1.
         22    1    1    2    0    0  0.15258648307E+00 -0.36152499829E+00  0.26830519226E+01  0.27115955780E+01  0.00000000000E+00 0.  1.
</event>
<event>
 5    1  0.5849602E+001  0.1599674E+01  0.7818608E-02  0.3353717E+00
         11   -1    0    0    0    0  0.00000000000E+00  0.00000000000E+00  0.39999999674E+01  0.40000000000E+01  0.51100000000E-03 0. -1.
    9000002   -1    0    0    0    0 -0.00000000000E+00 -0.00000000000E+00  0.00000000000E+00  0.93800000000E+00  0.93800000000E+00 0. -1.
         11    1    1    2    0    0  0.22533508127E-01 -0.12026834993E+00  0.77290038275E+00  0.78252635595E+00  0.51100000000E-03 0. -1.
    9000002    1    1    2    0    0 -0.10137858090E+00  0.58539601593E+00  0.24595934143E+00  0.11372361715E+01  0.93800000000E+00 0. -1.
         22    1    1    2    0    0  0.78845072776E-01 -0.46512766600E+00  0.29811402432E+01  0.30182374725E+01  0.00000000000E+00 0. -1.
</event>
<event>
 5    1  0.6242415E+001  0.1597203E+01  0.7818608E-02  0.3356405E+00
         11   -1    0    0    0    0  0.00000000000E+00  0.00000000000E+00  0.39999999674E+01  0.40000000000E+01  0.51100000000E-03 0.  1.
    9000002   -1    0    0    0    0 -0.00000000000E+00 -0.00000000000E+00  0.00000000000E+00  0.93800000000E+00  0.93800000000E+00 0. -1.
         11    1    1    2    0    0 -0.21055647855E-01 -0.58994456545E-01  0.11294778827E+01  0.11312136115E+01  0.51100000000E-03 0.  1.
    9000002    1    1    2    0    0 -0.94675441958E-01  0.29165438382E+00  0.64710685782E-01  0.98896774051E+00  0.93800000000E+00 0. -1.
         22    1    1    2    0    0  0.11573108981E+00 -0.23265992728E+00  0.28058113989E+01  0.28178186480E+01  0.00000000000E+00 0.  1.
</event>
<event>
 5    1  0.5849602E+001  0.1599676E+01  0.7818608E-02  0.3353715E+00
         11   -1    0    0    0    0  0.00000000000E+00  0.00000000000E+00  0.39999999674E+01  0.40000000000E+01  0.51100000000E-03 0.  1.
    9000002   -1    0    0    0    0 -0.00000000000E+00 -0.00000000000E+00  0.00000000000E+00  0.93800000000E+00  0.93800000000E+00 0. -1.
         11    1    1    2    0    0  0.13907646796E+00 -0.17645630422E-01  0.10489341197E+01  0.10582611591E+01  0.51100000000E-03 0.  1.
    9000002    1    1    2    0    0 -0.50538584157E+00  0.67901290842E-01  0.17830354777E+00  0.10824331801E+01  0.93800000000E+00 0. -1.
         22    1    1    2    0    0  0.36630937361E+00 -0.50255660420E-01  0.27727622999E+01  0.27973056609E+01  0.00000000000E+00 0.  1.
</event>
<event>
 5    1  0.5849602E+001  0.1588709E+01  0.7818608E-02  0.3365710E+00
         11   -1    0    0    0    0  0.00000000000E+00  0.00000000000E+00  0.39999999674E+01  0.40000000000E+01  0.51100000000E-03 0.  1.
    9000002   -1    0    0    0    0 -0.00000000000E+00 -0.00000000000E+00  0.00000000000E+00  0.93800000000E+00  0.93800000000E+00 0.  1.
         11    1    1    2    0    0 -0.18095939866E-01  0.17838014242E-01  0.62359050703E+00  0.62410819524E+00  0.51100000000E-03 0.  1.
    9000002    1    1    2    0    0  0.60554150457E+00  0.15889215506E+00  0.28633280127E+00  0.11635109384E+01  0.93800000000E+00 0.  1.
         22    1    1    2    0    0 -0.58744556470E+00 -0.17673016930E+00  0.30900766591E+01  0.31503808664E+01  0.00000000000E+00 0.  1.
</event>
<event>
 5    1  0.5849602E+001  0.1599675E+01  0.7818608E-02  0.3353716E+00
         11   -1    0    0    0    0  0.00000000000E+00  0.00000000000E+00  0.39999999674E+01  0.40000000000E+01  0.51100000000E-03 0.  1.
    9000002   -1    0    0    0    0 -0.00000000000E+00 -0.00000000000E+00  0.00000000000E+00  0.93800000000E+00  0.93800000000E+00 0.  1.
         11    1    1    2    0    0  0.36649905816E-01  0.22042816273E-01  0.43149922236E+00  0.43361381593E+00  0.51100000000E-03 0.  1.
    9000002    1    1    2    0    0 -0.33294782756E+00 -0.19001928768E+00  0.98923825695E-01  0.10181313809E+01  0.93800000000E+00 0.  1.
         22    1    1    2    0    0  0.29629792174E+00  0.16797647141E+00  0.34695769193E+01  0.34862548031E+01  0.00000000000E+00 0.  1.
</event>
<event>
 5    1  0.5849602E+001  0.1577883E+01  0.7818608E-02  0.3377724E+00
         11   -1    0    0    0    0  0.00000000000E+00  0.00000000000E+00  0.39999999674E+01  0.40000000000E+01  0.51100000000E-03 0.  1.
    9000002   -1    0    0    0    0 -0.00000000000E+00 -0.00000000000E+00  0.00000000000E+00  0.93800000000E+00  0.93800000000E+00 0.  1.
         11    1    1    2    0    0  0.38810745748E+00  0.73467494169E-01  0.14184889885E+01  0.14724592160E+01  0.51100000000E-03 0.  1.
    9000002    1    1    2    0    0 -0.56046747757E+00 -0.21516275096E+00  0.27349120557E+00  0.11467607607E+01  0.93800000000E+00 0.  1.
         22    1    1    2    0    0  0.17236002009E+00  0.14169525679E+00  0.23080197733E+01  0.23187800232E+01  0.00000000000E+00 0.  1.
</event>
<event>
 5    1  0.5849602E+001  0.1567842E+01  0.7818608E-02  0.3389024E+00
         11   -1    0    0    0    0  0.00000000000E+00  0.00000000000E+00  0.39999999674E+01  0.40000000000E+01  0.51100000000E-03 0.  1.
    9000002   -1    0    0    0    0 -0.00000000000E+00 -0.00000000000E+00  0.00000000000E+00  0.93800000000E+00  0.93800000000E+00 0. -1.
         11    1    1    2    0    0  0.13997180650E+00 -0.10026807829E+00  0.49021692267E+00  0.51957548685E+00  0.51100000000E-03 0.  1.
    9000002    1    1    2    0    0 -0.37856065197E+00 -0.90737924131E-01  0.12885820125E+00  0.10237138146E+01  0.93800000000E+00 0. -1.
         22    1    1    2    0    0  0.23858884547E+00  0.19100600242E+00  0.33809248434E+01  0.33947106986E+01  0.00000000000E+00 0.  1.
</event>
<event>
 5    1  0.5849602E+001  0.1554523E+01  0.7818608E-02  0.3404251E+00
         11   -1    0    0    0    0  0.00000000000E+00  0.00000000000E+00  0.39999999674E+01  0.40000000000E+01  0.51100000000E-03 0. -1.
    9000002   -1    0    0    0    0 -0.00000000000E+00 -0.00000000000E+00  0.00000000000E+00  0.93800000000E+00  0.93800000000E+00 0.  1.
         11    1    1    2    0    0  0.30929759591E-01  0.17914960713E+00  0.87030484632E+00  0.88909055693E+00  0.51100000000E-03 0. -1.
    9000002    1    1    2    0    0  0.59535128046E-01  0.12899977932E+00  0.47351004526E-01  0.94987972510E+00  0.93800000000E+00 0.  1.
         22    1    1    2    0    0 -0.90464887637E-01 -0.30814938645E+00  0.30823441165E+01  0.30990297180E+01  0.00000000000E+00 0. -1.
</event>
<event>
 5    1  0.5849602E+001  0.1594403E+01  0.7818608E-02  0.3359461E+00
         11   -1    0    0    0    0  0.00000000000E+00  0.00000000000E+00  0.39999999674E+01  0.40000000000E+01  0.51100000000E-03 0.  1.
    9000002   -1    0    0    0    0 -0.00000000000E+00 -0.00000000000E+00  0.00000000000E+00  0.93800000000E+00  0.93800000000E+00 0.  1.
         11    1    1    2    0    0 -0.52305357905E-01 -0.49699002128E-01  0.25772927676E+00  0.26763871636E+00  0.51100000000E-03 0.  1.
    9000002    1    1    2    0    0  0.15392772722E+00  0.50970419254E+00  0.20008047190E+00  0.10969814512E+01  0.93800000000E+00 0.  1.
         22    1    1    2    0    0 -0.10162236932E+00 -0.46000519042E+00  0.35421902187E+01  0.35733798324E+01  0.00000000000E+00 0.  1.
</event>
<event>
 5    1  0.5849602E+001  0.1552551E+01  0.7818608E-02  0.3406529E+00
         11   -1    0    0    0    0  0.00000000000E+00  0.00000000000E+00  0.39999999674E+01  0.40000000000E+01  0.51100000000E-03 0.  1.
    9000002   -1    0    0    0    0 -0.00000000000E+00 -0.00000000000E+00  0.00000000000E+00  0.93800000000E+00  0.93800000000E+00 0. -1.
         11    1    1    2    0    0  0.46229747818E+00  0.15223169844E+00  0.11038315529E+01  0.12063738254E+01  0.51100000000E-03 0.  1.
    9000002    1    1    2    0    0 -0.66076245669E+00 -0.46628751509E+00  0.54811664171E+00  0.13543658752E+01  0.93800000000E+00 0. -1.
         22    1    1    2    0    0  0.19846497851E+00  0.31405581666E+00  0.23480517728E+01  0.23772602994E+01  0.00000000000E+00 0.  1.
</event>
<event>
 5    1  0.5849602E+001  0.1599639E+01  0.7818608E-02  0.3353756E+00
         11   -1    0    0    0    0  0.00000000000E+00  0.00000000000E+00  0.39999999674E+01  0.40000000000E+01  0.51100000000E-03 0.  1.
    9000002   -1    0    0    0    0 -0.00000000000E+00 -0.00000000000E+00  0.00000000000E+00  0.93800000000E+00  0.93800000000E+00 0.  1.
         11    1    1    2    0    0  0.79765123570E-01 -0.12653270116E+00  0.70280288835E+00  0.71854377764E+00  0.51100000000E-03 0.  1.
    9000002    1    1    2    0    0 -0.43400911822E+00  0.64440381108E+00  0.44131567627E+00  0.12954627407E+01  0.93800000000E+00 0.  1.
         22    1    1    2    0    0  0.35424399465E+00 -0.51787110992E+00  0.28558814027E+01  0.29239934817E+01  0.00000000000E+00 0.  1.
</event>
<event>
 5    1  0.5849602E+001  0.1456287E+01  0.7818608E-02  0.3525816E+00
         11   -1    0    0    0    0  0.00000000000E+00  0.00000000000E+00  0.39999999674E+01  0.40000000000E+01  0.51100000000E-03 0. -1.
    9000002   -1    0    0    0    0 -0.00000000000E+00 -0.00000000000E+00  0.00000000000E+00  0.93800000000E+00  0.93800000000E+00 0. -1.
         11    1    1    2    0    0  0.41910054702E+00 -0.14760669920E+00  0.81438495373E+00  0.92771553838E+00  0.51100000000E-03 0. -1.
    9000002    1    1    2    0    0 -0.22586889278E+00 -0.54555305392E-01  0.16934564066E+00  0.98107848008E+00  0.93800000000E+00 0. -1.
         22    1    1    2    0    0 -0.19323165424E+00  0.20216200459E+00  0.30162693730E+01  0.30292059815E+01  0.00000000000E+00 0. -1.
</event>
<event>
 5    1  0.5849602E+001  0.1594769E+01  0.7818608E-02  0.3359061E+00
         11   -1    0    0    0    0  0.00000000000E+00  0.00000000000E+00  0.39999999674E+01  0.40000000000E+01  0.51100000000E-03 0.  1.
    9000002   -1    0    0    0    0 -0.00000000000E+00 -0.00000000000E+00  0.00000000000E+00  0.93800000000E+00  0.93800000000E+00 0. -1.
         11    1    1    2    0    0  0.37981308701E-01  0.11767963712E+00  0.14335797493E+01  0.14389031363E+01  0.51100000000E-03 0.  1.
    9000002    1    1    2    0    0  0.10892757176E+00 -0.38135068167E+00  0.11013676071E+00  0.10243376711E+01  0.93800000000E+00 0. -1.
         22    1    1    2    0    0 -0.14690888046E+00  0.26367104455E+00  0.24562834573E+01  0.24747591927E+01  0.00000000000E+00 0.  1.
</event>
<event>
 5    1  0.5849602E+001  0.1599675E+01  0.7818608E-02  0.3353716E+00
         11   -1    0    0    0    0  0.00000000000E+00  0.00000000000E+00  0.39999999674E+01  0.40000000000E+01  0.51100000000E-03 0. -1.
    9000002   -1    0    0    0    0 -0.00000000000E+00 -0.00000000000E+00  0.00000000000E+00  0.93800000000E+00  0.93800000000E+00 0. -1.
         11    1    1    2    0    0  0.43677486757E-01 -0.92767217634E-01  0.72385766243E+00  0.73108389128E+00  0.51100000000E-03 0. -1.
    9000002    1    1    2    0    0 -0.22860179980E+00  0.49365449983E+00  0.20418700901E+00  0.11033992399E+01  0.93800000000E+00 0. -1.
         22    1    1    2    0    0  0.18492431304E+00 -0.40088728219E+00  0.30719552959E+01  0.31035168688E+01  0.00000000000E+00 0. -1.
</event>
<event>
 5    1  0.5849602E+001  0.1599677E+01  0.7818608E-02  0.3353714E+00
         11   -1    0    0    0    0  0.00000000000E+00  0.00000000000E+00  0.39999999674E+01  0.40000000000E+01  0.51100000000E-03 0.  1.
    9000002   -1    0    0    0    0 -0.00000000000E+00 -0.00000000000E+00  0.00000000000E+00  0.93800000000E+00  0.93800000000E+00 0.  1.
         11    1    1    2    0    0 -0.62903894917E-01 -0.10357872659E+00  0.13253871254E+01  0.13309157546E+01  0.51100000000E-03 0. -1.
    9000002    1    1    2    0    0  0.18462751060E+00  0.30611297572E+00  0.85757851845E-01  0.10074675582E+01  0.93800000000E+00 0.  1.
         22    1    1    2    0    0 -0.12172361568E+00 -0.20253424913E+00  0.25888549901E+01  0.25996166872E+01  0.00000000000E+00 0.  1.
</event>
<event>
 5    1  0.5849602E+001  0.1599666E+01  0.7818608E-02  0.3353726E+00
         11   -1    0    0    0    0  0.00000000000E+00  0.00000000000E+00  0.39999999674E+01  0.40000000000E+01  0.51100000000E-03 0. -1.
    9000002   -1    0    0    0    0 -0.00000000000E+00 -0.00000000000E+00  0.00000000000E+00  0.93800000000E+00  0.93800000000E+00 0.  1.
         11    1    1    2    0    0 -0.21903901700E+00 -0.13596720395E-01  0.10226145152E+01  0.10458984987E+01  0.51100000000E-03 0. -1.
    9000002    1    1    2    0    0  0.75510181309E+00  0.44820714754E-01  0.41562240800E+00  0.12746660859E+01  0.93800000000E+00 0.  1.
         22    1    1    2    0    0 -0.53606279608E+00 -0.31223994359E-01  0.25617630442E+01  0.26174354154E+01  0.00000000000E+00 0. -1.
</event>
<event>
 5    1  0.5849602E+001  0.1599667E+01  0.7818608E-02  0.3353724E+00
         11   -1    0    0    0    0  0.00000000000E+00  0.00000000000E+00  0.39999999674E+01  0.40000000000E+01  0.51100000000E-03 0.  1.
    9000002   -1    0    0    0    0 -0.00000000000E+00 -0.00000000000E+00  0.00000000000E+00  0.93800000000E+00  0.93800000000E+00 0. -1.
         11    1    1    2    0    0  0.36109263525E-01 -0.40074817573E-01  0.47506916858E+00  0.47812220820E+00  0.51100000000E-03 0. -1.
    9000002    1    1    2    0    0 -0.28987300696E+00  0.30813066337E+00  0.12109721441E+00  0.10360885103E+01  0.93800000000E+00 0. -1.
         22    1    1    2    0    0  0.25376374344E+00 -0.26805584580E+00  0.34038335844E+01  0.34237892815E+01  0.00000000000E+00 0.  1.
</event>
<event>
 5    1  0.5849602E+001  0.1599653E+01  0.7818608E-02  0.3353741E+00
         11   -1    0    0    0    0  0.00000000000E+00  0.00000000000E+00  0.39999999674E+01  0.40000000000E+01  0.51100000000E-03 0.  1.
    9000002   -1    0    0    0    0 -0.00000000000E+00 -0.00000000000E+00  0.00000000000E+00  0.93800000000E+00  0.93800000000E+00 0.  1.
         11    1    1    2    0    0 -0.92974724499E-03  0.78683947687E-02  0.75150846811E-01  0.75569087354E-01  0.51100000000E-03 0.  1.
    9000002    1    1    2    0    0  0.98868996194E-01 -0.34616007941E+00  0.87016618790E-01  0.10084729897E+01  0.93800000000E+00 0.  1.
         22    1    1    2    0    0 -0.97939248949E-01  0.33829168464E+00  0.38378325018E+01  0.38539579230E+01  0.00000000000E+00 0.  1.
</event>
<event>
 5    1  0.5849602E+001  0.1586604E+01  0.7818608E-02  0.3368032E+00
         11   -1    0    0    0    0  0.00000000000E+00  0.00000000000E+00  0.39999999674E+01  0.40000000000E+01  0.51100000000E-03 0. -1.
    9000002   -1    0    0    0    0 -0.00000000000E+00 -0.00000000000E+00  0.00000000000E+00  0.93800000000E+00  0.93800000000E+00 0. -1.
         11    1    1    2    0    0 -0.27691767571E-01  0.55868954894E-01  0.87832747772E+00  0.88053824071E+00  0.51100000000E-03 0. -1.
    9000002    1    1    2    0    0 -0.21107786113E+00  0.13879115988E+00  0.52470730409E-01  0.97283812994E+00  0.93800000000E+00 0. -1.
         22    1    1    2    0    0  0.23876962870E+00 -0.19466011477E+00  0.30692017592E+01  0.30846236293E+01  0.00000000000E+00 0. -1.
</event>
<event>
 5    1  0.5849602E+001  0.1599618E+01  0.7818608E-02  0.3353778E+00
         11   -1    0    0    0    0  0.00000000000E+00  0.00000000000E+00  0.39999999674E+01  0.40000000000E+01  0.51100000000E-03 0. -1.
    9000002   -1    0    0    0    0 -0.00000000000E+00 -0.00000000000E+00  0.00000000000E+00  0.93800000000E+00  0.93800000000E+00 0. -1.
         11    1    1    2    0    0 -0.14889430420E-02  0.11888346563E-01  0.15391182405E+00  0.15437830300E+00  0.51100000000E-03 0. -1.
    9000002    1    1    2    0    0  0.76924995531E-01 -0.38294657158E+00  0.10283495689E+00  0.10212661553E+01  0.93800000000E+00 0. -1.
         22    1    1    2    0    0 -0.75436052489E-01  0.37105822502E+00  0.37432531864E+01  0.37623555417E+01  0.00000000000E+00 0. -1.
</event>
<event>
 5    1  0.6965168E+001  0.1540994E+01  0.7818608E-02  0.3420007E+00
         11   -1    0    0    0    0  0.00000000000E+00  0.00000000000E+00  0.39999999674E+01  0.40000000000E+01  0.51100000000E-03 0. -1.
    9000002   -1    0    0    0    0 -0.00000000000E+00 -0.00000000000E+00  0.00000000000E+00  0.93800000000E+00  0.93800000000E+00 0. -1.
         11    1    1    2    0    0 -0.88368725854E-01 -0.28355467811E+00  0.13889150630E+01  0.14203160214E+01  0.51100000000E-03 0. -1.
    9000002    1    1    2    0    0  0.85908144220E-01  0.30976900487E-01  0.49561976536E-01  0.94373734011E+00  0.93800000000E+00 0. -1.
         22    1    1    2    0    0  0.24605816338E-02  0.25257777762E+00  0.25615229278E+01  0.25739466385E+01  0.00000000000E+00 0. -1.
</event>
<event>
 5    1  0.5849602E+001  0.1598565E+01  0.7818608E-02  0.3354923E+00
         11   -1    0    0    0    0  0.00000000000E+00  0.00000000000E+00  0.39999999674E+01  0.40000000000E+01  0.51100000000E-03 0. -1.
    9000002   -1    0    0    0    0 -0.00000000000E+00 -0.00000000000E+00  0.00000000000E+00  0.93800000000E+00  0.93800000000E+00 0. -1.
         11    1    1    2    0    0 -0.54545596921E-01  0.10216596508E+00  0.10265273174E+01  0.10330400288E+01  0.51100000000E-03 0. -1.
    9000002    1    1    2    0    0  0.31885343327E+00 -0.31446655666E+00  0.13713122838E+00  0.10484301126E+01  0.93800000000E+00 0. -1.
         22    1    1    2    0    0 -0.26430783635E+00  0.21230059158E+00  0.28363414216E+01  0.28565298587E+01  0.00000000000E+00 0. -1.
</event>
<event>
 5    1  0.5849602E+001  0.1599669E+01  0.7818608E-02  0.3353723E+00
         11   -1    0    0    0    0  0.00000000000E+00  0.00000000000E+00  0.39999999674E+01  0.40000000000E+01  0.51100000000E-03 0. -1.
    9000002   -1    0    0    0    0 -0.00000000000E+00 -0.00000000000E+00  0.00000000000E+00  0.93800000000E+00  0.93800000000E+00 0.  1.
         11    1    1    2    0    0  0.16482760655E-01  0.94933516103E-01  0.67123156381E+00  0.67811217896E+00  0.51100000000E-03 0. -1.
    9000002    1    1    2    0    0 -0.97629539090E-01 -0.52371979427E+00  0.19541018381E+00  0.10962860438E+01  0.93800000000E+00 0.  1.
         22    1    1    2    0    0  0.81146778435E-01  0.42878627816E+00  0.31333582197E+01  0.31636017773E+01  0.00000000000E+00 0. -1.
</event>
<event>
 5    1  0.5849602E+001  0.1574116E+01  0.7818608E-02  0.3381946E+00
         11   -1    0    0    0    0  0.00000000000E+00  0.00000000000E+00  0.39999999674E+01  0.40000000000E+01  0.51100000000E-03 0.  1.
    9000002   -1    0    0    0    0 -0.00000000000E+00 -0.00000000000E+00  0.00000000000E+00  0.93800000000E+00  0.93800000000E+00 0. -1.
         11    1    1    2    0    0 -0.13487984572E+00  0.20980341650E+00  0.82495751404E+00  0.86183827221E+00  0.51100000000E-03 0.  1.
    9000002    1    1    2    0    0  0.49969437052E+00 -0.23238229670E+00  0.23437615406E+00  0.11128666485E+01  0.93800000000E+00 0. -1.
         22    1    1    2    0    0 -0.36481452481E+00  0.22578880200E-01  0.29406662993E+01  0.29632950793E+01  0.00000000000E+00 0.  1.
</event>
<event>
 5    1  0.5849602E+001  0.1598905E+01  0.7818608E-02  0.3354552E+00
         11   -1    0    0    0    0  0.00000000000E+00  0.00000000000E+00  0.39999999674E+01  0.40000000000E+01  0.51100000000E-03 0. -1.
    9000002   -1    0    0    0    0 -0.00000000000E+00 -0.00000000000E+00  0.00000000000E+00  0.93800000000E+00  0.93800000000E+00 0. -1.
         11    1    1    2    0    0 -0.11720350809E-01 -0.69122732922E-01  0.43439301551E+00  0.44001462688E+00  0.51100000000E-03 0. -1.
    9000002    1    1    2    0    0 -0.52639100449E-01  0.68553074082E+00  0.33758083238E+00  0.12110029273E+01  0.93800000000E+00 0. -1.
         22    1    1    2    0    0  0.64359451258E-01 -0.61640800790E+00  0.32280261195E+01  0.32869824458E+01  0.00000000000E+00 0. -1.
</event>
<event>
 5    1  0.5849602E+001  0.1599674E+01  0.7818608E-02  0.3353717E+00
         11   -1    0    0    0    0  0.00000000000E+00  0.00000000000E+00  0.39999999674E+01  0.40000000000E+01  0.51100000000E-03 0. -1.
    9000002   -1    0    0    0    0 -0.00000000000E+00 -0.00000000000E+00  0.00000000000E+00  0.93800000000E+00  0.93800000000E+00 0.  1.
         11    1    1    2    0    0  0.10038975520E+00 -0.13093494443E+00  0.47507534172E+00  0.50291043343E+00  0.51100000000E-03 0. -1.
    9000002    1    1    2    0    0 -0.64504401126E+00  0.84870777907E+00  0.95350836790E+00  0.17103826702E+01  0.93800000000E+00 0.  1.
         22    1    1    2    0    0  0.54465425606E+00 -0.71777283464E+00  0.25714162577E+01  0.27247068964E+01  0.00000000000E+00 0. -1.
</event>
<event>
 5    1  0.5849602E+001  0.1587595E+01  0.7818608E-02  0.3366939E+00
         11   -1    0    0    0    0  0.00000000000E+00  0.00000000000E+00  0.39999999674E+01  0.40000000000E+01  0.51100000000E-03 0. -1.
    9000002   -1    0    0    0    0 -0.00000000000E+00 -0.00000000000E+00  0.00000000000E+00  0.93800000000E+00  0.93800000000E+00 0.  1.
         11    1    1    2    0    0  0.94925762352E-01  0.53400199615E-01  0.10655078827E+01  0.10710601248E+01  0.51100000000E-03 0. -1.
    9000002    1    1    2    0    0  0.62286873962E-01 -0.33089695155E+00  0.85623218314E-01  0.10002738539E+01  0.93800000000E+00 0.  1.
         22    1    1    2    0    0 -0.15721263631E+00  0.27749675194E+00  0.28488688664E+01  0.28666660214E+01  0.00000000000E+00 0. -1.
</event>
<event>
 5    1  0.5849602E+001  0.1587874E+01  0.7818608E-02  0.3366630E+00
         11   -1    0    0    0    0  0.00000000000E+00  0.00000000000E+00  0.39999999674E+01  0.40000000000E+01  0.51100000000E-03 0.  1.
    9000002   -1    0    0    0    0 -0.00000000000E+00 -0.00000000000E+00  0.00000000000E+00  0.93800000000E+00  0.93800000000E+00 0. -1.
         11    1    1    2    0    0 -0.96906078816E-01  0.26068913890E-02  0.33996589087E+00  0.35351754139E+00  0.51100000000E-03 0.  1.
    9000002    1    1    2    0    0  0.33625832580E+00 -0.41717122417E+00  0.20884862667E+00  0.11002559888E+01  0.93800000000E+00 0. -1.
         22    1    1    2    0    0 -0.23935224699E+00  0.41456433278E+00  0.34511854498E+01  0.34842264698E+01  0.00000000000E+00 0.  1.
</event>
<event>
 5    1  0.5849602E+001  0.1599669E+01  0.7818608E-02  0.3353723E+00
         11   -1    0    0    0    0  0.00000000000E+00  0.00000000000E+00  0.39999999674E+01  0.40000000000E+01  0.51100000000E-03 0.  1.
    9000002   -1    0    0    0    0 -0.00000000000E+00 -0.00000000000E+00  0.00000000000E+00  0.93800000000E+00  0.93800000000E+00 0. -1.
         11    1    1    2    0    0 -0.85126134929E-02  0.15545434962E+00  0.13783672872E+01  0.13871319904E+01  0.51100000000E-03 0.  1.
    9000002    1    1    2    0    0  0.14776872645E-01 -0.43611040693E+00  0.12907555746E+00  0.10425522253E+01  0.93800000000E+00 0. -1.
         22    1    1    2    0    0 -0.62642591523E-02  0.28065605731E+00  0.24925571227E+01  0.25083157843E+01  0.00000000000E+00 0.  1.
</event>
<event>
 5    1  0.5849602E+001  0.1594188E+01  0.7818608E-02  0.3359696E+00
         11   -1    0    0    0    0  0.00000000000E+00  0.00000000000E+00  0.39999999674E+01  0.40000000000E+01  0.51100000000E-03 0.  1.
    9000002   -1    0    0    0    0 -0.00000000000E+00 -0.00000000000E+00  0.00000000000E+00  0.93800000000E+00  0.93800000000E+00 0.  1.
         11    1    1    2    0    0 -0.10468642265E-01 -0.64030966668E-01  0.91716148033E+00  0.91945364173E+00  0.51100000000E-03 0.  1.
    9000002    1    1    2    0    0 -0.25435487100E+00  0.38365187485E+00  0.14892689991E+00  0.10554185819E+01  0.93800000000E+00 0.  1.
         22    1    1    2    0    0  0.26482351327E+00 -0.31962090819E+00  0.29339115871E+01  0.29631277764E+01  0.00000000000E+00 0.  1.
</event>
<event>
 5    1  0.5849602E+001  0.1599675E+01  0.7818608E-02  0.3353716E+00
         11   -1    0    0    0    0  0.00000000000E+00  0.00000000000E+00  0.39999999674E+01  0.40000000000E+01  0.51100000000E-03 0.  1.
    9000002   -1    0    0    0    0 -0.00000000000E+00 -0.00000000000E+00  0.00000000000E+00  0.93800000000E+00  0.93800000000E+00 0.  1.
         11    1    1    2    0    0 -0.73240123745E-01 -0.42250357840E-02  0.76743719942E+00  0.77093584871E+00  0.51100000000E-03 0.  1.
    9000002    1    1    2    0    0  0.37030699306E+00  0.27960054439E-01  0.92696788893E-01  0.10130872265E+01  0.93800000000E+00 0.  1.
         22    1    1    2    0    0 -0.29706686931E+00 -0.23735018655E-01  0.31398659790E+01  0.31539769248E+01  0.00000000000E+00 0.  1.
</event>
<event>
 5    1  0.5849602E+001  0.1599677E+01  0.7818608E-02  0.3353714E+00
         11   -1    0    0    0    0  0.00000000000E+00  0.00000000000E+00  0.39999999674E+01  0.40000000000E+01  0.51100000000E-03 0. -1.
    9000002   -1    0    0    0    0 -0.00000000000E+00 -0.00000000000E+00  0.00000000000E+00  0.93800000000E+00  0.93800000000E+00 0. -1.
         11    1    1    2    0    0  0.11824861755E+00  0.91202806377E-01  0.11315694295E+01  0.11413808840E+01  0.51100000000E-03 0. -1.
    9000002    1    1    2    0    0 -0.39751399904E+00 -0.30826842360E+00  0.17331382544E+00  0.10783916183E+01  0.93800000000E+00 0. -1.
         22    1    1    2    0    0  0.27926538149E+00  0.21706561722E+00  0.26951167124E+01  0.27182274976E+01  0.00000000000E+00 0. -1.
</event>
<event>
 5    1  0.5849602E+001  0.1591659E+01  0.7818608E-02  0.3362467E+00
         11   -1    0    0    0    0  0.00000000000E+00  0.00000000000E+00  0.39999999674E+01  0.40000000000E+01  0.51100000000E-03 0.  1.
    9000002   -1    0    0    0    0 -0.00000000000E+00 -0.00000000000E+00  0.00000000000E+00  0.93800000000E+00  0.93800000000E+00 0.  1.
         11    1    1    2    0    0  0.44529337781E-01  0.13313730449E-01  0.24373754151E+00  0.24812973946E+00  0.51100000000E-03 0.  1.
    9000002    1    1    2    0    0  0.94199921026E-01 -0.43771841735E+00  0.14305681064E+00  0.10491807704E+01  0.93800000000E+00 0.  1.
         22    1    1    2    0    0 -0.13872925881E+00  0.42440468690E+00  0.36132056152E+01  0.36406894901E+01  0.00000000000E+00 0.  1.
</event>
<event>
 5    1  0.5849602E+001  0.1570392E+01  0.7818608E-02  0.3386139E+00
         11   -1    0    0    0    0  0.00000000000E+00  0.00000000000E+00  0.39999999674E+01  0.40000000000E+01  0.51100000000E-03 0.  1.
    9000002   -1    0    0    0    0 -0.00000000000E+00 -0.00000000000E+00  0.00000000000E+00  0.93800000000E+00  0.93800000000E+00 0.  1.
         11    1    1    2    0    0  0.24309828921E-01 -0.18891419024E+00  0.14724659655E+01  0.14847342589E+01  0.51100000000E-03 0.  1.
    9000002    1    1    2    0    0  0.40664939598E+00  0.26684975994E+00  0.18813298251E+00  0.10732243683E+01  0.93800000000E+00 0.  1.
         22    1    1    2    0    0 -0.43095922490E+00 -0.77935569693E-01  0.23394010194E+01  0.23800413728E+01  0.00000000000E+00 0.  1.
</event>
<event>
 5    1  0.5849602E+001  0.1571770E+01  0.7818608E-02  0.3384585E+00
         11   -1    0    0    0    0  0.00000000000E+00  0.00000000000E+00  0.39999999674E+01  0.40000000000E+01  0.51100000000E-03 0. -1.
    9000002   -1    0    0    0    0 -0.00000000000E+00 -0.00000000000E+00  0.00000000000E+00  0.93800000000E+00  0.93800000000E+00 0. -1.
         11    1    1    2    0    0  0.71390528089E-01  0.82680921121E-01  0.91037431981E+00  0.91690479631E+00  0.51100000000E-03 0. -1.
    9000002    1    1    2    0    0  0.41688534267E+00 -0.29604584893E+00  0.20516585124E+00  0.10878297478E+01  0.93800000000E+00 0. -1.
         22    1    1    2    0    0 -0.48827587076E+00  0.21336492781E+00  0.28844597963E+01  0.29332654559E+01  0.00000000000E+00 0. -1.
</event>
<event>
 5    1  0.5849602E+001  0.1595282E+01  0.7818608E-02  0.3358500E+00
         11   -1    0    0    0    0  0.00000000000E+00  0.00000000000E+00  0.39999999674E+01  0.40000000000E+01  0.51100000000E-03 0. -1.
    9000002   -1    0    0    0    0 -0.00000000000E+00 -0.00000000000E+00  0.00000000000E+00  0.93800000000E+00  0.93800000000E+00 0. -1.
         11    1    1    2    0    0  0.11587671378E-01  0.11229269627E-02  0.47418518906E-01  0.48829418891E-01  0.51100000000E-03 0. -1.
    9000002    1    1    2    0    0  0.20709442557E+00  0.76702298990E+00  0.46976620015E+00  0.13159546538E+01  0.93800000000E+00 0. -1.
         22    1    1    2    0    0 -0.21868209695E+00 -0.76814591686E+00  0.34828152483E+01  0.35732159273E+01  0.00000000000E+00 0. -1.
</event>
<event>
 5    1  0.5849602E+001  0.1530270E+01  0.7818608E-02  0.3432706E+00
         11   -1    0    0    0    0  0.00000000000E+00  0.00000000000E+00  0.39999999674E+01  0.40000000000E+01  0.51100000000E-03 0.  1.
    9000002   -1    0    0    0    0 -0.00000000000E+00 -0.00000000000E+00  0.00000000000E+00  0.93800000000E+00  0.93800000000E+00 0. -1.
         11    1    1    2    0    0 -0.19914189231E+00 -0.98978023378E-01  0.10584127734E+01  0.10815230013E+01  0.51100000000E-03 0.  1.
    9000002    1    1    2    0    0 -0.20864220818E+00 -0.72271479669E-01  0.86696986928E-01  0.96753041572E+00  0.93800000000E+00 0. -1.
         22    1    1    2    0    0  0.40778410050E+00  0.17124950305E+00  0.28548902070E+01  0.28889465829E+01  0.00000000000E+00 0.  1.
</event>
<event>
 5    1  0.5849602E+001  0.1599624E+01  0.7818608E-02  0.3353772E+00
         11   -1    0    0    0    0  0.00000000000E+00  0.00000000000E+00  0.39999999674E+01  0.40000000000E+01  0.51100000000E-03 0. -1.
    9000002   -1    0    0    0    0 -0.00000000000E+00 -0.00000000000E+00  0.00000000000E+00  0.93800000000E+00  0.93800000000E+00 0.  1.
         11    1    1    2    0    0 -0.56488041247E-01 -0.19187933401E+00  0.10295918111E+01  0.10488413304E+01  0.51100000000E-03 0. -1.
    9000002    1    1    2    0    0  0.19739491402E+00  0.70221602456E+00  0.38344741306E+00  0.12485783979E+01  0.93800000000E+00 0.  1.
         22    1    1    2    0    0 -0.14090687278E+00 -0.51033669055E+00  0.25869607432E+01  0.26405802717E+01  0.00000000000E+00 0. -1.
</event>
<event>
 5    1  0.5849602E+001  0.1522831E+01  0.7818608E-02  0.3441629E+00
         11   -1    0    0    0    0  0.00000000000E+00  0.00000000000E+00  0.39999999674E+01  0.40000000000E+01  0.51100000000E-03 0. -1.
    9000002   -1    0    0    0    0 -0.00000000000E+00 -0.00000000000E+00  0.00000000000E+00  0.93800000000E+00  0.93800000000E+00 0.  1.
         11    1    1    2    0    0 -0.26671544360E-01 -0.91558621477E-01  0.57964476542E-01  0.11159970478E+00  0.51100000000E-03 0. -1.
    9000002    1    1    2    0    0 -0.53018627463E+00  0.27043135527E-01  0.26905098305E+00  0.11108830940E+01  0.93800000000E+00 0.  1.
         22    1    1    2    0    0  0.55685781898E+00  0.64515485950E-01  0.36729845078E+01  0.37155172013E+01  0.00000000000E+00 0. -1.
</event>
<event>
 5    1  0.5849602E+001  0.1474339E+01  0.7818608E-02  0.3502166E+00
         11   -1    0    0    0    0  0.00000000000E+00  0.00000000000E+00  0.39999999674E+01  0.40000000000E+01  0.51100000000E-03 0. -1.
    9000002   -1    0    0    0    0 -0.00000000000E+00 -0.00000000000E+00  0.00000000000E+00  0.93800000000E+00  0.93800000000E+00 0. -1.
         11    1    1    2    0    0  0.26505057619E+00  0.30457026449E+00  0.61969434438E+00  0.73961895293E+00  0.51100000000E-03 0. -1.
    9000002    1    1    2    0    0 -0.10257583994E-01 -0.13364728550E+00  0.15692966569E+00  0.96043622116E+00  0.93800000000E+00 0. -1.
         22    1    1    2    0    0 -0.25479299219E+00 -0.17092297899E+00  0.32233759573E+01  0.32379448259E+01  0.00000000000E+00 0. -1.
</event>
<event>
 5    1  0.5849602E+001  0.1599524E+01  0.7818608E-02  0.3353881E+00
         11   -1    0    0    0    0  0.00000000000E+00  0.00000000000E+00  0.39999999674E+01  0.40000000000E+01  0.51100000000E-03 0.  1.
    9000002   -1    0    0    0    0 -0.00000000000E+00 -0.00000000000E+00  0.00000000000E+00  0.93800000000E+00  0.93800000000E+00 0.  1.
         11    1    1    2    0    0 -0.77605440176E-01  0.14292858167E-01  0.10158865874E+01  0.10189468630E+01  0.51100000000E-03 0.  1.
    9000002    1    1    2    0    0  0.34963192519E+00 -0.56610736447E-01  0.84276589680E-01  0.10061778184E+01  0.93800000000E+00 0.  1.
         22    1    1    2    0    0 -0.27202648502E+00  0.42317878280E-01  0.28998367903E+01  0.29128753186E+01  0.00000000000E+00 0.  1.
</event>
<event>
 5    1  0.5849602E+001  0.1599425E+01  0.7818608E-02  0.3353988E+00
         11   -1    0    0    0    0  0.00000000000E+00  0.00000000000E+00  0.39999999674E+01  0.40000000000E+01  0.51100000000E-03 0. -1.
    9000002   -1    0    0    0    0 -0.00000000000E+00 -0.00000000000E+00  0.00000000000E+00  0.93800000000E+00  0.93800000000E+00 0.  1.
         11    1    1    2    0    0  0.35545941064E-01  0.35195073723E-01  0.62394676952E+00  0.62594891122E+00  0.51100000000E-03 0. -1.
    9000002    1    1    2    0    0 -0.20023155097E+00 -0.30544572568E+00  0.89798330375E-01  0.10105926506E+01  0.93800000000E+00 0.  1.
         22    1    1    2    0    0  0.16468560990E+00  0.27025065196E+00  0.32862548675E+01  0.33014584382E+01  0.00000000000E+00 0. -1.
</event>
<event>
 5    1  0.5849602E+001  0.1562437E+01  0.7818608E-02  0.3395170E+00
         11   -1    0    0    0    0  0.00000000000E+00  0.00000000000E+00  0.39999999674E+01  0.40000000000E+01  0.51100000000E-03 0. -1.
    9000002   -1    0    0    0    0 -0.00000000000E+00 -0.00000000000E+00  0.00000000000E+00  0.93800000000E+00  0.93800000000E+00 0. -1.
         11    1    1    2    0    0  0.20081361634E-01 -0.54796916803E-01  0.65105076362E+00  0.65366147286E+00  0.51100000000E-03 0. -1.
    9000002    1    1    2    0    0  0.46729061737E+00 -0.50444857789E+00  0.37913741686E+00  0.12232816804E+01  0.93800000000E+00 0. -1.
         22    1    1    2    0    0 -0.48737197901E+00  0.55924549469E+00  0.29698117869E+01  0.30610568467E+01  0.00000000000E+00 0. -1.
</event>
<event>
 5    1  0.5849602E+001  0.1595080E+01  0.7818608E-02  0.3358720E+00
         11   -1    0    0    0    0  0.00000000000E+00  0.00000000000E+00  0.39999999674E+01  0.40000000000E+01  0.51100000000E-03 0. -1.
    9000002   -1    0    0    0    0 -0.00000000000E+00 -0.00000000000E+00  0.00000000000E+00  0.93800000000E+00  0.93800000000E+00 0.  1.
         11    1    1    2    0    0  0.23690984304E-01  0.48891269072E-01  0.10931334690E+01  0.10944828281E+01  0.51100000000E-03 0. -1.
    9000002    1    1    2    0    0 -0.51725089320E-01 -0.43196471465E+00  0.13220550934E+00  0.10423968996E+01  0.93800000000E+00 0.  1.
         22    1    1    2    0    0  0.28034105017E-01  0.38307344558E+00  0.27746609891E+01  0.28011202723E+01  0.00000000000E+00 0. -1.
</event>
<event>
 5    1  0.5849602E+001  0.1598591E+01  0.7818608E-02  0.3354894E+00
         11   -1    0    0    0    0  0.00000000000E+00  0.00000000000E+00  0.39999999674E+01  0.40000000000E+01  0.51100000000E-03 0.  1.
    9000002   -1    0    0    0    0 -0.00000000000E+00 -0.00000000000E+00  0.00000000000E+00  0.93800000000E+00  0.93800000000E+00 0.  1.
         11    1    1    2    0    0 -0.87182989602E-01 -0.14785546691E+00  0.12945454621E+01  0.13058753108E+01  0.51100000000E-03 0.  1.
    9000002    1    1    2    0    0  0.15597683548E+00  0.40218099207E+00  0.12696817601E+00  0.10402130750E+01  0.93800000000E+00 0.  1.
         22    1    1    2    0    0 -0.68793845876E-01 -0.25432552515E+00  0.25784863293E+01  0.25919116143E+01  0.00000000000E+00 0.  1.
</event>
<event>
 5    1  0.5849602E+001  0.1584888E+01  0.7818608E-02  0.3369930E+00
         11   -1    0    0    0    0  0.00000000000E+00  0.00000000000E+00  0.39999999674E+01  0.40000000000E+01  0.51100000000E-03 0.  1.
    9000002   -1    0    0    0    0 -0.00000000000E+00 -0.00000000000E+00  0.00000000000E+00  0.93800000000E+00  0.93800000000E+00 0.  1.
         11    1    1    2    0    0  0.25830553332E-01  0.30535409232E-01  0.29411039628E+00  0.29681781453E+00  0.51100000000E-03 0.  1.
    9000002    1    1    2    0    0  0.42927775592E+00  0.26799887416E+00  0.18901458199E+00  0.10824385897E+01  0.93800000000E+00 0.  1.
         22    1    1    2    0    0 -0.45510830925E+00 -0.29853428339E+00  0.35168749891E+01  0.35587435958E+01  0.00000000000E+00 0.  1.
</event>
<event>
 5    1  0.5849602E+001  0.1593293E+01  0.7818608E-02  0.3360675E+00
         11   -1    0    0    0    0  0.00000000000E+00  0.00000000000E+00  0.39999999674E+01  0.40000000000E+01  0.51100000000E-03 0. -1.
    9000002   -1    0    0    0    0 -0.00000000000E+00 -0.00000000000E+00  0.00000000000E+00  0.93800000000E+00  0.93800000000E+00 0.  1.
         11    1    1    2    0    0 -0.34322862311E-01  0.73782028859E-02  0.14232183287E+01  0.14236513510E+01  0.51100000000E-03 0. -1.
    9000002    1    1    2    0    0  0.16710288713E+00  0.22539349049E+00  0.57391333382E-01  0.98074633091E+00  0.93800000000E+00 0.  1.
         22    1    1    2    0    0 -0.13278002482E+00 -0.23277169338E+00  0.25193903052E+01  0.25336023181E+01  0.00000000000E+00 0. -1.
</event>
<event>
 5    1  0.5849602E+001  0.1570446E+01  0.7818608E-02  0.3386079E+00
         11   -1    0    0    0    0  0.00000000000E+00  0.00000000000E+00  0.39999999674E+01  0.40000000000E+01  0.51100000000E-03 0. -1.
    9000002   -1    0    0    0    0 -0.00000000000E+00 -0.00000000000E+00  0.00000000000E+00  0.93800000000E+00  0.93800000000E+00 0.  1.
         11    1    1    2    0    0  0.20552908026E+00 -0.21311894699E-01  0.10033555223E+01  0.10244115213E+01  0.51100000000E-03 0. -1.
    9000002    1    1    2    0    0 -0.13923028991E+00  0.31953881911E+00  0.10534887849E+00  0.10061970566E+01  0.93800000000E+00 0.  1.
         22    1    1    2    0    0 -0.66298790348E-01 -0.29822692441E+00  0.28912955666E+01  0.29073914221E+01  0.00000000000E+00 0. -1.
</event>
<event>
 5    1  0.5849602E+001  0.1590822E+01  0.7818608E-02  0.3363386E+00
         11   -1    0    0    0    0  0.00000000000E+00  0.00000000000E+00  0.39999999674E+01  0.40000000000E+01  0.51100000000E-03 0. -1.
    9000002   -1    0    0    0    0 -0.00000000000E+00 -0.00000000000E+00  0.00000000000E+00  0.93800000000E+00  0.93800000000E+00 0.  1.
         11    1    1    2    0    0  0.13989745286E+00 -0.15668015431E-01  0.62606468687E+00  0.64169621885E+00  0.51100000000E-03 0. -1.
    9000002    1    1    2    0    0 -0.38542841312E+00  0.30782414022E+00  0.17434533643E+00  0.10740349432E+01  0.93800000000E+00 0.  1.
         22    1    1    2    0    0  0.24553096026E+00 -0.29215612479E+00  0.31995899441E+01  0.32222688379E+01  0.00000000000E+00 0. -1.
</event>
<event>
 5    1  0.5849602E+001  0.1565855E+01  0.7818608E-02  0.3391278E+00
         11   -1    0    0    0    0  0.00000000000E+00  0.00000000000E+00  0.39999999674E+01  0.40000000000E+01  0.51100000000E-03 0. -1.
    9000002   -1    0    0    0    0 -0.00000000000E+00 -0.00000000000E+00  0.00000000000E+00  0.93800000000E+00  0.93800000000E+00 0.  1.
         11    1    1    2    0    0 -0.87393015674E-01 -0.27530199901E+00  0.10280762483E+00  0.30659158288E+00  0.51100000000E-03 0. -1.
    9000002    1    1    2    0    0 -0.28632368545E+00  0.20494853172E+00  0.34609180729E+00  0.10600041003E+01  0.93800000000E+00 0.  1.
         22    1    1    2    0    0  0.37371670112E+00  0.70353467290E-01  0.35511005352E+01  0.35714043169E+01  0.00000000000E+00 0. -1.
</event>
<event>
 5    1  0.5849602E+001  0.1593837E+01  0.7818608E-02  0.3360080E+00
         11   -1    0    0    0    0  0.00000000000E+00  0.00000000000E+00  0.39999999674E+01  0.40000000000E+01  0.51100000000E-03 0. -1.
    9000002   -1    0    0    0    0 -0.00000000000E+00 -0.00000000000E+00  0.00000000000E+00  0.93800000000E+00  0.93800000000E+00 0. -1.
         11    1    1    2    0    0 -0.56444750251E-02  0.78712442536E-02  0.11786650923E-01  0.15264430726E-01  0.51100000000E-03 0. -1.
    9000002    1    1    2    0    0 -0.62966082792E+00 -0.56161567549E-01  0.28685907069E+00  0.11669443030E+01  0.93800000000E+00 0. -1.
         22    1    1    2    0    0  0.63530530294E+00  0.48290323295E-01  0.37013542457E+01  0.37557912663E+01  0.00000000000E+00 0. -1.
</event>
<event>
 5    1  0.5849602E+001  0.1557256E+01  0.7818608E-02  0.3401104E+00
         11   -1    0    0    0    0  0.00000000000E+00  0.00000000000E+00  0.39999999674E+01  0.40000000000E+01  0.51100000000E-03 0.  1.
    9000002   -1    0    0    0    0 -0.00000000000E+00 -0.00000000000E+00  0.00000000000E+00  0.93800000000E+00  0.93800000000E+00 0.  1.
         11    1    1    2    0    0 -0.10530871651E+00 -0.17149422722E+00  0.11131535785E+01  0.11311990745E+01  0.51100000000E-03 0.  1.
    9000002    1    1    2    0    0  0.69277534569E-01 -0.12222412666E+00  0.44937587169E-01  0.94952698786E+00  0.93800000000E+00 0.  1.
         22    1    1    2    0    0  0.36031181941E-01  0.29371835389E+00  0.28419088017E+01  0.28572739376E+01  0.00000000000E+00 0.  1.
</event>
<event>
 5    1  0.5849602E+001  0.1599677E+01  0.7818608E-02  0.3353714E+00
         11   -1    0    0    0    0  0.00000000000E+00  0.00000000000E+00  0.39999999674E+01  0.40000000000E+01  0.51100000000E-03 0. -1.
    9000002   -1    0    0    0    0 -0.00000000000E+00 -0.00000000000E+00  0.00000000000E+00  0.93800000000E+00  0.93800000000E+00 0. -1.
         11    1    1    2    0    0  0.38654223772E-01  0.54222987577E-01  0.66413149599E+00  0.66746174908E+00  0.51100000000E-03 0.  1.
    9000002    1    1    2    0    0 -0.22875865531E+00 -0.31774134583E+00  0.10328639150E+00  0.10216663662E+01  0.93800000000E+00 0. -1.
         22    1    1    2    0    0  0.19010443154E+00  0.26351835825E+00  0.32325820799E+01  0.32488718847E+01  0.00000000000E+00 0. -1.
</event>
<event>
 5    1  0.5849602E+001  0.1599676E+01  0.7818608E-02  0.3353715E+00
         11   -1    0    0    0    0  0.00000000000E+00  0.00000000000E+00  0.39999999674E+01  0.40000000000E+01  0.51100000000E-03 0. -1.
    9000002   -1    0    0    0    0 -0.00000000000E+00 -0.00000000000E+00  0.00000000000E+00  0.93800000000E+00  0.93800000000E+00 0.  1.
         11    1    1    2    0    0 -0.34271230511E-01 -0.20607699337E+00  0.13982048872E+01  0.14137253666E+01  0.51100000000E-03 0. -1.
    9000002    1    1    2    0    0  0.95033658582E-01  0.55692573676E+00  0.22110983282E+00  0.11171084239E+01  0.93800000000E+00 0.  1.
         22    1    1    2    0    0 -0.60762428071E-01 -0.35084874339E+00  0.23806852473E+01  0.24071662095E+01  0.00000000000E+00 0. -1.
</event>
<event>
 5    1  0.5849602E+001  0.1599675E+01  0.7818608E-02  0.3353717E+00
         11   -1    0    0    0    0  0.00000000000E+00  0.00000000000E+00  0.39999999674E+01  0.40000000000E+01  0.51100000000E-03 0.  1.
    9000002   -1    0    0    0    0 -0.00000000000E+00 -0.00000000000E+00  0.00000000000E+00  0.93800000000E+00  0.93800000000E+00 0. -1.
         11    1    1    2    0    0  0.22531013126E-01 -0.95517131688E-01  0.10653391484E+01  0.10698499574E+01  0.51100000000E-03 0.  1.
    9000002    1    1    2    0    0 -0.88689562461E-01  0.35040523403E+00  0.87716625887E-01  0.10090529585E+01  0.93800000000E+00 0. -1.
         22    1    1    2    0    0  0.66158549334E-01 -0.25488810234E+00  0.28469441931E+01  0.28590970842E+01  0.00000000000E+00 0.  1.
</event>
<event>
 5    1  0.5849602E+001  0.1570667E+01  0.7818608E-02  0.3385829E+00
         11   -1    0    0    0    0  0.00000000000E+00  0.00000000000E+00  0.39999999674E+01  0.40000000000E+01  0.51100000000E-03 0.  1.
    9000002   -1    0    0    0    0 -0.00000000000E+00 -0.00000000000E+00  0.00000000000E+00  0.93800000000E+00  0.93800000000E+00 0.  1.
         11    1    1    2    0    0  0.28307506221E+00 -0.67727409303E-01  0.10640214190E+01  0.11031139261E+01  0.51100000000E-03 0.  1.
    9000002    1    1    2    0    0 -0.53697032404E+00 -0.22931451274E+00  0.26598372028E+00  0.11364478053E+01  0.93800000000E+00 0.  1.
         22    1    1    2    0    0  0.25389526183E+00  0.29704192205E+00  0.26699948281E+01  0.26984382686E+01  0.00000000000E+00 0.  1.
</event>
<event>
 5    1  0.5849602E+001  0.1558373E+01  0.7818608E-02  0.3399822E+00
         11   -1    0    0    0    0  0.00000000000E+00  0.00000000000E+00  0.39999999674E+01  0.40000000000E+01  0.51100000000E-03 0. -1.
    9000002   -1    0    0    0    0 -0.00000000000E+00 -0.00000000000E+00  0.00000000000E+00  0.93800000000E+00  0.93800000000E+00 0.  1.
         11    1    1    2    0    0  0.17296970239E+00 -0.42300781513E-02  0.91706098073E+00  0.93324033079E+00  0.51100000000E-03 0. -1.
    9000002    1    1    2    0    0  0.13476884279E+00  0.15554733435E+00  0.59736146974E-01  0.96216943491E+00  0.93800000000E+00 0.  1.
         22    1    1    2    0    0 -0.30773854518E+00 -0.15131725620E+00  0.30232028397E+01  0.30425902343E+01  0.00000000000E+00 0. -1.
</event>
<event>
 5    1  0.5849602E+001  0.1599677E+01  0.7818608E-02  0.3353714E+00
         11   -1    0    0    0    0  0.00000000000E+00  0.00000000000E+00  0.39999999674E+01  0.40000000000E+01  0.51100000000E-03 0.  1.
    9000002   -1    0    0    0    0 -0.00000000000E+00 -0.00000000000E+00  0.00000000000E+00  0.93800000000E+00  0.93800000000E+00 0.  1.
         11    1    1    2    0    0 -0.22755338424E+00  0.20834699136E-01  0.13144754883E+01  0.13341891537E+01  0.51100000000E-03 0.  1.
    9000002    1    1    2    0    0  0.64182067510E+00 -0.60453544673E-01  0.29288667084E+00  0.11752510421E+01  0.93800000000E+00 0.  1.
         22    1    1    2    0    0 -0.41426729086E+00  0.39618845537E-01  0.23926378082E+01  0.24285598042E+01  0.00000000000E+00 0.  1.
</event>
<event>
 5    1  0.5849602E+001  0.1598818E+01  0.7818608E-02  0.3354647E+00
         11   -1    0    0    0    0  0.00000000000E+00  0.00000000000E+00  0.39999999674E+01  0.40000000000E+01  0.51100000000E-03 0. -1.
    9000002   -1    0    0    0    0 -0.00000000000E+00 -0.00000000000E+00  0.00000000000E+00  0.93800000000E+00  0.93800000000E+00 0. -1.
         11    1    1    2    0    0  0.13608682780E+00  0.51731799438E-01  0.12000238461E+01  0.12088231037E+01  0.51100000000E-03 0. -1.
    9000002    1    1    2    0    0 -0.38573334916E+00 -0.77912918348E-01  0.10508204745E+00  0.10226176589E+01  0.93800000000E+00 0. -1.
         22    1    1    2    0    0  0.24964652135E+00  0.26181118910E-01  0.26948940738E+01  0.27065592374E+01  0.00000000000E+00 0. -1.
</event>
<event>
 5    1  0.5849602E+001  0.1593030E+01  0.7818608E-02  0.3360963E+00
         11   -1    0    0    0    0  0.00000000000E+00  0.00000000000E+00  0.39999999674E+01  0.40000000000E+01  0.51100000000E-03 0. -1.
    9000002   -1    0    0    0    0 -0.00000000000E+00 -0.00000000000E+00  0.00000000000E+00  0.93800000000E+00  0.93800000000E+00 0. -1.
         11    1    1    2    0    0  0.28155721633E-02 -0.22080107928E-01  0.10114948018E+01  0.10117398153E+01  0.51100000000E-03 0. -1.
    9000002    1    1    2    0    0  0.26150588381E+00 -0.10748705524E+00  0.58420049860E-01  0.98142533926E+00  0.93800000000E+00 0. -1.
         22    1    1    2    0    0 -0.26432145598E+00  0.12956716317E+00  0.29300851157E+01  0.29448348455E+01  0.00000000000E+00 0. -1.
</event>
<event>
 5    1  0.5849602E+001  0.1599550E+01  0.7818608E-02  0.3353852E+00
         11   -1    0    0    0    0  0.00000000000E+00  0.00000000000E+00  0.39999999674E+01  0.40000000000E+01  0.51100000000E-03 0. -1.
    9000002   -1    0    0    0    0 -0.00000000000E+00 -0.00000000000E+00  0.00000000000E+00  0.93800000000E+00  0.93800000000E+00 0.  1.
         11    1    1    2    0    0  0.64156639730E-01 -0.81910662342E-01  0.59379997845E+00  0.60284666919E+00  0.51100000000E-03 0. -1.
    9000002    1    1    2    0    0 -0.36049724811E+00  0.55772409595E+00  0.31240844730E+00  0.11909901221E+01  0.93800000000E+00 0.  1.
         22    1    1    2    0    0  0.29634060838E+00 -0.47581343361E+00  0.30937915416E+01  0.31441632087E+01  0.00000000000E+00 0. -1.
</event>
<event>
 5    1  0.5849602E+001  0.1599456E+01  0.7818608E-02  0.3353954E+00
         11   -1    0    0    0    0  0.00000000000E+00  0.00000000000E+00  0.39999999674E+01  0.40000000000E+01  0.51100000000E-03 0.  1.
    9000002   -1    0    0    0    0 -0.00000000000E+00 -0.00000000000E+00  0.00000000000E+00  0.93800000000E+00  0.93800000000E+00 0.  1.
         11    1    1    2    0    0 -0.76452253758E-01  0.12707464285E+00  0.96231893331E+00  0.97367905518E+00  0.51100000000E-03 0.  1.
    9000002    1    1    2    0    0  0.28058785318E+00 -0.44493402851E+00  0.19047463619E+00  0.10921631838E+01  0.93800000000E+00 0.  1.
         22    1    1    2    0    0 -0.20413559942E+00  0.31785938566E+00  0.28472063979E+01  0.28721577610E+01  0.00000000000E+00 0.  1.
</event>
<event>
 5    1  0.5849602E+001  0.1599673E+01  0.7818608E-02  0.3353719E+00
         11   -1    0    0    0    0  0.00000000000E+00  0.00000000000E+00  0.39999999674E+01  0.40000000000E+01  0.51100000000E-03 0.  1.
    9000002   -1    0    0    0    0 -0.00000000000E+00 -0.00000000000E+00  0.00000000000E+00  0.93800000000E+00  0.93800000000E+00 0. -1.
         11    1    1    2    0    0 -0.17042029338E-01  0.34245919178E-01  0.39447832755E+00  0.39632893633E+00  0.51100000000E-03 0.  1.
    9000002    1    1    2    0    0  0.15470831994E+00 -0.34137304487E+00  0.94458413321E-01  0.10145129925E+01  0.93800000000E+00 0. -1.
         22    1    1    2    0    0 -0.13766629060E+00  0.30712712570E+00  0.35110632265E+01  0.35271580712E+01  0.00000000000E+00 0.  1.
</event>
<event>
 5    1  0.5849602E+001  0.1599677E+01  0.7818608E-02  0.3353714E+00
         11   -1    0    0    0    0  0.00000000000E+00  0.00000000000E+00  0.39999999674E+01  0.40000000000E+01  0.51100000000E-03 0. -1.
    9000002   -1    0    0    0    0 -0.00000000000E+00 -0.00000000000E+00  0.00000000000E+00  0.93800000000E+00  0.93800000000E+00 0.  1.
         11    1    1    2    0    0  0.57001554812E-01 -0.19217015779E+00  0.13492786503E+01  0.13640863917E+01  0.51100000000E-03 0. -1.
    9000002    1    1    2    0    0 -0.16068572083E+00  0.53897757625E+00  0.21900391568E+00  0.11154028168E+01  0.93800000000E+00 0.  1.
         22    1    1    2    0    0  0.10368416602E+00 -0.34680741846E+00  0.24317174014E+01  0.24585107915E+01  0.00000000000E+00 0. -1.
</event>
<event>
 5    1  0.5849602E+001  0.1599669E+01  0.7818608E-02  0.3353722E+00
         11   -1    0    0    0    0  0.00000000000E+00  0.00000000000E+00  0.39999999674E+01  0.40000000000E+01  0.51100000000E-03 0.  1.
    9000002   -1    0    0    0    0 -0.00000000000E+00 -0.00000000000E+00  0.00000000000E+00  0.93800000000E+00  0.93800000000E+00 0. -1.
         11    1    1    2    0    0  0.76473529383E-01 -0.11737322381E+00  0.14441410113E+01  0.14509197759E+01  0.51100000000E-03 0.  1.
    9000002    1    1    2    0    0 -0.20637059926E+00  0.30887215282E+00  0.92757446019E-01  0.10131331476E+01  0.93800000000E+00 0. -1.
         22    1    1    2    0    0  0.12989706988E+00 -0.19149892902E+00  0.24631015100E+01  0.24739470765E+01  0.00000000000E+00 0.  1.
</event>
<event>
 5    1  0.5849602E+001  0.1598112E+01  0.7818608E-02  0.3355415E+00
         11   -1    0    0    0    0  0.00000000000E+00  0.00000000000E+00  0.39999999674E+01  0.40000000000E+01  0.51100000000E-03 0. -1.
    9000002   -1    0    0    0    0 -0.00000000000E+00 -0.00000000000E+00  0.00000000000E+00  0.93800000000E+00  0.93800000000E+00 0. -1.
         11    1    1    2    0    0  0.52738245321E-01 -0.90035996240E-01  0.66362846952E+00  0.67178181712E+00  0.51100000000E-03 0. -1.
    9000002    1    1    2    0    0 -0.21280413174E+00  0.33950652147E+00  0.10960792824E+00  0.10258694725E+01  0.93800000000E+00 0. -1.
         22    1    1    2    0    0  0.16006588642E+00 -0.24947052523E+00  0.32267635696E+01  0.32403487104E+01  0.00000000000E+00 0. -1.
</event>
<event>
 5    1  0.5849602E+001  0.1589494E+01  0.7818608E-02  0.3364846E+00
         11   -1    0    0    0    0  0.00000000000E+00  0.00000000000E+00  0.39999999674E+01  0.40000000000E+01  0.51100000000E-03 0.  1.
    9000002   -1    0    0    0    0 -0.00000000000E+00 -0.00000000000E+00  0.00000000000E+00  0.93800000000E+00  0.93800000000E+00 0.  1.
         11    1    1    2    0    0  0.15816689906E+00 -0.24554654471E+00  0.12642293687E+01  0.12975307439E+01  0.51100000000E-03 0.  1.
    9000002    1    1    2    0    0 -0.32563123834E+00  0.42263775984E+00  0.20553346133E+00  0.10985200877E+01  0.93800000000E+00 0.  1.
         22    1    1    2    0    0  0.16746433928E+00 -0.17709121513E+00  0.25302371373E+01  0.25419491683E+01  0.00000000000E+00 0.  1.
</event>
<event>
 5    1  0.5849602E+001  0.1599638E+01  0.7818608E-02  0.3353757E+00
         11   -1    0    0    0    0  0.00000000000E+00  0.00000000000E+00  0.39999999674E+01  0.40000000000E+01  0.51100000000E-03 0.  1.
    9000002   -1    0    0    0    0 -0.00000000000E+00 -0.00000000000E+00  0.00000000000E+00  0.93800000000E+00  0.93800000000E+00 0. -1.
         11    1    1    2    0    0  0.67184433738E-01  0.91211120316E-01  0.10620231828E+01  0.10680480881E+01  0.51100000000E-03 0.  1.
    9000002    1    1    2    0    0 -0.25522092403E+00 -0.35478086232E+00  0.12951925167E+00  0.10428932912E+01  0.93800000000E+00 0. -1.
         22    1    1    2    0    0  0.18803649029E+00  0.26356974200E+00  0.28084575329E+01  0.28270586207E+01  0.00000000000E+00 0.  1.
</event>
<event>
 5    1  0.5849602E+001  0.1597905E+01  0.7818608E-02  0.3355641E+00
         11   -1    0    0    0    0  0.00000000000E+00  0.00000000000E+00  0.39999999674E+01  0.40000000000E+01  0.51100000000E-03 0. -1.
    9000002   -1    0    0    0    0 -0.00000000000E+00 -0.00000000000E+00  0.00000000000E+00  0.93800000000E+00  0.93800000000E+00 0. -1.
         11    1    1    2    0    0  0.45695162936E-01  0.73349164439E-01  0.10762753012E+01  0.10797392893E+01  0.51100000000E-03 0. -1.
    9000002    1    1    2    0    0 -0.29685055936E+00 -0.16650831829E+00  0.79014400447E-01  0.10009658087E+01  0.93800000000E+00 0. -1.
         22    1    1    2    0    0  0.25115539643E+00  0.93159153850E-01  0.28447102657E+01  0.28572949020E+01  0.00000000000E+00 0.  1.
</event>
<event>
 5    1  0.5849602E+001  0.1599663E+01  0.7818608E-02  0.3353730E+00
         11   -1    0    0    0    0  0.00000000000E+00  0.00000000000E+00  0.39999999674E+01  0.40000000000E+01  0.51100000000E-03 0. -1.
    9000002   -1    0    0    0    0 -0.00000000000E+00 -0.00000000000E+00  0.00000000000E+00  0.93800000000E+00  0.93800000000E+00 0.  1.
         11    1    1    2    0    0 -0.31392529571E-01  0.42382529269E-01  0.51641851475E+00  0.51910510805E+00  0.51100000000E-03 0. -1.
    9000002    1    1    2    0    0  0.25863985011E+00 -0.32411149043E+00  0.11621404923E+00  0.10321300962E+01  0.93800000000E+00 0.  1.
         22    1    1    2    0    0 -0.22724732054E+00  0.28172896116E+00  0.33673674034E+01  0.33867647957E+01  0.00000000000E+00 0. -1.
</event>
<event>
 5    1  0.5849602E+001  0.1483634E+01  0.7818608E-02  0.3490231E+00
         11   -1    0    0    0    0  0.00000000000E+00  0.00000000000E+00  0.39999999674E+01  0.40000000000E+01  0.51100000000E-03 0. -1.
    9000002   -1    0    0    0    0 -0.00000000000E+00 -0.00000000000E+00  0.00000000000E+00  0.93800000000E+00  0.93800000000E+00 0.  1.
         11    1    1    2    0    0 -0.52178128076E-01  0.27301682704E+00  0.57527797371E+00  0.63890981606E+00  0.51100000000E-03 0. -1.
    9000002    1    1    2    0    0 -0.83477379325E-01  0.10164028432E+00  0.10210258591E+00  0.95266371732E+00  0.93800000000E+00 0.  1.
         22    1    1    2    0    0  0.13565550740E+00 -0.37465711136E+00  0.33226194077E+01  0.33464264666E+01  0.00000000000E+00 0. -1.
</event>
<event>
 5    1  0.5849602E+001  0.1599145E+01  0.7818608E-02  0.3354292E+00
         11   -1    0    0    0    0  0.00000000000E+00  0.00000000000E+00  0.39999999674E+01  0.40000000000E+01  0.51100000000E-03 0. -1.
    9000002   -1    0    0    0    0 -0.00000000000E+00 -0.00000000000E+00  0.00000000000E+00  0.93800000000E+00  0.93800000000E+00 0. -1.
         11    1    1    2    0    0  0.97386086189E-03  0.46276469429E-03  0.17398319874E-02  0.21096664393E-02  0.51100000000E-03 0. -1.
    9000002    1    1    2    0    0  0.21671856528E+00 -0.33206685510E+00  0.10645298424E+00  0.10239197091E+01  0.93800000000E+00 0. -1.
         22    1    1    2    0    0 -0.21769242614E+00  0.33160409040E+00  0.38918071511E+01  0.39119706245E+01  0.00000000000E+00 0. -1.
</event>
<event>
 5    1  0.5849602E+001  0.1595198E+01  0.7818608E-02  0.3358592E+00
         11   -1    0    0    0    0  0.00000000000E+00  0.00000000000E+00  0.39999999674E+01  0.40000000000E+01  0.51100000000E-03 0. -1.
    9000002   -1    0    0    0    0 -0.00000000000E+00 -0.00000000000E+00  0.00000000000E+00  0.93800000000E+00  0.93800000000E+00 0.  1.
         11    1    1    2    0    0  0.53493996679E-01 -0.14698860023E+00  0.10150086622E+01  0.10269907993E+01  0.51100000000E-03 0. -1.
    9000002    1    1    2    0    0  0.66168655129E-01  0.53525632026E+00  0.20470392562E+00  0.11011926791E+01  0.93800000000E+00 0.  1.
         22    1    1    2    0    0 -0.11966265181E+00 -0.38826772003E+00  0.27802873795E+01  0.28098165216E+01  0.00000000000E+00 0. -1.
</event>
<event>
 5    1  0.5849602E+001  0.1599677E+01  0.7818608E-02  0.3353714E+00
         11   -1    0    0    0    0  0.00000000000E+00  0.00000000000E+00  0.39999999674E+01  0.40000000000E+01  0.51100000000E-03 0.  1.
    9000002   -1    0    0    0    0 -0.00000000000E+00 -0.00000000000E+00  0.00000000000E+00  0.93800000000E+00  0.93800000000E+00 0. -1.
         11    1    1    2    0    0  0.72436162099E-01  0.44250404457E-01  0.58661270096E+00  0.59272237846E+00  0.51100000000E-03 0. -1.
    9000002    1    1    2    0    0 -0.46763844759E+00 -0.28510338877E+00  0.20709911059E+00  0.11057593326E+01  0.93800000000E+00 0. -1.
         22    1    1    2    0    0  0.39520228549E+00  0.24085298431E+00  0.32062881558E+01  0.32395182890E+01  0.00000000000E+00 0.  1.
</event>
<event>
 5    1  0.6235910E+001  0.1587511E+01  0.7818608E-02  0.3367031E+00
         11   -1    0    0    0    0  0.00000000000E+00  0.00000000000E+00  0.39999999674E+01  0.40000000000E+01  0.51100000000E-03 0. -1.
    9000002   -1    0    0    0    0 -0.00000000000E+00 -0.00000000000E+00  0.00000000000E+00  0.93800000000E+00  0.93800000000E+00 0.  1.
         11    1    1    2    0    0 -0.35218788314E-01 -0.52235429922E-01  0.93234419439E+00  0.93447036396E+00  0.51100000000E-03 0. -1.
    9000002    1    1    2    0    0 -0.79237760347E-01 -0.19821922733E+00  0.39411590114E-01  0.96279112905E+00  0.93800000000E+00 0.  1.
         22    1    1    2    0    0  0.11445654866E+00  0.25045465725E+00  0.30282441829E+01  0.30407385070E+01  0.00000000000E+00 0. -1.
</event>
<event>
 5    1  0.5849602E+001  0.1597065E+01  0.7818608E-02  0.3356555E+00
         11   -1    0    0    0    0  0.00000000000E+00  0.00000000000E+00  0.39999999674E+01  0.40000000000E+01  0.51100000000E-03 0.  1.
    9000002   -1    0    0    0    0 -0.00000000000E+00 -0.00000000000E+00  0.00000000000E+00  0.93800000000E+00  0.93800000000E+00 0.  1.
         11    1    1    2    0    0 -0.21588002944E-01  0.28636083922E-02  0.44524755736E+00  0.44578009218E+00  0.51100000000E-03 0.  1.
    9000002    1    1    2    0    0  0.25642978754E+00  0.31063155507E+00  0.11165942624E+00  0.10269177311E+01  0.93800000000E+00 0.  1.
         22    1    1    2    0    0 -0.23484178460E+00 -0.31349516346E+00  0.34430929838E+01  0.34653021767E+01  0.00000000000E+00 0.  1.
</event>
<event>
 5    1  0.5849602E+001  0.1599677E+01  0.7818608E-02  0.3353715E+00
         11   -1    0    0    0    0  0.00000000000E+00  0.00000000000E+00  0.39999999674E+01  0.40000000000E+01  0.51100000000E-03 0.  1.
    9000002   -1    0    0    0    0 -0.00000000000E+00 -0.00000000000E+00  0.00000000000E+00  0.93800000000E+00  0.93800000000E+00 0.  1.
         11    1    1    2    0    0 -0.17534841188E+00  0.62989289107E-01  0.12936570497E+01  0.13070055621E+01  0.51100000000E-03 0.  1.
    9000002    1    1    2    0    0  0.51603560464E+00 -0.18581415453E+00  0.20771662687E+00  0.11062593920E+01  0.93800000000E+00 0.  1.
         22    1    1    2    0    0 -0.34068719276E+00  0.12282486542E+00  0.24986262908E+01  0.25247350459E+01  0.00000000000E+00 0.  1.
</event>
<event>
 5    1  0.5849602E+001  0.1558020E+01  0.7818608E-02  0.3400227E+00
         11   -1    0    0    0    0  0.00000000000E+00  0.00000000000E+00  0.39999999674E+01  0.40000000000E+01  0.51100000000E-03 0. -1.
    9000002   -1    0    0    0    0 -0.00000000000E+00 -0.00000000000E+00  0.00000000000E+00  0.93800000000E+00  0.93800000000E+00 0.  1.
         11    1    1    2    0    0 -0.71511582309E-01  0.11699726583E+00  0.13737346758E+01  0.13805612943E+01  0.51100000000E-03 0. -1.
    9000002    1    1    2    0    0 -0.32326738835E+00  0.76386519996E-01  0.10780598992E+00  0.10009010122E+01  0.93800000000E+00 0.  1.
         22    1    1    2    0    0  0.39477897066E+00 -0.19338378583E+00  0.25184593016E+01  0.25565376935E+01  0.00000000000E+00 0.  1.
</event>
<event>
 5    1  0.5849602E+001  0.1599647E+01  0.7818608E-02  0.3353746E+00
         11   -1    0    0    0    0  0.00000000000E+00  0.00000000000E+00  0.39999999674E+01  0.40000000000E+01  0.51100000000E-03 0.  1.
    9000002   -1    0    0    0    0 -0.00000000000E+00 -0.00000000000E+00  0.00000000000E+00  0.93800000000E+00  0.93800000000E+00 0. -1.
         11    1    1    2    0    0 -0.53956725298E-01 -0.13915108590E+00  0.10230520029E+01  0.10338810447E+01  0.51100000000E-03 0.  1.
    9000002    1    1    2    0    0  0.18089295857E+00  0.50733081304E+00  0.19997808245E+00  0.10999736587E+01  0.93800000000E+00 0. -1.
         22    1    1    2    0    0 -0.12693623327E+00 -0.36817972713E+00  0.27769698820E+01  0.28041452966E+01  0.00000000000E+00 0. -1.
</event>
<event>
 5    1  0.5849602E+001  0.1599665E+01  0.7818608E-02  0.3353727E+00
         11   -1    0    0    0    0  0.00000000000E+00  0.00000000000E+00  0.39999999674E+01  0.40000000000E+01  0.51100000000E-03 0.  1.
    9000002   -1    0    0    0    0 -0.00000000000E+00 -0.00000000000E+00  0.00000000000E+00  0.93800000000E+00  0.93800000000E+00 0. -1.
         11    1    1    2    0    0 -0.49533548263E-01 -0.22098699577E-01  0.55107342389E+00  0.55373649380E+00  0.51100000000E-03 0.  1.
    9000002    1    1    2    0    0  0.36992954369E+00  0.15577286077E+00  0.10870311628E+00  0.10260474740E+01  0.93800000000E+00 0. -1.
         22    1    1    2    0    0 -0.32039599543E+00 -0.13367416119E+00  0.33402234272E+01  0.33582160322E+01  0.00000000000E+00 0.  1.
</event>
<event>
 5    1  0.5849602E+001  0.1595551E+01  0.7818608E-02  0.3358207E+00
         11   -1    0    0    0    0  0.00000000000E+00  0.00000000000E+00  0.39999999674E+01  0.40000000000E+01  0.51100000000E-03 0. -1.
    9000002   -1    0    0    0    0 -0.00000000000E+00 -0.00000000000E+00  0.00000000000E+00  0.93800000000E+00  0.93800000000E+00 0.  1.
         11    1    1    2    0    0 -0.32068318006E-01  0.21253927516E-01  0.13787363967E+00  0.14314156661E+00  0.51100000000E-03 0. -1.
    9000002    1    1    2    0    0  0.39752911522E+00  0.39665101000E-01  0.11108827540E+00  0.10255668299E+01  0.93800000000E+00 0.  1.
         22    1    1    2    0    0 -0.36546079721E+00 -0.60919028517E-01  0.37510380523E+01  0.37692916035E+01  0.00000000000E+00 0. -1.
</event>
<event>
 5    1  0.5849602E+001  0.1599672E+01  0.7818608E-02  0.3353720E+00
         11   -1    0    0    0    0  0.00000000000E+00  0.00000000000E+00  0.39999999674E+01  0.40000000000E+01  0.51100000000E-03 0.  1.
    9000002   -1    0    0    0    0 -0.00000000000E+00 -0.00000000000E+00  0.00000000000E+00  0.93800000000E+00  0.93800000000E+00 0. -1.
         11    1    1    2    0    0  0.58981912985E-01 -0.15866112596E-01  0.63218494244E+00  0.63512885477E+00  0.51100000000E-03 0.  1.
    9000002    1    1    2    0    0 -0.36844847491E+00  0.86069731269E-01  0.96310856615E-01  0.10160128239E+01  0.93800000000E+00 0. -1.
         22    1    1    2    0    0  0.30946656193E+00 -0.70203618674E-01  0.32715041683E+01  0.32868583213E+01  0.00000000000E+00 0.  1.
</event>
<event>
 5    1  0.5849602E+001  0.1599668E+01  0.7818608E-02  0.3353724E+00
         11   -1    0    0    0    0  0.00000000000E+00  0.00000000000E+00  0.39999999674E+01  0.40000000000E+01  0.51100000000E-03 0. -1.
    9000002   -1    0    0    0    0 -0.00000000000E+00 -0.00000000000E+00  0.00000000000E+00  0.93800000000E+00  0.93800000000E+00 0.  1.
         11    1    1    2    0    0  0.55635658854E-01 -0.24806121416E-01  0.61634429860E+00  0.61934741925E+00  0.51100000000E-03 0. -1.
    9000002    1    1    2    0    0 -0.34156631012E+00  0.16962261870E+00  0.97881026924E-01  0.10172826905E+01  0.93800000000E+00 0.  1.
         22    1    1    2    0    0  0.28593065127E+00 -0.14481649728E+00  0.32857746418E+01  0.33013698902E+01  0.00000000000E+00 0. -1.
</event>
<event>
 5    1  0.5849602E+001  0.1599579E+01  0.7818608E-02  0.3353821E+00
         11   -1    0    0    0    0  0.00000000000E+00  0.00000000000E+00  0.39999999674E+01  0.40000000000E+01  0.51100000000E-03 0.  1.
    9000002   -1    0    0    0    0 -0.00000000000E+00 -0.00000000000E+00  0.00000000000E+00  0.93800000000E+00  0.93800000000E+00 0. -1.
         11    1    1    2    0    0  0.82430042246E-01 -0.32368830792E-02  0.80903002661E+00  0.81322508222E+00  0.51100000000E-03 0.  1.
    9000002    1    1    2    0    0 -0.37545750854E+00 -0.25368311122E-01  0.95320422777E-01  0.10151560840E+01  0.93800000000E+00 0. -1.
         22    1    1    2    0    0  0.29302746629E+00  0.28605194201E-01  0.30956495180E+01  0.31096188338E+01  0.00000000000E+00 0.  1.
</event>
<event>
 5    1  0.5849602E+001  0.1599601E+01  0.7818608E-02  0.3353797E+00
         11   -1    0    0    0    0  0.00000000000E+00  0.00000000000E+00  0.39999999674E+01  0.40000000000E+01  0.51100000000E-03 0.  1.
    9000002   -1    0    0    0    0 -0.00000000000E+00 -0.00000000000E+00  0.00000000000E+00  0.93800000000E+00  0.93800000000E+00 0. -1.
         11    1    1    2    0    0  0.19747724923E+00 -0.72337749819E-01  0.11931935899E+01  0.12115862405E+01  0.51100000000E-03 0.  1.
    9000002    1    1    2    0    0 -0.61518755177E+00  0.25352779242E+00  0.31367060780E+00  0.11920424974E+01  0.93800000000E+00 0. -1.
         22    1    1    2    0    0  0.41771030254E+00 -0.18119004260E+00  0.24931357696E+01  0.25343712621E+01  0.00000000000E+00 0.  1.
</event>
<event>
 5    1  0.5849602E+001  0.1599670E+01  0.7818608E-02  0.3353722E+00
         11   -1    0    0    0    0  0.00000000000E+00  0.00000000000E+00  0.39999999674E+01  0.40000000000E+01  0.51100000000E-03 0.  1.
    9000002   -1    0    0    0    0 -0.00000000000E+00 -0.00000000000E+00  0.00000000000E+00  0.93800000000E+00  0.93800000000E+00 0. -1.
         11    1    1    2    0    0  0.21262035917E+00  0.66053224821E-01  0.14753607220E+01  0.14920656711E+01  0.51100000000E-03 0.  1.
    9000002    1    1    2    0    0 -0.54006052015E+00 -0.16249194003E+00  0.22029111729E+00  0.11164412982E+01  0.93800000000E+00 0. -1.
         22    1    1    2    0    0  0.32744016099E+00  0.96438715211E-01  0.23043481280E+01  0.23294930307E+01  0.00000000000E+00 0.  1.
</event>
<event>
 5    1  0.6577035E+001  0.1597854E+01  0.7818608E-02  0.3355696E+00
         11   -1    0    0    0    0  0.00000000000E+00  0.00000000000E+00  0.39999999674E+01  0.40000000000E+01  0.51100000000E-03 0. -1.
    9000002   -1    0    0    0    0 -0.00000000000E+00 -0.00000000000E+00  0.00000000000E+00  0.93800000000E+00  0.93800000000E+00 0. -1.
         11    1    1    2    0    0  0.35160400197E-01  0.37384995690E-01  0.11577533551E+01  0.11588904107E+01  0.51100000000E-03 0. -1.
    9000002    1    1    2    0    0 -0.26683620843E+00 -0.18684465593E+00  0.72415086302E-01  0.99559049428E+00  0.93800000000E+00 0. -1.
         22    1    1    2    0    0  0.23167580823E+00  0.14945966024E+00  0.27698315260E+01  0.27835190951E+01  0.00000000000E+00 0. -1.
</event>
<event>
 5    1  0.5849602E+001  0.1599666E+01  0.7818608E-02  0.3353726E+00
         11   -1    0    0    0    0  0.00000000000E+00  0.00000000000E+00  0.39999999674E+01  0.40000000000E+01  0.51100000000E-03 0. -1.
    9000002   -1    0    0    0    0 -0.00000000000E+00 -0.00000000000E+00  0.00000000000E+00  0.93800000000E+00  0.93800000000E+00 0. -1.
         11    1    1    2    0    0  0.12756879081E+00  0.49099323764E-01  0.13881144314E+01  0.13948284754E+01  0.51100000000E-03 0. -1.
    9000002    1    1    2    0    0 -0.35298456068E+00 -0.14722307993E+00  0.98456644825E-01  0.10177477321E+01  0.93800000000E+00 0. -1.
         22    1    1    2    0    0  0.22541576987E+00  0.98123756164E-01  0.25134288911E+01  0.25254237924E+01  0.00000000000E+00 0.  1.
</event>
<event>
 5    1  0.5849602E+001  0.1599672E+01  0.7818608E-02  0.3353720E+00
         11   -1    0    0    0    0  0.00000000000E+00  0.00000000000E+00  0.39999999674E+01  0.40000000000E+01  0.51100000000E-03 0.  1.
    9000002   -1    0    0    0    0 -0.00000000000E+00 -0.00000000000E+00  0.00000000000E+00  0.93800000000E+00  0.93800000000E+00 0. -1.
         11    1    1    2    0    0  0.72277075744E-01  0.12689659607E+00  0.14810999532E+01  0.14882822495E+01  0.51100000000E-03 0.  1.
    9000002    1    1    2    0    0 -0.18819575586E+00 -0.34089684775E+00  0.10214385838E+00  0.10207378072E+01  0.93800000000E+00 0. -1.
         22    1    1    2    0    0  0.11591868011E+00  0.21400025168E+00  0.24167561558E+01  0.24289799433E+01  0.00000000000E+00 0.  1.
</event>
<event>
 5    1  0.5849602E+001  0.1599673E+01  0.7818608E-02  0.3353719E+00
         11   -1    0    0    0    0  0.00000000000E+00  0.00000000000E+00  0.39999999674E+01  0.40000000000E+01  0.51100000000E-03 0. -1.
    9000002   -1    0    0    0    0 -0.00000000000E+00 -0.00000000000E+00  0.00000000000E+00  0.93800000000E+00  0.93800000000E+00 0. -1.
         11    1    1    2    0    0  0.10205735791E+00  0.41449871258E-01  0.95396315399E+00  0.96030190899E+00  0.51100000000E-03 0. -1.
    9000002    1    1    2    0    0 -0.40855277160E+00 -0.17524371139E+00  0.13412109127E+00  0.10466413869E+01  0.93800000000E+00 0. -1.
         22    1    1    2    0    0  0.30649541369E+00  0.13379384013E+00  0.29119157221E+01  0.29310567041E+01  0.00000000000E+00 0. -1.
</event>
<event>
 5    1  0.5849602E+001  0.1584383E+01  0.7818608E-02  0.3370490E+00
         11   -1    0    0    0    0  0.00000000000E+00  0.00000000000E+00  0.39999999674E+01  0.40000000000E+01  0.51100000000E-03 0. -1.
    9000002   -1    0    0    0    0 -0.00000000000E+00 -0.00000000000E+00  0.00000000000E+00  0.93800000000E+00  0.93800000000E+00 0. -1.
         11    1    1    2    0    0  0.14880254257E+00  0.13444155174E+00  0.14692346828E+01  0.14828578967E+01  0.51100000000E-03 0. -1.
    9000002    1    1    2    0    0 -0.33034762382E+00  0.20168352799E-01  0.85573340743E-01  0.99835019490E+00  0.93800000000E+00 0. -1.
         22    1    1    2    0    0  0.18154508125E+00 -0.15460990453E+00  0.24451919438E+01  0.24567919084E+01  0.00000000000E+00 0. -1.
</event>
<event>
 5    1  0.5849602E+001  0.1599650E+01  0.7818608E-02  0.3353743E+00
         11   -1    0    0    0    0  0.00000000000E+00  0.00000000000E+00  0.39999999674E+01  0.40000000000E+01  0.51100000000E-03 0.  1.
    9000002   -1    0    0    0    0 -0.00000000000E+00 -0.00000000000E+00  0.00000000000E+00  0.93800000000E+00  0.93800000000E+00 0.  1.
         11    1    1    2    0    0  0.34864294743E-01 -0.96946164094E-01  0.10072391497E+01  0.10124944659E+01  0.51100000000E-03 0.  1.
    9000002    1    1    2    0    0 -0.15036890374E+00  0.36063299595E+00  0.10287838737E+00  0.10213201886E+01  0.93800000000E+00 0.  1.
         22    1    1    2    0    0  0.11550460900E+00 -0.26368683186E+00  0.28898824303E+01  0.29041853455E+01  0.00000000000E+00 0.  1.
</event>
<event>
 5    1  0.5849602E+001  0.1599676E+01  0.7818608E-02  0.3353715E+00
         11   -1    0    0    0    0  0.00000000000E+00  0.00000000000E+00  0.39999999674E+01  0.40000000000E+01  0.51100000000E-03 0.  1.
    9000002   -1    0    0    0    0 -0.00000000000E+00 -0.00000000000E+00  0.00000000000E+00  0.93800000000E+00  0.93800000000E+00 0.  1.
         11    1    1    2    0    0 -0.28865455464E+00 -0.15582485183E+00  0.13687575045E+01  0.14075156140E+01  0.51100000000E-03 0.  1.
    9000002    1    1    2    0    0  0.73593455139E+00  0.39627750063E+00  0.52119909726E+00  0.13601941113E+01  0.93800000000E+00 0.  1.
         22    1    1    2    0    0 -0.44727999676E+00 -0.24045264880E+00  0.21100433656E+01  0.21702902747E+01  0.00000000000E+00 0.  1.
</event>
<event>
 5    1  0.5849602E+001  0.1565728E+01  0.7818608E-02  0.3391422E+00
         11   -1    0    0    0    0  0.00000000000E+00  0.00000000000E+00  0.39999999674E+01  0.40000000000E+01  0.51100000000E-03 0.  1.
    9000002   -1    0    0    0    0 -0.00000000000E+00 -0.00000000000E+00  0.00000000000E+00  0.93800000000E+00  0.93800000000E+00 0.  1.
         11    1    1    2    0    0  0.40004596748E-01 -0.83350820459E-01  0.10606454229E+00  0.14070421204E+00  0.51100000000E-03 0.  1.
    9000002    1    1    2    0    0 -0.13569294371E+00  0.43523154976E+00  0.17136286235E+00  0.10569050608E+01  0.93800000000E+00 0.  1.
         22    1    1    2    0    0  0.95688346964E-01 -0.35188072931E+00  0.37225725627E+01  0.37403907272E+01  0.00000000000E+00 0.  1.
</event>
<event>
 5    1  0.5849602E+001  0.1599551E+01  0.7818608E-02  0.3353850E+00
         11   -1    0    0    0    0  0.00000000000E+00  0.00000000000E+00  0.39999999674E+01  0.40000000000E+01  0.51100000000E-03 0.  1.
    9000002   -1    0    0    0    0 -0.00000000000E+00 -0.00000000000E+00  0.00000000000E+00  0.93800000000E+00  0.93800000000E+00 0.  1.
         11    1    1    2    0    0 -0.84200570014E-01  0.42874525740E-01  0.87206583888E+00  0.87716990908E+00  0.51100000000E-03 0.  1.
    9000002    1    1    2    0    0  0.34143974506E+00 -0.15617461089E+00  0.94902429280E-01  0.10148014977E+01  0.93800000000E+00 0.  1.
         22    1    1    2    0    0 -0.25723917505E+00  0.11330008515E+00  0.30330316992E+01  0.30460285932E+01  0.00000000000E+00 0.  1.
</event>
<event>
 5    1  0.5849602E+001  0.1599547E+01  0.7818608E-02  0.3353855E+00
         11   -1    0    0    0    0  0.00000000000E+00  0.00000000000E+00  0.39999999674E+01  0.40000000000E+01  0.51100000000E-03 0.  1.
    9000002   -1    0    0    0    0 -0.00000000000E+00 -0.00000000000E+00  0.00000000000E+00  0.93800000000E+00  0.93800000000E+00 0. -1.
         11    1    1    2    0    0 -0.12948050682E-01 -0.44194067031E-01  0.40703819228E+00  0.40963534841E+00  0.51100000000E-03 0.  1.
    9000002    1    1    2    0    0  0.13082205205E+00  0.49410924596E+00  0.17930318480E+00  0.10831675717E+01  0.93800000000E+00 0. -1.
         22    1    1    2    0    0 -0.11787400137E+00 -0.44991517893E+00  0.34136585903E+01  0.34451970799E+01  0.00000000000E+00 0.  1.
</event>
<event>
 5    1  0.5849602E+001  0.1521211E+01  0.7818608E-02  0.3443584E+00
         11   -1    0    0    0    0  0.00000000000E+00  0.00000000000E+00  0.39999999674E+01  0.40000000000E+01  0.51100000000E-03 0. -1.
    9000002   -1    0    0    0    0 -0.00000000000E+00 -0.00000000000E+00  0.00000000000E+00  0.93800000000E+00  0.93800000000E+00 0.  1.
         11    1    1    2    0    0 -0.22645950125E+00 -0.18168518116E+00  0.12946904962E+01  0.13268448111E+01  0.51100000000E-03 0. -1.
    9000002    1    1    2    0    0 -0.14880168335E+00  0.74379963024E-01  0.78895514139E-01  0.95589896015E+00  0.93800000000E+00 0.  1.
         22    1    1    2    0    0  0.37526118459E+00  0.10730521814E+00  0.26264139571E+01  0.26552562288E+01  0.00000000000E+00 0.  1.
</event>
<event>
 5    1  0.5849602E+001  0.1583965E+01  0.7818608E-02  0.3370954E+00
         11   -1    0    0    0    0  0.00000000000E+00  0.00000000000E+00  0.39999999674E+01  0.40000000000E+01  0.51100000000E-03 0.  1.
    9000002   -1    0    0    0    0 -0.00000000000E+00 -0.00000000000E+00  0.00000000000E+00  0.93800000000E+00  0.93800000000E+00 0.  1.
         11    1    1    2    0    0 -0.12985404445E+00 -0.88444539407E-01  0.11489482008E+01  0.11596407801E+01  0.51100000000E-03 0.  1.
    9000002    1    1    2    0    0  0.66679827695E+00 -0.87682400702E-01  0.33815186996E+00  0.12027047986E+01  0.93800000000E+00 0.  1.
         22    1    1    2    0    0 -0.53694423250E+00  0.17612694011E+00  0.25128998966E+01  0.25756544213E+01  0.00000000000E+00 0.  1.
</event>
<event>
 5    1  0.5849602E+001  0.1599656E+01  0.7818608E-02  0.3353736E+00
         11   -1    0    0    0    0  0.00000000000E+00  0.00000000000E+00  0.39999999674E+01  0.40000000000E+01  0.51100000000E-03 0. -1.
    9000002   -1    0    0    0    0 -0.00000000000E+00 -0.00000000000E+00  0.00000000000E+00  0.93800000000E+00  0.93800000000E+00 0.  1.
         11    1    1    2    0    0  0.12035905436E+00  0.28110419575E-01  0.13254313032E+01  0.13311817675E+01  0.51100000000E-03 0. -1.
    9000002    1    1    2    0    0 -0.36267683076E+00 -0.69778617368E-01  0.91677998186E-01  0.10122511518E+01  0.93800000000E+00 0.  1.
         22    1    1    2    0    0  0.24231777640E+00  0.41668197793E-01  0.25828906660E+01  0.25945670806E+01  0.00000000000E+00 0. -1.
</event>
<event>
 5    1  0.5849602E+001  0.1598006E+01  0.7818608E-02  0.3355530E+00
         11   -1    0    0    0    0  0.00000000000E+00  0.00000000000E+00  0.39999999674E+01  0.40000000000E+01  0.51100000000E-03 0. -1.
    9000002   -1    0    0    0    0 -0.00000000000E+00 -0.00000000000E+00  0.00000000000E+00  0.93800000000E+00  0.93800000000E+00 0. -1.
         11    1    1    2    0    0  0.26439205642E-01 -0.14893919562E-02  0.88589829241E-01  0.92464419370E-01  0.51100000000E-03 0. -1.
    9000002    1    1    2    0    0 -0.49750476664E+00  0.18648683135E+00  0.19585183018E+00  0.10956688690E+01  0.93800000000E+00 0. -1.
         22    1    1    2    0    0  0.47106556100E+00 -0.18499743940E+00  0.37155583079E+01  0.37498667116E+01  0.00000000000E+00 0. -1.
</event>
<event>
 5    1  0.5849602E+001  0.1599676E+01  0.7818608E-02  0.3353715E+00
         11   -1    0    0    0    0  0.00000000000E+00  0.00000000000E+00  0.39999999674E+01  0.40000000000E+01  0.51100000000E-03 0. -1.
    9000002   -1    0    0    0    0 -0.00000000000E+00 -0.00000000000E+00  0.00000000000E+00  0.93800000000E+00  0.93800000000E+00 0. -1.
         11    1    1    2    0    0  0.16548329366E+00 -0.20274993189E+00  0.11138634569E+01  0.11441959260E+01  0.51100000000E-03 0. -1.
    9000002    1    1    2    0    0 -0.51659496552E+00  0.63871034154E+00  0.50081523676E+00  0.13436819416E+01  0.93800000000E+00 0. -1.
         22    1    1    2    0    0  0.35111167186E+00 -0.43596040965E+00  0.23853212737E+01  0.24501221324E+01  0.00000000000E+00 0. -1.
</event>
<event>
 5    1  0.5849602E+001  0.1595872E+01  0.7818608E-02  0.3357856E+00
         11   -1    0    0    0    0  0.00000000000E+00  0.00000000000E+00  0.39999999674E+01  0.40000000000E+01  0.51100000000E-03 0. -1.
    9000002   -1    0    0    0    0 -0.00000000000E+00 -0.00000000000E+00  0.00000000000E+00  0.93800000000E+00  0.93800000000E+00 0. -1.
         11    1    1    2    0    0  0.18148866705E+00  0.12765709844E+00  0.12160000752E+01  0.12360788466E+01  0.51100000000E-03 0. -1.
    9000002    1    1    2    0    0 -0.59004635718E+00 -0.18059807032E+00  0.27051731135E+00  0.11548999880E+01  0.93800000000E+00 0. -1.
         22    1    1    2    0    0  0.40855769014E+00  0.52940971876E-01  0.25134825808E+01  0.25470211654E+01  0.00000000000E+00 0. -1.
</event>
<event>
 5    1  0.5849602E+001  0.1599665E+01  0.7818608E-02  0.3353727E+00
         11   -1    0    0    0    0  0.00000000000E+00  0.00000000000E+00  0.39999999674E+01  0.40000000000E+01  0.51100000000E-03 0.  1.
    9000002   -1    0    0    0    0 -0.00000000000E+00 -0.00000000000E+00  0.00000000000E+00  0.93800000000E+00  0.93800000000E+00 0. -1.
         11    1    1    2    0    0 -0.16354831380E-01 -0.73092081856E-03  0.79057686128E-01  0.80736569233E-01  0.51100000000E-03 0. -1.
    9000002    1    1    2    0    0  0.70233490963E+00  0.30152663582E-01  0.35347829360E+00  0.12243261054E+01  0.93800000000E+00 0. -1.
         22    1    1    2    0    0 -0.68598007825E+00 -0.29421742764E-01  0.35674639876E+01  0.36329373253E+01  0.00000000000E+00 0.  1.
</event>
<event>
 5    1  0.5849602E+001  0.1599592E+01  0.7818608E-02  0.3353806E+00
         11   -1    0    0    0    0  0.00000000000E+00  0.00000000000E+00  0.39999999674E+01  0.40000000000E+01  0.51100000000E-03 0.  1.
    9000002   -1    0    0    0    0 -0.00000000000E+00 -0.00000000000E+00  0.00000000000E+00  0.93800000000E+00  0.93800000000E+00 0.  1.
         11    1    1    2    0    0 -0.19011052754E-01  0.17643134447E-01  0.18558562345E+00  0.18738992789E+00  0.51100000000E-03 0.  1.
    9000002    1    1    2    0    0  0.47217743768E+00 -0.31239699839E+00  0.22217483006E+00  0.11179217649E+01  0.93800000000E+00 0.  1.
         22    1    1    2    0    0 -0.45316638492E+00  0.29475386394E+00  0.35922395138E+01  0.36326883072E+01  0.00000000000E+00 0.  1.
</event>
<event>
 5    1  0.5849602E+001  0.1599677E+01  0.7818608E-02  0.3353714E+00
         11   -1    0    0    0    0  0.00000000000E+00  0.00000000000E+00  0.39999999674E+01  0.40000000000E+01  0.51100000000E-03 0. -1.
    9000002   -1    0    0    0    0 -0.00000000000E+00 -0.00000000000E+00  0.00000000000E+00  0.93800000000E+00  0.93800000000E+00 0. -1.
         11    1    1    2    0    0  0.37772320163E-01  0.12363537133E+00  0.81337184907E+00  0.82358149517E+00  0.51100000000E-03 0. -1.
    9000002    1    1    2    0    0 -0.17548787994E+00 -0.56945319129E+00  0.24751713503E+00  0.11384997432E+01  0.93800000000E+00 0. -1.
         22    1    1    2    0    0  0.13771555978E+00  0.44581781997E+00  0.29391109833E+01  0.29759187617E+01  0.00000000000E+00 0. -1.
</event>
<event>
 5    1  0.5849602E+001  0.1599662E+01  0.7818608E-02  0.3353731E+00
         11   -1    0    0    0    0  0.00000000000E+00  0.00000000000E+00  0.39999999674E+01  0.40000000000E+01  0.51100000000E-03 0.  1.
    9000002   -1    0    0    0    0 -0.00000000000E+00 -0.00000000000E+00  0.00000000000E+00  0.93800000000E+00  0.93800000000E+00 0. -1.
         11    1    1    2    0    0  0.60301539325E-01  0.91968903645E-01  0.11740059400E+01  0.11791457768E+01  0.51100000000E-03 0.  1.
    9000002    1    1    2    0    0 -0.21099262691E+00 -0.31569629731E+00  0.97020797397E-01  0.10165820557E+01  0.93800000000E+00 0.  1.
         22    1    1    2    0    0  0.15069108759E+00  0.22372739367E+00  0.27289732300E+01  0.27422721675E+01  0.00000000000E+00 0.  1.
</event>
<event>
 5    1  0.5957527E+001  0.1599651E+01  0.7818608E-02  0.3353742E+00
         11   -1    0    0    0    0  0.00000000000E+00  0.00000000000E+00  0.39999999674E+01  0.40000000000E+01  0.51100000000E-03 0. -1.
    9000002   -1    0    0    0    0 -0.00000000000E+00 -0.00000000000E+00  0.00000000000E+00  0.93800000000E+00  0.93800000000E+00 0.  1.
         11    1    1    2    0    0  0.21942850777E+00  0.77737362112E-02  0.14729534916E+01  0.14892285085E+01  0.51100000000E-03 0. -1.
    9000002    1    1    2    0    0 -0.57357723350E+00 -0.29780539402E-01  0.22895899947E+00  0.11234517999E+01  0.93800000000E+00 0.  1.
         22    1    1    2    0    0  0.35414872573E+00  0.22006803190E-01  0.22980874763E+01  0.23253196916E+01  0.00000000000E+00 0. -1.
</event>
<event>
 5    1  0.5849602E+001  0.1599601E+01  0.7818608E-02  0.3353797E+00
         11   -1    0    0    0    0  0.00000000000E+00  0.00000000000E+00  0.39999999674E+01  0.40000000000E+01  0.51100000000E-03 0.  1.
    9000002   -1    0    0    0    0 -0.00000000000E+00 -0.00000000000E+00  0.00000000000E+00  0.93800000000E+00  0.93800000000E+00 0. -1.
         11    1    1    2    0    0 -0.43774054558E-01  0.13722605334E+00  0.14397769453E+01  0.14469640876E+01  0.51100000000E-03 0.  1.
    9000002    1    1    2    0    0  0.13802620684E+00 -0.38918399491E+00  0.11527468867E+00  0.10313329576E+01  0.93800000000E+00 0. -1.
         22    1    1    2    0    0 -0.94252152279E-01  0.25195794157E+00  0.24449483334E+01  0.24597029548E+01  0.00000000000E+00 0.  1.
</event>
<event>
 5    1  0.5849602E+001  0.1597999E+01  0.7818608E-02  0.3355538E+00
         11   -1    0    0    0    0  0.00000000000E+00  0.00000000000E+00  0.39999999674E+01  0.40000000000E+01  0.51100000000E-03 0. -1.
    9000002   -1    0    0    0    0 -0.00000000000E+00 -0.00000000000E+00  0.00000000000E+00  0.93800000000E+00  0.93800000000E+00 0. -1.
         11    1    1    2    0    0  0.97653087320E-01 -0.87634043816E-01  0.92760107056E+00  0.93683502194E+00  0.51100000000E-03 0. -1.
    9000002    1    1    2    0    0 -0.38253057298E+00  0.19162755508E+00  0.12535776716E+00  0.10385611821E+01  0.93800000000E+00 0. -1.
         22    1    1    2    0    0  0.28487748566E+00 -0.10399351126E+00  0.29470411296E+01  0.29626037960E+01  0.00000000000E+00 0. -1.
</event>
<event>
 5    1  0.6617895E+001  0.1599671E+01  0.7818608E-02  0.3353721E+00
         11   -1    0    0    0    0  0.00000000000E+00  0.00000000000E+00  0.39999999674E+01  0.40000000000E+01  0.51100000000E-03 0. -1.
    9000002   -1    0    0    0    0 -0.00000000000E+00 -0.00000000000E+00  0.00000000000E+00  0.93800000000E+00  0.93800000000E+00 0.  1.
         11    1    1    2    0    0 -0.23046836045E-01 -0.13357444938E+00  0.14680141736E+01  0.14742588528E+01  0.51100000000E-03 0. -1.
    9000002    1    1    2    0    0  0.67265781392E-01  0.36103120056E+00  0.90612742647E-01  0.10113965010E+01  0.93800000000E+00 0.  1.
         22    1    1    2    0    0 -0.44218945347E-01 -0.22745675118E+00  0.24413730512E+01  0.24523446462E+01  0.00000000000E+00 0. -1.
</event>
<event>
 5    1  0.5849602E+001  0.1599251E+01  0.7818608E-02  0.3354177E+00
         11   -1    0    0    0    0  0.00000000000E+00  0.00000000000E+00  0.39999999674E+01  0.40000000000E+01  0.51100000000E-03 0. -1.
    9000002   -1    0    0    0    0 -0.00000000000E+00 -0.00000000000E+00  0.00000000000E+00  0.93800000000E+00  0.93800000000E+00 0. -1.
         11    1    1    2    0    0 -0.44690829152E-01 -0.97308057418E-01  0.76558237611E+00  0.77303477540E+00  0.51100000000E-03 0. -1.
    9000002    1    1    2    0    0  0.23833397632E+00  0.57102803181E+00  0.26866243438E+00  0.11553785531E+01  0.93800000000E+00 0. -1.
         22    1    1    2    0    0 -0.19364314717E+00 -0.47371997440E+00  0.29657551569E+01  0.30095866715E+01  0.00000000000E+00 0. -1.
</event>
<event>
 5    1  0.5849602E+001  0.1599650E+01  0.7818608E-02  0.3353744E+00
         11   -1    0    0    0    0  0.00000000000E+00  0.00000000000E+00  0.39999999674E+01  0.40000000000E+01  0.51100000000E-03 0.  1.
    9000002   -1    0    0    0    0 -0.00000000000E+00 -0.00000000000E+00  0.00000000000E+00  0.93800000000E+00  0.93800000000E+00 0. -1.
         11    1    1    2    0    0  0.68949194334E-01 -0.34711614590E-03  0.78621569000E+00  0.78923347890E+00  0.51100000000E-03 0.  1.
    9000002    1    1    2    0    0 -0.36143987876E+00 -0.15304266113E-01  0.87889850032E-01  0.10091786919E+01  0.93800000000E+00 0. -1.
         22    1    1    2    0    0  0.29249068443E+00  0.15651382259E-01  0.31258944273E+01  0.31395878292E+01  0.00000000000E+00 0. -1.
</event>
<event>
 5    1  0.5849602E+001  0.1599677E+01  0.7818608E-02  0.3353714E+00
         11   -1    0    0    0    0  0.00000000000E+00  0.00000000000E+00  0.39999999674E+01  0.40000000000E+01  0.51100000000E-03 0.  1.
    9000002   -1    0    0    0    0 -0.00000000000E+00 -0.00000000000E+00  0.00000000000E+00  0.93800000000E+00  0.93800000000E+00 0. -1.
         11    1    1    2    0    0  0.17377455891E+00 -0.44983549036E-01  0.11795865384E+01  0.11931662833E+01  0.51100000000E-03 0. -1.
    9000002    1    1    2    0    0 -0.55577969983E+00  0.14359397971E+00  0.22866434631E+00  0.11232282444E+01  0.93800000000E+00 0. -1.
         22    1    1    2    0    0  0.38200514092E+00 -0.98610430678E-01  0.25917490827E+01  0.26216054723E+01  0.00000000000E+00 0.  1.
</event>
<event>
 5    1  0.5849602E+001  0.1599439E+01  0.7818608E-02  0.3353972E+00
         11   -1    0    0    0    0  0.00000000000E+00  0.00000000000E+00  0.39999999674E+01  0.40000000000E+01  0.51100000000E-03 0.  1.
    9000002   -1    0    0    0    0 -0.00000000000E+00 -0.00000000000E+00  0.00000000000E+00  0.93800000000E+00  0.93800000000E+00 0.  1.
         11    1    1    2    0    0 -0.51312147602E-02 -0.21502759735E-01  0.32537395843E+00  0.32612447315E+00  0.51100000000E-03 0.  1.
    9000002    1    1    2    0    0  0.61977426741E-01  0.38101545291E+00  0.10053236321E+00  0.10192961948E+01  0.93800000000E+00 0.  1.
         22    1    1    2    0    0 -0.56846211980E-01 -0.35951269317E+00  0.35740936457E+01  0.35925793320E+01  0.00000000000E+00 0.  1.
</event>
<event>
 5    1  0.5849602E+001  0.1585959E+01  0.7818608E-02  0.3368745E+00
         11   -1    0    0    0    0  0.00000000000E+00  0.00000000000E+00  0.39999999674E+01  0.40000000000E+01  0.51100000000E-03 0.  1.
    9000002   -1    0    0    0    0 -0.00000000000E+00 -0.00000000000E+00  0.00000000000E+00  0.93800000000E+00  0.93800000000E+00 0.  1.
         11    1    1    2    0    0 -0.19582705439E+00 -0.87483909621E-01  0.67083393079E+00  0.70428693974E+00  0.51100000000E-03 0.  1.
    9000002    1    1    2    0    0  0.46509441192E+00  0.47623525889E+00  0.32874911408E+00  0.11962578375E+01  0.93800000000E+00 0.  1.
         22    1    1    2    0    0 -0.26926735753E+00 -0.38875134927E+00  0.30004169225E+01  0.30374552227E+01  0.00000000000E+00 0.  1.
</event>
<event>
 5    1  0.5849602E+001  0.1599554E+01  0.7818608E-02  0.3353848E+00
         11   -1    0    0    0    0  0.00000000000E+00  0.00000000000E+00  0.39999999674E+01  0.40000000000E+01  0.51100000000E-03 0. -1.
    9000002   -1    0    0    0    0 -0.00000000000E+00 -0.00000000000E+00  0.00000000000E+00  0.93800000000E+00  0.93800000000E+00 0.  1.
         11    1    1    2    0    0  0.99937659013E-01  0.12187126518E+00  0.12642397541E+01  0.12740261213E+01  0.51100000000E-03 0. -1.
    9000002    1    1    2    0    0 -0.26658728594E+00 -0.37451602257E+00  0.14384836879E+00  0.10544512248E+01  0.93800000000E+00 0.  1.
         22    1    1    2    0    0  0.16664962692E+00  0.25264475739E+00  0.25919118445E+01  0.26095226539E+01  0.00000000000E+00 0. -1.
</event>
<event>
 5    1  0.5849602E+001  0.1518890E+01  0.7818608E-02  0.3446394E+00
         11   -1    0    0    0    0  0.00000000000E+00  0.00000000000E+00  0.39999999674E+01  0.40000000000E+01  0.51100000000E-03 0.  1.
    9000002   -1    0    0    0    0 -0.00000000000E+00 -0.00000000000E+00  0.00000000000E+00  0.93800000000E+00  0.93800000000E+00 0. -1.
         11    1    1    2    0    0 -0.12661864303E+00  0.18376484452E+00  0.41709470786E+00  0.47304339683E+00  0.51100000000E-03 0.  1.
    9000002    1    1    2    0    0  0.29876694688E+00  0.11404673025E+00  0.13527217182E+00  0.10002054317E+01  0.93800000000E+00 0. -1.
         22    1    1    2    0    0 -0.17214830385E+00 -0.29781157476E+00  0.34476330877E+01  0.34647511714E+01  0.00000000000E+00 0.  1.
</event>
<event>
 5    1  0.5849602E+001  0.1599664E+01  0.7818608E-02  0.3353729E+00
         11   -1    0    0    0    0  0.00000000000E+00  0.00000000000E+00  0.39999999674E+01  0.40000000000E+01  0.51100000000E-03 0. -1.
    9000002   -1    0    0    0    0 -0.00000000000E+00 -0.00000000000E+00  0.00000000000E+00  0.93800000000E+00  0.93800000000E+00 0.  1.
         11    1    1    2    0    0 -0.22808246982E-01 -0.24097991864E-01  0.29515761068E+00  0.29701718066E+00  0.51100000000E-03 0. -1.
    9000002    1    1    2    0    0  0.31678414274E+00  0.33827739356E+00  0.14618434732E+00  0.10564079001E+01  0.93800000000E+00 0.  1.
         22    1    1    2    0    0 -0.29397589576E+00 -0.31417940169E+00  0.35586580094E+01  0.35845749192E+01  0.00000000000E+00 0. -1.
</event>
<event>
 5    1  0.5849602E+001  0.1599659E+01  0.7818608E-02  0.3353734E+00
         11   -1    0    0    0    0  0.00000000000E+00  0.00000000000E+00  0.39999999674E+01  0.40000000000E+01  0.51100000000E-03 0.  1.
    9000002   -1    0    0    0    0 -0.00000000000E+00 -0.00000000000E+00  0.00000000000E+00  0.93800000000E+00  0.93800000000E+00 0. -1.
         11    1    1    2    0    0  0.12680348658E+00  0.30581975198E-01  0.13608037869E+01  0.13670411804E+01  0.51100000000E-03 0.  1.
    9000002    1    1    2    0    0 -0.37384279788E+00 -0.78002296055E-01  0.98166540181E-01  0.10175084596E+01  0.93800000000E+00 0. -1.
         22    1    1    2    0    0  0.24703931130E+00  0.47420320857E-01  0.25410296403E+01  0.25534503600E+01  0.00000000000E+00 0.  1.
</event>
<event>
 5    1  0.5849602E+001  0.1588351E+01  0.7818608E-02  0.3366105E+00
         11   -1    0    0    0    0  0.00000000000E+00  0.00000000000E+00  0.39999999674E+01  0.40000000000E+01  0.51100000000E-03 0. -1.
    9000002   -1    0    0    0    0 -0.00000000000E+00 -0.00000000000E+00  0.00000000000E+00  0.93800000000E+00  0.93800000000E+00 0. -1.
         11    1    1    2    0    0 -0.92711342062E-02 -0.38699627009E-01  0.83229711484E+00  0.83324808044E+00  0.51100000000E-03 0. -1.
    9000002    1    1    2    0    0 -0.18167378159E+00 -0.25702291354E+00  0.75170863187E-01  0.99225037147E+00  0.93800000000E+00 0. -1.
         22    1    1    2    0    0  0.19094491580E+00  0.29572254055E+00  0.30925319893E+01  0.31125015481E+01  0.00000000000E+00 0. -1.
</event>
<event>
 5    1  0.5849602E+001  0.1599246E+01  0.7818608E-02  0.3354182E+00
         11   -1    0    0    0    0  0.00000000000E+00  0.00000000000E+00  0.39999999674E+01  0.40000000000E+01  0.51100000000E-03 0. -1.
    9000002   -1    0    0    0    0 -0.00000000000E+00 -0.00000000000E+00  0.00000000000E+00  0.93800000000E+00  0.93800000000E+00 0. -1.
         11    1    1    2    0    0 -0.42710698118E-01  0.85271137887E-01  0.12893973408E+01  0.12929196163E+01  0.51100000000E-03 0. -1.
    9000002    1    1    2    0    0  0.95039949173E-01 -0.32193431975E+00  0.75776928917E-01  0.99912984198E+00  0.93800000000E+00 0. -1.
         22    1    1    2    0    0 -0.52329251055E-01  0.23666318186E+00  0.26348256976E+01  0.26459505417E+01  0.00000000000E+00 0. -1.
</event>
<event>
 5    1  0.5849602E+001  0.1599269E+01  0.7818608E-02  0.3354157E+00
         11   -1    0    0    0    0  0.00000000000E+00  0.00000000000E+00  0.39999999674E+01  0.40000000000E+01  0.51100000000E-03 0.  1.
    9000002   -1    0    0    0    0 -0.00000000000E+00 -0.00000000000E+00  0.00000000000E+00  0.93800000000E+00  0.93800000000E+00 0. -1.
         11    1    1    2    0    0 -0.30031645309E-02  0.37846658438E-01  0.49988098077E+00  0.50132089983E+00  0.51100000000E-03 0.  1.
    9000002    1    1    2    0    0  0.13177117188E+00 -0.36158402854E+00  0.10004720274E+00  0.10188032657E+01  0.93800000000E+00 0. -1.
         22    1    1    2    0    0 -0.12876800735E+00  0.32373737010E+00  0.34000717838E+01  0.34178758345E+01  0.00000000000E+00 0.  1.
</event>
<event>
 5    1  0.5849602E+001  0.1599596E+01  0.7818608E-02  0.3353802E+00
         11   -1    0    0    0    0  0.00000000000E+00  0.00000000000E+00  0.39999999674E+01  0.40000000000E+01  0.51100000000E-03 0. -1.
    9000002   -1    0    0    0    0 -0.00000000000E+00 -0.00000000000E+00  0.00000000000E+00  0.93800000000E+00  0.93800000000E+00 0. -1.
         11    1    1    2    0    0  0.12175415047E+00  0.70350281464E-01  0.10894507256E+01  0.10984882247E+01  0.51100000000E-03 0. -1.
    9000002    1    1    2    0    0 -0.45236034108E+00 -0.26797079349E+00  0.19015961642E+00  0.10919903406E+01  0.93800000000E+00 0. -1.
         22    1    1    2    0    0  0.33060619060E+00  0.19762051203E+00  0.27203896254E+01  0.27475214346E+01  0.00000000000E+00 0. -1.
</event>
<event>
 5    1  0.5849602E+001  0.1534212E+01  0.7818608E-02  0.3428016E+00
         11   -1    0    0    0    0  0.00000000000E+00  0.00000000000E+00  0.39999999674E+01  0.40000000000E+01  0.51100000000E-03 0. -1.
    9000002   -1    0    0    0    0 -0.00000000000E+00 -0.00000000000E+00  0.00000000000E+00  0.93800000000E+00  0.93800000000E+00 0.  1.
         11    1    1    2    0    0  0.12470927252E+00 -0.41596582123E-02  0.19520509884E+00  0.23167865060E+00  0.51100000000E-03 0. -1.
    9000002    1    1    2    0    0  0.27311941575E+00  0.15533106544E-01  0.10221067876E+00  0.98240852781E+00  0.93800000000E+00 0.  1.
         22    1    1    2    0    0 -0.39782868828E+00 -0.11373448331E-01  0.37025841898E+01  0.37239128216E+01  0.00000000000E+00 0. -1.
</event>
<event>
 5    1  0.5849602E+001  0.1599669E+01  0.7818608E-02  0.3353723E+00
         11   -1    0    0    0    0  0.00000000000E+00  0.00000000000E+00  0.39999999674E+01  0.40000000000E+01  0.51100000000E-03 0.  1.
    9000002   -1    0    0    0    0 -0.00000000000E+00 -0.00000000000E+00  0.00000000000E+00  0.93800000000E+00  0.93800000000E+00 0. -1.
         11    1    1    2    0    0 -0.20250386205E+00 -0.55462132452E-01  0.14784180956E+01  0.14932528884E+01  0.51100000000E-03 0.  1.
    9000002    1    1    2    0    0  0.52248031470E+00  0.13408310085E+00  0.20057831974E+00  0.11004724529E+01  0.93800000000E+00 0. -1.
         22    1    1    2    0    0 -0.31997645265E+00 -0.78620968403E-01  0.23210035520E+01  0.23442746587E+01  0.00000000000E+00 0.  1.
</event>
<event>
 5    1  0.5849602E+001  0.1599675E+01  0.7818608E-02  0.3353716E+00
         11   -1    0    0    0    0  0.00000000000E+00  0.00000000000E+00  0.39999999674E+01  0.40000000000E+01  0.51100000000E-03 0.  1.
    9000002   -1    0    0    0    0 -0.00000000000E+00 -0.00000000000E+00  0.00000000000E+00  0.93800000000E+00  0.93800000000E+00 0. -1.
         11    1    1    2    0    0  0.76830594360E-01  0.58602991536E-01  0.88759681239E+00  0.89284131475E+00  0.51100000000E-03 0.  1.
    9000002    1    1    2    0    0 -0.34186158846E+00 -0.25421471739E+00  0.12284871583E+00  0.10375115783E+01  0.93800000000E+00 0. -1.
         22    1    1    2    0    0  0.26503099410E+00  0.19561172585E+00  0.29895544391E+01  0.30076471069E+01  0.00000000000E+00 0.  1.
</event>
<event>
 5    1  0.5849602E+001  0.1568752E+01  0.7818608E-02  0.3387993E+00
         11   -1    0    0    0    0  0.00000000000E+00  0.00000000000E+00  0.39999999674E+01  0.40000000000E+01  0.51100000000E-03 0. -1.
    9000002   -1    0    0    0    0 -0.00000000000E+00 -0.00000000000E+00  0.00000000000E+00  0.93800000000E+00  0.93800000000E+00 0.  1.
         11    1    1    2    0    0 -0.29257645076E-01  0.10934796253E+00  0.59508221661E+00  0.60575250091E+00  0.51100000000E-03 0. -1.
    9000002    1    1    2    0    0 -0.29423203222E+00  0.15482558659E+00  0.99047033808E-01  0.10000988781E+01  0.93800000000E+00 0.  1.
         22    1    1    2    0    0  0.32348967729E+00 -0.26417354912E+00  0.33058707169E+01  0.33321486210E+01  0.00000000000E+00 0. -1.
</event>
<event>
 5    1  0.5849602E+001  0.1599650E+01  0.7818608E-02  0.3353743E+00
         11   -1    0    0    0    0  0.00000000000E+00  0.00000000000E+00  0.39999999674E+01  0.40000000000E+01  0.51100000000E-03 0.  1.
    9000002   -1    0    0    0    0 -0.00000000000E+00 -0.00000000000E+00  0.00000000000E+00  0.93800000000E+00  0.93800000000E+00 0.  1.
         11    1    1    2    0    0 -0.45523654406E-02 -0.24963415693E-01  0.20513914758E+00  0.20670323448E+00  0.51100000000E-03 0. -1.
    9000002    1    1    2    0    0  0.35695886166E-01  0.45524439384E+00  0.14178792017E+00  0.10528387667E+01  0.93800000000E+00 0.  1.
         22    1    1    2    0    0 -0.31143520725E-01 -0.43028097815E+00  0.36530728996E+01  0.36784579988E+01  0.00000000000E+00 0.  1.
</event>
<event>
 5    1  0.5849602E+001  0.1599676E+01  0.7818608E-02  0.3353715E+00
         11   -1    0    0    0    0  0.00000000000E+00  0.00000000000E+00  0.39999999674E+01  0.40000000000E+01  0.51100000000E-03 0.  1.
    9000002   -1    0    0    0    0 -0.00000000000E+00 -0.00000000000E+00  0.00000000000E+00  0.93800000000E+00  0.93800000000E+00 0.  1.
         11    1    1    2    0    0 -0.20706243839E-01 -0.60131113218E-01  0.55028874737E+00  0.55395168193E+00  0.51100000000E-03 0.  1.
    9000002    1    1    2    0    0  0.14188983908E+00  0.42330877509E+00  0.13530716557E+00  0.10476044457E+01  0.93800000000E+00 0.  1.
         22    1    1    2    0    0 -0.12118359524E+00 -0.36317766187E+00  0.33144040544E+01  0.33364438724E+01  0.00000000000E+00 0.  1.
</event>
<event>
 5    1  0.5849602E+001  0.1597958E+01  0.7818608E-02  0.3355583E+00
         11   -1    0    0    0    0  0.00000000000E+00  0.00000000000E+00  0.39999999674E+01  0.40000000000E+01  0.51100000000E-03 0.  1.
    9000002   -1    0    0    0    0 -0.00000000000E+00 -0.00000000000E+00  0.00000000000E+00  0.93800000000E+00  0.93800000000E+00 0.  1.
         11    1    1    2    0    0  0.55620250889E-01 -0.28615247358E-01  0.67187299447E+00  0.67477850181E+00  0.51100000000E-03 0.  1.
    9000002    1    1    2    0    0 -0.38547487807E+00 -0.43427795685E-01  0.10276486277E+00  0.10202359884E+01  0.93800000000E+00 0.  1.
         22    1    1    2    0    0  0.32985462719E+00  0.72043043043E-01  0.32253621101E+01  0.32429855098E+01  0.00000000000E+00 0.  1.
</event>
<event>
 5    1  0.5849602E+001  0.1564845E+01  0.7818608E-02  0.3392426E+00
         11   -1    0    0    0    0  0.00000000000E+00  0.00000000000E+00  0.39999999674E+01  0.40000000000E+01  0.51100000000E-03 0.  1.
    9000002   -1    0    0    0    0 -0.00000000000E+00 -0.00000000000E+00  0.00000000000E+00  0.93800000000E+00  0.93800000000E+00 0.  1.
         11    1    1    2    0    0 -0.74462900298E-01  0.48054705846E-01  0.15221681145E+00  0.17613687031E+00  0.51100000000E-03 0.  1.
    9000002    1    1    2    0    0 -0.38173195660E+00 -0.64890539084E+00  0.45456976985E+00  0.12857974835E+01  0.93800000000E+00 0.  1.
         22    1    1    2    0    0  0.45619485690E+00  0.60085068500E+00  0.33932133861E+01  0.34760656462E+01  0.00000000000E+00 0.  1.
</event>
<event>
 5    1  0.5849602E+001  0.1599676E+01  0.7818608E-02  0.3353715E+00
         11   -1    0    0    0    0  0.00000000000E+00  0.00000000000E+00  0.39999999674E+01  0.40000000000E+01  0.51100000000E-03 0. -1.
    9000002   -1    0    0    0    0 -0.00000000000E+00 -0.00000000000E+00  0.00000000000E+00  0.93800000000E+00  0.93800000000E+00 0. -1.
         11    1    1    2    0    0  0.12823745254E+00  0.26556303857E-01  0.13554811144E+01  0.13617927133E+01  0.51100000000E-03 0. -1.
    9000002    1    1    2    0    0 -0.36750663311E+00 -0.73699103409E-01  0.94471282174E-01  0.10145252616E+01  0.93800000000E+00 0. -1.
         22    1    1    2    0    0  0.23926918057E+00  0.47142799552E-01  0.25500475708E+01  0.25616820251E+01  0.00000000000E+00 0. -1.
</event>
<event>
 5    1  0.5849602E+001  0.1599674E+01  0.7818608E-02  0.3353718E+00
         11   -1    0    0    0    0  0.00000000000E+00  0.00000000000E+00  0.39999999674E+01  0.40000000000E+01  0.51100000000E-03 0. -1.
    9000002   -1    0    0    0    0 -0.00000000000E+00 -0.00000000000E+00  0.00000000000E+00  0.93800000000E+00  0.93800000000E+00 0. -1.
         11    1    1    2    0    0 -0.10184398007E+00  0.14900546991E+00  0.11573755244E+01  0.11713638171E+01  0.51100000000E-03 0. -1.
    9000002    1    1    2    0    0  0.33069868950E+00 -0.47811845123E+00  0.23487855446E+00  0.11282600817E+01  0.93800000000E+00 0. -1.
         22    1    1    2    0    0 -0.22885470943E+00  0.32911298132E+00  0.26077458885E+01  0.26383761012E+01  0.00000000000E+00 0. -1.
</event>
<event>
 5    1  0.5849602E+001  0.1594496E+01  0.7818608E-02  0.3359359E+00
         11   -1    0    0    0    0  0.00000000000E+00  0.00000000000E+00  0.39999999674E+01  0.40000000000E+01  0.51100000000E-03 0. -1.
    9000002   -1    0    0    0    0 -0.00000000000E+00 -0.00000000000E+00  0.00000000000E+00  0.93800000000E+00  0.93800000000E+00 0. -1.
         11    1    1    2    0    0  0.33267391754E-01  0.11671769066E-02  0.94524635755E+00  0.94583244777E+00  0.51100000000E-03 0. -1.
    9000002    1    1    2    0    0 -0.15434442114E+00  0.30234575126E+00  0.81334777488E-01  0.10008468912E+01  0.93800000000E+00 0. -1.
         22    1    1    2    0    0  0.12107702939E+00 -0.30351292817E+00  0.29734188323E+01  0.29913206610E+01  0.00000000000E+00 0. -1.
</event>
<event>
 5    1  0.5849602E+001  0.1595869E+01  0.7818608E-02  0.3357860E+00
         11   -1    0    0    0    0  0.00000000000E+00  0.00000000000E+00  0.39999999674E+01  0.40000000000E+01  0.51100000000E-03 0. -1.
    9000002   -1    0    0    0    0 -0.00000000000E+00 -0.00000000000E+00  0.00000000000E+00  0.93800000000E+00  0.93800000000E+00 0.  1.
         11    1    1    2    0    0 -0.24679629269E-01 -0.32642497868E-01  0.10300421863E+01  0.10308548799E+01  0.51100000000E-03 0. -1.
    9000002    1    1    2    0    0  0.34200265111E+00  0.10720978738E+00  0.89303268125E-01  0.10081065547E+01  0.93800000000E+00 0.  1.
         22    1    1    2    0    0 -0.31732302184E+00 -0.74567289509E-01  0.28806545130E+01  0.28990385654E+01  0.00000000000E+00 0. -1.
</event>
<event>
 5    1  0.5849602E+001  0.1575864E+01  0.7818608E-02  0.3379984E+00
         11   -1    0    0    0    0  0.00000000000E+00  0.00000000000E+00  0.39999999674E+01  0.40000000000E+01  0.51100000000E-03 0.  1.
    9000002   -1    0    0    0    0 -0.00000000000E+00 -0.00000000000E+00  0.00000000000E+00  0.93800000000E+00  0.93800000000E+00 0. -1.
         11    1    1    2    0    0 -0.83251204733E-01 -0.26711322345E-01  0.11580426805E+01  0.11613386107E+01  0.51100000000E-03 0.  1.
    9000002    1    1    2    0    0 -0.27093854696E+00 -0.64311402932E-01  0.70301546120E-01  0.98098417936E+00  0.93800000000E+00 0. -1.
         22    1    1    2    0    0  0.35418975169E+00  0.91022725278E-01  0.27716557408E+01  0.27956772099E+01  0.00000000000E+00 0.  1.
</event>
<event>
 5    1  0.5849602E+001  0.1586238E+01  0.7818608E-02  0.3368437E+00
         11   -1    0    0    0    0  0.00000000000E+00  0.00000000000E+00  0.39999999674E+01  0.40000000000E+01  0.51100000000E-03 0.  1.
    9000002   -1    0    0    0    0 -0.00000000000E+00 -0.00000000000E+00  0.00000000000E+00  0.93800000000E+00  0.93800000000E+00 0.  1.
         11    1    1    2    0    0 -0.21143178711E-01 -0.80230983309E-01  0.42847473850E+00  0.43643431046E+00  0.51100000000E-03 0.  1.
    9000002    1    1    2    0    0 -0.37008135939E+00  0.16664956356E+00  0.12251470410E+00  0.10293620074E+01  0.93800000000E+00 0.  1.
         22    1    1    2    0    0  0.39122453810E+00 -0.86418580254E-01  0.34490105248E+01  0.34722036821E+01  0.00000000000E+00 0.  1.
</event>
<event>
 5    1  0.5849602E+001  0.1599564E+01  0.7818608E-02  0.3353837E+00
         11   -1    0    0    0    0  0.00000000000E+00  0.00000000000E+00  0.39999999674E+01  0.40000000000E+01  0.51100000000E-03 0.  1.
    9000002   -1    0    0    0    0 -0.00000000000E+00 -0.00000000000E+00  0.00000000000E+00  0.93800000000E+00  0.93800000000E+00 0.  1.
         11    1    1    2    0    0  0.21298047983E+00 -0.80449201080E-01  0.13630144283E+01  0.13818977356E+01  0.51100000000E-03 0.  1.
    9000002    1    1    2    0    0 -0.55351745865E+00  0.23235240440E+00  0.25155788746E+00  0.11417068746E+01  0.93800000000E+00 0.  1.
         22    1    1    2    0    0  0.34053697882E+00 -0.15190320332E+00  0.23854276516E+01  0.24143953898E+01  0.00000000000E+00 0.  1.
</event>
<event>
 5    1  0.5849602E+001  0.1594850E+01  0.7818608E-02  0.3358972E+00
         11   -1    0    0    0    0  0.00000000000E+00  0.00000000000E+00  0.39999999674E+01  0.40000000000E+01  0.51100000000E-03 0. -1.
    9000002   -1    0    0    0    0 -0.00000000000E+00 -0.00000000000E+00  0.00000000000E+00  0.93800000000E+00  0.93800000000E+00 0.  1.
         11    1    1    2    0    0 -0.87904824476E-02 -0.25164505152E-01  0.19058673317E+00  0.19244243005E+00  0.51100000000E-03 0. -1.
    9000002    1    1    2    0    0  0.36886112720E+00 -0.19847574309E+00  0.12272258421E+00  0.10345801005E+01  0.93800000000E+00 0.  1.
         22    1    1    2    0    0 -0.36007064475E+00  0.22364024825E+00  0.36866906500E+01  0.37109774694E+01  0.00000000000E+00 0. -1.
</event>
<event>
 5    1  0.5849602E+001  0.1522610E+01  0.7818608E-02  0.3441895E+00
         11   -1    0    0    0    0  0.00000000000E+00  0.00000000000E+00  0.39999999674E+01  0.40000000000E+01  0.51100000000E-03 0. -1.
    9000002   -1    0    0    0    0 -0.00000000000E+00 -0.00000000000E+00  0.00000000000E+00  0.93800000000E+00  0.93800000000E+00 0. -1.
         11    1    1    2    0    0  0.23276258033E+00 -0.24155196750E-02  0.64905992326E+00  0.68953846785E+00  0.51100000000E-03 0. -1.
    9000002    1    1    2    0    0  0.10371638081E+00  0.31835811722E-01  0.66383577085E-01  0.94658406170E+00  0.93800000000E+00 0. -1.
         22    1    1    2    0    0 -0.33647896114E+00 -0.29420292047E-01  0.32845564670E+01  0.33018774705E+01  0.00000000000E+00 0. -1.
</event>
<event>
 5    1  0.5849602E+001  0.1599656E+01  0.7818608E-02  0.3353737E+00
         11   -1    0    0    0    0  0.00000000000E+00  0.00000000000E+00  0.39999999674E+01  0.40000000000E+01  0.51100000000E-03 0.  1.
    9000002   -1    0    0    0    0 -0.00000000000E+00 -0.00000000000E+00  0.00000000000E+00  0.93800000000E+00  0.93800000000E+00 0.  1.
         11    1    1    2    0    0 -0.45170005254E-01  0.94487766303E-01  0.60653457609E+00  0.61551013027E+00  0.51100000000E-03 0.  1.
    9000002    1    1    2    0    0  0.29847893446E+00 -0.56632008524E+00  0.28852871654E+00  0.11717085532E+01  0.93800000000E+00 0.  1.
         22    1    1    2    0    0 -0.25330892921E+00  0.47183231894E+00  0.31049366747E+01  0.31507813166E+01  0.00000000000E+00 0.  1.
</event>
<event>
 5    1  0.5849602E+001  0.1599575E+01  0.7818608E-02  0.3353825E+00
         11   -1    0    0    0    0  0.00000000000E+00  0.00000000000E+00  0.39999999674E+01  0.40000000000E+01  0.51100000000E-03 0. -1.
    9000002   -1    0    0    0    0 -0.00000000000E+00 -0.00000000000E+00  0.00000000000E+00  0.93800000000E+00  0.93800000000E+00 0. -1.
         11    1    1    2    0    0  0.19764528270E-02 -0.15491246435E-02  0.14663202045E-01  0.14885454919E-01  0.51100000000E-03 0. -1.
    9000002    1    1    2    0    0 -0.35898462012E+00  0.78638406951E-01  0.90817761031E-01  0.10115067089E+01  0.93800000000E+00 0. -1.
         22    1    1    2    0    0  0.35700816729E+00 -0.77089282308E-01  0.38945190043E+01  0.39116078361E+01  0.00000000000E+00 0. -1.
</event>
<event>
 5    1  0.5849602E+001  0.1599383E+01  0.7818608E-02  0.3354033E+00
         11   -1    0    0    0    0  0.00000000000E+00  0.00000000000E+00  0.39999999674E+01  0.40000000000E+01  0.51100000000E-03 0. -1.
    9000002   -1    0    0    0    0 -0.00000000000E+00 -0.00000000000E+00  0.00000000000E+00  0.93800000000E+00  0.93800000000E+00 0.  1.
         11    1    1    2    0    0  0.75170792127E-01  0.18808535820E+00  0.12919503127E+01  0.13077318615E+01  0.51100000000E-03 0. -1.
    9000002    1    1    2    0    0 -0.23528029773E+00 -0.49610309491E+00  0.20846962578E+00  0.11066971962E+01  0.93800000000E+00 0.  1.
         22    1    1    2    0    0  0.16010950560E+00  0.30801773671E+00  0.24995800289E+01  0.25235709423E+01  0.00000000000E+00 0.  1.
</event>
<event>
 5    1  0.5849602E+001  0.1599435E+01  0.7818608E-02  0.3353977E+00
         11   -1    0    0    0    0  0.00000000000E+00  0.00000000000E+00  0.39999999674E+01  0.40000000000E+01  0.51100000000E-03 0. -1.
    9000002   -1    0    0    0    0 -0.00000000000E+00 -0.00000000000E+00  0.00000000000E+00  0.93800000000E+00  0.93800000000E+00 0. -1.
         11    1    1    2    0    0 -0.21515201920E-01  0.93511382454E-01  0.12613706615E+01  0.12650152131E+01  0.51100000000E-03 0. -1.
    9000002    1    1    2    0    0  0.91757304342E-01 -0.33889157125E+00  0.82856899151E-01  0.10049757040E+01  0.93800000000E+00 0. -1.
         22    1    1    2    0    0 -0.70242102422E-01  0.24538018880E+00  0.26557724067E+01  0.26680090828E+01  0.00000000000E+00 0. -1.
</event>
<event>
 5    1  0.5849602E+001  0.1599582E+01  0.7818608E-02  0.3353818E+00
         11   -1    0    0    0    0  0.00000000000E+00  0.00000000000E+00  0.39999999674E+01  0.40000000000E+01  0.51100000000E-03 0. -1.
    9000002   -1    0    0    0    0 -0.00000000000E+00 -0.00000000000E+00  0.00000000000E+00  0.93800000000E+00  0.93800000000E+00 0. -1.
         11    1    1    2    0    0 -0.77749410579E-01 -0.32910306681E-01  0.71218597076E+00  0.71717304550E+00  0.51100000000E-03 0. -1.
    9000002    1    1    2    0    0  0.45962932110E+00  0.20332870609E+00  0.17308179587E+00  0.10781479414E+01  0.93800000000E+00 0. -1.
         22    1    1    2    0    0 -0.38187991052E+00 -0.17041839941E+00  0.31147322007E+01  0.31426790131E+01  0.00000000000E+00 0. -1.
</event>
<event>
 5    1  0.5849602E+001  0.1599656E+01  0.7818608E-02  0.3353737E+00
         11   -1    0    0    0    0  0.00000000000E+00  0.00000000000E+00  0.39999999674E+01  0.40000000000E+01  0.51100000000E-03 0. -1.
    9000002   -1    0    0    0    0 -0.00000000000E+00 -0.00000000000E+00  0.00000000000E+00  0.93800000000E+00  0.93800000000E+00 0. -1.
         11    1    1    2    0    0  0.27918860978E-01  0.19930458809E+00  0.10314644519E+01  0.10509143440E+01  0.51100000000E-03 0. -1.
    9000002    1    1    2    0    0 -0.99972769452E-01 -0.71758675348E+00  0.37772868502E+00  0.12439647354E+01  0.93800000000E+00 0. -1.
         22    1    1    2    0    0  0.72053908474E-01  0.51828216539E+00  0.25908068304E+01  0.26431209207E+01  0.00000000000E+00 0. -1.
</event>
<event>
 5    1  0.5849602E+001  0.1599277E+01  0.7818608E-02  0.3354149E+00
         11   -1    0    0    0    0  0.00000000000E+00  0.00000000000E+00  0.39999999674E+01  0.40000000000E+01  0.51100000000E-03 0.  1.
    9000002   -1    0    0    0    0 -0.00000000000E+00 -0.00000000000E+00  0.00000000000E+00  0.93800000000E+00  0.93800000000E+00 0. -1.
         11    1    1    2    0    0  0.52125948397E-02 -0.20692060407E+00  0.11376347140E+01  0.11563115113E+01  0.51100000000E-03 0.  1.
    9000002    1    1    2    0    0 -0.48290123458E-01  0.72357364631E+00  0.37893497785E+00  0.12447194363E+01  0.93800000000E+00 0. -1.
         22    1    1    2    0    0  0.43077528619E-01 -0.51665304224E+00  0.24834302755E+01  0.25369690524E+01  0.00000000000E+00 0.  1.
</event>
<event>
 5    1  0.5849602E+001  0.1599446E+01  0.7818608E-02  0.3353965E+00
         11   -1    0    0    0    0  0.00000000000E+00  0.00000000000E+00  0.39999999674E+01  0.40000000000E+01  0.51100000000E-03 0.  1.
    9000002   -1    0    0    0    0 -0.00000000000E+00 -0.00000000000E+00  0.00000000000E+00  0.93800000000E+00  0.93800000000E+00 0. -1.
         11    1    1    2    0    0 -0.30294965539E-02 -0.13801345891E-01  0.17702923399E+00  0.17759297792E+00  0.51100000000E-03 0.  1.
    9000002    1    1    2    0    0  0.22514173859E-01  0.46200774469E+00  0.14579275467E+00  0.10559628646E+01  0.93800000000E+00 0. -1.
         22    1    1    2    0    0 -0.19484677306E-01 -0.44820639880E+00  0.36771779787E+01  0.37044441574E+01  0.00000000000E+00 0.  1.
</event>
<event>
 5    1  0.5849602E+001  0.1527791E+01  0.7818608E-02  0.3435669E+00
         11   -1    0    0    0    0  0.00000000000E+00  0.00000000000E+00  0.39999999674E+01  0.40000000000E+01  0.51100000000E-03 0.  1.
    9000002   -1    0    0    0    0 -0.00000000000E+00 -0.00000000000E+00  0.00000000000E+00  0.93800000000E+00  0.93800000000E+00 0. -1.
         11    1    1    2    0    0  0.31952966867E+00  0.25638136809E+00  0.90529459835E+00  0.99367458757E+00  0.51100000000E-03 0.  1.
    9000002    1    1    2    0    0 -0.66800621460E+00 -0.54790555405E-01  0.40085454059E+00  0.12205583437E+01  0.93800000000E+00 0. -1.
         22    1    1    2    0    0  0.34847654593E+00 -0.20159081268E+00  0.26938508284E+01  0.27237670687E+01  0.00000000000E+00 0.  1.
</event>
<event>
 5    1  0.5849602E+001  0.1599676E+01  0.7818608E-02  0.3353715E+00
         11   -1    0    0    0    0  0.00000000000E+00  0.00000000000E+00  0.39999999674E+01  0.40000000000E+01  0.51100000000E-03 0. -1.
    9000002   -1    0    0    0    0 -0.00000000000E+00 -0.00000000000E+00  0.00000000000E+00  0.93800000000E+00  0.93800000000E+00 0. -1.
         11    1    1    2    0    0  0.14605308703E-01  0.61052044614E-01  0.63294432536E+00  0.63604987801E+00  0.51100000000E-03 0. -1.
    9000002    1    1    2    0    0 -0.85226170218E-01 -0.37448642293E+00  0.99296278704E-01  0.10184337642E+01  0.93800000000E+00 0. -1.
         22    1    1    2    0    0  0.70620861515E-01  0.31343437832E+00  0.32677593633E+01  0.32835163578E+01  0.00000000000E+00 0. -1.
</event>
<event>
 5    1  0.5849602E+001  0.1588966E+01  0.7818608E-02  0.3365428E+00
         11   -1    0    0    0    0  0.00000000000E+00  0.00000000000E+00  0.39999999674E+01  0.40000000000E+01  0.51100000000E-03 0.  1.
    9000002   -1    0    0    0    0 -0.00000000000E+00 -0.00000000000E+00  0.00000000000E+00  0.93800000000E+00  0.93800000000E+00 0. -1.
         11    1    1    2    0    0  0.11983304823E+00  0.97071113797E-01  0.77108509779E+00  0.78635567636E+00  0.51100000000E-03 0.  1.
    9000002    1    1    2    0    0 -0.17880108924E+00 -0.73918548944E+00  0.43380306674E+00  0.12831189025E+01  0.93800000000E+00 0. -1.
         22    1    1    2    0    0  0.58968041006E-01  0.64211437564E+00  0.27951118028E+01  0.28685254211E+01  0.00000000000E+00 0.  1.
</event>
<event>
 5    1  0.5849602E+001  0.1567187E+01  0.7818608E-02  0.3389767E+00
         11   -1    0    0    0    0  0.00000000000E+00  0.00000000000E+00  0.39999999674E+01  0.40000000000E+01  0.51100000000E-03 0.  1.
    9000002   -1    0    0    0    0 -0.00000000000E+00 -0.00000000000E+00  0.00000000000E+00  0.93800000000E+00  0.93800000000E+00 0. -1.
         11    1    1    2    0    0  0.13449243736E+00 -0.90663432065E-01  0.88304775681E+00  0.89782051410E+00  0.51100000000E-03 0.  1.
    9000002    1    1    2    0    0 -0.88949437420E-01 -0.22118108932E+00  0.62849277425E-01  0.96985932401E+00  0.93800000000E+00 0. -1.
         22    1    1    2    0    0 -0.45542999944E-01  0.31184452139E+00  0.30541029331E+01  0.30703201619E+01  0.00000000000E+00 0.  1.
</event>
<event>
 5    1  0.5849602E+001  0.1599122E+01  0.7818608E-02  0.3354317E+00
         11   -1    0    0    0    0  0.00000000000E+00  0.00000000000E+00  0.39999999674E+01  0.40000000000E+01  0.51100000000E-03 0.  1.
    9000002   -1    0    0    0    0 -0.00000000000E+00 -0.00000000000E+00  0.00000000000E+00  0.93800000000E+00  0.93800000000E+00 0.  1.
         11    1    1    2    0    0  0.18084583482E-01 -0.73091012364E-02  0.39427345479E+00  0.39475599222E+00  0.51100000000E-03 0.  1.
    9000002    1    1    2    0    0 -0.34449703333E+00  0.11205890039E+00  0.88566727646E-01  0.10094173906E+01  0.93800000000E+00 0.  1.
         22    1    1    2    0    0  0.32641244985E+00 -0.10474979915E+00  0.35171597849E+01  0.35338266172E+01  0.00000000000E+00 0.  1.
</event>
<event>
 5    1  0.5849602E+001  0.1494370E+01  0.7818608E-02  0.3476646E+00
         11   -1    0    0    0    0  0.00000000000E+00  0.00000000000E+00  0.39999999674E+01  0.40000000000E+01  0.51100000000E-03 0.  1.
    9000002   -1    0    0    0    0 -0.00000000000E+00 -0.00000000000E+00  0.00000000000E+00  0.93800000000E+00  0.93800000000E+00 0. -1.
         11    1    1    2    0    0  0.67850805004E-01 -0.35651275895E+00  0.45921300930E+00  0.58530498722E+00  0.51100000000E-03 0.  1.
    9000002    1    1    2    0    0 -0.19056620504E-01  0.64013100078E+00  0.40817113742E+00  0.12068879527E+01  0.93800000000E+00 0. -1.
         22    1    1    2    0    0 -0.48794184500E-01 -0.28361824183E+00  0.31326158206E+01  0.31458070601E+01  0.00000000000E+00 0.  1.
</event>
<event>
 5    1  0.5849602E+001  0.1593251E+01  0.7818608E-02  0.3360721E+00
         11   -1    0    0    0    0  0.00000000000E+00  0.00000000000E+00  0.39999999674E+01  0.40000000000E+01  0.51100000000E-03 0. -1.
    9000002   -1    0    0    0    0 -0.00000000000E+00 -0.00000000000E+00  0.00000000000E+00  0.93800000000E+00  0.93800000000E+00 0. -1.
         11    1    1    2    0    0 -0.95051295502E-01 -0.22120250049E-01  0.14173504854E+01  0.14207064137E+01  0.51100000000E-03 0. -1.
    9000002    1    1    2    0    0  0.13175739844E+00  0.28192211881E+00  0.69748462161E-01  0.99073151817E+00  0.93800000000E+00 0. -1.
         22    1    1    2    0    0 -0.36706102936E-01 -0.25980186876E+00  0.25129010198E+01  0.25265620682E+01  0.00000000000E+00 0. -1.
</event>
<event>
 5    1  0.5849602E+001  0.1599676E+01  0.7818608E-02  0.3353715E+00
         11   -1    0    0    0    0  0.00000000000E+00  0.00000000000E+00  0.39999999674E+01  0.40000000000E+01  0.51100000000E-03 0. -1.
    9000002   -1    0    0    0    0 -0.00000000000E+00 -0.00000000000E+00  0.00000000000E+00  0.93800000000E+00  0.93800000000E+00 0. -1.
         11    1    1    2    0    0 -0.12115169591E-01  0.74705462477E-01  0.48405840643E+00  0.48993926706E+00  0.51100000000E-03 0. -1.
    9000002    1    1    2    0    0  0.98839871195E-01 -0.57649846847E+00  0.23794257109E+00  0.11307433269E+01  0.93800000000E+00 0. -1.
         22    1    1    2    0    0 -0.86724701604E-01  0.50179300599E+00  0.32779989898E+01  0.33173174060E+01  0.00000000000E+00 0. -1.
</event>
<event>
 5    1  0.5849602E+001  0.1599154E+01  0.7818608E-02  0.3354283E+00
         11   -1    0    0    0    0  0.00000000000E+00  0.00000000000E+00  0.39999999674E+01  0.40000000000E+01  0.51100000000E-03 0.  1.
    9000002   -1    0    0    0    0 -0.00000000000E+00 -0.00000000000E+00  0.00000000000E+00  0.93800000000E+00  0.93800000000E+00 0. -1.
         11    1    1    2    0    0 -0.12141983660E+00  0.58559185983E-01  0.89339342868E+00  0.90350652157E+00  0.51100000000E-03 0.  1.
    9000002    1    1    2    0    0  0.43475128779E+00 -0.20164901150E+00  0.15715298142E+00  0.10649939275E+01  0.93800000000E+00 0. -1.
         22    1    1    2    0    0 -0.31333145119E+00  0.14308982551E+00  0.29494535573E+01  0.29694995509E+01  0.00000000000E+00 0.  1.
</event>
<event>
 5    1  0.5849602E+001  0.1594583E+01  0.7818608E-02  0.3359264E+00
         11   -1    0    0    0    0  0.00000000000E+00  0.00000000000E+00  0.39999999674E+01  0.40000000000E+01  0.51100000000E-03 0.  1.
    9000002   -1    0    0    0    0 -0.00000000000E+00 -0.00000000000E+00  0.00000000000E+00  0.93800000000E+00  0.93800000000E+00 0.  1.
         11    1    1    2    0    0 -0.32314505416E-01 -0.94668618890E-01  0.26353312102E+00  0.28188001288E+00  0.51100000000E-03 0.  1.
    9000002    1    1    2    0    0 -0.18208332097E+00  0.10402858805E+01  0.94096124047E+00  0.16972333678E+01  0.93800000000E+00 0.  1.
         22    1    1    2    0    0  0.21439782639E+00 -0.94561726156E+00  0.27955056059E+01  0.29588866193E+01  0.00000000000E+00 0.  1.
</event>
<event>
 5    1  0.5849602E+001  0.1599641E+01  0.7818608E-02  0.3353753E+00
         11   -1    0    0    0    0  0.00000000000E+00  0.00000000000E+00  0.39999999674E+01  0.40000000000E+01  0.51100000000E-03 0. -1.
    9000002   -1    0    0    0    0 -0.00000000000E+00 -0.00000000000E+00  0.00000000000E+00  0.93800000000E+00  0.93800000000E+00 0.  1.
         11    1    1    2    0    0  0.15273693448E+00  0.29017782101E-02  0.13069549609E+01  0.13158527738E+01  0.51100000000E-03 0. -1.
    9000002    1    1    2    0    0 -0.46606843048E+00 -0.21166501349E-01  0.14823762007E+00  0.10580577464E+01  0.93800000000E+00 0.  1.
         22    1    1    2    0    0  0.31333149600E+00  0.18264723139E-01  0.25448073864E+01  0.25640894798E+01  0.00000000000E+00 0. -1.
</event>
<event>
 5    1  0.5849602E+001  0.1599645E+01  0.7818608E-02  0.3353748E+00
         11   -1    0    0    0    0  0.00000000000E+00  0.00000000000E+00  0.39999999674E+01  0.40000000000E+01  0.51100000000E-03 0. -1.
    9000002   -1    0    0    0    0 -0.00000000000E+00 -0.00000000000E+00  0.00000000000E+00  0.93800000000E+00  0.93800000000E+00 0.  1.
         11    1    1    2    0    0 -0.36922397264E-01  0.15964916436E+00  0.11671780638E+01  0.11786246276E+01  0.51100000000E-03 0. -1.
    9000002    1    1    2    0    0  0.13635219413E+00 -0.50827990211E+00  0.19047580091E+00  0.10922753364E+01  0.93800000000E+00 0.  1.
         22    1    1    2    0    0 -0.99429796869E-01  0.34863073775E+00  0.26423461027E+01  0.26671000360E+01  0.00000000000E+00 0. -1.
</event>
<event>
 5    1  0.5849602E+001  0.1599672E+01  0.7818608E-02  0.3353720E+00
         11   -1    0    0    0    0  0.00000000000E+00  0.00000000000E+00  0.39999999674E+01  0.40000000000E+01  0.51100000000E-03 0. -1.
    9000002   -1    0    0    0    0 -0.00000000000E+00 -0.00000000000E+00  0.00000000000E+00  0.93800000000E+00  0.93800000000E+00 0. -1.
         11    1    1    2    0    0 -0.63849592925E-01  0.26624427224E+00  0.14389435966E+01  0.14647599525E+01  0.51100000000E-03 0. -1.
    9000002    1    1    2    0    0  0.15714654964E+00 -0.67279327954E+00  0.34032731884E+00  0.12136772714E+01  0.93800000000E+00 0. -1.
         22    1    1    2    0    0 -0.93296956718E-01  0.40654900730E+00  0.22207290519E+01  0.22595627762E+01  0.00000000000E+00 0. -1.
</event>
<event>
 5    1  0.5849602E+001  0.1596705E+01  0.7818608E-02  0.3356948E+00
         11   -1    0    0    0    0  0.00000000000E+00  0.00000000000E+00  0.39999999674E+01  0.40000000000E+01  0.51100000000E-03 0. -1.
    9000002   -1    0    0    0    0 -0.00000000000E+00 -0.00000000000E+00  0.00000000000E+00  0.93800000000E+00  0.93800000000E+00 0. -1.
         11    1    1    2    0    0 -0.14985110562E-01 -0.32446895695E-01  0.16749946619E+00  0.17127079982E+00  0.51100000000E-03 0. -1.
    9000002    1    1    2    0    0  0.47206845474E+00  0.14017749768E+00  0.16845927742E+00  0.10727165912E+01  0.93800000000E+00 0. -1.
         22    1    1    2    0    0 -0.45708334418E+00 -0.10773060199E+00  0.36640412238E+01  0.36940126090E+01  0.00000000000E+00 0. -1.
</event>
<event>
 5    1  0.5849602E+001  0.1599676E+01  0.7818608E-02  0.3353715E+00
         11   -1    0    0    0    0  0.00000000000E+00  0.00000000000E+00  0.39999999674E+01  0.40000000000E+01  0.51100000000E-03 0. -1.
    9000002   -1    0    0    0    0 -0.00000000000E+00 -0.00000000000E+00  0.00000000000E+00  0.93800000000E+00  0.93800000000E+00 0. -1.
         11    1    1    2    0    0  0.77597477507E-02 -0.10847062031E+00  0.10429956657E+01  0.10486497551E+01  0.51100000000E-03 0. -1.
    9000002    1    1    2    0    0 -0.24976157307E-01  0.40364103280E+00  0.11038148755E+00  0.10274132394E+01  0.93800000000E+00 0. -1.
         22    1    1    2    0    0  0.17216409557E-01 -0.29517041250E+00  0.28466228141E+01  0.28619370054E+01  0.00000000000E+00 0. -1.
</event>
<event>
 5    1  0.5849602E+001  0.1599164E+01  0.7818608E-02  0.3354271E+00
         11   -1    0    0    0    0  0.00000000000E+00  0.00000000000E+00  0.39999999674E+01  0.40000000000E+01  0.51100000000E-03 0.  1.
    9000002   -1    0    0    0    0 -0.00000000000E+00 -0.00000000000E+00  0.00000000000E+00  0.93800000000E+00  0.93800000000E+00 0.  1.
         11    1    1    2    0    0 -0.10502268674E-01 -0.12611844679E-02  0.28027939666E+00  0.28047939238E+00  0.51100000000E-03 0.  1.
    9000002    1    1    2    0    0  0.32091921983E+00  0.10954093618E+00  0.77420112807E-01  0.10004130328E+01  0.93800000000E+00 0.  1.
         22    1    1    2    0    0 -0.31041695115E+00 -0.10827975171E+00  0.36423004579E+01  0.36571075748E+01  0.00000000000E+00 0.  1.
</event>
<event>
 5    1  0.5849602E+001  0.1599403E+01  0.7818608E-02  0.3354011E+00
         11   -1    0    0    0    0  0.00000000000E+00  0.00000000000E+00  0.39999999674E+01  0.40000000000E+01  0.51100000000E-03 0. -1.
    9000002   -1    0    0    0    0 -0.00000000000E+00 -0.00000000000E+00  0.00000000000E+00  0.93800000000E+00  0.93800000000E+00 0.  1.
         11    1    1    2    0    0  0.34913321456E-01 -0.29840522793E-01  0.40135419918E+00  0.40397382481E+00  0.51100000000E-03 0. -1.
    9000002    1    1    2    0    0 -0.38588350863E+00  0.18172889314E+00  0.12338347612E+00  0.10377856017E+01  0.93800000000E+00 0.  1.
         22    1    1    2    0    0  0.35097018718E+00 -0.15188837035E+00  0.34752622921E+01  0.34962405735E+01  0.00000000000E+00 0. -1.
</event>
<event>
 5    1  0.5849602E+001  0.1458072E+01  0.7818608E-02  0.3523450E+00
         11   -1    0    0    0    0  0.00000000000E+00  0.00000000000E+00  0.39999999674E+01  0.40000000000E+01  0.51100000000E-03 0. -1.
    9000002   -1    0    0    0    0 -0.00000000000E+00 -0.00000000000E+00  0.00000000000E+00  0.93800000000E+00  0.93800000000E+00 0. -1.
         11    1    1    2    0    0 -0.41556550704E+00 -0.19893273078E-01  0.83816709075E+00  0.93574289529E+00  0.51100000000E-03 0. -1.
    9000002    1    1    2    0    0  0.17548162712E+00 -0.14468704569E+00  0.15044550627E+00  0.97683468049E+00  0.93800000000E+00 0. -1.
         22    1    1    2    0    0  0.24008387992E+00  0.16458031877E+00  0.30113873703E+01  0.30254224242E+01  0.00000000000E+00 0. -1.
</event>
<event>
 5    1  0.5849602E+001  0.1599670E+01  0.7818608E-02  0.3353722E+00
         11   -1    0    0    0    0  0.00000000000E+00  0.00000000000E+00  0.39999999674E+01  0.40000000000E+01  0.51100000000E-03 0.  1.
    9000002   -1    0    0    0    0 -0.00000000000E+00 -0.00000000000E+00  0.00000000000E+00  0.93800000000E+00  0.93800000000E+00 0. -1.
         11    1    1    2    0    0 -0.27036483739E-01 -0.10820123636E-01  0.30583802524E+00  0.30722175270E+00  0.51100000000E-03 0.  1.
    9000002    1    1    2    0    0  0.35593385389E+00  0.15566895929E+00  0.10165760248E+00  0.10203430802E+01  0.93800000000E+00 0. -1.
         22    1    1    2    0    0 -0.32889737015E+00 -0.14484883566E+00  0.35925043396E+01  0.36104351671E+01  0.00000000000E+00 0.  1.
</event>
<event>
 5    1  0.5849602E+001  0.1549459E+01  0.7818608E-02  0.3410114E+00
         11   -1    0    0    0    0  0.00000000000E+00  0.00000000000E+00  0.39999999674E+01  0.40000000000E+01  0.51100000000E-03 0. -1.
    9000002   -1    0    0    0    0 -0.00000000000E+00 -0.00000000000E+00  0.00000000000E+00  0.93800000000E+00  0.93800000000E+00 0. -1.
         11    1    1    2    0    0 -0.11281266198E+00 -0.34739377206E-01  0.27466036903E+00  0.29895166912E+00  0.51100000000E-03 0. -1.
    9000002    1    1    2    0    0 -0.35315394068E+00  0.14261466286E+00  0.14007157316E+00  0.10220179516E+01  0.93800000000E+00 0. -1.
         22    1    1    2    0    0  0.46596660266E+00 -0.10787528565E+00  0.35852680252E+01  0.36170303792E+01  0.00000000000E+00 0. -1.
</event>
<event>
 5    1  0.5849602E+001  0.1598517E+01  0.7818608E-02  0.3354974E+00
         11   -1    0    0    0    0  0.00000000000E+00  0.00000000000E+00  0.39999999674E+01  0.40000000000E+01  0.51100000000E-03 0. -1.
    9000002   -1    0    0    0    0 -0.00000000000E+00 -0.00000000000E+00  0.00000000000E+00  0.93800000000E+00  0.93800000000E+00 0.  1.
         11    1    1    2    0    0 -0.11239940521E+00 -0.90533933817E-01  0.86157981632E+00  0.87358460407E+00  0.51100000000E-03 0. -1.
    9000002    1    1    2    0    0  0.35035750616E+00  0.36437528476E+00  0.17613015711E+00  0.10799933160E+01  0.93800000000E+00 0.  1.
         22    1    1    2    0    0 -0.23795810095E+00 -0.27384135095E+00  0.29622899939E+01  0.29844220800E+01  0.00000000000E+00 0. -1.
</event>
<event>
 5    1  0.5849602E+001  0.1599278E+01  0.7818608E-02  0.3354147E+00
         11   -1    0    0    0    0  0.00000000000E+00  0.00000000000E+00  0.39999999674E+01  0.40000000000E+01  0.51100000000E-03 0.  1.
    9000002   -1    0    0    0    0 -0.00000000000E+00 -0.00000000000E+00  0.00000000000E+00  0.93800000000E+00  0.93800000000E+00 0.  1.
         11    1    1    2    0    0  0.64458891740E-01 -0.31481919008E-01  0.73521728798E+00  0.73870886119E+00  0.51100000000E-03 0.  1.
    9000002    1    1    2    0    0 -0.30687720859E+00  0.26012673695E+00  0.10952881025E+00  0.10264892112E+01  0.93800000000E+00 0.  1.
         22    1    1    2    0    0  0.24241831685E+00 -0.22864481795E+00  0.31552538691E+01  0.31728019276E+01  0.00000000000E+00 0.  1.
</event>
<event>
 5    1  0.5849602E+001  0.1599671E+01  0.7818608E-02  0.3353720E+00
         11   -1    0    0    0    0  0.00000000000E+00  0.00000000000E+00  0.39999999674E+01  0.40000000000E+01  0.51100000000E-03 0. -1.
    9000002   -1    0    0    0    0 -0.00000000000E+00 -0.00000000000E+00  0.00000000000E+00  0.93800000000E+00  0.93800000000E+00 0. -1.
         11    1    1    2    0    0  0.16619533203E+00 -0.50854483421E-01  0.12567462325E+01  0.12687073819E+01  0.51100000000E-03 0. -1.
    9000002    1    1    2    0    0 -0.50324570776E+00  0.16215370363E+00  0.19233196696E+00  0.10937941541E+01  0.93800000000E+00 0. -1.
         22    1    1    2    0    0  0.33705037573E+00 -0.11129922021E+00  0.25509217679E+01  0.25754984640E+01  0.00000000000E+00 0. -1.
</event>
<event>
 5    1  0.5849602E+001  0.1598880E+01  0.7818608E-02  0.3354579E+00
         11   -1    0    0    0    0  0.00000000000E+00  0.00000000000E+00  0.39999999674E+01  0.40000000000E+01  0.51100000000E-03 0.  1.
    9000002   -1    0    0    0    0 -0.00000000000E+00 -0.00000000000E+00  0.00000000000E+00  0.93800000000E+00  0.93800000000E+00 0.  1.
         11    1    1    2    0    0 -0.12743237224E-01 -0.30248456902E-01  0.29620349071E+00  0.29801699326E+00  0.51100000000E-03 0.  1.
    9000002    1    1    2    0    0  0.38579694668E+00  0.31206399472E+00  0.16916223107E+00  0.10745618090E+01  0.93800000000E+00 0.  1.
         22    1    1    2    0    0 -0.37305370946E+00 -0.28181553782E+00  0.35346342456E+01  0.35654211978E+01  0.00000000000E+00 0.  1.
</event>
<event>
 5    1  0.5849602E+001  0.1577876E+01  0.7818608E-02  0.3377732E+00
         11   -1    0    0    0    0  0.00000000000E+00  0.00000000000E+00  0.39999999674E+01  0.40000000000E+01  0.51100000000E-03 0. -1.
    9000002   -1    0    0    0    0 -0.00000000000E+00 -0.00000000000E+00  0.00000000000E+00  0.93800000000E+00  0.93800000000E+00 0.  1.
         11    1    1    2    0    0  0.10471196071E+00  0.14966095494E+00  0.10748399471E+01  0.10902495903E+01  0.51100000000E-03 0. -1.
    9000002    1    1    2    0    0 -0.39321404267E+00  0.34002497409E-01  0.12330067715E+00  0.10250953664E+01  0.93800000000E+00 0.  1.
         22    1    1    2    0    0  0.28850208196E+00 -0.18366345234E+00  0.28018593432E+01  0.28226550434E+01  0.00000000000E+00 0. -1.
</event>
<event>
 5    1  0.5849602E+001  0.1469781E+01  0.7818608E-02  0.3508077E+00
         11   -1    0    0    0    0  0.00000000000E+00  0.00000000000E+00  0.39999999674E+01  0.40000000000E+01  0.51100000000E-03 0. -1.
    9000002   -1    0    0    0    0 -0.00000000000E+00 -0.00000000000E+00  0.00000000000E+00  0.93800000000E+00  0.93800000000E+00 0. -1.
         11    1    1    2    0    0  0.25905902940E-01  0.18929631122E+00  0.90365959674E-01  0.21135391418E+00  0.51100000000E-03 0. -1.
    9000002    1    1    2    0    0  0.28822043549E+00  0.39547759922E-01  0.20698267639E+00  0.10036537616E+01  0.93800000000E+00 0. -1.
         22    1    1    2    0    0 -0.31412633843E+00 -0.22884407115E+00  0.37026513313E+01  0.37229923243E+01  0.00000000000E+00 0. -1.
</event>
<event>
 5    1  0.5849602E+001  0.1598438E+01  0.7818608E-02  0.3355060E+00
         11   -1    0    0    0    0  0.00000000000E+00  0.00000000000E+00  0.39999999674E+01  0.40000000000E+01  0.51100000000E-03 0. -1.
    9000002   -1    0    0    0    0 -0.00000000000E+00 -0.00000000000E+00  0.00000000000E+00  0.93800000000E+00  0.93800000000E+00 0. -1.
         11    1    1    2    0    0  0.23251626223E-01  0.87358998956E-02  0.13054193010E+00  0.13288495288E+00  0.51100000000E-03 0. -1.
    9000002    1    1    2    0    0 -0.49819499804E+00  0.15776469627E+00  0.18881388642E+00  0.10902213716E+01  0.93800000000E+00 0. -1.
         22    1    1    2    0    0  0.47494337182E+00 -0.16650059617E+00  0.36806441508E+01  0.37148936755E+01  0.00000000000E+00 0. -1.
</event>
<event>
 5    1  0.5849602E+001  0.1599676E+01  0.7818608E-02  0.3353715E+00
         11   -1    0    0    0    0  0.00000000000E+00  0.00000000000E+00  0.39999999674E+01  0.40000000000E+01  0.51100000000E-03 0. -1.
    9000002   -1    0    0    0    0 -0.00000000000E+00 -0.00000000000E+00  0.00000000000E+00  0.93800000000E+00  0.93800000000E+00 0. -1.
         11    1    1    2    0    0 -0.13751118103E+00 -0.72772401495E-02  0.14027899062E+01  0.14095325698E+01  0.51100000000E-03 0. -1.
    9000002    1    1    2    0    0  0.38073802475E+00  0.22389648991E-01  0.97890367877E-01  0.10172950722E+01  0.93800000000E+00 0. -1.
         22    1    1    2    0    0 -0.24322684372E+00 -0.15112408841E-01  0.24993196933E+01  0.25111723580E+01  0.00000000000E+00 0. -1.
</event>
<event>
 5    1  0.5849602E+001  0.1593714E+01  0.7818608E-02  0.3360215E+00
         11   -1    0    0    0    0  0.00000000000E+00  0.00000000000E+00  0.39999999674E+01  0.40000000000E+01  0.51100000000E-03 0.  1.
    9000002   -1    0    0    0    0 -0.00000000000E+00 -0.00000000000E+00  0.00000000000E+00  0.93800000000E+00  0.93800000000E+00 0. -1.
         11    1    1    2    0    0  0.71301727695E-01  0.23001580963E-02  0.11659949358E+01  0.11681753630E+01  0.51100000000E-03 0.  1.
    9000002    1    1    2    0    0 -0.45315538044E+00 -0.18592064154E+00  0.16930171114E+00  0.10716451620E+01  0.93800000000E+00 0. -1.
         22    1    1    2    0    0  0.38185365274E+00  0.18362048345E+00  0.26647033204E+01  0.26981794751E+01  0.00000000000E+00 0.  1.
</event>
<event>
 5    1  0.5849602E+001  0.1599676E+01  0.7818608E-02  0.3353715E+00
         11   -1    0    0    0    0  0.00000000000E+00  0.00000000000E+00  0.39999999674E+01  0.40000000000E+01  0.51100000000E-03 0. -1.
    9000002   -1    0    0    0    0 -0.00000000000E+00 -0.00000000000E+00  0.00000000000E+00  0.93800000000E+00  0.93800000000E+00 0.  1.
         11    1    1    2    0    0  0.17211785755E-01 -0.49470122214E-01  0.46464597772E+00  0.46758922602E+00  0.51100000000E-03 0.  1.
    9000002    1    1    2    0    0 -0.13908997101E+00  0.40950609205E+00  0.12671608218E+00  0.10406451004E+01  0.93800000000E+00 0.  1.
         22    1    1    2    0    0  0.12187818525E+00 -0.36003596983E+00  0.34086379075E+01  0.34297656736E+01  0.00000000000E+00 0. -1.
</event>
<event>
 5    1  0.5849602E+001  0.1599677E+01  0.7818608E-02  0.3353714E+00
         11   -1    0    0    0    0  0.00000000000E+00  0.00000000000E+00  0.39999999674E+01  0.40000000000E+01  0.51100000000E-03 0.  1.
    9000002   -1    0    0    0    0 -0.00000000000E+00 -0.00000000000E+00  0.00000000000E+00  0.93800000000E+00  0.93800000000E+00 0.  1.
         11    1    1    2    0    0  0.13602255777E+00  0.24720762706E-02  0.13939861513E+01  0.14006091169E+01  0.51100000000E-03 0.  1.
    9000002    1    1    2    0    0 -0.38056862767E+00 -0.80263966522E-02  0.97500283345E-01  0.10169794534E+01  0.93800000000E+00 0.  1.
         22    1    1    2    0    0  0.24454606990E+00  0.55543203817E-02  0.25085135327E+01  0.25204114297E+01  0.00000000000E+00 0.  1.
</event>
<event>
 5    1  0.5849602E+001  0.1599674E+01  0.7818608E-02  0.3353718E+00
         11   -1    0    0    0    0  0.00000000000E+00  0.00000000000E+00  0.39999999674E+01  0.40000000000E+01  0.51100000000E-03 0.  1.
    9000002   -1    0    0    0    0 -0.00000000000E+00 -0.00000000000E+00  0.00000000000E+00  0.93800000000E+00  0.93800000000E+00 0.  1.
         11    1    1    2    0    0  0.22892083818E-01  0.12877581983E-01  0.27280060972E+00  0.27406260854E+00  0.51100000000E-03 0.  1.
    9000002    1    1    2    0    0 -0.32417456575E+00 -0.17000703500E+00  0.90008792777E-01  0.10109090581E+01  0.93800000000E+00 0.  1.
         22    1    1    2    0    0  0.30128248194E+00  0.15712945302E+00  0.36371905649E+01  0.36530283333E+01  0.00000000000E+00 0.  1.
</event>
<event>
 5    1  0.5849602E+001  0.1597184E+01  0.7818608E-02  0.3356425E+00
         11   -1    0    0    0    0  0.00000000000E+00  0.00000000000E+00  0.39999999674E+01  0.40000000000E+01  0.51100000000E-03 0. -1.
    9000002   -1    0    0    0    0 -0.00000000000E+00 -0.00000000000E+00  0.00000000000E+00  0.93800000000E+00  0.93800000000E+00 0. -1.
         11    1    1    2    0    0  0.74100750606E-02  0.16951395503E-01  0.53292418799E-01  0.56414555253E-01  0.51100000000E-03 0. -1.
    9000002    1    1    2    0    0  0.89582794454E-01 -0.40900213249E+00  0.12064535255E+00  0.10342664659E+01  0.93800000000E+00 0. -1.
         22    1    1    2    0    0 -0.96992869514E-01  0.39205073698E+00  0.38260621960E+01  0.38473189788E+01  0.00000000000E+00 0. -1.
</event>
<event>
 5    1  0.5849602E+001  0.1599672E+01  0.7818608E-02  0.3353719E+00
         11   -1    0    0    0    0  0.00000000000E+00  0.00000000000E+00  0.39999999674E+01  0.40000000000E+01  0.51100000000E-03 0. -1.
    9000002   -1    0    0    0    0 -0.00000000000E+00 -0.00000000000E+00  0.00000000000E+00  0.93800000000E+00  0.93800000000E+00 0.  1.
         11    1    1    2    0    0 -0.34928233283E-01  0.13284122611E+00  0.10701378078E+01  0.10789170319E+01  0.51100000000E-03 0. -1.
    9000002    1    1    2    0    0  0.11679142386E+00 -0.47709522662E+00  0.16491875354E+00  0.10715886745E+01  0.93800000000E+00 0.  1.
         22    1    1    2    0    0 -0.81863190572E-01  0.34425400051E+00  0.27649434060E+01  0.27874942937E+01  0.00000000000E+00 0. -1.
</event>
<event>
 5    1  0.5849602E+001  0.1599663E+01  0.7818608E-02  0.3353730E+00
         11   -1    0    0    0    0  0.00000000000E+00  0.00000000000E+00  0.39999999674E+01  0.40000000000E+01  0.51100000000E-03 0. -1.
    9000002   -1    0    0    0    0 -0.00000000000E+00 -0.00000000000E+00  0.00000000000E+00  0.93800000000E+00  0.93800000000E+00 0. -1.
         11    1    1    2    0    0  0.39948866165E-01 -0.91684807107E-01  0.80920689827E+00  0.81536377225E+00  0.51100000000E-03 0. -1.
    9000002    1    1    2    0    0 -0.20612936924E+00  0.44082449413E+00  0.16176912422E+00  0.10690317119E+01  0.93800000000E+00 0. -1.
         22    1    1    2    0    0  0.16618050307E+00 -0.34913968702E+00  0.30290239449E+01  0.30536045159E+01  0.00000000000E+00 0. -1.
</event>
<event>
 5    1  0.5849602E+001  0.1552015E+01  0.7818608E-02  0.3407150E+00
         11   -1    0    0    0    0  0.00000000000E+00  0.00000000000E+00  0.39999999674E+01  0.40000000000E+01  0.51100000000E-03 0. -1.
    9000002   -1    0    0    0    0 -0.00000000000E+00 -0.00000000000E+00  0.00000000000E+00  0.93800000000E+00  0.93800000000E+00 0.  1.
         11    1    1    2    0    0  0.89439765941E-01  0.11142788387E+00  0.83223109426E+00  0.84440778088E+00  0.51100000000E-03 0. -1.
    9000002    1    1    2    0    0  0.96965753956E-02  0.39089344919E+00  0.14353540977E+00  0.10263226228E+01  0.93800000000E+00 0.  1.
         22    1    1    2    0    0 -0.99136341336E-01 -0.50232133306E+00  0.30242334633E+01  0.30672695963E+01  0.00000000000E+00 0. -1.
</event>
<event>
 5    1  0.5849602E+001  0.1599548E+01  0.7818608E-02  0.3353854E+00
         11   -1    0    0    0    0  0.00000000000E+00  0.00000000000E+00  0.39999999674E+01  0.40000000000E+01  0.51100000000E-03 0.  1.
    9000002   -1    0    0    0    0 -0.00000000000E+00 -0.00000000000E+00  0.00000000000E+00  0.93800000000E+00  0.93800000000E+00 0.  1.
         11    1    1    2    0    0 -0.53586138233E+00 -0.43517420478E+00  0.11326780400E+01  0.13264553566E+01  0.51100000000E-03 0.  1.
    9000002    1    1    2    0    0  0.10083167191E+01  0.79649654071E+00  0.19263793108E+01  0.24983775924E+01  0.93800000000E+00 0.  1.
         22    1    1    2    0    0 -0.47245533678E+00 -0.36132233593E+00  0.94094261661E+00  0.11131670510E+01  0.00000000000E+00 0.  1.
</event>
<event>
 5    1  0.5849602E+001  0.1469627E+01  0.7818608E-02  0.3508278E+00
         11   -1    0    0    0    0  0.00000000000E+00  0.00000000000E+00  0.39999999674E+01  0.40000000000E+01  0.51100000000E-03 0. -1.
    9000002   -1    0    0    0    0 -0.00000000000E+00 -0.00000000000E+00  0.00000000000E+00  0.93800000000E+00  0.93800000000E+00 0. -1.
         11    1    1    2    0    0 -0.45879067265E+00  0.56913321965E-02  0.90744250342E+00  0.10168448410E+01  0.51100000000E-03 0. -1.
    9000002    1    1    2    0    0  0.34267845862E+00 -0.24339956759E+00  0.23890793316E+00  0.10552691012E+01  0.93800000000E+00 0. -1.
         22    1    1    2    0    0  0.11611221403E+00  0.23770823539E+00  0.28536495308E+01  0.28658860577E+01  0.00000000000E+00 0. -1.
</event>
<event>
 5    1  0.5849602E+001  0.1599677E+01  0.7818608E-02  0.3353714E+00
         11   -1    0    0    0    0  0.00000000000E+00  0.00000000000E+00  0.39999999674E+01  0.40000000000E+01  0.51100000000E-03 0.  1.
    9000002   -1    0    0    0    0 -0.00000000000E+00 -0.00000000000E+00  0.00000000000E+00  0.93800000000E+00  0.93800000000E+00 0.  1.
         11    1    1    2    0    0 -0.61574375819E-01 -0.58014629922E-01  0.90802812736E+00  0.91196076793E+00  0.51100000000E-03 0.  1.
    9000002    1    1    2    0    0  0.26356723875E+00  0.24942804682E+00  0.88422467253E-01  0.10096259568E+01  0.93800000000E+00 0.  1.
         22    1    1    2    0    0 -0.20199286294E+00 -0.19141341689E+00  0.30035493727E+01  0.30164132753E+01  0.00000000000E+00 0.  1.
</event>
<event>
 5    1  0.5849602E+001  0.1599642E+01  0.7818608E-02  0.3353752E+00
         11   -1    0    0    0    0  0.00000000000E+00  0.00000000000E+00  0.39999999674E+01  0.40000000000E+01  0.51100000000E-03 0. -1.
    9000002   -1    0    0    0    0 -0.00000000000E+00 -0.00000000000E+00  0.00000000000E+00  0.93800000000E+00  0.93800000000E+00 0.  1.
         11    1    1    2    0    0  0.26112850747E-01 -0.93764288628E-01  0.92773874644E+00  0.93283067358E+00  0.51100000000E-03 0. -1.
    9000002    1    1    2    0    0 -0.13261009061E+00  0.38256011326E+00  0.11067842678E+00  0.10276338796E+01  0.93800000000E+00 0.  1.
         22    1    1    2    0    0  0.10649723986E+00 -0.28879582464E+00  0.29615827941E+01  0.29775354468E+01  0.00000000000E+00 0. -1.
</event>
<event>
 5    1  0.5849602E+001  0.1596864E+01  0.7818608E-02  0.3356774E+00
         11   -1    0    0    0    0  0.00000000000E+00  0.00000000000E+00  0.39999999674E+01  0.40000000000E+01  0.51100000000E-03 0. -1.
    9000002   -1    0    0    0    0 -0.00000000000E+00 -0.00000000000E+00  0.00000000000E+00  0.93800000000E+00  0.93800000000E+00 0.  1.
         11    1    1    2    0    0 -0.29573269710E-01  0.66804879748E-01  0.35826217806E+00  0.36563577449E+00  0.51100000000E-03 0. -1.
    9000002    1    1    2    0    0  0.25442526357E+00 -0.32522043350E+00  0.11756629204E+00  0.10315844018E+01  0.93800000000E+00 0.  1.
         22    1    1    2    0    0 -0.22485199386E+00  0.25841555375E+00  0.35241714973E+01  0.35407798237E+01  0.00000000000E+00 0. -1.
</event>
<event>
 5    1  0.5849602E+001  0.1472202E+01  0.7818608E-02  0.3504933E+00
         11   -1    0    0    0    0  0.00000000000E+00  0.00000000000E+00  0.39999999674E+01  0.40000000000E+01  0.51100000000E-03 0.  1.
    9000002   -1    0    0    0    0 -0.00000000000E+00 -0.00000000000E+00  0.00000000000E+00  0.93800000000E+00  0.93800000000E+00 0.  1.
         11    1    1    2    0    0  0.19254297043E+00  0.22694804802E+00 -0.10060902231E-01  0.29779136125E+00  0.51100000000E-03 0.  1.
    9000002    1    1    2    0    0  0.31009166215E+00 -0.97231147301E+00  0.28796251910E+01  0.31958772943E+01  0.93800000000E+00 0.  1.
         22    1    1    2    0    0 -0.50263463257E+00  0.74536342500E+00  0.11304356786E+01  0.14443313445E+01  0.00000000000E+00 0.  1.
</event>
<event>
 5    1  0.5849602E+001  0.1463130E+01  0.7818608E-02  0.3516777E+00
         11   -1    0    0    0    0  0.00000000000E+00  0.00000000000E+00  0.39999999674E+01  0.40000000000E+01  0.51100000000E-03 0.  1.
    9000002   -1    0    0    0    0 -0.00000000000E+00 -0.00000000000E+00  0.00000000000E+00  0.93800000000E+00  0.93800000000E+00 0.  1.
         11    1    1    2    0    0  0.25148661095E+00 -0.79107461304E-01  0.41875125481E+00  0.49482964791E+00  0.51100000000E-03 0.  1.
    9000002    1    1    2    0    0  0.13049326161E+00 -0.20130458965E+00  0.15046157792E+00  0.97981361267E+00  0.93800000000E+00 0.  1.
         22    1    1    2    0    0 -0.38197987256E+00  0.28041205096E+00  0.34307871346E+01  0.34633567394E+01  0.00000000000E+00 0.  1.
</event>
<event>
 5    1  0.5849602E+001  0.1599586E+01  0.7818608E-02  0.3353813E+00
         11   -1    0    0    0    0  0.00000000000E+00  0.00000000000E+00  0.39999999674E+01  0.40000000000E+01  0.51100000000E-03 0. -1.
    9000002   -1    0    0    0    0 -0.00000000000E+00 -0.00000000000E+00  0.00000000000E+00  0.93800000000E+00  0.93800000000E+00 0.  1.
         11    1    1    2    0    0  0.80399334368E-01  0.13727910355E+00  0.10844510313E+01  0.10960583495E+01  0.51100000000E-03 0. -1.
    9000002    1    1    2    0    0 -0.31267009607E+00 -0.49048531847E+00  0.23524332944E+00  0.11285042581E+01  0.93800000000E+00 0.  1.
         22    1    1    2    0    0  0.23227076170E+00  0.35320621492E+00  0.26803056067E+01  0.27134373923E+01  0.00000000000E+00 0. -1.
</event>
<event>
 5    1  0.5849602E+001  0.1599658E+01  0.7818608E-02  0.3353735E+00
         11   -1    0    0    0    0  0.00000000000E+00  0.00000000000E+00  0.39999999674E+01  0.40000000000E+01  0.51100000000E-03 0.  1.
    9000002   -1    0    0    0    0 -0.00000000000E+00 -0.00000000000E+00  0.00000000000E+00  0.93800000000E+00  0.93800000000E+00 0.  1.
         11    1    1    2    0    0 -0.62475530150E-03 -0.56286755500E-02  0.42109668367E-01  0.42491853321E-01  0.51100000000E-03 0.  1.
    9000002    1    1    2    0    0 -0.32774903274E-01  0.50930968715E+00  0.17863888540E+00  0.10826940487E+01  0.93800000000E+00 0.  1.
         22    1    1    2    0    0  0.33399658576E-01 -0.50368101160E+00  0.37792514136E+01  0.38128140980E+01  0.00000000000E+00 0.  1.
</event>
<event>
 5    1  0.5849602E+001  0.1599676E+01  0.7818608E-02  0.3353715E+00
         11   -1    0    0    0    0  0.00000000000E+00  0.00000000000E+00  0.39999999674E+01  0.40000000000E+01  0.51100000000E-03 0. -1.
    9000002   -1    0    0    0    0 -0.00000000000E+00 -0.00000000000E+00  0.00000000000E+00  0.93800000000E+00  0.93800000000E+00 0. -1.
         11    1    1    2    0    0 -0.19292273055E-01  0.37630641642E-01  0.34043916383E+00  0.34305588813E+00  0.51100000000E-03 0. -1.
    9000002    1    1    2    0    0  0.22429033610E+00 -0.42405493194E+00  0.15701501100E+00  0.10651884593E+01  0.93800000000E+00 0. -1.
         22    1    1    2    0    0 -0.20499806304E+00  0.38642429030E+00  0.35025457925E+01  0.35297556526E+01  0.00000000000E+00 0. -1.
</event>
<event>
 5    1  0.5849602E+001  0.1599677E+01  0.7818608E-02  0.3353714E+00
         11   -1    0    0    0    0  0.00000000000E+00  0.00000000000E+00  0.39999999674E+01  0.40000000000E+01  0.51100000000E-03 0.  1.
    9000002   -1    0    0    0    0 -0.00000000000E+00 -0.00000000000E+00  0.00000000000E+00  0.93800000000E+00  0.93800000000E+00 0. -1.
         11    1    1    2    0    0 -0.10927834009E-01  0.87207151677E-01  0.85862728490E+00  0.86311388608E+00  0.51100000000E-03 0. -1.
    9000002    1    1    2    0    0  0.49673886247E-01 -0.39519466879E+00  0.10698695714E+00  0.10246641060E+01  0.93800000000E+00 0. -1.
         22    1    1    2    0    0 -0.38746052238E-01  0.30798751712E+00  0.30343857253E+01  0.30502220079E+01  0.00000000000E+00 0.  1.
</event>
<event>
 5    1  0.5849602E+001  0.1599677E+01  0.7818608E-02  0.3353714E+00
         11   -1    0    0    0    0  0.00000000000E+00  0.00000000000E+00  0.39999999674E+01  0.40000000000E+01  0.51100000000E-03 0. -1.
    9000002   -1    0    0    0    0 -0.00000000000E+00 -0.00000000000E+00  0.00000000000E+00  0.93800000000E+00  0.93800000000E+00 0. -1.
         11    1    1    2    0    0 -0.17811330460E+00  0.77930548857E-01  0.12178050145E+01  0.12332261894E+01  0.51100000000E-03 0.  1.
    9000002    1    1    2    0    0  0.54930540249E+00 -0.24004092101E+00  0.25069361458E+00  0.11410728975E+01  0.93800000000E+00 0. -1.
         22    1    1    2    0    0 -0.37119209790E+00  0.16211037215E+00  0.25315013383E+01  0.25637009132E+01  0.00000000000E+00 0. -1.
</event>
<event>
 5    1  0.5849602E+001  0.1599676E+01  0.7818608E-02  0.3353715E+00
         11   -1    0    0    0    0  0.00000000000E+00  0.00000000000E+00  0.39999999674E+01  0.40000000000E+01  0.51100000000E-03 0. -1.
    9000002   -1    0    0    0    0 -0.00000000000E+00 -0.00000000000E+00  0.00000000000E+00  0.93800000000E+00  0.93800000000E+00 0.  1.
         11    1    1    2    0    0  0.19423200072E-03 -0.14434791009E+00  0.14307943476E+01  0.14380573991E+01  0.51100000000E-03 0. -1.
    9000002    1    1    2    0    0 -0.29275375549E-02  0.39453877019E+00  0.10492996084E+00  0.10229974137E+01  0.93800000000E+00 0.  1.
         22    1    1    2    0    0  0.27333055542E-02 -0.25019086010E+00  0.24642756590E+01  0.24769451873E+01  0.00000000000E+00 0.  1.
</event>
<event>
 5    1  0.5849602E+001  0.1587168E+01  0.7818608E-02  0.3367409E+00
         11   -1    0    0    0    0  0.00000000000E+00  0.00000000000E+00  0.39999999674E+01  0.40000000000E+01  0.51100000000E-03 0.  1.
    9000002   -1    0    0    0    0 -0.00000000000E+00 -0.00000000000E+00  0.00000000000E+00  0.93800000000E+00  0.93800000000E+00 0. -1.
         11    1    1    2    0    0 -0.15737217092E+00 -0.10820495896E+00  0.11391301521E+01  0.11550290376E+01  0.51100000000E-03 0.  1.
    9000002    1    1    2    0    0  0.37379465791E+00 -0.15971064314E-01  0.10441477643E+00  0.10152457667E+01  0.93800000000E+00 0. -1.
         22    1    1    2    0    0 -0.21642248699E+00  0.12417602327E+00  0.27564550389E+01  0.27677251957E+01  0.00000000000E+00 0.  1.
</event>
<event>
 5    1  0.5849602E+001  0.1597361E+01  0.7818608E-02  0.3356233E+00
         11   -1    0    0    0    0  0.00000000000E+00  0.00000000000E+00  0.39999999674E+01  0.40000000000E+01  0.51100000000E-03 0.  1.
    9000002   -1    0    0    0    0 -0.00000000000E+00 -0.00000000000E+00  0.00000000000E+00  0.93800000000E+00  0.93800000000E+00 0. -1.
         11    1    1    2    0    0 -0.98164970498E-02 -0.54371189211E-02  0.26564803794E-01  0.28842257160E-01  0.51100000000E-03 0.  1.
    9000002    1    1    2    0    0  0.36340970702E+00 -0.14513709661E+00  0.10509461487E+00  0.10217731011E+01  0.93800000000E+00 0. -1.
         22    1    1    2    0    0 -0.35359320997E+00  0.15057421553E+00  0.38683405487E+01  0.38873846418E+01  0.00000000000E+00 0.  1.
</event>
<event>
 5    1  0.5849602E+001  0.1598205E+01  0.7818608E-02  0.3355313E+00
         11   -1    0    0    0    0  0.00000000000E+00  0.00000000000E+00  0.39999999674E+01  0.40000000000E+01  0.51100000000E-03 0.  1.
    9000002   -1    0    0    0    0 -0.00000000000E+00 -0.00000000000E+00  0.00000000000E+00  0.93800000000E+00  0.93800000000E+00 0. -1.
         11    1    1    2    0    0 -0.15275319587E-01 -0.18528738059E-01  0.12958989410E+00  0.13179700792E+00  0.51100000000E-03 0.  1.
    9000002    1    1    2    0    0  0.52980555095E+00  0.58545960192E-01  0.19699200010E+00  0.10967093505E+01  0.93800000000E+00 0. -1.
         22    1    1    2    0    0 -0.51453023136E+00 -0.40017222133E-01  0.36734180732E+01  0.37094936416E+01  0.00000000000E+00 0.  1.
</event>
<event>
 5    1  0.5849602E+001  0.1599674E+01  0.7818608E-02  0.3353718E+00
         11   -1    0    0    0    0  0.00000000000E+00  0.00000000000E+00  0.39999999674E+01  0.40000000000E+01  0.51100000000E-03 0.  1.
    9000002   -1    0    0    0    0 -0.00000000000E+00 -0.00000000000E+00  0.00000000000E+00  0.93800000000E+00  0.93800000000E+00 0.  1.
         11    1    1    2    0    0 -0.24060759025E+00  0.75525334909E-02  0.14048394451E+01  0.14253151163E+01  0.51100000000E-03 0.  1.
    9000002    1    1    2    0    0  0.63234440933E+00 -0.23440130787E-01  0.28140920895E+00  0.11659519864E+01  0.93800000000E+00 0.  1.
         22    1    1    2    0    0 -0.39173681908E+00  0.15887597296E-01  0.23137513133E+01  0.23467328973E+01  0.00000000000E+00 0. -1.
</event>
<event>
 5    1  0.5849602E+001  0.1593324E+01  0.7818608E-02  0.3360641E+00
         11   -1    0    0    0    0  0.00000000000E+00  0.00000000000E+00  0.39999999674E+01  0.40000000000E+01  0.51100000000E-03 0. -1.
    9000002   -1    0    0    0    0 -0.00000000000E+00 -0.00000000000E+00  0.00000000000E+00  0.93800000000E+00  0.93800000000E+00 0. -1.
         11    1    1    2    0    0 -0.61702346227E-01  0.11964992406E+00  0.53118950859E+00  0.54798342950E+00  0.51100000000E-03 0. -1.
    9000002    1    1    2    0    0  0.19892876042E+00 -0.44450167584E+00  0.16767622621E+00  0.10700998591E+01  0.93800000000E+00 0. -1.
         22    1    1    2    0    0 -0.13722641419E+00  0.32485175178E+00  0.33011342326E+01  0.33199167114E+01  0.00000000000E+00 0. -1.
</event>
<event>
 5    1  0.5849602E+001  0.1599677E+01  0.7818608E-02  0.3353714E+00
         11   -1    0    0    0    0  0.00000000000E+00  0.00000000000E+00  0.39999999674E+01  0.40000000000E+01  0.51100000000E-03 0. -1.
    9000002   -1    0    0    0    0 -0.00000000000E+00 -0.00000000000E+00  0.00000000000E+00  0.93800000000E+00  0.93800000000E+00 0. -1.
         11    1    1    2    0    0 -0.36951195367E-01  0.57888015582E-01  0.50461088925E+00  0.50926302031E+00  0.51100000000E-03 0.  1.
    9000002    1    1    2    0    0  0.27843516064E+00 -0.43955721953E+00  0.18598461671E+00  0.10886555771E+01  0.93800000000E+00 0. -1.
         22    1    1    2    0    0 -0.24148396527E+00  0.38166920395E+00  0.33094044614E+01  0.33400814026E+01  0.00000000000E+00 0. -1.
</event>
<event>
 5    1  0.7237011E+001  0.1587383E+01  0.7818608E-02  0.3367172E+00
         11   -1    0    0    0    0  0.00000000000E+00  0.00000000000E+00  0.39999999674E+01  0.40000000000E+01  0.51100000000E-03 0.  1.
    9000002   -1    0    0    0    0 -0.00000000000E+00 -0.00000000000E+00  0.00000000000E+00  0.93800000000E+00  0.93800000000E+00 0. -1.
         11    1    1    2    0    0 -0.66091887387E-01  0.76605345605E-02  0.13113572413E+01  0.13130441336E+01  0.51100000000E-03 0.  1.
    9000002    1    1    2    0    0 -0.10965992435E+00  0.19644073294E+00  0.42918540679E-01  0.96555696968E+00  0.93800000000E+00 0. -1.
         22    1    1    2    0    0  0.17575181174E+00 -0.20410126750E+00  0.26457241854E+01  0.26593988967E+01  0.00000000000E+00 0.  1.
</event>
<event>
 5    1  0.5849602E+001  0.1599055E+01  0.7818608E-02  0.3354389E+00
         11   -1    0    0    0    0  0.00000000000E+00  0.00000000000E+00  0.39999999674E+01  0.40000000000E+01  0.51100000000E-03 0. -1.
    9000002   -1    0    0    0    0 -0.00000000000E+00 -0.00000000000E+00  0.00000000000E+00  0.93800000000E+00  0.93800000000E+00 0.  1.
         11    1    1    2    0    0  0.79599712284E-01 -0.37717103119E-01  0.67453389336E+00  0.68026092676E+00  0.51100000000E-03 0. -1.
    9000002    1    1    2    0    0 -0.37776870918E+00  0.11454371364E+00  0.10555548350E+00  0.10231399807E+01  0.93800000000E+00 0.  1.
         22    1    1    2    0    0  0.29816899689E+00 -0.76826610517E-01  0.32199105905E+01  0.32345990926E+01  0.00000000000E+00 0. -1.
</event>
<event>
 5    1  0.5849602E+001  0.1599647E+01  0.7818608E-02  0.3353747E+00
         11   -1    0    0    0    0  0.00000000000E+00  0.00000000000E+00  0.39999999674E+01  0.40000000000E+01  0.51100000000E-03 0. -1.
    9000002   -1    0    0    0    0 -0.00000000000E+00 -0.00000000000E+00  0.00000000000E+00  0.93800000000E+00  0.93800000000E+00 0.  1.
         11    1    1    2    0    0  0.12295075020E+00 -0.35461310828E-01  0.11877392419E+01  0.11946125562E+01  0.51100000000E-03 0. -1.
    9000002    1    1    2    0    0 -0.41882200176E+00  0.10691040393E+00  0.12660157639E+00  0.10405352770E+01  0.93800000000E+00 0.  1.
         22    1    1    2    0    0  0.29587125155E+00 -0.71449093101E-01  0.26856591490E+01  0.27028521667E+01  0.00000000000E+00 0. -1.
</event>
<event>
 5    1  0.5849602E+001  0.1599615E+01  0.7818608E-02  0.3353781E+00
         11   -1    0    0    0    0  0.00000000000E+00  0.00000000000E+00  0.39999999674E+01  0.40000000000E+01  0.51100000000E-03 0. -1.
    9000002   -1    0    0    0    0 -0.00000000000E+00 -0.00000000000E+00  0.00000000000E+00  0.93800000000E+00  0.93800000000E+00 0.  1.
         11    1    1    2    0    0 -0.30586809883E-01  0.83894956102E-01  0.89206959098E+00  0.89652793201E+00  0.51100000000E-03 0. -1.
    9000002    1    1    2    0    0  0.13571910104E+00 -0.39954885438E+00  0.12050671087E+00  0.10355794652E+01  0.93800000000E+00 0.  1.
         22    1    1    2    0    0 -0.10513229115E+00  0.31565389828E+00  0.29874236655E+01  0.30058926028E+01  0.00000000000E+00 0. -1.
</event>
<event>
 5    1  0.5849602E+001  0.1599410E+01  0.7818608E-02  0.3354004E+00
         11   -1    0    0    0    0  0.00000000000E+00  0.00000000000E+00  0.39999999674E+01  0.40000000000E+01  0.51100000000E-03 0.  1.
    9000002   -1    0    0    0    0 -0.00000000000E+00 -0.00000000000E+00  0.00000000000E+00  0.93800000000E+00  0.93800000000E+00 0.  1.
         11    1    1    2    0    0 -0.84670651810E-01 -0.11726742223E+00  0.86317193442E+00  0.87520672820E+00  0.51100000000E-03 0.  1.
    9000002    1    1    2    0    0  0.34753440187E+00  0.44416393841E+00  0.22053466125E+00  0.11164861403E+01  0.93800000000E+00 0.  1.
         22    1    1    2    0    0 -0.26286375006E+00 -0.32689651619E+00  0.29162933717E+01  0.29463071315E+01  0.00000000000E+00 0.  1.
</event>
<event>
 5    1  0.5849602E+001  0.1596110E+01  0.7818608E-02  0.3357597E+00
         11   -1    0    0    0    0  0.00000000000E+00  0.00000000000E+00  0.39999999674E+01  0.40000000000E+01  0.51100000000E-03 0. -1.
    9000002   -1    0    0    0    0 -0.00000000000E+00 -0.00000000000E+00  0.00000000000E+00  0.93800000000E+00  0.93800000000E+00 0. -1.
         11    1    1    2    0    0  0.13640672774E+00  0.19878577600E+00  0.66463788371E+00  0.70701227549E+00  0.51100000000E-03 0. -1.
    9000002    1    1    2    0    0 -0.64437264350E+00 -0.69190270361E+00  0.70480285099E+00  0.15068299551E+01  0.93800000000E+00 0. -1.
         22    1    1    2    0    0  0.50796591575E+00  0.49311692761E+00  0.26305592327E+01  0.27241577694E+01  0.00000000000E+00 0. -1.
</event>
<event>
 5    1  0.5849602E+001  0.1597576E+01  0.7818608E-02  0.3355999E+00
         11   -1    0    0    0    0  0.00000000000E+00  0.00000000000E+00  0.39999999674E+01  0.40000000000E+01  0.51100000000E-03 0.  1.
    9000002   -1    0    0    0    0 -0.00000000000E+00 -0.00000000000E+00  0.00000000000E+00  0.93800000000E+00  0.93800000000E+00 0. -1.
         11    1    1    2    0    0 -0.38395940933E-01 -0.52707328120E-01  0.91369494995E+00  0.91601912284E+00  0.51100000000E-03 0.  1.
    9000002    1    1    2    0    0  0.25136379212E+00  0.39918432019E+00  0.15348902670E+00  0.10611007298E+01  0.93800000000E+00 0. -1.
         22    1    1    2    0    0 -0.21296785118E+00 -0.34647699207E+00  0.29328159907E+01  0.29608801474E+01  0.00000000000E+00 0.  1.
</event>
<event>
 5    1  0.5849602E+001  0.1599640E+01  0.7818608E-02  0.3353754E+00
         11   -1    0    0    0    0  0.00000000000E+00  0.00000000000E+00  0.39999999674E+01  0.40000000000E+01  0.51100000000E-03 0.  1.
    9000002   -1    0    0    0    0 -0.00000000000E+00 -0.00000000000E+00  0.00000000000E+00  0.93800000000E+00  0.93800000000E+00 0. -1.
         11    1    1    2    0    0  0.92133122480E-01 -0.96300602781E-03  0.38279418354E+00  0.39372717421E+00  0.51100000000E-03 0.  1.
    9000002    1    1    2    0    0 -0.84571632506E+00 -0.30996808723E-01  0.53644147138E+00  0.13725197109E+01  0.93800000000E+00 0. -1.
         22    1    1    2    0    0  0.75358320257E+00  0.31959814751E-01  0.30807643124E+01  0.31717531149E+01  0.00000000000E+00 0.  1.
</event>
<event>
 5    1  0.5849602E+001  0.1591499E+01  0.7818608E-02  0.3362643E+00
         11   -1    0    0    0    0  0.00000000000E+00  0.00000000000E+00  0.39999999674E+01  0.40000000000E+01  0.51100000000E-03 0. -1.
    9000002   -1    0    0    0    0 -0.00000000000E+00 -0.00000000000E+00  0.00000000000E+00  0.93800000000E+00  0.93800000000E+00 0.  1.
         11    1    1    2    0    0  0.65812460888E-01 -0.50438465619E-02  0.20525179934E+00  0.21560445879E+00  0.51100000000E-03 0. -1.
    9000002    1    1    2    0    0 -0.32667609446E+00  0.29332488504E+00  0.13774567185E+00  0.10447844893E+01  0.93800000000E+00 0. -1.
         22    1    1    2    0    0  0.26086363357E+00 -0.28828103848E+00  0.36570024962E+01  0.36776110520E+01  0.00000000000E+00 0.  1.
</event>
<event>
 5    1  0.5849602E+001  0.1594433E+01  0.7818608E-02  0.3359428E+00
         11   -1    0    0    0    0  0.00000000000E+00  0.00000000000E+00  0.39999999674E+01  0.40000000000E+01  0.51100000000E-03 0.  1.
    9000002   -1    0    0    0    0 -0.00000000000E+00 -0.00000000000E+00  0.00000000000E+00  0.93800000000E+00  0.93800000000E+00 0. -1.
         11    1    1    2    0    0 -0.16313648075E+00 -0.13438517519E+00  0.11024684699E+01  0.11225461571E+01  0.51100000000E-03 0.  1.
    9000002    1    1    2    0    0  0.43057203475E+00  0.22692146024E+00  0.16648936591E+00  0.10697889209E+01  0.93800000000E+00 0. -1.
         22    1    1    2    0    0 -0.26743555401E+00 -0.92536285048E-01  0.27310421315E+01  0.27456649220E+01  0.00000000000E+00 0.  1.
</event>
<event>
 5    1  0.5849602E+001  0.1581514E+01  0.7818608E-02  0.3373675E+00
         11   -1    0    0    0    0  0.00000000000E+00  0.00000000000E+00  0.39999999674E+01  0.40000000000E+01  0.51100000000E-03 0. -1.
    9000002   -1    0    0    0    0 -0.00000000000E+00 -0.00000000000E+00  0.00000000000E+00  0.93800000000E+00  0.93800000000E+00 0. -1.
         11    1    1    2    0    0 -0.94099633104E-01 -0.50941504018E-01  0.10595917283E+01  0.10649810653E+01  0.51100000000E-03 0. -1.
    9000002    1    1    2    0    0 -0.18318810211E+00  0.23005728480E+00  0.71972889301E-01  0.98565122221E+00  0.93800000000E+00 0. -1.
         22    1    1    2    0    0  0.27728773522E+00 -0.17911578078E+00  0.28684353498E+01  0.28873677125E+01  0.00000000000E+00 0. -1.
</event>
<event>
 5    1  0.5849602E+001  0.1599225E+01  0.7818608E-02  0.3354205E+00
         11   -1    0    0    0    0  0.00000000000E+00  0.00000000000E+00  0.39999999674E+01  0.40000000000E+01  0.51100000000E-03 0.  1.
    9000002   -1    0    0    0    0 -0.00000000000E+00 -0.00000000000E+00  0.00000000000E+00  0.93800000000E+00  0.93800000000E+00 0.  1.
         11    1    1    2    0    0  0.26612555954E-01 -0.11995426868E+00  0.76793918737E+00  0.77770695724E+00  0.51100000000E-03 0.  1.
    9000002    1    1    2    0    0 -0.80639967551E-01  0.66411769569E+00  0.31777795668E+00  0.11951493412E+01  0.93800000000E+00 0.  1.
         22    1    1    2    0    0  0.54027411597E-01 -0.54416342702E+00  0.29142828233E+01  0.29651437015E+01  0.00000000000E+00 0. -1.
</event>
<event>
 5    1  0.5849602E+001  0.1599656E+01  0.7818608E-02  0.3353737E+00
         11   -1    0    0    0    0  0.00000000000E+00  0.00000000000E+00  0.39999999674E+01  0.40000000000E+01  0.51100000000E-03 0.  1.
    9000002   -1    0    0    0    0 -0.00000000000E+00 -0.00000000000E+00  0.00000000000E+00  0.93800000000E+00  0.93800000000E+00 0. -1.
         11    1    1    2    0    0  0.41173681330E-02  0.19523370530E-01  0.23849204522E+00  0.23932578522E+00  0.51100000000E-03 0.  1.
    9000002    1    1    2    0    0 -0.52700071590E-01 -0.36039065344E+00  0.89109031311E-01  0.10101698570E+01  0.93800000000E+00 0. -1.
         22    1    1    2    0    0  0.48582703457E-01  0.34086728291E+00  0.36723988908E+01  0.36885043577E+01  0.00000000000E+00 0.  1.
</event>
<event>
 5    1  0.5849602E+001  0.1592687E+01  0.7818608E-02  0.3361339E+00
         11   -1    0    0    0    0  0.00000000000E+00  0.00000000000E+00  0.39999999674E+01  0.40000000000E+01  0.51100000000E-03 0.  1.
    9000002   -1    0    0    0    0 -0.00000000000E+00 -0.00000000000E+00  0.00000000000E+00  0.93800000000E+00  0.93800000000E+00 0. -1.
         11    1    1    2    0    0 -0.69074739499E-01 -0.29034626121E+00  0.13889187101E+01  0.14206222987E+01  0.51100000000E-03 0.  1.
    9000002    1    1    2    0    0  0.56756853522E-01  0.55710414927E+00  0.22370378723E+00  0.11151115451E+01  0.93800000000E+00 0. -1.
         22    1    1    2    0    0  0.12317885976E-01 -0.26675788806E+00  0.23873774700E+01  0.24022661562E+01  0.00000000000E+00 0.  1.
</event>
<event>
 5    1  0.5849602E+001  0.1599481E+01  0.7818608E-02  0.3353927E+00
         11   -1    0    0    0    0  0.00000000000E+00  0.00000000000E+00  0.39999999674E+01  0.40000000000E+01  0.51100000000E-03 0.  1.
    9000002   -1    0    0    0    0 -0.00000000000E+00 -0.00000000000E+00  0.00000000000E+00  0.93800000000E+00  0.93800000000E+00 0.  1.
         11    1    1    2    0    0 -0.17017059086E+00  0.13068451000E+00  0.14434757264E+01  0.14593350900E+01  0.51100000000E-03 0.  1.
    9000002    1    1    2    0    0  0.46242727217E+00 -0.37759313963E+00  0.24870600774E+00  0.11393481643E+01  0.93800000000E+00 0.  1.
         22    1    1    2    0    0 -0.29225668131E+00  0.24690862963E+00  0.23078182332E+01  0.23393167457E+01  0.00000000000E+00 0.  1.
</event>
<event>
 5    1  0.5849602E+001  0.1541029E+01  0.7818608E-02  0.3419966E+00
         11   -1    0    0    0    0  0.00000000000E+00  0.00000000000E+00  0.39999999674E+01  0.40000000000E+01  0.51100000000E-03 0.  1.
    9000002   -1    0    0    0    0 -0.00000000000E+00 -0.00000000000E+00  0.00000000000E+00  0.93800000000E+00  0.93800000000E+00 0.  1.
         11    1    1    2    0    0 -0.24156255660E+00 -0.13584033561E+00  0.10373709997E+01  0.10737522608E+01  0.51100000000E-03 0.  1.
    9000002    1    1    2    0    0  0.16994669919E+00 -0.11814591321E+00  0.73804987479E-01  0.96339582392E+00  0.93800000000E+00 0.  1.
         22    1    1    2    0    0  0.71615857412E-01  0.25398624883E+00  0.28888239802E+01  0.29008519152E+01  0.00000000000E+00 0.  1.
</event>
<event>
 5    1  0.5849602E+001  0.1599674E+01  0.7818608E-02  0.3353717E+00
         11   -1    0    0    0    0  0.00000000000E+00  0.00000000000E+00  0.39999999674E+01  0.40000000000E+01  0.51100000000E-03 0. -1.
    9000002   -1    0    0    0    0 -0.00000000000E+00 -0.00000000000E+00  0.00000000000E+00  0.93800000000E+00  0.93800000000E+00 0. -1.
         11    1    1    2    0    0  0.19030559834E-01  0.22143585858E-01  0.25425579376E+00  0.25592727558E+00  0.51100000000E-03 0. -1.
    9000002    1    1    2    0    0 -0.30242860064E+00 -0.33011005617E+00  0.13608949875E+00  0.10482366428E+01  0.93800000000E+00 0. -1.
         22    1    1    2    0    0  0.28339804081E+00  0.30796647031E+00  0.36096546748E+01  0.36338360816E+01  0.00000000000E+00 0. -1.
</event>
<event>
 5    1  0.5849602E+001  0.1599661E+01  0.7818608E-02  0.3353732E+00
         11   -1    0    0    0    0  0.00000000000E+00  0.00000000000E+00  0.39999999674E+01  0.40000000000E+01  0.51100000000E-03 0.  1.
    9000002   -1    0    0    0    0 -0.00000000000E+00 -0.00000000000E+00  0.00000000000E+00  0.93800000000E+00  0.93800000000E+00 0. -1.
         11    1    1    2    0    0  0.14687969756E+00 -0.65895360455E-01  0.11175745429E+01  0.11291098105E+01  0.51100000000E-03 0.  1.
    9000002    1    1    2    0    0 -0.48474123195E+00  0.22601560933E+00  0.19703763291E+00  0.10975996294E+01  0.93800000000E+00 0. -1.
         22    1    1    2    0    0  0.33786153439E+00 -0.16012024887E+00  0.26853877915E+01  0.27112905601E+01  0.00000000000E+00 0.  1.
</event>
<event>
 5    1  0.5849602E+001  0.1599587E+01  0.7818608E-02  0.3353811E+00
         11   -1    0    0    0    0  0.00000000000E+00  0.00000000000E+00  0.39999999674E+01  0.40000000000E+01  0.51100000000E-03 0.  1.
    9000002   -1    0    0    0    0 -0.00000000000E+00 -0.00000000000E+00  0.00000000000E+00  0.93800000000E+00  0.93800000000E+00 0.  1.
         11    1    1    2    0    0  0.11353305463E+00 -0.92036510357E-01  0.14103681078E+01  0.14179206375E+01  0.51100000000E-03 0.  1.
    9000002    1    1    2    0    0 -0.33288681637E+00  0.23098882255E+00  0.11088465326E+00  0.10277688821E+01  0.93800000000E+00 0.  1.
         22    1    1    2    0    0  0.21935376174E+00 -0.13895231219E+00  0.24787472063E+01  0.24923104804E+01  0.00000000000E+00 0. -1.
</event>
<event>
 5    1  0.5849602E+001  0.1593234E+01  0.7818608E-02  0.3360740E+00
         11   -1    0    0    0    0  0.00000000000E+00  0.00000000000E+00  0.39999999674E+01  0.40000000000E+01  0.51100000000E-03 0.  1.
    9000002   -1    0    0    0    0 -0.00000000000E+00 -0.00000000000E+00  0.00000000000E+00  0.93800000000E+00  0.93800000000E+00 0.  1.
         11    1    1    2    0    0  0.14069728260E-01  0.18252922614E-01  0.52321338452E-01  0.57174382513E-01  0.51100000000E-03 0.  1.
    9000002    1    1    2    0    0  0.45479152352E+00 -0.51742939226E+00  0.34531413930E+00  0.12139416628E+01  0.93800000000E+00 0.  1.
         22    1    1    2    0    0 -0.46886125178E+00  0.49917646964E+00  0.36023644896E+01  0.36668839547E+01  0.00000000000E+00 0.  1.
</event>
<event>
 5    1  0.5849602E+001  0.1567194E+01  0.7818608E-02  0.3389758E+00
         11   -1    0    0    0    0  0.00000000000E+00  0.00000000000E+00  0.39999999674E+01  0.40000000000E+01  0.51100000000E-03 0. -1.
    9000002   -1    0    0    0    0 -0.00000000000E+00 -0.00000000000E+00  0.00000000000E+00  0.93800000000E+00  0.93800000000E+00 0. -1.
         11    1    1    2    0    0 -0.34621506310E-01 -0.49088626077E-01  0.77731767781E-01  0.98238641851E-01  0.51100000000E-03 0. -1.
    9000002    1    1    2    0    0  0.12463069639E+00 -0.29842410628E+00  0.96144023447E-01  0.99683370275E+00  0.93800000000E+00 0. -1.
         22    1    1    2    0    0 -0.90009190083E-01  0.34751273236E+00  0.38261241761E+01  0.38429276554E+01  0.00000000000E+00 0. -1.
</event>
<event>
 5    1  0.5849602E+001  0.1599671E+01  0.7818608E-02  0.3353720E+00
         11   -1    0    0    0    0  0.00000000000E+00  0.00000000000E+00  0.39999999674E+01  0.40000000000E+01  0.51100000000E-03 0. -1.
    9000002   -1    0    0    0    0 -0.00000000000E+00 -0.00000000000E+00  0.00000000000E+00  0.93800000000E+00  0.93800000000E+00 0. -1.
         11    1    1    2    0    0 -0.66406685913E-01 -0.59022540080E-01  0.83031482055E+00  0.83505477097E+00  0.51100000000E-03 0. -1.
    9000002    1    1    2    0    0  0.31129961404E+00  0.26553132226E+00  0.11306359527E+00  0.10295832698E+01  0.93800000000E+00 0. -1.
         22    1    1    2    0    0 -0.24489292812E+00 -0.20650878218E+00  0.30566215515E+01  0.30733619593E+01  0.00000000000E+00 0.  1.
</event>
<event>
 5    1  0.5849602E+001  0.1598514E+01  0.7818608E-02  0.3354978E+00
         11   -1    0    0    0    0  0.00000000000E+00  0.00000000000E+00  0.39999999674E+01  0.40000000000E+01  0.51100000000E-03 0.  1.
    9000002   -1    0    0    0    0 -0.00000000000E+00 -0.00000000000E+00  0.00000000000E+00  0.93800000000E+00  0.93800000000E+00 0.  1.
         11    1    1    2    0    0 -0.12927405439E+00  0.14899701638E+00  0.14219419957E+01  0.14355595398E+01  0.51100000000E-03 0.  1.
    9000002    1    1    2    0    0  0.24657822451E+00 -0.37724844271E+00  0.13897394946E+00  0.10498928359E+01  0.93800000000E+00 0.  1.
         22    1    1    2    0    0 -0.11730417011E+00  0.22825142632E+00  0.24390840222E+01  0.24525476243E+01  0.00000000000E+00 0.  1.
</event>
<event>
 5    1  0.5849602E+001  0.1524290E+01  0.7818608E-02  0.3439872E+00
         11   -1    0    0    0    0  0.00000000000E+00  0.00000000000E+00  0.39999999674E+01  0.40000000000E+01  0.51100000000E-03 0. -1.
    9000002   -1    0    0    0    0 -0.00000000000E+00 -0.00000000000E+00  0.00000000000E+00  0.93800000000E+00  0.93800000000E+00 0. -1.
         11    1    1    2    0    0 -0.14766912665E+00 -0.20291435558E+00  0.15223173787E+00  0.29352200906E+00  0.51100000000E-03 0. -1.
    9000002    1    1    2    0    0 -0.14572747277E+00 -0.29464777465E+00  0.28330809854E+00  0.10335188852E+01  0.93800000000E+00 0. -1.
         22    1    1    2    0    0  0.29339659942E+00  0.49756213023E+00  0.35644601310E+01  0.36109591057E+01  0.00000000000E+00 0. -1.
</event>
<event>
 5    1  0.5849602E+001  0.1599628E+01  0.7818608E-02  0.3353767E+00
         11   -1    0    0    0    0  0.00000000000E+00  0.00000000000E+00  0.39999999674E+01  0.40000000000E+01  0.51100000000E-03 0. -1.
    9000002   -1    0    0    0    0 -0.00000000000E+00 -0.00000000000E+00  0.00000000000E+00  0.93800000000E+00  0.93800000000E+00 0.  1.
         11    1    1    2    0    0 -0.34668488687E-01 -0.14047692115E-01  0.43682328234E+00  0.43842226549E+00  0.51100000000E-03 0. -1.
    9000002    1    1    2    0    0  0.35714576344E+00  0.12115781342E+00  0.95706750392E-01  0.10154979538E+01  0.93800000000E+00 0.  1.
         22    1    1    2    0    0 -0.32247727476E+00 -0.10711012130E+00  0.34674699346E+01  0.34840797807E+01  0.00000000000E+00 0. -1.
</event>
<event>
 5    1  0.5849602E+001  0.1599676E+01  0.7818608E-02  0.3353716E+00
         11   -1    0    0    0    0  0.00000000000E+00  0.00000000000E+00  0.39999999674E+01  0.40000000000E+01  0.51100000000E-03 0.  1.
    9000002   -1    0    0    0    0 -0.00000000000E+00 -0.00000000000E+00  0.00000000000E+00  0.93800000000E+00  0.93800000000E+00 0.  1.
         11    1    1    2    0    0  0.59488901240E-01 -0.72599776096E-01  0.44446397437E+00  0.45426659848E+00  0.51100000000E-03 0.  1.
    9000002    1    1    2    0    0 -0.48607383636E+00  0.58475881881E+00  0.42049877026E+00  0.12786218622E+01  0.93800000000E+00 0.  1.
         22    1    1    2    0    0  0.42658493512E+00 -0.51215904272E+00  0.31350372227E+01  0.32051115394E+01  0.00000000000E+00 0.  1.
</event>
<event>
 5    1  0.5849602E+001  0.1597492E+01  0.7818608E-02  0.3356090E+00
         11   -1    0    0    0    0  0.00000000000E+00  0.00000000000E+00  0.39999999674E+01  0.40000000000E+01  0.51100000000E-03 0.  1.
    9000002   -1    0    0    0    0 -0.00000000000E+00 -0.00000000000E+00  0.00000000000E+00  0.93800000000E+00  0.93800000000E+00 0. -1.
         11    1    1    2    0    0 -0.84547545443E-01 -0.13935353467E+00  0.12454010136E+01  0.12560221498E+01  0.51100000000E-03 0.  1.
    9000002    1    1    2    0    0  0.10069597142E+00  0.45652461794E+00  0.15074785412E+00  0.10588311107E+01  0.93800000000E+00 0. -1.
         22    1    1    2    0    0 -0.16148425976E-01 -0.31717108327E+00  0.26038510997E+01  0.26231467395E+01  0.00000000000E+00 0.  1.
</event>
<event>
 5    1  0.5849602E+001  0.1599467E+01  0.7818608E-02  0.3353942E+00
         11   -1    0    0    0    0  0.00000000000E+00  0.00000000000E+00  0.39999999674E+01  0.40000000000E+01  0.51100000000E-03 0. -1.
    9000002   -1    0    0    0    0 -0.00000000000E+00 -0.00000000000E+00  0.00000000000E+00  0.93800000000E+00  0.93800000000E+00 0.  1.
         11    1    1    2    0    0  0.75573964113E-01 -0.53256010707E-01  0.75099002921E+00  0.75665970675E+00  0.51100000000E-03 0. -1.
    9000002    1    1    2    0    0 -0.34172894526E+00  0.32702131920E+00  0.15266478355E+00  0.10615423455E+01  0.93800000000E+00 0.  1.
         22    1    1    2    0    0  0.26615498114E+00 -0.27376530849E+00  0.30963451546E+01  0.31197979477E+01  0.00000000000E+00 0. -1.
</event>
<event>
 5    1  0.5849602E+001  0.1599434E+01  0.7818608E-02  0.3353978E+00
         11   -1    0    0    0    0  0.00000000000E+00  0.00000000000E+00  0.39999999674E+01  0.40000000000E+01  0.51100000000E-03 0. -1.
    9000002   -1    0    0    0    0 -0.00000000000E+00 -0.00000000000E+00  0.00000000000E+00  0.93800000000E+00  0.93800000000E+00 0. -1.
         11    1    1    2    0    0  0.14839126397E+00 -0.53707681710E-01  0.61459531015E+00  0.63453300834E+00  0.51100000000E-03 0. -1.
    9000002    1    1    2    0    0 -0.85604398545E+00  0.22518920163E+00  0.59631735832E+00  0.14209010780E+01  0.93800000000E+00 0. -1.
         22    1    1    2    0    0  0.70765272148E+00 -0.17148151992E+00  0.27890872989E+01  0.28825659137E+01  0.00000000000E+00 0. -1.
</event>
<event>
 5    1  0.5849602E+001  0.1599633E+01  0.7818608E-02  0.3353762E+00
         11   -1    0    0    0    0  0.00000000000E+00  0.00000000000E+00  0.39999999674E+01  0.40000000000E+01  0.51100000000E-03 0. -1.
    9000002   -1    0    0    0    0 -0.00000000000E+00 -0.00000000000E+00  0.00000000000E+00  0.93800000000E+00  0.93800000000E+00 0. -1.
         11    1    1    2    0    0  0.81367905739E-02 -0.11264742056E-02  0.82233611957E-01  0.82644445436E-01  0.51100000000E-03 0. -1.
    9000002    1    1    2    0    0 -0.44345678507E+00 -0.34145831182E-01  0.13429132314E+00  0.10467559493E+01  0.93800000000E+00 0. -1.
         22    1    1    2    0    0  0.43531999450E+00  0.35272305387E-01  0.37834750323E+01  0.38085996052E+01  0.00000000000E+00 0. -1.
</event>
<event>
 5    1  0.5849602E+001  0.1599676E+01  0.7818608E-02  0.3353715E+00
         11   -1    0    0    0    0  0.00000000000E+00  0.00000000000E+00  0.39999999674E+01  0.40000000000E+01  0.51100000000E-03 0. -1.
    9000002   -1    0    0    0    0 -0.00000000000E+00 -0.00000000000E+00  0.00000000000E+00  0.93800000000E+00  0.93800000000E+00 0. -1.
         11    1    1    2    0    0 -0.13737651230E+00  0.15156077183E+00  0.14087745034E+01  0.14235479747E+01  0.51100000000E-03 0. -1.
    9000002    1    1    2    0    0  0.36686546126E+00 -0.40678682924E+00  0.20716970256E+00  0.11058160230E+01  0.93800000000E+00 0. -1.
         22    1    1    2    0    0 -0.22948894896E+00  0.25522605741E+00  0.23840557614E+01  0.24086360023E+01  0.00000000000E+00 0. -1.
</event>
<event>
 5    1  0.5849602E+001  0.1599591E+01  0.7818608E-02  0.3353807E+00
         11   -1    0    0    0    0  0.00000000000E+00  0.00000000000E+00  0.39999999674E+01  0.40000000000E+01  0.51100000000E-03 0.  1.
    9000002   -1    0    0    0    0 -0.00000000000E+00 -0.00000000000E+00  0.00000000000E+00  0.93800000000E+00  0.93800000000E+00 0. -1.
         11    1    1    2    0    0  0.16029396724E-01 -0.19780353688E-01  0.30586210807E+00  0.30692033857E+00  0.51100000000E-03 0.  1.
    9000002    1    1    2    0    0 -0.28057784507E+00  0.26010167889E+00  0.98589964894E-01  0.10178117663E+01  0.93800000000E+00 0. -1.
         22    1    1    2    0    0  0.26454844835E+00 -0.24032132521E+00  0.35955478944E+01  0.36132678951E+01  0.00000000000E+00 0.  1.
</event>
<event>
 5    1  0.5849602E+001  0.1599677E+01  0.7818608E-02  0.3353714E+00
         11   -1    0    0    0    0  0.00000000000E+00  0.00000000000E+00  0.39999999674E+01  0.40000000000E+01  0.51100000000E-03 0. -1.
    9000002   -1    0    0    0    0 -0.00000000000E+00 -0.00000000000E+00  0.00000000000E+00  0.93800000000E+00  0.93800000000E+00 0. -1.
         11    1    1    2    0    0  0.97818720890E-01  0.13544650487E+00  0.14383038667E+01  0.14479753215E+01  0.51100000000E-03 0. -1.
    9000002    1    1    2    0    0 -0.26156473259E+00 -0.36303899155E+00  0.13593107528E+00  0.10481100495E+01  0.93800000000E+00 0. -1.
         22    1    1    2    0    0  0.16374601170E+00  0.22759248668E+00  0.24257650254E+01  0.24419146289E+01  0.00000000000E+00 0. -1.
</event>
<event>
 5    1  0.5849602E+001  0.1599659E+01  0.7818608E-02  0.3353733E+00
         11   -1    0    0    0    0  0.00000000000E+00  0.00000000000E+00  0.39999999674E+01  0.40000000000E+01  0.51100000000E-03 0.  1.
    9000002   -1    0    0    0    0 -0.00000000000E+00 -0.00000000000E+00  0.00000000000E+00  0.93800000000E+00  0.93800000000E+00 0. -1.
         11    1    1    2    0    0 -0.91915751543E-01  0.30441976568E-01  0.10880568082E+01  0.10923566718E+01  0.51100000000E-03 0.  1.
    9000002    1    1    2    0    0  0.34561786181E+00 -0.11530591417E+00  0.89166869769E-01  0.10102187342E+01  0.93800000000E+00 0. -1.
         22    1    1    2    0    0 -0.25370211027E+00  0.84863937601E-01  0.28227762893E+01  0.28354245940E+01  0.00000000000E+00 0.  1.
</event>
<event>
 5    1  0.5849602E+001  0.1599639E+01  0.7818608E-02  0.3353755E+00
         11   -1    0    0    0    0  0.00000000000E+00  0.00000000000E+00  0.39999999674E+01  0.40000000000E+01  0.51100000000E-03 0. -1.
    9000002   -1    0    0    0    0 -0.00000000000E+00 -0.00000000000E+00  0.00000000000E+00  0.93800000000E+00  0.93800000000E+00 0.  1.
         11    1    1    2    0    0 -0.55527970584E-02 -0.61699098779E-02  0.88245805510E-01  0.88636813200E-01  0.51100000000E-03 0. -1.
    9000002    1    1    2    0    0  0.31996261762E+00  0.21445840686E+00  0.99922438481E-01  0.10189195153E+01  0.93800000000E+00 0.  1.
         22    1    1    2    0    0 -0.31440982056E+00 -0.20828849699E+00  0.38118317234E+01  0.38304436715E+01  0.00000000000E+00 0. -1.
</event>
<event>
 5    1  0.5849602E+001  0.1599674E+01  0.7818608E-02  0.3353717E+00
         11   -1    0    0    0    0  0.00000000000E+00  0.00000000000E+00  0.39999999674E+01  0.40000000000E+01  0.51100000000E-03 0.  1.
    9000002   -1    0    0    0    0 -0.00000000000E+00 -0.00000000000E+00  0.00000000000E+00  0.93800000000E+00  0.93800000000E+00 0.  1.
         11    1    1    2    0    0  0.62473597012E-01  0.20097962002E-01  0.50222300244E+00  0.50649292561E+00  0.51100000000E-03 0.  1.
    9000002    1    1    2    0    0 -0.48100146543E+00 -0.16101799245E+00  0.17634734678E+00  0.10808476259E+01  0.93800000000E+00 0.  1.
         22    1    1    2    0    0  0.41852786841E+00  0.14092003045E+00  0.33214296181E+01  0.33506594485E+01  0.00000000000E+00 0.  1.
</event>
<event>
 5    1  0.5849602E+001  0.1593012E+01  0.7818608E-02  0.3360983E+00
         11   -1    0    0    0    0  0.00000000000E+00  0.00000000000E+00  0.39999999674E+01  0.40000000000E+01  0.51100000000E-03 0.  1.
    9000002   -1    0    0    0    0 -0.00000000000E+00 -0.00000000000E+00  0.00000000000E+00  0.93800000000E+00  0.93800000000E+00 0. -1.
         11    1    1    2    0    0  0.24339504659E+00 -0.47882219827E-01  0.13644600159E+01  0.13868256025E+01  0.51100000000E-03 0.  1.
    9000002    1    1    2    0    0 -0.81713343286E+00  0.26177947385E+00  0.56348008087E+00  0.13905356312E+01  0.93800000000E+00 0. -1.
         22    1    1    2    0    0  0.57373838628E+00 -0.21389725402E+00  0.20720598706E+01  0.21606387663E+01  0.00000000000E+00 0.  1.
</event>
<event>
 5    1  0.5849602E+001  0.1599677E+01  0.7818608E-02  0.3353714E+00
         11   -1    0    0    0    0  0.00000000000E+00  0.00000000000E+00  0.39999999674E+01  0.40000000000E+01  0.51100000000E-03 0. -1.
    9000002   -1    0    0    0    0 -0.00000000000E+00 -0.00000000000E+00  0.00000000000E+00  0.93800000000E+00  0.93800000000E+00 0. -1.
         11    1    1    2    0    0  0.11233444590E+00  0.22259869695E-01  0.46061731518E+00  0.47463997061E+00  0.51100000000E-03 0. -1.
    9000002    1    1    2    0    0 -0.84263886729E+00 -0.16768499887E+00  0.55558422461E+00  0.13880476757E+01  0.93800000000E+00 0. -1.
         22    1    1    2    0    0  0.73030442139E+00  0.14542512918E+00  0.29837984276E+01  0.30753123536E+01  0.00000000000E+00 0. -1.
</event>
<event>
 5    1  0.5849602E+001  0.1599676E+01  0.7818608E-02  0.3353715E+00
         11   -1    0    0    0    0  0.00000000000E+00  0.00000000000E+00  0.39999999674E+01  0.40000000000E+01  0.51100000000E-03 0.  1.
    9000002   -1    0    0    0    0 -0.00000000000E+00 -0.00000000000E+00  0.00000000000E+00  0.93800000000E+00  0.93800000000E+00 0.  1.
         11    1    1    2    0    0 -0.86599610556E-01 -0.97944617636E-01  0.11029259177E+01  0.11106477758E+01  0.51100000000E-03 0.  1.
    9000002    1    1    2    0    0  0.30400974523E+00  0.34502921719E+00  0.14383730129E+00  0.10545142271E+01  0.93800000000E+00 0.  1.
         22    1    1    2    0    0 -0.21741013467E+00 -0.24708459956E+00  0.27532367483E+01  0.27728379971E+01  0.00000000000E+00 0.  1.
</event>
<event>
 5    1  0.5849602E+001  0.1596480E+01  0.7818608E-02  0.3357193E+00
         11   -1    0    0    0    0  0.00000000000E+00  0.00000000000E+00  0.39999999674E+01  0.40000000000E+01  0.51100000000E-03 0.  1.
    9000002   -1    0    0    0    0 -0.00000000000E+00 -0.00000000000E+00  0.00000000000E+00  0.93800000000E+00  0.93800000000E+00 0. -1.
         11    1    1    2    0    0 -0.37368331648E-01 -0.18306549400E+00  0.11247610156E+01  0.11401740966E+01  0.51100000000E-03 0.  1.
    9000002    1    1    2    0    0  0.22949598224E+00  0.43786281417E+00  0.17001389564E+00  0.10738440178E+01  0.93800000000E+00 0. -1.
         22    1    1    2    0    0 -0.19212765060E+00 -0.25479732017E+00  0.27052250561E+01  0.27239818855E+01  0.00000000000E+00 0.  1.
</event>
<event>
 5    1  0.5849602E+001  0.1599677E+01  0.7818608E-02  0.3353714E+00
         11   -1    0    0    0    0  0.00000000000E+00  0.00000000000E+00  0.39999999674E+01  0.40000000000E+01  0.51100000000E-03 0.  1.
    9000002   -1    0    0    0    0 -0.00000000000E+00 -0.00000000000E+00  0.00000000000E+00  0.93800000000E+00  0.93800000000E+00 0. -1.
         11    1    1    2    0    0  0.50133585843E-01  0.66118956914E-01  0.62269689100E+00  0.62820121942E+00  0.51100000000E-03 0. -1.
    9000002    1    1    2    0    0 -0.30721874170E+00 -0.40536128918E+00  0.17735506986E+00  0.10816653599E+01  0.93800000000E+00 0. -1.
         22    1    1    2    0    0  0.25708515586E+00  0.33924233227E+00  0.31999480065E+01  0.32281334207E+01  0.00000000000E+00 0.  1.
</event>
<event>
 5    1  0.5849602E+001  0.1599185E+01  0.7818608E-02  0.3354249E+00
         11   -1    0    0    0    0  0.00000000000E+00  0.00000000000E+00  0.39999999674E+01  0.40000000000E+01  0.51100000000E-03 0.  1.
    9000002   -1    0    0    0    0 -0.00000000000E+00 -0.00000000000E+00  0.00000000000E+00  0.93800000000E+00  0.93800000000E+00 0. -1.
         11    1    1    2    0    0  0.81369272760E-02  0.15018862342E+00  0.10210045711E+01  0.10320239471E+01  0.51100000000E-03 0.  1.
    9000002    1    1    2    0    0 -0.10671140258E+00 -0.51584636163E+00  0.19129320853E+00  0.10926673253E+01  0.93800000000E+00 0. -1.
         22    1    1    2    0    0  0.98574475301E-01  0.36565773821E+00  0.27877021878E+01  0.28133087275E+01  0.00000000000E+00 0. -1.
</event>
<event>
 5    1  0.5849602E+001  0.1599674E+01  0.7818608E-02  0.3353717E+00
         11   -1    0    0    0    0  0.00000000000E+00  0.00000000000E+00  0.39999999674E+01  0.40000000000E+01  0.51100000000E-03 0.  1.
    9000002   -1    0    0    0    0 -0.00000000000E+00 -0.00000000000E+00  0.00000000000E+00  0.93800000000E+00  0.93800000000E+00 0.  1.
         11    1    1    2    0    0  0.38573891465E-01  0.63070142614E-01  0.79994411346E+00  0.80335336794E+00  0.51100000000E-03 0.  1.
    9000002    1    1    2    0    0 -0.18853213881E+00 -0.31643935458E+00  0.91165876439E-01  0.10118465543E+01  0.93800000000E+00 0.  1.
         22    1    1    2    0    0  0.14995824734E+00  0.25336921197E+00  0.31088899775E+01  0.31228000777E+01  0.00000000000E+00 0.  1.
</event>
<event>
 5    1  0.5849602E+001  0.1476026E+01  0.7818608E-02  0.3499987E+00
         11   -1    0    0    0    0  0.00000000000E+00  0.00000000000E+00  0.39999999674E+01  0.40000000000E+01  0.51100000000E-03 0.  1.
    9000002   -1    0    0    0    0 -0.00000000000E+00 -0.00000000000E+00  0.00000000000E+00  0.93800000000E+00  0.93800000000E+00 0. -1.
         11    1    1    2    0    0  0.14814689149E+00  0.18636183422E+00  0.39481159939E+00  0.46103654393E+00  0.51100000000E-03 0.  1.
    9000002    1    1    2    0    0  0.10468437366E+00  0.22101616444E+00  0.14076864388E+00  0.97952374863E+00  0.93800000000E+00 0. -1.
         22    1    1    2    0    0 -0.25283126515E+00 -0.40737799866E+00  0.34644197241E+01  0.34974397074E+01  0.00000000000E+00 0.  1.
</event>
<event>
 5    1  0.5849602E+001  0.1599610E+01  0.7818608E-02  0.3353787E+00
         11   -1    0    0    0    0  0.00000000000E+00  0.00000000000E+00  0.39999999674E+01  0.40000000000E+01  0.51100000000E-03 0. -1.
    9000002   -1    0    0    0    0 -0.00000000000E+00 -0.00000000000E+00  0.00000000000E+00  0.93800000000E+00  0.93800000000E+00 0. -1.
         11    1    1    2    0    0 -0.13953046602E-01  0.44976146906E-01  0.46643803287E+00  0.46880938656E+00  0.51100000000E-03 0. -1.
    9000002    1    1    2    0    0  0.16040182116E+00 -0.40304630813E+00  0.12756452243E+00  0.10412933199E+01  0.93800000000E+00 0. -1.
         22    1    1    2    0    0 -0.14644877456E+00  0.35807016123E+00  0.34059974121E+01  0.34278972935E+01  0.00000000000E+00 0. -1.
</event>
<event>
 5    1  0.5849602E+001  0.1599424E+01  0.7818608E-02  0.3353989E+00
         11   -1    0    0    0    0  0.00000000000E+00  0.00000000000E+00  0.39999999674E+01  0.40000000000E+01  0.51100000000E-03 0. -1.
    9000002   -1    0    0    0    0 -0.00000000000E+00 -0.00000000000E+00  0.00000000000E+00  0.93800000000E+00  0.93800000000E+00 0.  1.
         11    1    1    2    0    0  0.11166900235E-02  0.12634408963E-02  0.37417936701E-01  0.37459396518E-01  0.51100000000E-03 0. -1.
    9000002    1    1    2    0    0  0.70451966875E-01 -0.46585229270E+00  0.15147332751E+00  0.10605517466E+01  0.93800000000E+00 0.  1.
         22    1    1    2    0    0 -0.71568656898E-01  0.46458885180E+00  0.38111087031E+01  0.38399888569E+01  0.00000000000E+00 0. -1.
</event>
<event>
 5    1  0.5849602E+001  0.1594595E+01  0.7818608E-02  0.3359251E+00
         11   -1    0    0    0    0  0.00000000000E+00  0.00000000000E+00  0.39999999674E+01  0.40000000000E+01  0.51100000000E-03 0. -1.
    9000002   -1    0    0    0    0 -0.00000000000E+00 -0.00000000000E+00  0.00000000000E+00  0.93800000000E+00  0.93800000000E+00 0.  1.
         11    1    1    2    0    0  0.13597206426E+00 -0.89675303972E-01  0.80481126790E+00  0.82112818760E+00  0.51100000000E-03 0. -1.
    9000002    1    1    2    0    0 -0.41236335524E+00  0.19141002557E+00  0.14488947351E+00  0.10523869508E+01  0.93800000000E+00 0.  1.
         22    1    1    2    0    0  0.27639129098E+00 -0.10173472160E+00  0.30502992259E+01  0.30644848616E+01  0.00000000000E+00 0. -1.
</event>
<event>
 5    1  0.5849602E+001  0.1595640E+01  0.7818608E-02  0.3358110E+00
         11   -1    0    0    0    0  0.00000000000E+00  0.00000000000E+00  0.39999999674E+01  0.40000000000E+01  0.51100000000E-03 0.  1.
    9000002   -1    0    0    0    0 -0.00000000000E+00 -0.00000000000E+00  0.00000000000E+00  0.93800000000E+00  0.93800000000E+00 0. -1.
         11    1    1    2    0    0  0.34749214623E-03  0.66979771607E-02  0.39930467858E+00  0.39936132900E+00  0.51100000000E-03 0.  1.
    9000002    1    1    2    0    0  0.39538641991E+00 -0.27284959671E+00  0.16105716602E+00  0.10660960248E+01  0.93800000000E+00 0. -1.
         22    1    1    2    0    0 -0.39573391205E+00  0.26615161955E+00  0.34396381228E+01  0.34725426462E+01  0.00000000000E+00 0.  1.
</event>
<event>
 5    1  0.5849602E+001  0.1501647E+01  0.7818608E-02  0.3467556E+00
         11   -1    0    0    0    0  0.00000000000E+00  0.00000000000E+00  0.39999999674E+01  0.40000000000E+01  0.51100000000E-03 0. -1.
    9000002   -1    0    0    0    0 -0.00000000000E+00 -0.00000000000E+00  0.00000000000E+00  0.93800000000E+00  0.93800000000E+00 0.  1.
         11    1    1    2    0    0 -0.17260957421E+00  0.18653209100E+00  0.69313359606E+00  0.73825654700E+00  0.51100000000E-03 0. -1.
    9000002    1    1    2    0    0 -0.12466617582E+00  0.15802666446E+00  0.10429974650E+00  0.96500596848E+00  0.93800000000E+00 0.  1.
         22    1    1    2    0    0  0.29727575003E+00 -0.34455875546E+00  0.32025666248E+01  0.32347374845E+01  0.00000000000E+00 0. -1.
</event>
<event>
 5    1  0.5849602E+001  0.1598390E+01  0.7818608E-02  0.3355113E+00
         11   -1    0    0    0    0  0.00000000000E+00  0.00000000000E+00  0.39999999674E+01  0.40000000000E+01  0.51100000000E-03 0.  1.
    9000002   -1    0    0    0    0 -0.00000000000E+00 -0.00000000000E+00  0.00000000000E+00  0.93800000000E+00  0.93800000000E+00 0. -1.
         11    1    1    2    0    0 -0.88247352502E-01  0.67664857512E-01  0.55610436621E+00  0.56711414672E+00  0.51100000000E-03 0.  1.
    9000002    1    1    2    0    0  0.58747426807E+00 -0.24531925041E+00  0.28643785385E+00  0.11692725065E+01  0.93800000000E+00 0. -1.
         22    1    1    2    0    0 -0.49922691557E+00  0.17765439290E+00  0.31574577473E+01  0.32016133468E+01  0.00000000000E+00 0.  1.
</event>
<event>
 5    1  0.5849602E+001  0.1486328E+01  0.7818608E-02  0.3486802E+00
         11   -1    0    0    0    0  0.00000000000E+00  0.00000000000E+00  0.39999999674E+01  0.40000000000E+01  0.51100000000E-03 0.  1.
    9000002   -1    0    0    0    0 -0.00000000000E+00 -0.00000000000E+00  0.00000000000E+00  0.93800000000E+00  0.93800000000E+00 0.  1.
         11    1    1    2    0    0  0.28291765690E+00  0.38635131722E-01  0.34178187916E+00  0.44536522993E+00  0.51100000000E-03 0.  1.
    9000002    1    1    2    0    0  0.32136997738E+00  0.30776414849E-01  0.23987043147E+00  0.10205918253E+01  0.93800000000E+00 0.  1.
         22    1    1    2    0    0 -0.60428763428E+00 -0.69411546571E-01  0.34183476567E+01  0.34720429447E+01  0.00000000000E+00 0.  1.
</event>
<event>
 5    1  0.5849602E+001  0.1598814E+01  0.7818608E-02  0.3354651E+00
         11   -1    0    0    0    0  0.00000000000E+00  0.00000000000E+00  0.39999999674E+01  0.40000000000E+01  0.51100000000E-03 0.  1.
    9000002   -1    0    0    0    0 -0.00000000000E+00 -0.00000000000E+00  0.00000000000E+00  0.93800000000E+00  0.93800000000E+00 0. -1.
         11    1    1    2    0    0  0.97836006466E-01  0.45251023841E-01  0.10637622914E+01  0.10692099948E+01  0.51100000000E-03 0.  1.
    9000002    1    1    2    0    0 -0.38235672616E+00 -0.27486155484E+00  0.15184212424E+00  0.10604930792E+01  0.93800000000E+00 0. -1.
         22    1    1    2    0    0  0.28452071969E+00  0.22961053100E+00  0.27843955517E+01  0.28082969260E+01  0.00000000000E+00 0.  1.
</event>
<event>
 5    1  0.5849602E+001  0.1561572E+01  0.7818608E-02  0.3396158E+00
         11   -1    0    0    0    0  0.00000000000E+00  0.00000000000E+00  0.39999999674E+01  0.40000000000E+01  0.51100000000E-03 0. -1.
    9000002   -1    0    0    0    0 -0.00000000000E+00 -0.00000000000E+00  0.00000000000E+00  0.93800000000E+00  0.93800000000E+00 0.  1.
         11    1    1    2    0    0  0.73034417099E-01 -0.59116873532E-01  0.22816079173E+00  0.24675177572E+00  0.51100000000E-03 0. -1.
    9000002    1    1    2    0    0  0.15608407789E+00 -0.27558772717E+00  0.97754850741E-01  0.99484212093E+00  0.93800000000E+00 0.  1.
         22    1    1    2    0    0 -0.22911849499E+00  0.33470460070E+00  0.36740843249E+01  0.36964061033E+01  0.00000000000E+00 0. -1.
</event>
<event>
 5    1  0.5849602E+001  0.1564873E+01  0.7818608E-02  0.3392394E+00
         11   -1    0    0    0    0  0.00000000000E+00  0.00000000000E+00  0.39999999674E+01  0.40000000000E+01  0.51100000000E-03 0.  1.
    9000002   -1    0    0    0    0 -0.00000000000E+00 -0.00000000000E+00  0.00000000000E+00  0.93800000000E+00  0.93800000000E+00 0.  1.
         11    1    1    2    0    0 -0.51542653091E-01 -0.14990512915E+00  0.80530322518E+00  0.82075680835E+00  0.51100000000E-03 0.  1.
    9000002    1    1    2    0    0 -0.36149587687E+00  0.90805530832E-01  0.12239104969E+00  0.10167342241E+01  0.93800000000E+00 0.  1.
         22    1    1    2    0    0  0.41303852997E+00  0.59099598318E-01  0.30723056925E+01  0.31005089675E+01  0.00000000000E+00 0.  1.
</event>
<event>
 5    1  0.5849602E+001  0.1599658E+01  0.7818608E-02  0.3353735E+00
         11   -1    0    0    0    0  0.00000000000E+00  0.00000000000E+00  0.39999999674E+01  0.40000000000E+01  0.51100000000E-03 0. -1.
    9000002   -1    0    0    0    0 -0.00000000000E+00 -0.00000000000E+00  0.00000000000E+00  0.93800000000E+00  0.93800000000E+00 0. -1.
         11    1    1    2    0    0 -0.26545382209E-01 -0.12311788095E+00  0.72040684710E+00  0.73133368335E+00  0.51100000000E-03 0. -1.
    9000002    1    1    2    0    0  0.12081199087E+00  0.62109828375E+00  0.28138771981E+00  0.11659252395E+01  0.93800000000E+00 0. -1.
         22    1    1    2    0    0 -0.94266608657E-01 -0.49798040280E+00  0.29982054004E+01  0.30407410772E+01  0.00000000000E+00 0. -1.
</event>
<event>
 5    1  0.5849602E+001  0.1599676E+01  0.7818608E-02  0.3353715E+00
         11   -1    0    0    0    0  0.00000000000E+00  0.00000000000E+00  0.39999999674E+01  0.40000000000E+01  0.51100000000E-03 0.  1.
    9000002   -1    0    0    0    0 -0.00000000000E+00 -0.00000000000E+00  0.00000000000E+00  0.93800000000E+00  0.93800000000E+00 0.  1.
         11    1    1    2    0    0 -0.23958952130E-02 -0.13047761307E+00  0.12667603998E+01  0.12734646911E+01  0.51100000000E-03 0.  1.
    9000002    1    1    2    0    0  0.34266404835E-02  0.40128049552E+00  0.10864239852E+00  0.10260043610E+01  0.93800000000E+00 0.  1.
         22    1    1    2    0    0 -0.10307452705E-02 -0.27080288245E+00  0.26245971691E+01  0.26385309480E+01  0.00000000000E+00 0.  1.
</event>
<event>
 5    1  0.5849602E+001  0.1598493E+01  0.7818608E-02  0.3355001E+00
         11   -1    0    0    0    0  0.00000000000E+00  0.00000000000E+00  0.39999999674E+01  0.40000000000E+01  0.51100000000E-03 0.  1.
    9000002   -1    0    0    0    0 -0.00000000000E+00 -0.00000000000E+00  0.00000000000E+00  0.93800000000E+00  0.93800000000E+00 0. -1.
         11    1    1    2    0    0  0.11245445031E+00  0.76328693140E-01  0.11895635330E+01  0.11973026906E+01  0.51100000000E-03 0.  1.
    9000002    1    1    2    0    0 -0.37801020293E+00 -0.12526075117E+00  0.10792700035E+00  0.10247312851E+01  0.93800000000E+00 0. -1.
         22    1    1    2    0    0  0.26555575262E+00  0.48932058031E-01  0.27025094340E+01  0.27159660243E+01  0.00000000000E+00 0.  1.
</event>
<event>
 5    1  0.5849602E+001  0.1598983E+01  0.7818608E-02  0.3354468E+00
         11   -1    0    0    0    0  0.00000000000E+00  0.00000000000E+00  0.39999999674E+01  0.40000000000E+01  0.51100000000E-03 0. -1.
    9000002   -1    0    0    0    0 -0.00000000000E+00 -0.00000000000E+00  0.00000000000E+00  0.93800000000E+00  0.93800000000E+00 0. -1.
         11    1    1    2    0    0 -0.86390652753E-01  0.35913454368E-01  0.70986046485E+00  0.71599948448E+00  0.51100000000E-03 0. -1.
    9000002    1    1    2    0    0  0.43270883220E+00 -0.67360691236E-01  0.13061575524E+00  0.10433977534E+01  0.93800000000E+00 0. -1.
         22    1    1    2    0    0 -0.34631817944E+00  0.31447236868E-01  0.31595237473E+01  0.31786027622E+01  0.00000000000E+00 0. -1.
</event>
<event>
 5    1  0.5849602E+001  0.1457368E+01  0.7818608E-02  0.3524383E+00
         11   -1    0    0    0    0  0.00000000000E+00  0.00000000000E+00  0.39999999674E+01  0.40000000000E+01  0.51100000000E-03 0.  1.
    9000002   -1    0    0    0    0 -0.00000000000E+00 -0.00000000000E+00  0.00000000000E+00  0.93800000000E+00  0.93800000000E+00 0.  1.
         11    1    1    2    0    0 -0.38452886462E-01  0.51584064607E-01 -0.35015298988E-01  0.73252115893E-01  0.51100000000E-03 0.  1.
    9000002    1    1    2    0    0 -0.29042771937E+00 -0.29268815000E+00  0.24585742885E+00  0.10537098693E+01  0.93800000000E+00 0.  1.
         22    1    1    2    0    0  0.32888060583E+00  0.24110408539E+00  0.37891578375E+01  0.38110380148E+01  0.00000000000E+00 0.  1.
</event>
<event>
 5    1  0.5849602E+001  0.1571976E+01  0.7818608E-02  0.3384353E+00
         11   -1    0    0    0    0  0.00000000000E+00  0.00000000000E+00  0.39999999674E+01  0.40000000000E+01  0.51100000000E-03 0. -1.
    9000002   -1    0    0    0    0 -0.00000000000E+00 -0.00000000000E+00  0.00000000000E+00  0.93800000000E+00  0.93800000000E+00 0. -1.
         11    1    1    2    0    0  0.48679853004E-01 -0.45932238971E-01  0.17263686887E+00  0.18515736086E+00  0.51100000000E-03 0. -1.
    9000002    1    1    2    0    0  0.11803323349E+00 -0.39659889985E+00  0.13935860744E+00  0.10346435874E+01  0.93800000000E+00 0. -1.
         22    1    1    2    0    0 -0.16671308650E+00  0.44253113882E+00  0.36880044910E+01  0.37181990517E+01  0.00000000000E+00 0. -1.
</event>
<event>
 5    1  0.5849602E+001  0.1541100E+01  0.7818608E-02  0.3419882E+00
         11   -1    0    0    0    0  0.00000000000E+00  0.00000000000E+00  0.39999999674E+01  0.40000000000E+01  0.51100000000E-03 0.  1.
    9000002   -1    0    0    0    0 -0.00000000000E+00 -0.00000000000E+00  0.00000000000E+00  0.93800000000E+00  0.93800000000E+00 0.  1.
         11    1    1    2    0    0 -0.91331651617E-02  0.19902067895E+00  0.76363318148E+00  0.78919486969E+00  0.51100000000E-03 0.  1.
    9000002    1    1    2    0    0  0.23134633100E+00  0.15180652364E+00  0.97751657825E-01  0.98283555699E+00  0.93800000000E+00 0.  1.
         22    1    1    2    0    0 -0.22221316584E+00 -0.35082720259E+00  0.31386151281E+01  0.31659695733E+01  0.00000000000E+00 0.  1.
</event>
<event>
 5    1  0.5849602E+001  0.1599675E+01  0.7818608E-02  0.3353716E+00
         11   -1    0    0    0    0  0.00000000000E+00  0.00000000000E+00  0.39999999674E+01  0.40000000000E+01  0.51100000000E-03 0. -1.
    9000002   -1    0    0    0    0 -0.00000000000E+00 -0.00000000000E+00  0.00000000000E+00  0.93800000000E+00  0.93800000000E+00 0.  1.
         11    1    1    2    0    0  0.64451101131E-01  0.10810169130E+00  0.13165693187E+01  0.13225713410E+01  0.51100000000E-03 0. -1.
    9000002    1    1    2    0    0 -0.18714425942E+00 -0.31926580023E+00  0.92040338442E-01  0.10125557016E+01  0.93800000000E+00 0.  1.
         22    1    1    2    0    0  0.12269315829E+00  0.21116410893E+00  0.25913903102E+01  0.26028729573E+01  0.00000000000E+00 0. -1.
</event>
<event>
 5    1  0.5849602E+001  0.1492727E+01  0.7818608E-02  0.3478711E+00
         11   -1    0    0    0    0  0.00000000000E+00  0.00000000000E+00  0.39999999674E+01  0.40000000000E+01  0.51100000000E-03 0.  1.
    9000002   -1    0    0    0    0 -0.00000000000E+00 -0.00000000000E+00  0.00000000000E+00  0.93800000000E+00  0.93800000000E+00 0.  1.
         11    1    1    2    0    0 -0.14227428814E+00  0.12143326745E+00  0.25215474869E+00  0.31395905771E+00  0.51100000000E-03 0.  1.
    9000002    1    1    2    0    0 -0.23449808399E+00  0.79708883239E-01  0.12738476031E+00  0.97847520900E+00  0.93800000000E+00 0.  1.
         22    1    1    2    0    0  0.37677237213E+00 -0.20114215069E+00  0.36204604584E+01  0.36455657333E+01  0.00000000000E+00 0.  1.
</event>
<event>
 5    1  0.5849602E+001  0.1589731E+01  0.7818608E-02  0.3364585E+00
         11   -1    0    0    0    0  0.00000000000E+00  0.00000000000E+00  0.39999999674E+01  0.40000000000E+01  0.51100000000E-03 0. -1.
    9000002   -1    0    0    0    0 -0.00000000000E+00 -0.00000000000E+00  0.00000000000E+00  0.93800000000E+00  0.93800000000E+00 0.  1.
         11    1    1    2    0    0 -0.41013685055E-01  0.42698477040E-01  0.11372055217E+01  0.11387457759E+01  0.51100000000E-03 0. -1.
    9000002    1    1    2    0    0 -0.20766791728E+00 -0.28508056114E+00  0.91499509716E-01  0.10062867635E+01  0.93800000000E+00 0.  1.
         22    1    1    2    0    0  0.24868160233E+00  0.24238208410E+00  0.27712949359E+01  0.27929674606E+01  0.00000000000E+00 0. -1.
</event>
<event>
 5    1  0.5849602E+001  0.1599615E+01  0.7818608E-02  0.3353781E+00
         11   -1    0    0    0    0  0.00000000000E+00  0.00000000000E+00  0.39999999674E+01  0.40000000000E+01  0.51100000000E-03 0.  1.
    9000002   -1    0    0    0    0 -0.00000000000E+00 -0.00000000000E+00  0.00000000000E+00  0.93800000000E+00  0.93800000000E+00 0.  1.
         11    1    1    2    0    0 -0.41860972041E-03  0.21047757360E-02  0.19985136260E-01  0.20106519025E-01  0.51100000000E-03 0.  1.
    9000002    1    1    2    0    0  0.26068344483E+00 -0.24521745514E+00  0.86009611337E-01  0.10076354063E+01  0.93800000000E+00 0.  1.
         22    1    1    2    0    0 -0.26026483511E+00  0.24311267941E+00  0.38940052198E+01  0.39102580747E+01  0.00000000000E+00 0.  1.
</event>
<event>
 5    1  0.5978855E+001  0.1599671E+01  0.7818608E-02  0.3353720E+00
         11   -1    0    0    0    0  0.00000000000E+00  0.00000000000E+00  0.39999999674E+01  0.40000000000E+01  0.51100000000E-03 0. -1.
    9000002   -1    0    0    0    0 -0.00000000000E+00 -0.00000000000E+00  0.00000000000E+00  0.93800000000E+00  0.93800000000E+00 0.  1.
         11    1    1    2    0    0  0.60793799689E-01  0.86612702749E-01  0.11966973152E+01  0.12013668764E+01  0.51100000000E-03 0. -1.
    9000002    1    1    2    0    0 -0.19786688204E+00 -0.29223093108E+00  0.83543993432E-01  0.10056708303E+01  0.93800000000E+00 0.  1.
         22    1    1    2    0    0  0.13707308235E+00  0.20561822833E+00  0.27197586587E+01  0.27309622933E+01  0.00000000000E+00 0. -1.
</event>
<event>
 5    1  0.5849602E+001  0.1599669E+01  0.7818608E-02  0.3353723E+00
         11   -1    0    0    0    0  0.00000000000E+00  0.00000000000E+00  0.39999999674E+01  0.40000000000E+01  0.51100000000E-03 0. -1.
    9000002   -1    0    0    0    0 -0.00000000000E+00 -0.00000000000E+00  0.00000000000E+00  0.93800000000E+00  0.93800000000E+00 0. -1.
         11    1    1    2    0    0 -0.20900381903E+00  0.15632763533E+00  0.97804819158E+00  0.10122743957E+01  0.51100000000E-03 0. -1.
    9000002    1    1    2    0    0  0.71325543500E+00 -0.54542161040E+00  0.61654657325E+00  0.14374253809E+01  0.93800000000E+00 0. -1.
         22    1    1    2    0    0 -0.50425161598E+00  0.38909397508E+00  0.24054052025E+01  0.24883002234E+01  0.00000000000E+00 0. -1.
</event>
<event>
 5    1  0.5849602E+001  0.1599519E+01  0.7818608E-02  0.3353885E+00
         11   -1    0    0    0    0  0.00000000000E+00  0.00000000000E+00  0.39999999674E+01  0.40000000000E+01  0.51100000000E-03 0.  1.
    9000002   -1    0    0    0    0 -0.00000000000E+00 -0.00000000000E+00  0.00000000000E+00  0.93800000000E+00  0.93800000000E+00 0. -1.
         11    1    1    2    0    0  0.15639265281E-03  0.28148255502E-03  0.13390801650E-01  0.13404416471E-01  0.51100000000E-03 0.  1.
    9000002    1    1    2    0    0 -0.41263815165E+00  0.24433054296E+00  0.15703964208E+00  0.10651164761E+01  0.93800000000E+00 0. -1.
         22    1    1    2    0    0  0.41248175900E+00 -0.24461202552E+00  0.38295695236E+01  0.38594791075E+01  0.00000000000E+00 0.  1.
</event>
<event>
 5    1  0.5849602E+001  0.1279578E+01  0.7818608E-02  0.3821769E+00
         11   -1    0    0    0    0  0.00000000000E+00  0.00000000000E+00  0.39999999674E+01  0.40000000000E+01  0.51100000000E-03 0.  1.
    9000002   -1    0    0    0    0 -0.00000000000E+00 -0.00000000000E+00  0.00000000000E+00  0.93800000000E+00  0.93800000000E+00 0.  1.
         11    1    1    2    0    0  0.43972520669E+00  0.51383258535E+00  0.13057716489E+01  0.14705176107E+01  0.51100000000E-03 0.  1.
    9000002    1    1    2    0    0 -0.54585288423E+00  0.29007301449E+00  0.72281155267E+00  0.13358137092E+01  0.93800000000E+00 0.  1.
         22    1    1    2    0    0  0.10612767754E+00 -0.80390559984E+00  0.19714167658E+01  0.21316686802E+01  0.00000000000E+00 0. -1.
</event>
<event>
 5    1  0.5849602E+001  0.1599672E+01  0.7818608E-02  0.3353719E+00
         11   -1    0    0    0    0  0.00000000000E+00  0.00000000000E+00  0.39999999674E+01  0.40000000000E+01  0.51100000000E-03 0.  1.
    9000002   -1    0    0    0    0 -0.00000000000E+00 -0.00000000000E+00  0.00000000000E+00  0.93800000000E+00  0.93800000000E+00 0. -1.
         11    1    1    2    0    0  0.86648479605E-01 -0.51333710444E-01  0.89434441947E+00  0.89999739478E+00  0.51100000000E-03 0.  1.
    9000002    1    1    2    0    0 -0.38151591250E+00  0.22823293284E+00  0.13413448874E+00  0.10466521505E+01  0.93800000000E+00 0. -1.
         22    1    1    2    0    0  0.29486743290E+00 -0.17689922240E+00  0.29715210591E+01  0.29913504547E+01  0.00000000000E+00 0.  1.
</event>
<event>
 5    1  0.5849602E+001  0.1597297E+01  0.7818608E-02  0.3356302E+00
         11   -1    0    0    0    0  0.00000000000E+00  0.00000000000E+00  0.39999999674E+01  0.40000000000E+01  0.51100000000E-03 0.  1.
    9000002   -1    0    0    0    0 -0.00000000000E+00 -0.00000000000E+00  0.00000000000E+00  0.93800000000E+00  0.93800000000E+00 0. -1.
         11    1    1    2    0    0  0.64129824783E-01 -0.19066342380E-01  0.78820784547E+00  0.79104236841E+00  0.51100000000E-03 0.  1.
    9000002    1    1    2    0    0 -0.18891285686E+00  0.28935715738E+00  0.81943879945E-01  0.10029827673E+01  0.93800000000E+00 0. -1.
         22    1    1    2    0    0  0.12478303208E+00 -0.27029081500E+00  0.31298482419E+01  0.31439748643E+01  0.00000000000E+00 0.  1.
</event>
<event>
 5    1  0.5849602E+001  0.1595447E+01  0.7818608E-02  0.3358320E+00
         11   -1    0    0    0    0  0.00000000000E+00  0.00000000000E+00  0.39999999674E+01  0.40000000000E+01  0.51100000000E-03 0.  1.
    9000002   -1    0    0    0    0 -0.00000000000E+00 -0.00000000000E+00  0.00000000000E+00  0.93800000000E+00  0.93800000000E+00 0.  1.
         11    1    1    2    0    0  0.13636941810E+00 -0.14673230015E+00  0.11820206483E+01  0.11988744973E+01  0.51100000000E-03 0.  1.
    9000002    1    1    2    0    0 -0.39815300010E+00  0.24585857866E+00  0.15284238707E+00  0.10593285833E+01  0.93800000000E+00 0.  1.
         22    1    1    2    0    0  0.26178358200E+00 -0.99126278507E-01  0.26651369320E+01  0.26797969194E+01  0.00000000000E+00 0.  1.
</event>
<event>
 5    1  0.6393358E+001  0.1574372E+01  0.7818608E-02  0.3381657E+00
         11   -1    0    0    0    0  0.00000000000E+00  0.00000000000E+00  0.39999999674E+01  0.40000000000E+01  0.51100000000E-03 0. -1.
    9000002   -1    0    0    0    0 -0.00000000000E+00 -0.00000000000E+00  0.00000000000E+00  0.93800000000E+00  0.93800000000E+00 0. -1.
         11    1    1    2    0    0 -0.15570597014E+00  0.35043703454E-01  0.10291311596E+01  0.10414334425E+01  0.51100000000E-03 0. -1.
    9000002    1    1    2    0    0 -0.43041922073E-01 -0.21182119226E+00  0.50284605462E-01  0.96389489370E+00  0.93800000000E+00 0. -1.
         22    1    1    2    0    0  0.19874789222E+00  0.17677748881E+00  0.29205842023E+01  0.29326716638E+01  0.00000000000E+00 0. -1.
</event>
<event>
 5    1  0.5849602E+001  0.1599677E+01  0.7818608E-02  0.3353714E+00
         11   -1    0    0    0    0  0.00000000000E+00  0.00000000000E+00  0.39999999674E+01  0.40000000000E+01  0.51100000000E-03 0. -1.
    9000002   -1    0    0    0    0 -0.00000000000E+00 -0.00000000000E+00  0.00000000000E+00  0.93800000000E+00  0.93800000000E+00 0. -1.
         11    1    1    2    0    0 -0.80541943052E-01 -0.30437572474E-01  0.92402256098E+00  0.92802554099E+00  0.51100000000E-03 0. -1.
    9000002    1    1    2    0    0  0.33992447009E+00  0.12913604531E+00  0.88794439060E-01  0.10099273320E+01  0.93800000000E+00 0. -1.
         22    1    1    2    0    0 -0.25938252704E+00 -0.98698472840E-01  0.29871829673E+01  0.30000471270E+01  0.00000000000E+00 0. -1.
</event>
<event>
 5    1  0.5849602E+001  0.1599676E+01  0.7818608E-02  0.3353715E+00
         11   -1    0    0    0    0  0.00000000000E+00  0.00000000000E+00  0.39999999674E+01  0.40000000000E+01  0.51100000000E-03 0.  1.
    9000002   -1    0    0    0    0 -0.00000000000E+00 -0.00000000000E+00  0.00000000000E+00  0.93800000000E+00  0.93800000000E+00 0. -1.
         11    1    1    2    0    0  0.14313191339E+00  0.16443226658E-01  0.76924985688E+00  0.78262553483E+00  0.51100000000E-03 0.  1.
    9000002    1    1    2    0    0 -0.67875090399E+00 -0.80283644981E-01  0.33240736159E+00  0.12072642243E+01  0.93800000000E+00 0. -1.
         22    1    1    2    0    0  0.53561899060E+00  0.63840418322E-01  0.28983427489E+01  0.29481102408E+01  0.00000000000E+00 0.  1.
</event>
<event>
 5    1  0.1042311E+002  0.1597423E+01  0.7818608E-02  0.3356165E+00
         11   -1    0    0    0    0  0.00000000000E+00  0.00000000000E+00  0.39999999674E+01  0.40000000000E+01  0.51100000000E-03 0. -1.
    9000002   -1    0    0    0    0 -0.00000000000E+00 -0.00000000000E+00  0.00000000000E+00  0.93800000000E+00  0.93800000000E+00 0. -1.
         11    1    1    2    0    0  0.19725559314E-01  0.54698876501E-01  0.13539843551E+01  0.13552324375E+01  0.51100000000E-03 0. -1.
    9000002    1    1    2    0    0 -0.21166016348E+00 -0.19464309662E+00  0.56853305197E-01  0.98273203783E+00  0.93800000000E+00 0. -1.
         22    1    1    2    0    0  0.19193460417E+00  0.13994422012E+00  0.25891623071E+01  0.26000355246E+01  0.00000000000E+00 0.  1.
</event>
<event>
 5    1  0.5849602E+001  0.1599667E+01  0.7818608E-02  0.3353725E+00
         11   -1    0    0    0    0  0.00000000000E+00  0.00000000000E+00  0.39999999674E+01  0.40000000000E+01  0.51100000000E-03 0.  1.
    9000002   -1    0    0    0    0 -0.00000000000E+00 -0.00000000000E+00  0.00000000000E+00  0.93800000000E+00  0.93800000000E+00 0. -1.
         11    1    1    2    0    0 -0.34549179249E-01 -0.37890711406E-01  0.54834841949E+00  0.55074095732E+00  0.51100000000E-03 0.  1.
    9000002    1    1    2    0    0  0.26272210668E+00  0.26194822309E+00  0.92518037935E-01  0.10129379864E+01  0.93800000000E+00 0. -1.
         22    1    1    2    0    0 -0.22817292743E+00 -0.22405751168E+00  0.33591335099E+01  0.33743210563E+01  0.00000000000E+00 0.  1.
</event>
<event>
 5    1  0.5849602E+001  0.1599677E+01  0.7818608E-02  0.3353714E+00
         11   -1    0    0    0    0  0.00000000000E+00  0.00000000000E+00  0.39999999674E+01  0.40000000000E+01  0.51100000000E-03 0. -1.
    9000002   -1    0    0    0    0 -0.00000000000E+00 -0.00000000000E+00  0.00000000000E+00  0.93800000000E+00  0.93800000000E+00 0. -1.
         11    1    1    2    0    0 -0.30710164572E+00  0.65126040300E-01  0.11540865490E+01  0.11960220925E+01  0.51100000000E-03 0. -1.
    9000002    1    1    2    0    0  0.89384234747E+00 -0.19036169975E+00  0.64320095426E+00  0.14590213112E+01  0.93800000000E+00 0. -1.
         22    1    1    2    0    0 -0.58674070175E+00  0.12523565945E+00  0.22027124641E+01  0.22829565964E+01  0.00000000000E+00 0. -1.
</event>
<event>
 5    1  0.5849602E+001  0.1599609E+01  0.7818608E-02  0.3353788E+00
         11   -1    0    0    0    0  0.00000000000E+00  0.00000000000E+00  0.39999999674E+01  0.40000000000E+01  0.51100000000E-03 0.  1.
    9000002   -1    0    0    0    0 -0.00000000000E+00 -0.00000000000E+00  0.00000000000E+00  0.93800000000E+00  0.93800000000E+00 0.  1.
         11    1    1    2    0    0 -0.29148246425E+00  0.12113111305E+00  0.10615705736E+01  0.11075049063E+01  0.51100000000E-03 0.  1.
    9000002    1    1    2    0    0  0.88997540887E+00 -0.34763653921E+00  0.71719699895E+00  0.15189216330E+01  0.93800000000E+00 0.  1.
         22    1    1    2    0    0 -0.59849294462E+00  0.22650542615E+00  0.22212323948E+01  0.23115734608E+01  0.00000000000E+00 0.  1.
</event>
<event>
 5    1  0.5849602E+001  0.1578766E+01  0.7818608E-02  0.3376737E+00
         11   -1    0    0    0    0  0.00000000000E+00  0.00000000000E+00  0.39999999674E+01  0.40000000000E+01  0.51100000000E-03 0.  1.
    9000002   -1    0    0    0    0 -0.00000000000E+00 -0.00000000000E+00  0.00000000000E+00  0.93800000000E+00  0.93800000000E+00 0. -1.
         11    1    1    2    0    0 -0.37524083160E-01 -0.27337626198E-01  0.78965728709E-01  0.91603766597E-01  0.51100000000E-03 0.  1.
    9000002    1    1    2    0    0 -0.37675220778E+00  0.21812886118E+00  0.14652593942E+00  0.10444310782E+01  0.93800000000E+00 0. -1.
         22    1    1    2    0    0  0.41427629094E+00 -0.19079123498E+00  0.37745082992E+01  0.38019651552E+01  0.00000000000E+00 0.  1.
</event>
<event>
 5    1  0.5849602E+001  0.1570035E+01  0.7818608E-02  0.3386543E+00
         11   -1    0    0    0    0  0.00000000000E+00  0.00000000000E+00  0.39999999674E+01  0.40000000000E+01  0.51100000000E-03 0. -1.
    9000002   -1    0    0    0    0 -0.00000000000E+00 -0.00000000000E+00  0.00000000000E+00  0.93800000000E+00  0.93800000000E+00 0. -1.
         11    1    1    2    0    0  0.48484100956E-01 -0.11744643912E+00  0.79739225907E+00  0.80745219676E+00  0.51100000000E-03 0. -1.
    9000002    1    1    2    0    0 -0.19672538959E+00 -0.24176138806E+00  0.88605774916E-01  0.99239328445E+00  0.93800000000E+00 0. -1.
         22    1    1    2    0    0  0.14824128863E+00  0.35920782718E+00  0.31140019334E+01  0.31381545188E+01  0.00000000000E+00 0. -1.
</event>
<event>
 5    1  0.5849602E+001  0.1599570E+01  0.7818608E-02  0.3353830E+00
         11   -1    0    0    0    0  0.00000000000E+00  0.00000000000E+00  0.39999999674E+01  0.40000000000E+01  0.51100000000E-03 0.  1.
    9000002   -1    0    0    0    0 -0.00000000000E+00 -0.00000000000E+00  0.00000000000E+00  0.93800000000E+00  0.93800000000E+00 0.  1.
         11    1    1    2    0    0 -0.16275891034E+00 -0.30353367085E-01  0.13433574934E+01  0.13535218528E+01  0.51100000000E-03 0.  1.
    9000002    1    1    2    0    0  0.44635822109E+00  0.60655925945E-01  0.13791855150E+00  0.10496572439E+01  0.93800000000E+00 0.  1.
         22    1    1    2    0    0 -0.28359931074E+00 -0.30302558860E-01  0.25187239225E+01  0.25348209033E+01  0.00000000000E+00 0.  1.
</event>
<event>
 5    1  0.5849602E+001  0.1563724E+01  0.7818608E-02  0.3393702E+00
         11   -1    0    0    0    0  0.00000000000E+00  0.00000000000E+00  0.39999999674E+01  0.40000000000E+01  0.51100000000E-03 0. -1.
    9000002   -1    0    0    0    0 -0.00000000000E+00 -0.00000000000E+00  0.00000000000E+00  0.93800000000E+00  0.93800000000E+00 0. -1.
         11    1    1    2    0    0  0.17163222329E+00  0.58636559200E-01  0.14769201709E+01  0.14880152279E+01  0.51100000000E-03 0. -1.
    9000002    1    1    2    0    0  0.13116655102E+00 -0.17308609279E+00  0.58876425926E-01  0.96461074696E+00  0.93800000000E+00 0. -1.
         22    1    1    2    0    0 -0.30279877430E+00  0.11444953359E+00  0.24642033706E+01  0.24853740252E+01  0.00000000000E+00 0. -1.
</event>
<event>
 5    1  0.5849602E+001  0.1599320E+01  0.7818608E-02  0.3354102E+00
         11   -1    0    0    0    0  0.00000000000E+00  0.00000000000E+00  0.39999999674E+01  0.40000000000E+01  0.51100000000E-03 0. -1.
    9000002   -1    0    0    0    0 -0.00000000000E+00 -0.00000000000E+00  0.00000000000E+00  0.93800000000E+00  0.93800000000E+00 0.  1.
         11    1    1    2    0    0  0.90055982910E-01 -0.71609057689E-01  0.76710100546E+00  0.77568173299E+00  0.51100000000E-03 0. -1.
    9000002    1    1    2    0    0 -0.39276691319E+00  0.28705261573E+00  0.16196721397E+00  0.10689913146E+01  0.93800000000E+00 0.  1.
         22    1    1    2    0    0  0.30271093028E+00 -0.21544355804E+00  0.30709317479E+01  0.30933269524E+01  0.00000000000E+00 0. -1.
</event>
<event>
 5    1  0.5849602E+001  0.1599677E+01  0.7818608E-02  0.3353714E+00
         11   -1    0    0    0    0  0.00000000000E+00  0.00000000000E+00  0.39999999674E+01  0.40000000000E+01  0.51100000000E-03 0. -1.
    9000002   -1    0    0    0    0 -0.00000000000E+00 -0.00000000000E+00  0.00000000000E+00  0.93800000000E+00  0.93800000000E+00 0. -1.
         11    1    1    2    0    0 -0.11304557380E+00 -0.35575625904E-02  0.12291667591E+01  0.12343594051E+01  0.51100000000E-03 0. -1.
    9000002    1    1    2    0    0  0.36097428024E+00  0.12275993618E-01  0.87580218864E-01  0.10089437178E+01  0.93800000000E+00 0. -1.
         22    1    1    2    0    0 -0.24792870644E+00 -0.87184310277E-02  0.26832529894E+01  0.26946968771E+01  0.00000000000E+00 0. -1.
</event>
<event>
 5    1  0.5849602E+001  0.1598108E+01  0.7818608E-02  0.3355420E+00
         11   -1    0    0    0    0  0.00000000000E+00  0.00000000000E+00  0.39999999674E+01  0.40000000000E+01  0.51100000000E-03 0. -1.
    9000002   -1    0    0    0    0 -0.00000000000E+00 -0.00000000000E+00  0.00000000000E+00  0.93800000000E+00  0.93800000000E+00 0. -1.
         11    1    1    2    0    0 -0.23113143792E-01 -0.38456714855E-01  0.32658716898E+00  0.32965523869E+00  0.51100000000E-03 0. -1.
    9000002    1    1    2    0    0  0.36420680970E+00  0.15576806583E+00  0.10709007498E+00  0.10238274145E+01  0.93800000000E+00 0. -1.
         22    1    1    2    0    0 -0.34109366591E+00 -0.11731135097E+00  0.35663227234E+01  0.35845173468E+01  0.00000000000E+00 0. -1.
</event>
<event>
 5    1  0.5849602E+001  0.1558795E+01  0.7818608E-02  0.3399337E+00
         11   -1    0    0    0    0  0.00000000000E+00  0.00000000000E+00  0.39999999674E+01  0.40000000000E+01  0.51100000000E-03 0. -1.
    9000002   -1    0    0    0    0 -0.00000000000E+00 -0.00000000000E+00  0.00000000000E+00  0.93800000000E+00  0.93800000000E+00 0. -1.
         11    1    1    2    0    0  0.12940083784E-01  0.89706051319E-01  0.15824465258E+00  0.18236296938E+00  0.51100000000E-03 0. -1.
    9000002    1    1    2    0    0 -0.28705252081E+00  0.22243751417E+00  0.12252506329E+00  0.10132788306E+01  0.93800000000E+00 0. -1.
         22    1    1    2    0    0  0.27411243702E+00 -0.31214356548E+00  0.37192302515E+01  0.37423582000E+01  0.00000000000E+00 0. -1.
</event>
<event>
 5    1  0.5849602E+001  0.1599677E+01  0.7818608E-02  0.3353715E+00
         11   -1    0    0    0    0  0.00000000000E+00  0.00000000000E+00  0.39999999674E+01  0.40000000000E+01  0.51100000000E-03 0. -1.
    9000002   -1    0    0    0    0 -0.00000000000E+00 -0.00000000000E+00  0.00000000000E+00  0.93800000000E+00  0.93800000000E+00 0. -1.
         11    1    1    2    0    0  0.65194110346E-01 -0.18072784136E-01  0.53555094705E+00  0.53980735041E+00  0.51100000000E-03 0.  1.
    9000002    1    1    2    0    0 -0.46953164370E+00  0.13138080692E+00  0.16239961905E+00  0.10695506146E+01  0.93800000000E+00 0. -1.
         22    1    1    2    0    0  0.40433753335E+00 -0.11330802278E+00  0.33020494013E+01  0.33286420350E+01  0.00000000000E+00 0. -1.
</event>
<event>
 5    1  0.5849602E+001  0.1538263E+01  0.7818608E-02  0.3423223E+00
         11   -1    0    0    0    0  0.00000000000E+00  0.00000000000E+00  0.39999999674E+01  0.40000000000E+01  0.51100000000E-03 0. -1.
    9000002   -1    0    0    0    0 -0.00000000000E+00 -0.00000000000E+00  0.00000000000E+00  0.93800000000E+00  0.93800000000E+00 0.  1.
         11    1    1    2    0    0 -0.28821003353E+00 -0.30166789012E-01  0.87880317362E+00  0.92534876543E+00  0.51100000000E-03 0. -1.
    9000002    1    1    2    0    0  0.17023238626E+00  0.28077622115E+00  0.12266335018E+00  0.10013514114E+01  0.93800000000E+00 0.  1.
         22    1    1    2    0    0  0.11797764727E+00 -0.25060943214E+00  0.29985334436E+01  0.30112998231E+01  0.00000000000E+00 0. -1.
</event>
<event>
 5    1  0.5849602E+001  0.1599671E+01  0.7818608E-02  0.3353720E+00
         11   -1    0    0    0    0  0.00000000000E+00  0.00000000000E+00  0.39999999674E+01  0.40000000000E+01  0.51100000000E-03 0.  1.
    9000002   -1    0    0    0    0 -0.00000000000E+00 -0.00000000000E+00  0.00000000000E+00  0.93800000000E+00  0.93800000000E+00 0. -1.
         11    1    1    2    0    0 -0.91110754198E-01 -0.11739847461E+00  0.14673608550E+01  0.14748666758E+01  0.51100000000E-03 0.  1.
    9000002    1    1    2    0    0  0.24900468007E+00  0.31216170129E+00  0.10754619396E+00  0.10251138680E+01  0.93800000000E+00 0. -1.
         22    1    1    2    0    0 -0.15789392587E+00 -0.19476322668E+00  0.24250929184E+01  0.24380194563E+01  0.00000000000E+00 0.  1.
</event>
<event>
 5    1  0.5849602E+001  0.1598152E+01  0.7818608E-02  0.3355371E+00
         11   -1    0    0    0    0  0.00000000000E+00  0.00000000000E+00  0.39999999674E+01  0.40000000000E+01  0.51100000000E-03 0. -1.
    9000002   -1    0    0    0    0 -0.00000000000E+00 -0.00000000000E+00  0.00000000000E+00  0.93800000000E+00  0.93800000000E+00 0. -1.
         11    1    1    2    0    0  0.74957374850E-01 -0.12982958199E+00  0.94668319779E+00  0.95847987276E+00  0.51100000000E-03 0. -1.
    9000002    1    1    2    0    0 -0.22287060861E+00  0.38581597139E+00  0.13606070691E+00  0.10473212439E+01  0.93800000000E+00 0. -1.
         22    1    1    2    0    0  0.14791323376E+00 -0.25598638940E+00  0.29172560627E+01  0.29321988833E+01  0.00000000000E+00 0. -1.
</event>
<event>
 5    1  0.5849602E+001  0.1597984E+01  0.7818608E-02  0.3355555E+00
         11   -1    0    0    0    0  0.00000000000E+00  0.00000000000E+00  0.39999999674E+01  0.40000000000E+01  0.51100000000E-03 0.  1.
    9000002   -1    0    0    0    0 -0.00000000000E+00 -0.00000000000E+00  0.00000000000E+00  0.93800000000E+00  0.93800000000E+00 0.  1.
         11    1    1    2    0    0 -0.24325329322E-01  0.46271778200E-01  0.39212817096E+00  0.39559772836E+00  0.51100000000E-03 0.  1.
    9000002    1    1    2    0    0  0.43254382919E+00 -0.23300623978E+00  0.16651894263E+00  0.10718948783E+01  0.93800000000E+00 0.  1.
         22    1    1    2    0    0 -0.40821849987E+00  0.18673446158E+00  0.34413528538E+01  0.34705073933E+01  0.00000000000E+00 0.  1.
</event>
<event>
 5    1  0.5849602E+001  0.1599671E+01  0.7818608E-02  0.3353721E+00
         11   -1    0    0    0    0  0.00000000000E+00  0.00000000000E+00  0.39999999674E+01  0.40000000000E+01  0.51100000000E-03 0.  1.
    9000002   -1    0    0    0    0 -0.00000000000E+00 -0.00000000000E+00  0.00000000000E+00  0.93800000000E+00  0.93800000000E+00 0.  1.
         11    1    1    2    0    0  0.77953643804E-01  0.15020542394E+00  0.14766713589E+01  0.14863367732E+01  0.51100000000E-03 0.  1.
    9000002    1    1    2    0    0 -0.20941304352E+00 -0.38778136344E+00  0.13174384824E+00  0.10447146262E+01  0.93800000000E+00 0.  1.
         22    1    1    2    0    0  0.13145939971E+00  0.23757593950E+00  0.23915847602E+01  0.24069486006E+01  0.00000000000E+00 0.  1.
</event>
<event>
 5    1  0.5849602E+001  0.1596896E+01  0.7818608E-02  0.3356740E+00
         11   -1    0    0    0    0  0.00000000000E+00  0.00000000000E+00  0.39999999674E+01  0.40000000000E+01  0.51100000000E-03 0.  1.
    9000002   -1    0    0    0    0 -0.00000000000E+00 -0.00000000000E+00  0.00000000000E+00  0.93800000000E+00  0.93800000000E+00 0.  1.
         11    1    1    2    0    0 -0.61282819994E-01  0.20319899877E+00  0.14118145963E+01  0.14276785817E+01  0.51100000000E-03 0.  1.
    9000002    1    1    2    0    0  0.21424479047E+00 -0.39443480670E+00  0.13922282464E+00  0.10491456724E+01  0.93800000000E+00 0.  1.
         22    1    1    2    0    0 -0.15296197047E+00  0.19123580793E+00  0.24489625464E+01  0.24611757460E+01  0.00000000000E+00 0.  1.
</event>
<event>
 5    1  0.5849602E+001  0.1598942E+01  0.7818608E-02  0.3354512E+00
         11   -1    0    0    0    0  0.00000000000E+00  0.00000000000E+00  0.39999999674E+01  0.40000000000E+01  0.51100000000E-03 0.  1.
    9000002   -1    0    0    0    0 -0.00000000000E+00 -0.00000000000E+00  0.00000000000E+00  0.93800000000E+00  0.93800000000E+00 0.  1.
         11    1    1    2    0    0  0.23195739362E+00  0.20961431058E+00  0.14108390502E+01  0.14450638319E+01  0.51100000000E-03 0.  1.
    9000002    1    1    2    0    0 -0.65209756403E+00 -0.49658423831E+00  0.49925114303E+00  0.13419846655E+01  0.93800000000E+00 0.  1.
         22    1    1    2    0    0  0.42014017041E+00  0.28696992773E+00  0.20899097741E+01  0.21509515025E+01  0.00000000000E+00 0.  1.
</event>
<event>
 5    1  0.5849602E+001  0.1596863E+01  0.7818608E-02  0.3356776E+00
         11   -1    0    0    0    0  0.00000000000E+00  0.00000000000E+00  0.39999999674E+01  0.40000000000E+01  0.51100000000E-03 0. -1.
    9000002   -1    0    0    0    0 -0.00000000000E+00 -0.00000000000E+00  0.00000000000E+00  0.93800000000E+00  0.93800000000E+00 0.  1.
         11    1    1    2    0    0  0.87479863516E-01 -0.25480703815E+00  0.13764465045E+01  0.14025635793E+01  0.51100000000E-03 0. -1.
    9000002    1    1    2    0    0 -0.36403192731E+00  0.57879825299E+00  0.33579376403E+00  0.12083576100E+01  0.93800000000E+00 0.  1.
         22    1    1    2    0    0  0.27655206379E+00 -0.32399121483E+00  0.22877596989E+01  0.23270788107E+01  0.00000000000E+00 0. -1.
</event>
<event>
 5    1  0.5849602E+001  0.1599676E+01  0.7818608E-02  0.3353715E+00
         11   -1    0    0    0    0  0.00000000000E+00  0.00000000000E+00  0.39999999674E+01  0.40000000000E+01  0.51100000000E-03 0. -1.
    9000002   -1    0    0    0    0 -0.00000000000E+00 -0.00000000000E+00  0.00000000000E+00  0.93800000000E+00  0.93800000000E+00 0.  1.
         11    1    1    2    0    0  0.10612796996E-01 -0.12363673570E-01  0.14862895355E+00  0.14952029574E+00  0.51100000000E-03 0.  1.
    9000002    1    1    2    0    0 -0.27676019562E+00  0.32127644926E+00  0.12167766470E+00  0.10365636579E+01  0.93800000000E+00 0.  1.
         22    1    1    2    0    0  0.26614739862E+00 -0.30891277569E+00  0.37296933491E+01  0.37519160464E+01  0.00000000000E+00 0. -1.
</event>
<event>
 5    1  0.5849602E+001  0.1598727E+01  0.7818608E-02  0.3354746E+00
         11   -1    0    0    0    0  0.00000000000E+00  0.00000000000E+00  0.39999999674E+01  0.40000000000E+01  0.51100000000E-03 0.  1.
    9000002   -1    0    0    0    0 -0.00000000000E+00 -0.00000000000E+00  0.00000000000E+00  0.93800000000E+00  0.93800000000E+00 0. -1.
         11    1    1    2    0    0  0.56938698991E-01  0.25664642925E-01  0.58763448719E+00  0.59094436371E+00  0.51100000000E-03 0.  1.
    9000002    1    1    2    0    0 -0.24083069387E+00 -0.28062615081E+00  0.92673956010E-01  0.10125131711E+01  0.93800000000E+00 0. -1.
         22    1    1    2    0    0  0.18389199488E+00  0.25496150788E+00  0.33196915242E+01  0.33345424651E+01  0.00000000000E+00 0.  1.
</event>
<event>
 5    1  0.5849602E+001  0.1599639E+01  0.7818608E-02  0.3353755E+00
         11   -1    0    0    0    0  0.00000000000E+00  0.00000000000E+00  0.39999999674E+01  0.40000000000E+01  0.51100000000E-03 0.  1.
    9000002   -1    0    0    0    0 -0.00000000000E+00 -0.00000000000E+00  0.00000000000E+00  0.93800000000E+00  0.93800000000E+00 0. -1.
         11    1    1    2    0    0  0.47068746434E-01 -0.99153598143E-01  0.10989414998E+01  0.11044091561E+01  0.51100000000E-03 0.  1.
    9000002    1    1    2    0    0 -0.15938379212E+00  0.33036334512E+00  0.90415253975E-01  0.10112181027E+01  0.93800000000E+00 0. -1.
         22    1    1    2    0    0  0.11231504568E+00 -0.23120974698E+00  0.28106432135E+01  0.28223727412E+01  0.00000000000E+00 0.  1.
</event>
<event>
 5    1  0.5849602E+001  0.1578764E+01  0.7818608E-02  0.3376740E+00
         11   -1    0    0    0    0  0.00000000000E+00  0.00000000000E+00  0.39999999674E+01  0.40000000000E+01  0.51100000000E-03 0.  1.
    9000002   -1    0    0    0    0 -0.00000000000E+00 -0.00000000000E+00  0.00000000000E+00  0.93800000000E+00  0.93800000000E+00 0. -1.
         11    1    1    2    0    0 -0.19705532713E+00  0.14929461387E+00  0.95899771396E+00  0.99035173559E+00  0.51100000000E-03 0.  1.
    9000002    1    1    2    0    0  0.18806275478E+00 -0.47790920393E+00  0.20030644170E+00  0.10879942452E+01  0.93800000000E+00 0. -1.
         22    1    1    2    0    0  0.89925723536E-02  0.32861459006E+00  0.28406958117E+01  0.28596540192E+01  0.00000000000E+00 0. -1.
</event>
<event>
 5    1  0.5849602E+001  0.1599641E+01  0.7818608E-02  0.3353753E+00
         11   -1    0    0    0    0  0.00000000000E+00  0.00000000000E+00  0.39999999674E+01  0.40000000000E+01  0.51100000000E-03 0.  1.
    9000002   -1    0    0    0    0 -0.00000000000E+00 -0.00000000000E+00  0.00000000000E+00  0.93800000000E+00  0.93800000000E+00 0. -1.
         11    1    1    2    0    0  0.65914212685E-01 -0.10822145432E+00  0.11390998270E+01  0.11461261901E+01  0.51100000000E-03 0.  1.
    9000002    1    1    2    0    0 -0.21714322207E+00  0.34799076707E+00  0.11366809547E+00  0.10300549445E+01  0.93800000000E+00 0. -1.
         22    1    1    2    0    0  0.15122900939E+00 -0.23976931275E+00  0.27472320449E+01  0.27618188654E+01  0.00000000000E+00 0.  1.
</event>
<event>
 5    1  0.5849602E+001  0.1598279E+01  0.7818608E-02  0.3355233E+00
         11   -1    0    0    0    0  0.00000000000E+00  0.00000000000E+00  0.39999999674E+01  0.40000000000E+01  0.51100000000E-03 0.  1.
    9000002   -1    0    0    0    0 -0.00000000000E+00 -0.00000000000E+00  0.00000000000E+00  0.93800000000E+00  0.93800000000E+00 0.  1.
         11    1    1    2    0    0  0.23200478677E-01 -0.42824704888E-02  0.87498426674E-01  0.90624707204E-01  0.51100000000E-03 0.  1.
    9000002    1    1    2    0    0 -0.44615200802E+00  0.25227613167E-01  0.13676752391E+00  0.10479682258E+01  0.93800000000E+00 0.  1.
         22    1    1    2    0    0  0.42295152934E+00 -0.20945142679E-01  0.37757340168E+01  0.37994070670E+01  0.00000000000E+00 0.  1.
</event>
<event>
 5    1  0.5849602E+001  0.1599595E+01  0.7818608E-02  0.3353803E+00
         11   -1    0    0    0    0  0.00000000000E+00  0.00000000000E+00  0.39999999674E+01  0.40000000000E+01  0.51100000000E-03 0. -1.
    9000002   -1    0    0    0    0 -0.00000000000E+00 -0.00000000000E+00  0.00000000000E+00  0.93800000000E+00  0.93800000000E+00 0. -1.
         11    1    1    2    0    0 -0.25151996602E+00  0.12855800004E+00  0.13389635820E+01  0.13684345756E+01  0.51100000000E-03 0. -1.
    9000002    1    1    2    0    0  0.69516019913E+00 -0.32897461326E+00  0.43140818685E+00  0.12874117532E+01  0.93800000000E+00 0. -1.
         22    1    1    2    0    0 -0.44364023311E+00  0.20041661322E+00  0.22296281985E+01  0.22821536712E+01  0.00000000000E+00 0. -1.
</event>
<event>
 5    1  0.5849602E+001  0.1585569E+01  0.7818608E-02  0.3369176E+00
         11   -1    0    0    0    0  0.00000000000E+00  0.00000000000E+00  0.39999999674E+01  0.40000000000E+01  0.51100000000E-03 0.  1.
    9000002   -1    0    0    0    0 -0.00000000000E+00 -0.00000000000E+00  0.00000000000E+00  0.93800000000E+00  0.93800000000E+00 0.  1.
         11    1    1    2    0    0 -0.17621058092E+00  0.48826926307E-01  0.92153130595E+00  0.93949691140E+00  0.51100000000E-03 0.  1.
    9000002    1    1    2    0    0  0.24128541414E+00 -0.32278715455E+00  0.12144927866E+00  0.10281070594E+01  0.93800000000E+00 0.  1.
         22    1    1    2    0    0 -0.65074833226E-01  0.27396022824E+00  0.29570193827E+01  0.29703960292E+01  0.00000000000E+00 0.  1.
</event>
<event>
 5    1  0.5849602E+001  0.1599676E+01  0.7818608E-02  0.3353715E+00
         11   -1    0    0    0    0  0.00000000000E+00  0.00000000000E+00  0.39999999674E+01  0.40000000000E+01  0.51100000000E-03 0.  1.
    9000002   -1    0    0    0    0 -0.00000000000E+00 -0.00000000000E+00  0.00000000000E+00  0.93800000000E+00  0.93800000000E+00 0. -1.
         11    1    1    2    0    0 -0.12815692094E+00 -0.57178999919E-01  0.11708174121E+01  0.11791977391E+01  0.51100000000E-03 0.  1.
    9000002    1    1    2    0    0  0.41850940375E+00  0.18864037804E+00  0.14332266710E+00  0.10540971019E+01  0.93800000000E+00 0. -1.
         22    1    1    2    0    0 -0.29035248281E+00 -0.13146137812E+00  0.26858598882E+01  0.27047051590E+01  0.00000000000E+00 0.  1.
</event>
<event>
 5    1  0.5849602E+001  0.1599433E+01  0.7818608E-02  0.3353979E+00
         11   -1    0    0    0    0  0.00000000000E+00  0.00000000000E+00  0.39999999674E+01  0.40000000000E+01  0.51100000000E-03 0.  1.
    9000002   -1    0    0    0    0 -0.00000000000E+00 -0.00000000000E+00  0.00000000000E+00  0.93800000000E+00  0.93800000000E+00 0. -1.
         11    1    1    2    0    0 -0.44400192643E-01 -0.98477297906E-01  0.89972828429E+00  0.90619004738E+00  0.51100000000E-03 0.  1.
    9000002    1    1    2    0    0  0.23412885714E+00  0.37050742446E+00  0.13045319130E+00  0.10435296395E+01  0.93800000000E+00 0. -1.
         22    1    1    2    0    0 -0.18972866450E+00 -0.27203012656E+00  0.29698184918E+01  0.29882803131E+01  0.00000000000E+00 0.  1.
</event>
<event>
 5    1  0.5849602E+001  0.1599676E+01  0.7818608E-02  0.3353715E+00
         11   -1    0    0    0    0  0.00000000000E+00  0.00000000000E+00  0.39999999674E+01  0.40000000000E+01  0.51100000000E-03 0. -1.
    9000002   -1    0    0    0    0 -0.00000000000E+00 -0.00000000000E+00  0.00000000000E+00  0.93800000000E+00  0.93800000000E+00 0. -1.
         11    1    1    2    0    0 -0.97511085795E-01  0.15822424933E-01  0.10171977262E+01  0.10219834814E+01  0.51100000000E-03 0. -1.
    9000002    1    1    2    0    0  0.37201491160E+00 -0.59206596434E-01  0.95438821273E-01  0.10153093539E+01  0.93800000000E+00 0. -1.
         22    1    1    2    0    0 -0.27450382581E+00  0.43384171501E-01  0.28873634199E+01  0.29007071647E+01  0.00000000000E+00 0. -1.
</event>
<event>
 5    1  0.5849602E+001  0.1597811E+01  0.7818608E-02  0.3355743E+00
         11   -1    0    0    0    0  0.00000000000E+00  0.00000000000E+00  0.39999999674E+01  0.40000000000E+01  0.51100000000E-03 0. -1.
    9000002   -1    0    0    0    0 -0.00000000000E+00 -0.00000000000E+00  0.00000000000E+00  0.93800000000E+00  0.93800000000E+00 0. -1.
         11    1    1    2    0    0 -0.11182641538E+00 -0.92519491661E-01  0.73212423253E+00  0.74637199606E+00  0.51100000000E-03 0. -1.
    9000002    1    1    2    0    0  0.39615527415E+00  0.36745210263E+00  0.20303840237E+00  0.11013757950E+01  0.93800000000E+00 0. -1.
         22    1    1    2    0    0 -0.28432885877E+00 -0.27493261097E+00  0.30648373325E+01  0.30902522089E+01  0.00000000000E+00 0. -1.
</event>
<event>
 5    1  0.5849602E+001  0.1595676E+01  0.7818608E-02  0.3358070E+00
         11   -1    0    0    0    0  0.00000000000E+00  0.00000000000E+00  0.39999999674E+01  0.40000000000E+01  0.51100000000E-03 0.  1.
    9000002   -1    0    0    0    0 -0.00000000000E+00 -0.00000000000E+00  0.00000000000E+00  0.93800000000E+00  0.93800000000E+00 0.  1.
         11    1    1    2    0    0 -0.16558482123E+00  0.15098113496E+00  0.96384327708E+00  0.98954927115E+00  0.51100000000E-03 0.  1.
    9000002    1    1    2    0    0  0.74250482023E+00 -0.65187118353E+00  0.78764992720E+00  0.15736854374E+01  0.93800000000E+00 0.  1.
         22    1    1    2    0    0 -0.57691999900E+00  0.50089004857E+00  0.22485067631E+01  0.23747652915E+01  0.00000000000E+00 0.  1.
</event>
<event>
 5    1  0.5849602E+001  0.1599671E+01  0.7818608E-02  0.3353721E+00
         11   -1    0    0    0    0  0.00000000000E+00  0.00000000000E+00  0.39999999674E+01  0.40000000000E+01  0.51100000000E-03 0.  1.
    9000002   -1    0    0    0    0 -0.00000000000E+00 -0.00000000000E+00  0.00000000000E+00  0.93800000000E+00  0.93800000000E+00 0. -1.
         11    1    1    2    0    0  0.91878372064E-01  0.20544639381E-02  0.73411973637E+00  0.73984992027E+00  0.51100000000E-03 0.  1.
    9000002    1    1    2    0    0 -0.49057013189E+00 -0.17368726875E-01  0.16470730736E+00  0.10714164569E+01  0.93800000000E+00 0. -1.
         22    1    1    2    0    0  0.39869175983E+00  0.15314262937E-01  0.31011729236E+01  0.31267336228E+01  0.00000000000E+00 0.  1.
</event>
<event>
 5    1  0.5849602E+001  0.1599663E+01  0.7818608E-02  0.3353729E+00
         11   -1    0    0    0    0  0.00000000000E+00  0.00000000000E+00  0.39999999674E+01  0.40000000000E+01  0.51100000000E-03 0.  1.
    9000002   -1    0    0    0    0 -0.00000000000E+00 -0.00000000000E+00  0.00000000000E+00  0.93800000000E+00  0.93800000000E+00 0.  1.
         11    1    1    2    0    0 -0.11550569969E-02 -0.23186707644E-02  0.19848249703E-01  0.20023099861E-01  0.51100000000E-03 0. -1.
    9000002    1    1    2    0    0  0.16141671482E+00  0.40838843724E+00  0.13077666386E+00  0.10439267251E+01  0.93800000000E+00 0.  1.
         22    1    1    2    0    0 -0.16026165782E+00 -0.40606976647E+00  0.38493750538E+01  0.38740501751E+01  0.00000000000E+00 0.  1.
</event>
<event>
 5    1  0.5849602E+001  0.1591411E+01  0.7818608E-02  0.3362739E+00
         11   -1    0    0    0    0  0.00000000000E+00  0.00000000000E+00  0.39999999674E+01  0.40000000000E+01  0.51100000000E-03 0. -1.
    9000002   -1    0    0    0    0 -0.00000000000E+00 -0.00000000000E+00  0.00000000000E+00  0.93800000000E+00  0.93800000000E+00 0. -1.
         11    1    1    2    0    0  0.38268008741E-01  0.80649929773E-01  0.88644308636E+00  0.89092674117E+00  0.51100000000E-03 0. -1.
    9000002    1    1    2    0    0 -0.34246793532E+00  0.91304310801E-02  0.85288542830E-01  0.10022403839E+01  0.93800000000E+00 0. -1.
         22    1    1    2    0    0  0.30419992658E+00 -0.89780360853E-01  0.30282683382E+01  0.30448328750E+01  0.00000000000E+00 0. -1.
</event>
<event>
 5    1  0.5849602E+001  0.1590879E+01  0.7818608E-02  0.3363323E+00
         11   -1    0    0    0    0  0.00000000000E+00  0.00000000000E+00  0.39999999674E+01  0.40000000000E+01  0.51100000000E-03 0. -1.
    9000002   -1    0    0    0    0 -0.00000000000E+00 -0.00000000000E+00  0.00000000000E+00  0.93800000000E+00  0.93800000000E+00 0. -1.
         11    1    1    2    0    0  0.35381657187E-01 -0.24758212806E-01  0.89097148082E+00  0.89201752871E+00  0.51100000000E-03 0. -1.
    9000002    1    1    2    0    0 -0.39880886265E-01  0.50129896501E+00  0.18119075786E+00  0.10796134624E+01  0.93800000000E+00 0. -1.
         22    1    1    2    0    0  0.44992290779E-02 -0.47654075220E+00  0.29278377287E+01  0.29663690089E+01  0.00000000000E+00 0. -1.
</event>
<event>
 5    1  0.5849602E+001  0.1599657E+01  0.7818608E-02  0.3353736E+00
         11   -1    0    0    0    0  0.00000000000E+00  0.00000000000E+00  0.39999999674E+01  0.40000000000E+01  0.51100000000E-03 0.  1.
    9000002   -1    0    0    0    0 -0.00000000000E+00 -0.00000000000E+00  0.00000000000E+00  0.93800000000E+00  0.93800000000E+00 0.  1.
         11    1    1    2    0    0  0.25313829470E-02  0.51127591551E-02  0.67208326021E-01  0.67451971160E-01  0.51100000000E-03 0.  1.
    9000002    1    1    2    0    0 -0.21551396812E+00 -0.32873832262E+00  0.10414849256E+00  0.10223531991E+01  0.93800000000E+00 0.  1.
         22    1    1    2    0    0  0.21298258517E+00  0.32362556347E+00  0.38286431488E+01  0.38481948297E+01  0.00000000000E+00 0.  1.
</event>
<event>
 5    1  0.5849602E+001  0.1599676E+01  0.7818608E-02  0.3353715E+00
         11   -1    0    0    0    0  0.00000000000E+00  0.00000000000E+00  0.39999999674E+01  0.40000000000E+01  0.51100000000E-03 0.  1.
    9000002   -1    0    0    0    0 -0.00000000000E+00 -0.00000000000E+00  0.00000000000E+00  0.93800000000E+00  0.93800000000E+00 0.  1.
         11    1    1    2    0    0  0.12191251661E+00  0.69100504226E-01  0.11817119160E+01  0.11899919559E+01  0.51100000000E-03 0.  1.
    9000002    1    1    2    0    0 -0.40073344981E+00 -0.22727930019E+00  0.14438393259E+00  0.10549568229E+01  0.93800000000E+00 0.  1.
         22    1    1    2    0    0  0.27882093320E+00  0.15817879597E+00  0.26739041187E+01  0.26930512213E+01  0.00000000000E+00 0.  1.
</event>
<event>
 5    1  0.5849602E+001  0.1599446E+01  0.7818608E-02  0.3353965E+00
         11   -1    0    0    0    0  0.00000000000E+00  0.00000000000E+00  0.39999999674E+01  0.40000000000E+01  0.51100000000E-03 0.  1.
    9000002   -1    0    0    0    0 -0.00000000000E+00 -0.00000000000E+00  0.00000000000E+00  0.93800000000E+00  0.93800000000E+00 0. -1.
         11    1    1    2    0    0 -0.19005205790E-03  0.15462305634E-01  0.11496021185E+00  0.11599668290E+00  0.51100000000E-03 0.  1.
    9000002    1    1    2    0    0 -0.98397114050E-01 -0.34410112896E+00  0.86146496672E-01  0.10076471594E+01  0.93800000000E+00 0. -1.
         22    1    1    2    0    0  0.98587166108E-01  0.32863882333E+00  0.37988932588E+01  0.38143561577E+01  0.00000000000E+00 0.  1.
</event>
<event>
 5    1  0.5849602E+001  0.1589231E+01  0.7818608E-02  0.3365136E+00
         11   -1    0    0    0    0  0.00000000000E+00  0.00000000000E+00  0.39999999674E+01  0.40000000000E+01  0.51100000000E-03 0.  1.
    9000002   -1    0    0    0    0 -0.00000000000E+00 -0.00000000000E+00  0.00000000000E+00  0.93800000000E+00  0.93800000000E+00 0. -1.
         11    1    1    2    0    0  0.13272390351E+00  0.58779584222E-01  0.11279931959E+01  0.11372948541E+01  0.51100000000E-03 0.  1.
    9000002    1    1    2    0    0 -0.44274404826E+00  0.18112276849E+00  0.16538563052E+00  0.10658443396E+01  0.93800000000E+00 0. -1.
         22    1    1    2    0    0  0.31002014475E+00 -0.23990235271E+00  0.27066211410E+01  0.27348608063E+01  0.00000000000E+00 0.  1.
</event>
<event>
 5    1  0.5849602E+001  0.1599650E+01  0.7818608E-02  0.3353743E+00
         11   -1    0    0    0    0  0.00000000000E+00  0.00000000000E+00  0.39999999674E+01  0.40000000000E+01  0.51100000000E-03 0.  1.
    9000002   -1    0    0    0    0 -0.00000000000E+00 -0.00000000000E+00  0.00000000000E+00  0.93800000000E+00  0.93800000000E+00 0.  1.
         11    1    1    2    0    0 -0.16826597766E-01  0.24454682391E-01  0.30848886039E+00  0.30991418810E+00  0.51100000000E-03 0.  1.
    9000002    1    1    2    0    0  0.24035904796E+00 -0.33929480313E+00  0.11688513871E+00  0.10326662438E+01  0.93800000000E+00 0.  1.
         22    1    1    2    0    0 -0.22353245019E+00  0.31484012074E+00  0.35746259683E+01  0.35954195681E+01  0.00000000000E+00 0.  1.
</event>
<event>
 5    1  0.5849602E+001  0.1599677E+01  0.7818608E-02  0.3353714E+00
         11   -1    0    0    0    0  0.00000000000E+00  0.00000000000E+00  0.39999999674E+01  0.40000000000E+01  0.51100000000E-03 0. -1.
    9000002   -1    0    0    0    0 -0.00000000000E+00 -0.00000000000E+00  0.00000000000E+00  0.93800000000E+00  0.93800000000E+00 0.  1.
         11    1    1    2    0    0  0.84601707305E-01 -0.14052500963E+00  0.11968389841E+01  0.12080267142E+01  0.51100000000E-03 0. -1.
    9000002    1    1    2    0    0 -0.27060045675E+00  0.44766440581E+00  0.18806296705E+00  0.10903392623E+01  0.93800000000E+00 0.  1.
         22    1    1    2    0    0  0.18599874945E+00 -0.30713939618E+00  0.26150980162E+01  0.26396340235E+01  0.00000000000E+00 0. -1.
</event>
<event>
 5    1  0.5849602E+001  0.1458310E+01  0.7818608E-02  0.3523134E+00
         11   -1    0    0    0    0  0.00000000000E+00  0.00000000000E+00  0.39999999674E+01  0.40000000000E+01  0.51100000000E-03 0. -1.
    9000002   -1    0    0    0    0 -0.00000000000E+00 -0.00000000000E+00  0.00000000000E+00  0.93800000000E+00  0.93800000000E+00 0. -1.
         11    1    1    2    0    0  0.23700327377E+00 -0.34945925901E+00  0.11694475011E+01  0.12433422877E+01  0.51100000000E-03 0. -1.
    9000002    1    1    2    0    0 -0.64933778746E-01 -0.13752608824E+00  0.14663626732E+00  0.96149675790E+00  0.93800000000E+00 0. -1.
         22    1    1    2    0    0 -0.17206949502E+00  0.48698534725E+00  0.26839161989E+01  0.27331609544E+01  0.00000000000E+00 0. -1.
</event>
<event>
 5    1  0.5849602E+001  0.1547515E+01  0.7818608E-02  0.3412376E+00
         11   -1    0    0    0    0  0.00000000000E+00  0.00000000000E+00  0.39999999674E+01  0.40000000000E+01  0.51100000000E-03 0.  1.
    9000002   -1    0    0    0    0 -0.00000000000E+00 -0.00000000000E+00  0.00000000000E+00  0.93800000000E+00  0.93800000000E+00 0.  1.
         11    1    1    2    0    0 -0.18065078064E+00  0.54390903699E-01  0.59154281974E+00  0.62089954393E+00  0.51100000000E-03 0.  1.
    9000002    1    1    2    0    0 -0.11403174926E+00 -0.27395341955E+00  0.10066153096E+00  0.98895422530E+00  0.93800000000E+00 0.  1.
         22    1    1    2    0    0  0.29468252990E+00  0.21956251585E+00  0.33077956167E+01  0.33281462308E+01  0.00000000000E+00 0.  1.
</event>
<event>
 5    1  0.5849602E+001  0.1525136E+01  0.7818608E-02  0.3438854E+00
         11   -1    0    0    0    0  0.00000000000E+00  0.00000000000E+00  0.39999999674E+01  0.40000000000E+01  0.51100000000E-03 0.  1.
    9000002   -1    0    0    0    0 -0.00000000000E+00 -0.00000000000E+00  0.00000000000E+00  0.93800000000E+00  0.93800000000E+00 0. -1.
         11    1    1    2    0    0  0.46251708676E+00  0.22980619937E+00  0.12610357266E+01  0.13626974388E+01  0.51100000000E-03 0.  1.
    9000002    1    1    2    0    0  0.62246860612E-01  0.63139507419E-01  0.19608718707E+00  0.96236970754E+00  0.93800000000E+00 0. -1.
         22    1    1    2    0    0 -0.52476394737E+00 -0.29294570679E+00  0.25428770537E+01  0.26129328536E+01  0.00000000000E+00 0.  1.
</event>
<event>
 5    1  0.5849602E+001  0.1599468E+01  0.7818608E-02  0.3353941E+00
         11   -1    0    0    0    0  0.00000000000E+00  0.00000000000E+00  0.39999999674E+01  0.40000000000E+01  0.51100000000E-03 0. -1.
    9000002   -1    0    0    0    0 -0.00000000000E+00 -0.00000000000E+00  0.00000000000E+00  0.93800000000E+00  0.93800000000E+00 0.  1.
         11    1    1    2    0    0 -0.25127715043E-02 -0.84387775131E-01  0.63605882232E+00  0.64163751229E+00  0.51100000000E-03 0. -1.
    9000002    1    1    2    0    0 -0.44925232685E-01  0.46100481417E+00  0.14618570020E+00  0.10562944543E+01  0.93800000000E+00 0.  1.
         22    1    1    2    0    0  0.47438004189E-01 -0.37661703904E+00  0.32177554448E+01  0.32400680334E+01  0.00000000000E+00 0. -1.
</event>
<event>
 5    1  0.5849602E+001  0.1599676E+01  0.7818608E-02  0.3353716E+00
         11   -1    0    0    0    0  0.00000000000E+00  0.00000000000E+00  0.39999999674E+01  0.40000000000E+01  0.51100000000E-03 0.  1.
    9000002   -1    0    0    0    0 -0.00000000000E+00 -0.00000000000E+00  0.00000000000E+00  0.93800000000E+00  0.93800000000E+00 0.  1.
         11    1    1    2    0    0 -0.57675379548E-01 -0.38467837523E-02  0.56950759051E+00  0.57243375505E+00  0.51100000000E-03 0.  1.
    9000002    1    1    2    0    0  0.39572275333E+00  0.20072290796E-01  0.10584945107E+00  0.10237419112E+01  0.93800000000E+00 0.  1.
         22    1    1    2    0    0 -0.33804737379E+00 -0.16225507043E-01  0.33246429258E+01  0.33418243338E+01  0.00000000000E+00 0.  1.
</event>
<event>
 5    1  0.5849602E+001  0.1599577E+01  0.7818608E-02  0.3353822E+00
         11   -1    0    0    0    0  0.00000000000E+00  0.00000000000E+00  0.39999999674E+01  0.40000000000E+01  0.51100000000E-03 0.  1.
    9000002   -1    0    0    0    0 -0.00000000000E+00 -0.00000000000E+00  0.00000000000E+00  0.93800000000E+00  0.93800000000E+00 0.  1.
         11    1    1    2    0    0 -0.91568916435E-01  0.20118458893E-02  0.74889720932E+00  0.75447743852E+00  0.51100000000E-03 0.  1.
    9000002    1    1    2    0    0  0.42494796647E+00 -0.54852501981E-02  0.12231578445E+00  0.10370226677E+01  0.93800000000E+00 0.  1.
         22    1    1    2    0    0 -0.33337905004E+00  0.34734043088E-02  0.31287869736E+01  0.31464998938E+01  0.00000000000E+00 0.  1.
</event>
<event>
 5    1  0.5849602E+001  0.1589445E+01  0.7818608E-02  0.3364899E+00
         11   -1    0    0    0    0  0.00000000000E+00  0.00000000000E+00  0.39999999674E+01  0.40000000000E+01  0.51100000000E-03 0.  1.
    9000002   -1    0    0    0    0 -0.00000000000E+00 -0.00000000000E+00  0.00000000000E+00  0.93800000000E+00  0.93800000000E+00 0. -1.
         11    1    1    2    0    0  0.15744192433E+00 -0.83837997939E-01  0.14746227295E+01  0.14853717463E+01  0.51100000000E-03 0.  1.
    9000002    1    1    2    0    0 -0.51334374486E+00 -0.70777053288E-01  0.19382962766E+00  0.10890110726E+01  0.93800000000E+00 0. -1.
         22    1    1    2    0    0  0.35590182052E+00  0.15461505123E+00  0.23315476102E+01  0.23636171811E+01  0.00000000000E+00 0.  1.
</event>
<event>
 5    1  0.5849602E+001  0.1599059E+01  0.7818608E-02  0.3354386E+00
         11   -1    0    0    0    0  0.00000000000E+00  0.00000000000E+00  0.39999999674E+01  0.40000000000E+01  0.51100000000E-03 0. -1.
    9000002   -1    0    0    0    0 -0.00000000000E+00 -0.00000000000E+00  0.00000000000E+00  0.93800000000E+00  0.93800000000E+00 0. -1.
         11    1    1    2    0    0  0.66565852304E-01  0.61147863528E-01  0.70430272684E+00  0.71007933786E+00  0.51100000000E-03 0. -1.
    9000002    1    1    2    0    0 -0.33043880880E+00 -0.21591756367E+00  0.10553930688E+00  0.10231289000E+01  0.93800000000E+00 0. -1.
         22    1    1    2    0    0  0.26387295650E+00  0.15476970015E+00  0.31901579336E+01  0.32047917622E+01  0.00000000000E+00 0. -1.
</event>
<event>
 5    1  0.5849602E+001  0.1599671E+01  0.7818608E-02  0.3353721E+00
         11   -1    0    0    0    0  0.00000000000E+00  0.00000000000E+00  0.39999999674E+01  0.40000000000E+01  0.51100000000E-03 0. -1.
    9000002   -1    0    0    0    0 -0.00000000000E+00 -0.00000000000E+00  0.00000000000E+00  0.93800000000E+00  0.93800000000E+00 0.  1.
         11    1    1    2    0    0  0.23470013047E-01  0.34535302729E-01  0.38293128795E+00  0.38520145517E+00  0.51100000000E-03 0. -1.
    9000002    1    1    2    0    0 -0.25283411764E+00 -0.34023637112E+00  0.12159241479E+00  0.10364914831E+01  0.93800000000E+00 0.  1.
         22    1    1    2    0    0  0.22936410459E+00  0.30570106839E+00  0.34954762646E+01  0.35163070617E+01  0.00000000000E+00 0. -1.
</event>
<event>
 5    1  0.5849602E+001  0.1599656E+01  0.7818608E-02  0.3353737E+00
         11   -1    0    0    0    0  0.00000000000E+00  0.00000000000E+00  0.39999999674E+01  0.40000000000E+01  0.51100000000E-03 0.  1.
    9000002   -1    0    0    0    0 -0.00000000000E+00 -0.00000000000E+00  0.00000000000E+00  0.93800000000E+00  0.93800000000E+00 0. -1.
         11    1    1    2    0    0 -0.14221533689E+00  0.81092639355E-01  0.12874637038E+01  0.12978306006E+01  0.51100000000E-03 0.  1.
    9000002    1    1    2    0    0  0.41791694714E+00 -0.22809751596E+00  0.15459331121E+00  0.10632150034E+01  0.93800000000E+00 0. -1.
         22    1    1    2    0    0 -0.27570161025E+00  0.14700487660E+00  0.25579429524E+01  0.25769543960E+01  0.00000000000E+00 0.  1.
</event>
<event>
 5    1  0.5849602E+001  0.1594368E+01  0.7818608E-02  0.3359499E+00
         11   -1    0    0    0    0  0.00000000000E+00  0.00000000000E+00  0.39999999674E+01  0.40000000000E+01  0.51100000000E-03 0.  1.
    9000002   -1    0    0    0    0 -0.00000000000E+00 -0.00000000000E+00  0.00000000000E+00  0.93800000000E+00  0.93800000000E+00 0.  1.
         11    1    1    2    0    0 -0.23074343782E+00  0.27150716178E-01  0.14332673446E+01  0.14519763213E+01  0.51100000000E-03 0.  1.
    9000002    1    1    2    0    0  0.60567463498E+00 -0.28908830670E+00  0.32524483386E+00  0.11983497046E+01  0.93800000000E+00 0.  1.
         22    1    1    2    0    0 -0.37493119716E+00  0.26193759052E+00  0.22414877889E+01  0.22876739741E+01  0.00000000000E+00 0.  1.
</event>
<event>
 5    1  0.5849602E+001  0.1599677E+01  0.7818608E-02  0.3353714E+00
         11   -1    0    0    0    0  0.00000000000E+00  0.00000000000E+00  0.39999999674E+01  0.40000000000E+01  0.51100000000E-03 0. -1.
    9000002   -1    0    0    0    0 -0.00000000000E+00 -0.00000000000E+00  0.00000000000E+00  0.93800000000E+00  0.93800000000E+00 0.  1.
         11    1    1    2    0    0 -0.46062199428E-01  0.49249625599E-01  0.71188283054E+00  0.71506970106E+00  0.51100000000E-03 0.  1.
    9000002    1    1    2    0    0  0.25305805248E+00 -0.26887962278E+00  0.91614095480E-01  0.10122113277E+01  0.93800000000E+00 0.  1.
         22    1    1    2    0    0 -0.20699585305E+00  0.21962999718E+00  0.31965030413E+01  0.32107189712E+01  0.00000000000E+00 0. -1.
</event>
<event>
 5    1  0.5849602E+001  0.1569242E+01  0.7818608E-02  0.3387439E+00
         11   -1    0    0    0    0  0.00000000000E+00  0.00000000000E+00  0.39999999674E+01  0.40000000000E+01  0.51100000000E-03 0. -1.
    9000002   -1    0    0    0    0 -0.00000000000E+00 -0.00000000000E+00  0.00000000000E+00  0.93800000000E+00  0.93800000000E+00 0.  1.
         11    1    1    2    0    0  0.31066839954E+00  0.68371219782E-01  0.13752343442E+01  0.14115449836E+01  0.51100000000E-03 0. -1.
    9000002    1    1    2    0    0 -0.32288691308E+00 -0.34477997396E+00  0.17934043079E+00  0.10654276978E+01  0.93800000000E+00 0.  1.
         22    1    1    2    0    0  0.12218513538E-01  0.27640875418E+00  0.24454251924E+01  0.24610273186E+01  0.00000000000E+00 0. -1.
</event>
<event>
 5    1  0.5849602E+001  0.1595459E+01  0.7818608E-02  0.3358306E+00
         11   -1    0    0    0    0  0.00000000000E+00  0.00000000000E+00  0.39999999674E+01  0.40000000000E+01  0.51100000000E-03 0.  1.
    9000002   -1    0    0    0    0 -0.00000000000E+00 -0.00000000000E+00  0.00000000000E+00  0.93800000000E+00  0.93800000000E+00 0. -1.
         11    1    1    2    0    0  0.79041435914E-01 -0.32804103090E-01  0.63718640987E+00  0.64290780039E+00  0.51100000000E-03 0.  1.
    9000002    1    1    2    0    0 -0.52344622113E+00 -0.14853677186E+00  0.20822991754E+00  0.11042023445E+01  0.93800000000E+00 0. -1.
         22    1    1    2    0    0  0.44440478522E+00  0.18134087495E+00  0.31545836400E+01  0.31908898551E+01  0.00000000000E+00 0.  1.
</event>
<event>
 5    1  0.9281406E+001  0.1597222E+01  0.7818608E-02  0.3356385E+00
         11   -1    0    0    0    0  0.00000000000E+00  0.00000000000E+00  0.39999999674E+01  0.40000000000E+01  0.51100000000E-03 0. -1.
    9000002   -1    0    0    0    0 -0.00000000000E+00 -0.00000000000E+00  0.00000000000E+00  0.93800000000E+00  0.93800000000E+00 0. -1.
         11    1    1    2    0    0 -0.54361471982E-01  0.43706441669E-01  0.13375762204E+01  0.13393938290E+01  0.51100000000E-03 0. -1.
    9000002    1    1    2    0    0  0.28988954256E+00 -0.24323043688E-01  0.58324426691E-01  0.98380551741E+00  0.93800000000E+00 0. -1.
         22    1    1    2    0    0 -0.23552807058E+00 -0.19383397981E-01  0.26040993203E+01  0.26148006536E+01  0.00000000000E+00 0. -1.
</event>
<event>
 5    1  0.5849602E+001  0.1599135E+01  0.7818608E-02  0.3354303E+00
         11   -1    0    0    0    0  0.00000000000E+00  0.00000000000E+00  0.39999999674E+01  0.40000000000E+01  0.51100000000E-03 0.  1.
    9000002   -1    0    0    0    0 -0.00000000000E+00 -0.00000000000E+00  0.00000000000E+00  0.93800000000E+00  0.93800000000E+00 0.  1.
         11    1    1    2    0    0 -0.71018328185E-02 -0.16870672986E+00  0.13277794925E+01  0.13384733985E+01  0.51100000000E-03 0.  1.
    9000002    1    1    2    0    0  0.60067882427E-02  0.41647527702E+00  0.11773207035E+00  0.10330501335E+01  0.93800000000E+00 0.  1.
         22    1    1    2    0    0  0.10950445758E-02 -0.24776854716E+00  0.25544884045E+01  0.25664764680E+01  0.00000000000E+00 0.  1.
</event>
<event>
 5    1  0.5849602E+001  0.1599677E+01  0.7818608E-02  0.3353714E+00
         11   -1    0    0    0    0  0.00000000000E+00  0.00000000000E+00  0.39999999674E+01  0.40000000000E+01  0.51100000000E-03 0.  1.
    9000002   -1    0    0    0    0 -0.00000000000E+00 -0.00000000000E+00  0.00000000000E+00  0.93800000000E+00  0.93800000000E+00 0.  1.
         11    1    1    2    0    0  0.28330870955E-01  0.84473119832E-01  0.71904611683E+00  0.72454532327E+00  0.51100000000E-03 0. -1.
    9000002    1    1    2    0    0 -0.15174997836E+00 -0.45249367481E+00  0.15535003251E+00  0.10638403143E+01  0.93800000000E+00 0.  1.
         22    1    1    2    0    0  0.12341910741E+00  0.36802055498E+00  0.31256038180E+01  0.31496143625E+01  0.00000000000E+00 0.  1.
</event>
<event>
 5    1  0.5849602E+001  0.1599633E+01  0.7818608E-02  0.3353762E+00
         11   -1    0    0    0    0  0.00000000000E+00  0.00000000000E+00  0.39999999674E+01  0.40000000000E+01  0.51100000000E-03 0. -1.
    9000002   -1    0    0    0    0 -0.00000000000E+00 -0.00000000000E+00  0.00000000000E+00  0.93800000000E+00  0.93800000000E+00 0. -1.
         11    1    1    2    0    0  0.53729032432E-01  0.10453397296E+00  0.11467457897E+01  0.11527533681E+01  0.51100000000E-03 0. -1.
    9000002    1    1    2    0    0 -0.20425386075E+00 -0.36463166708E+00  0.11813852876E+00  0.10336714199E+01  0.93800000000E+00 0. -1.
         22    1    1    2    0    0  0.15052482832E+00  0.26009769412E+00  0.27351156489E+01  0.27515752120E+01  0.00000000000E+00 0. -1.
</event>
<event>
 5    1  0.5849602E+001  0.1599677E+01  0.7818608E-02  0.3353714E+00
         11   -1    0    0    0    0  0.00000000000E+00  0.00000000000E+00  0.39999999674E+01  0.40000000000E+01  0.51100000000E-03 0. -1.
    9000002   -1    0    0    0    0 -0.00000000000E+00 -0.00000000000E+00  0.00000000000E+00  0.93800000000E+00  0.93800000000E+00 0.  1.
         11    1    1    2    0    0 -0.17688776597E+00  0.22651927249E+00  0.11941701487E+01  0.12282682393E+01  0.51100000000E-03 0. -1.
    9000002    1    1    2    0    0  0.51500034670E+00 -0.66041383787E+00  0.52355643862E+00  0.13621039383E+01  0.93800000000E+00 0.  1.
         22    1    1    2    0    0 -0.33811258073E+00  0.43389456538E+00  0.22822733800E+01  0.23476278223E+01  0.00000000000E+00 0. -1.
</event>
<event>
 5    1  0.5849602E+001  0.1599645E+01  0.7818608E-02  0.3353749E+00
         11   -1    0    0    0    0  0.00000000000E+00  0.00000000000E+00  0.39999999674E+01  0.40000000000E+01  0.51100000000E-03 0.  1.
    9000002   -1    0    0    0    0 -0.00000000000E+00 -0.00000000000E+00  0.00000000000E+00  0.93800000000E+00  0.93800000000E+00 0. -1.
         11    1    1    2    0    0 -0.13994847676E-01  0.87564396287E-02  0.11844223781E+00  0.11958827624E+00  0.51100000000E-03 0.  1.
    9000002    1    1    2    0    0  0.44878303676E+00 -0.20876066232E+00  0.16759520945E+00  0.10737408358E+01  0.93800000000E+00 0. -1.
         22    1    1    2    0    0 -0.43478818908E+00  0.20000422270E+00  0.37139625201E+01  0.37446708880E+01  0.00000000000E+00 0.  1.
</event>
<event>
 5    1  0.5849602E+001  0.1599292E+01  0.7818608E-02  0.3354132E+00
         11   -1    0    0    0    0  0.00000000000E+00  0.00000000000E+00  0.39999999674E+01  0.40000000000E+01  0.51100000000E-03 0.  1.
    9000002   -1    0    0    0    0 -0.00000000000E+00 -0.00000000000E+00  0.00000000000E+00  0.93800000000E+00  0.93800000000E+00 0. -1.
         11    1    1    2    0    0  0.28808615824E-01  0.31210630060E-01  0.42416960500E+00  0.42629116189E+00  0.51100000000E-03 0.  1.
    9000002    1    1    2    0    0 -0.13902480730E+00 -0.33565680086E+00  0.88948360734E-01  0.10098263197E+01  0.93800000000E+00 0. -1.
         22    1    1    2    0    0  0.11021619148E+00  0.30444617080E+00  0.34868820016E+01  0.35018825184E+01  0.00000000000E+00 0.  1.
</event>
<event>
 5    1  0.5849602E+001  0.1599663E+01  0.7818608E-02  0.3353729E+00
         11   -1    0    0    0    0  0.00000000000E+00  0.00000000000E+00  0.39999999674E+01  0.40000000000E+01  0.51100000000E-03 0.  1.
    9000002   -1    0    0    0    0 -0.00000000000E+00 -0.00000000000E+00  0.00000000000E+00  0.93800000000E+00  0.93800000000E+00 0.  1.
         11    1    1    2    0    0  0.41469464904E-01 -0.70208794406E-01  0.89737082227E+00  0.90106805798E+00  0.51100000000E-03 0.  1.
    9000002    1    1    2    0    0 -0.19702231749E+00  0.30342871311E+00  0.87888543266E-01  0.10091854010E+01  0.93800000000E+00 0.  1.
         22    1    1    2    0    0  0.15555285259E+00 -0.23321991871E+00  0.30147406018E+01  0.30277465410E+01  0.00000000000E+00 0.  1.
</event>
<event>
 5    1  0.5849602E+001  0.1599664E+01  0.7818608E-02  0.3353728E+00
         11   -1    0    0    0    0  0.00000000000E+00  0.00000000000E+00  0.39999999674E+01  0.40000000000E+01  0.51100000000E-03 0.  1.
    9000002   -1    0    0    0    0 -0.00000000000E+00 -0.00000000000E+00  0.00000000000E+00  0.93800000000E+00  0.93800000000E+00 0. -1.
         11    1    1    2    0    0 -0.28158234012E-01 -0.27619671927E-02  0.17664824214E+00  0.17890046724E+00  0.51100000000E-03 0.  1.
    9000002    1    1    2    0    0  0.59129952000E+00  0.95160402302E-01  0.25021214858E+00  0.11406755647E+01  0.93800000000E+00 0. -1.
         22    1    1    2    0    0 -0.56314128599E+00 -0.92398435109E-01  0.35731395766E+01  0.36184239681E+01  0.00000000000E+00 0.  1.
</event>
<event>
 5    1  0.6195214E+001  0.1599654E+01  0.7818608E-02  0.3353739E+00
         11   -1    0    0    0    0  0.00000000000E+00  0.00000000000E+00  0.39999999674E+01  0.40000000000E+01  0.51100000000E-03 0. -1.
    9000002   -1    0    0    0    0 -0.00000000000E+00 -0.00000000000E+00  0.00000000000E+00  0.93800000000E+00  0.93800000000E+00 0. -1.
         11    1    1    2    0    0  0.94037684278E-01  0.90766724877E-01  0.14188290815E+01  0.14248360986E+01  0.51100000000E-03 0. -1.
    9000002    1    1    2    0    0 -0.25058774017E+00 -0.26275745013E+00  0.88546110686E-01  0.10097128834E+01  0.93800000000E+00 0. -1.
         22    1    1    2    0    0  0.15655005589E+00  0.17199072526E+00  0.24926247752E+01  0.25034510180E+01  0.00000000000E+00 0. -1.
</event>
<event>
 5    1  0.5849602E+001  0.1599677E+01  0.7818608E-02  0.3353714E+00
         11   -1    0    0    0    0  0.00000000000E+00  0.00000000000E+00  0.39999999674E+01  0.40000000000E+01  0.51100000000E-03 0. -1.
    9000002   -1    0    0    0    0 -0.00000000000E+00 -0.00000000000E+00  0.00000000000E+00  0.93800000000E+00  0.93800000000E+00 0.  1.
         11    1    1    2    0    0 -0.86373780479E-01 -0.15174076745E+00  0.12796305146E+01  0.12914875940E+01  0.51100000000E-03 0. -1.
    9000002    1    1    2    0    0  0.25707749621E+00  0.45415929328E+00  0.18714381400E+00  0.10895945621E+01  0.93800000000E+00 0.  1.
         22    1    1    2    0    0 -0.17070371573E+00 -0.30241852584E+00  0.25332256388E+01  0.25569178439E+01  0.00000000000E+00 0. -1.
</event>
<event>
 5    1  0.5849602E+001  0.1599588E+01  0.7818608E-02  0.3353811E+00
         11   -1    0    0    0    0  0.00000000000E+00  0.00000000000E+00  0.39999999674E+01  0.40000000000E+01  0.51100000000E-03 0.  1.
    9000002   -1    0    0    0    0 -0.00000000000E+00 -0.00000000000E+00  0.00000000000E+00  0.93800000000E+00  0.93800000000E+00 0.  1.
         11    1    1    2    0    0  0.46060497172E-01 -0.11789536345E+00  0.12161262354E+01  0.12226954517E+01  0.51100000000E-03 0.  1.
    9000002    1    1    2    0    0 -0.11383753670E+00  0.37757694720E+00  0.10490203844E+00  0.10229231513E+01  0.93800000000E+00 0.  1.
         22    1    1    2    0    0  0.67777039525E-01 -0.25968158375E+00  0.26789716935E+01  0.26923813970E+01  0.00000000000E+00 0.  1.
</event>
<event>
 5    1  0.5849602E+001  0.1578544E+01  0.7818608E-02  0.3376985E+00
         11   -1    0    0    0    0  0.00000000000E+00  0.00000000000E+00  0.39999999674E+01  0.40000000000E+01  0.51100000000E-03 0.  1.
    9000002   -1    0    0    0    0 -0.00000000000E+00 -0.00000000000E+00  0.00000000000E+00  0.93800000000E+00  0.93800000000E+00 0. -1.
         11    1    1    2    0    0  0.54989780850E-01  0.50043227828E-01  0.34072741113E+00  0.34874579634E+00  0.51100000000E-03 0.  1.
    9000002    1    1    2    0    0  0.28437880337E+00  0.93900125587E-01  0.76552981047E-01  0.98761981364E+00  0.93800000000E+00 0. -1.
         22    1    1    2    0    0 -0.33936858422E+00 -0.14394335341E+00  0.35827195752E+01  0.36016343900E+01  0.00000000000E+00 0.  1.
</event>
<event>
 5    1  0.5849602E+001  0.1598987E+01  0.7818608E-02  0.3354464E+00
         11   -1    0    0    0    0  0.00000000000E+00  0.00000000000E+00  0.39999999674E+01  0.40000000000E+01  0.51100000000E-03 0.  1.
    9000002   -1    0    0    0    0 -0.00000000000E+00 -0.00000000000E+00  0.00000000000E+00  0.93800000000E+00  0.93800000000E+00 0.  1.
         11    1    1    2    0    0 -0.23413646621E-02 -0.65713865474E-01  0.72620880475E+00  0.72917987034E+00  0.51100000000E-03 0.  1.
    9000002    1    1    2    0    0 -0.10526588823E+00  0.41031598662E+00  0.12200001719E+00  0.10364208220E+01  0.93800000000E+00 0.  1.
         22    1    1    2    0    0  0.10760725289E+00 -0.34460212114E+00  0.31517911454E+01  0.31723993076E+01  0.00000000000E+00 0.  1.
</event>
<event>
 5    1  0.5849602E+001  0.1599677E+01  0.7818608E-02  0.3353714E+00
         11   -1    0    0    0    0  0.00000000000E+00  0.00000000000E+00  0.39999999674E+01  0.40000000000E+01  0.51100000000E-03 0.  1.
    9000002   -1    0    0    0    0 -0.00000000000E+00 -0.00000000000E+00  0.00000000000E+00  0.93800000000E+00  0.93800000000E+00 0.  1.
         11    1    1    2    0    0  0.14325776128E+00 -0.75115058169E-01  0.14712238455E+01  0.14800894982E+01  0.51100000000E-03 0.  1.
    9000002    1    1    2    0    0 -0.37691094817E+00  0.19694127653E+00  0.12239636672E+00  0.10371463734E+01  0.93800000000E+00 0.  1.
         22    1    1    2    0    0  0.23365318689E+00 -0.12182621836E+00  0.24063797551E+01  0.24207641284E+01  0.00000000000E+00 0.  1.
</event>
<event>
 5    1  0.5849602E+001  0.1599674E+01  0.7818608E-02  0.3353718E+00
         11   -1    0    0    0    0  0.00000000000E+00  0.00000000000E+00  0.39999999674E+01  0.40000000000E+01  0.51100000000E-03 0. -1.
    9000002   -1    0    0    0    0 -0.00000000000E+00 -0.00000000000E+00  0.00000000000E+00  0.93800000000E+00  0.93800000000E+00 0. -1.
         11    1    1    2    0    0 -0.42935609144E-01  0.58372978105E-01  0.59321515742E+00  0.59762476122E+00  0.51100000000E-03 0. -1.
    9000002    1    1    2    0    0  0.27275070764E+00 -0.38703755788E+00  0.15281520379E+00  0.10617850565E+01  0.93800000000E+00 0. -1.
         22    1    1    2    0    0 -0.22981509850E+00  0.32866457978E+00  0.32539696062E+01  0.32785901823E+01  0.00000000000E+00 0. -1.
</event>
<event>
 5    1  0.5849602E+001  0.1597919E+01  0.7818608E-02  0.3355625E+00
         11   -1    0    0    0    0  0.00000000000E+00  0.00000000000E+00  0.39999999674E+01  0.40000000000E+01  0.51100000000E-03 0.  1.
    9000002   -1    0    0    0    0 -0.00000000000E+00 -0.00000000000E+00  0.00000000000E+00  0.93800000000E+00  0.93800000000E+00 0.  1.
         11    1    1    2    0    0  0.14195222958E+00  0.10625204923E+00  0.10605600192E+01  0.10752803117E+01  0.51100000000E-03 0.  1.
    9000002    1    1    2    0    0 -0.49064131689E+00 -0.21893117764E+00  0.20054395131E+00  0.10994187732E+01  0.93800000000E+00 0.  1.
         22    1    1    2    0    0  0.34868908732E+00  0.11267912840E+00  0.27388959969E+01  0.27633009151E+01  0.00000000000E+00 0.  1.
</event>
<event>
 5    1  0.5849602E+001  0.1599521E+01  0.7818608E-02  0.3353884E+00
         11   -1    0    0    0    0  0.00000000000E+00  0.00000000000E+00  0.39999999674E+01  0.40000000000E+01  0.51100000000E-03 0.  1.
    9000002   -1    0    0    0    0 -0.00000000000E+00 -0.00000000000E+00  0.00000000000E+00  0.93800000000E+00  0.93800000000E+00 0.  1.
         11    1    1    2    0    0  0.64851464206E-01 -0.83721378526E-01  0.95282317128E+00  0.95869037675E+00  0.51100000000E-03 0.  1.
    9000002    1    1    2    0    0 -0.29444329099E+00  0.29787684763E+00  0.11875537712E+00  0.10341055592E+01  0.93800000000E+00 0.  1.
         22    1    1    2    0    0  0.22959182679E+00 -0.21415546911E+00  0.29284214190E+01  0.29452040641E+01  0.00000000000E+00 0.  1.
</event>
<event>
 5    1  0.5849602E+001  0.1579205E+01  0.7818608E-02  0.3376248E+00
         11   -1    0    0    0    0  0.00000000000E+00  0.00000000000E+00  0.39999999674E+01  0.40000000000E+01  0.51100000000E-03 0.  1.
    9000002   -1    0    0    0    0 -0.00000000000E+00 -0.00000000000E+00  0.00000000000E+00  0.93800000000E+00  0.93800000000E+00 0. -1.
         11    1    1    2    0    0  0.10641953791E+00  0.10611738507E+00  0.85805464572E+00  0.87111655570E+00  0.51100000000E-03 0.  1.
    9000002    1    1    2    0    0  0.13982128685E+00 -0.30372106747E+00  0.91348995833E-01  0.99999255903E+00  0.93800000000E+00 0. -1.
         22    1    1    2    0    0 -0.24624082476E+00  0.19760368240E+00  0.30505963258E+01  0.30668908853E+01  0.00000000000E+00 0.  1.
</event>
<event>
 5    1  0.5849602E+001  0.1516559E+01  0.7818608E-02  0.3449224E+00
         11   -1    0    0    0    0  0.00000000000E+00  0.00000000000E+00  0.39999999674E+01  0.40000000000E+01  0.51100000000E-03 0.  1.
    9000002   -1    0    0    0    0 -0.00000000000E+00 -0.00000000000E+00  0.00000000000E+00  0.93800000000E+00  0.93800000000E+00 0.  1.
         11    1    1    2    0    0  0.23788357045E-01 -0.15904429351E-01 -0.23099752756E-01  0.36779022584E-01  0.51100000000E-03 0.  1.
    9000002    1    1    2    0    0  0.13375465733E+00 -0.39423887857E+00  0.19080438849E+00  0.10438222628E+01  0.93800000000E+00 0.  1.
         22    1    1    2    0    0 -0.15754301437E+00  0.41014330793E+00  0.38322953316E+01  0.38573987146E+01  0.00000000000E+00 0.  1.
</event>
<event>
 5    1  0.5849602E+001  0.1552612E+01  0.7818608E-02  0.3406459E+00
         11   -1    0    0    0    0  0.00000000000E+00  0.00000000000E+00  0.39999999674E+01  0.40000000000E+01  0.51100000000E-03 0. -1.
    9000002   -1    0    0    0    0 -0.00000000000E+00 -0.00000000000E+00  0.00000000000E+00  0.93800000000E+00  0.93800000000E+00 0. -1.
         11    1    1    2    0    0 -0.14368628619E+00 -0.63455518205E-01  0.62291265348E+00  0.64241169558E+00  0.51100000000E-03 0. -1.
    9000002    1    1    2    0    0 -0.90368591764E-01 -0.28016979974E+00  0.95466238425E-01  0.98773447937E+00  0.93800000000E+00 0. -1.
         22    1    1    2    0    0  0.23405487795E+00  0.34362531794E+00  0.32816210755E+01  0.33078538251E+01  0.00000000000E+00 0. -1.
</event>
<event>
 5    1  0.5849602E+001  0.1599677E+01  0.7818608E-02  0.3353714E+00
         11   -1    0    0    0    0  0.00000000000E+00  0.00000000000E+00  0.39999999674E+01  0.40000000000E+01  0.51100000000E-03 0.  1.
    9000002   -1    0    0    0    0 -0.00000000000E+00 -0.00000000000E+00  0.00000000000E+00  0.93800000000E+00  0.93800000000E+00 0.  1.
         11    1    1    2    0    0 -0.11860130447E+00 -0.11983774511E+00  0.13179065733E+01  0.13286479412E+01  0.51100000000E-03 0.  1.
    9000002    1    1    2    0    0  0.34519268787E+00  0.34838483022E+00  0.16439535259E+00  0.10711675003E+01  0.93800000000E+00 0.  1.
         22    1    1    2    0    0 -0.22659138340E+00 -0.22854708511E+00  0.25176980414E+01  0.25381845585E+01  0.00000000000E+00 0.  1.
</event>
<event>
 5    1  0.5849602E+001  0.1586993E+01  0.7818608E-02  0.3367603E+00
         11   -1    0    0    0    0  0.00000000000E+00  0.00000000000E+00  0.39999999674E+01  0.40000000000E+01  0.51100000000E-03 0.  1.
    9000002   -1    0    0    0    0 -0.00000000000E+00 -0.00000000000E+00  0.00000000000E+00  0.93800000000E+00  0.93800000000E+00 0. -1.
         11    1    1    2    0    0 -0.87239015198E-02  0.39465236353E-01  0.27162327958E+00  0.27461441781E+00  0.51100000000E-03 0.  1.
    9000002    1    1    2    0    0 -0.26069766988E+00  0.34604675473E+00  0.13807749577E+00  0.10424111599E+01  0.93800000000E+00 0. -1.
         22    1    1    2    0    0  0.26942157140E+00 -0.38551199108E+00  0.35902991920E+01  0.36209744222E+01  0.00000000000E+00 0.  1.
</event>
<event>
 5    1  0.5849602E+001  0.1599675E+01  0.7818608E-02  0.3353717E+00
         11   -1    0    0    0    0  0.00000000000E+00  0.00000000000E+00  0.39999999674E+01  0.40000000000E+01  0.51100000000E-03 0.  1.
    9000002   -1    0    0    0    0 -0.00000000000E+00 -0.00000000000E+00  0.00000000000E+00  0.93800000000E+00  0.93800000000E+00 0. -1.
         11    1    1    2    0    0 -0.10076995139E-01 -0.32607284266E-01  0.28460046669E+00  0.28663996159E+00  0.51100000000E-03 0.  1.
    9000002    1    1    2    0    0  0.13479663908E+00  0.43102354492E+00  0.13855554192E+00  0.10502347682E+01  0.93800000000E+00 0. -1.
         22    1    1    2    0    0 -0.12471964395E+00 -0.39841626066E+00  0.35768439588E+01  0.36011252702E+01  0.00000000000E+00 0.  1.
</event>
<event>
 5    1  0.5849602E+001  0.1599566E+01  0.7818608E-02  0.3353835E+00
         11   -1    0    0    0    0  0.00000000000E+00  0.00000000000E+00  0.39999999674E+01  0.40000000000E+01  0.51100000000E-03 0.  1.
    9000002   -1    0    0    0    0 -0.00000000000E+00 -0.00000000000E+00  0.00000000000E+00  0.93800000000E+00  0.93800000000E+00 0. -1.
         11    1    1    2    0    0 -0.48849901815E-03 -0.19572210394E-01  0.14344720440E+00  0.14477800808E+00  0.51100000000E-03 0.  1.
    9000002    1    1    2    0    0  0.12674450864E+00  0.46467318402E+00  0.15842812423E+00  0.10662686383E+01  0.93800000000E+00 0. -1.
         22    1    1    2    0    0 -0.12625600962E+00 -0.44510097363E+00  0.36981246387E+01  0.37269533537E+01  0.00000000000E+00 0.  1.
</event>
<event>
 5    1  0.5849602E+001  0.1599677E+01  0.7818608E-02  0.3353714E+00
         11   -1    0    0    0    0  0.00000000000E+00  0.00000000000E+00  0.39999999674E+01  0.40000000000E+01  0.51100000000E-03 0. -1.
    9000002   -1    0    0    0    0 -0.00000000000E+00 -0.00000000000E+00  0.00000000000E+00  0.93800000000E+00  0.93800000000E+00 0. -1.
         11    1    1    2    0    0 -0.73951491014E-01 -0.15392905099E+00  0.12560694446E+01  0.12676252153E+01  0.51100000000E-03 0. -1.
    9000002    1    1    2    0    0  0.22337476318E+00  0.46755812166E+00  0.18438291327E+00  0.10873582393E+01  0.93800000000E+00 0. -1.
         22    1    1    2    0    0 -0.14942327216E+00 -0.31362907066E+00  0.25595476095E+01  0.25830165454E+01  0.00000000000E+00 0. -1.
</event>
<event>
 5    1  0.5849602E+001  0.1599133E+01  0.7818608E-02  0.3354305E+00
         11   -1    0    0    0    0  0.00000000000E+00  0.00000000000E+00  0.39999999674E+01  0.40000000000E+01  0.51100000000E-03 0. -1.
    9000002   -1    0    0    0    0 -0.00000000000E+00 -0.00000000000E+00  0.00000000000E+00  0.93800000000E+00  0.93800000000E+00 0.  1.
         11    1    1    2    0    0  0.25432541466E-02 -0.97526221706E-03  0.12333507410E+00  0.12336620648E+00  0.51100000000E-03 0. -1.
    9000002    1    1    2    0    0 -0.30670417854E+00 -0.18307259493E+00  0.86054642987E-01  0.10073889168E+01  0.93800000000E+00 0.  1.
         22    1    1    2    0    0  0.30416092440E+00  0.18404785715E+00  0.37906102503E+01  0.38072448767E+01  0.00000000000E+00 0. -1.
</event>
<event>
 5    1  0.5849602E+001  0.1599380E+01  0.7818608E-02  0.3354037E+00
         11   -1    0    0    0    0  0.00000000000E+00  0.00000000000E+00  0.39999999674E+01  0.40000000000E+01  0.51100000000E-03 0.  1.
    9000002   -1    0    0    0    0 -0.00000000000E+00 -0.00000000000E+00  0.00000000000E+00  0.93800000000E+00  0.93800000000E+00 0.  1.
         11    1    1    2    0    0 -0.97573054715E-02  0.61371615385E-02  0.18543585293E+00  0.18579447364E+00  0.51100000000E-03 0.  1.
    9000002    1    1    2    0    0  0.34269480816E+00 -0.25155124104E+00  0.12255743852E+00  0.10371027356E+01  0.93800000000E+00 0.  1.
         22    1    1    2    0    0 -0.33293750269E+00  0.24541407950E+00  0.36920066759E+01  0.37151027908E+01  0.00000000000E+00 0.  1.
</event>
<event>
 5    1  0.5849602E+001  0.1569409E+01  0.7818608E-02  0.3387250E+00
         11   -1    0    0    0    0  0.00000000000E+00  0.00000000000E+00  0.39999999674E+01  0.40000000000E+01  0.51100000000E-03 0. -1.
    9000002   -1    0    0    0    0 -0.00000000000E+00 -0.00000000000E+00  0.00000000000E+00  0.93800000000E+00  0.93800000000E+00 0. -1.
         11    1    1    2    0    0 -0.10839374294E+00 -0.12610945463E+00  0.14124514857E+01  0.14222068270E+01  0.51100000000E-03 0. -1.
    9000002    1    1    2    0    0 -0.22262746065E+00  0.15696583773E+00  0.73124516299E-01  0.97948581171E+00  0.93800000000E+00 0. -1.
         22    1    1    2    0    0  0.33102120360E+00 -0.30856383103E-01  0.25144239653E+01  0.25363073613E+01  0.00000000000E+00 0. -1.
</event>
<event>
 5    1  0.5849602E+001  0.1587431E+01  0.7818608E-02  0.3367119E+00
         11   -1    0    0    0    0  0.00000000000E+00  0.00000000000E+00  0.39999999674E+01  0.40000000000E+01  0.51100000000E-03 0. -1.
    9000002   -1    0    0    0    0 -0.00000000000E+00 -0.00000000000E+00  0.00000000000E+00  0.93800000000E+00  0.93800000000E+00 0. -1.
         11    1    1    2    0    0 -0.92476294007E-01 -0.56025171965E-01  0.44422927837E+00  0.45719864144E+00  0.51100000000E-03 0. -1.
    9000002    1    1    2    0    0  0.46540535450E+00 -0.17789155663E+00  0.18098656837E+00  0.10774264188E+01  0.93800000000E+00 0. -1.
         22    1    1    2    0    0 -0.37292906049E+00  0.23391672859E+00  0.33747841206E+01  0.34033749398E+01  0.00000000000E+00 0. -1.
</event>
<event>
 5    1  0.5849602E+001  0.1599677E+01  0.7818608E-02  0.3353714E+00
         11   -1    0    0    0    0  0.00000000000E+00  0.00000000000E+00  0.39999999674E+01  0.40000000000E+01  0.51100000000E-03 0.  1.
    9000002   -1    0    0    0    0 -0.00000000000E+00 -0.00000000000E+00  0.00000000000E+00  0.93800000000E+00  0.93800000000E+00 0. -1.
         11    1    1    2    0    0 -0.20984435549E+00  0.74871384283E-01  0.14698495039E+01  0.14866399036E+01  0.51100000000E-03 0.  1.
    9000002    1    1    2    0    0  0.53736155002E+00 -0.19132135696E+00  0.22562160651E+00  0.11207633142E+01  0.93800000000E+00 0. -1.
         22    1    1    2    0    0 -0.32751719453E+00  0.11644997268E+00  0.23045288570E+01  0.23305967823E+01  0.00000000000E+00 0.  1.
</event>
<event>
 5    1  0.5849602E+001  0.1599609E+01  0.7818608E-02  0.3353788E+00
         11   -1    0    0    0    0  0.00000000000E+00  0.00000000000E+00  0.39999999674E+01  0.40000000000E+01  0.51100000000E-03 0.  1.
    9000002   -1    0    0    0    0 -0.00000000000E+00 -0.00000000000E+00  0.00000000000E+00  0.93800000000E+00  0.93800000000E+00 0. -1.
         11    1    1    2    0    0  0.66546837980E-01 -0.91846422287E-01  0.10149406464E+01  0.10212585490E+01  0.51100000000E-03 0.  1.
    9000002    1    1    2    0    0 -0.27111302058E+00  0.37663460902E+00  0.14663544425E+00  0.10567411472E+01  0.93800000000E+00 0. -1.
         22    1    1    2    0    0  0.20456618260E+00 -0.28478818673E+00  0.28384238767E+01  0.28600003038E+01  0.00000000000E+00 0. -1.
</event>
<event>
 5    1  0.5849602E+001  0.1598770E+01  0.7818608E-02  0.3354700E+00
         11   -1    0    0    0    0  0.00000000000E+00  0.00000000000E+00  0.39999999674E+01  0.40000000000E+01  0.51100000000E-03 0.  1.
    9000002   -1    0    0    0    0 -0.00000000000E+00 -0.00000000000E+00  0.00000000000E+00  0.93800000000E+00  0.93800000000E+00 0. -1.
         11    1    1    2    0    0  0.51184984083E-01 -0.14708736390E+00  0.12822897972E+01  0.12917128087E+01  0.51100000000E-03 0.  1.
    9000002    1    1    2    0    0 -0.67250366706E-01  0.39186722390E+00  0.10735092429E+00  0.10244270369E+01  0.93800000000E+00 0. -1.
         22    1    1    2    0    0  0.16065382623E-01 -0.24477985999E+00  0.26103592459E+01  0.26218601544E+01  0.00000000000E+00 0.  1.
</event>
<event>
 5    1  0.5849602E+001  0.1599670E+01  0.7818608E-02  0.3353721E+00
         11   -1    0    0    0    0  0.00000000000E+00  0.00000000000E+00  0.39999999674E+01  0.40000000000E+01  0.51100000000E-03 0. -1.
    9000002   -1    0    0    0    0 -0.00000000000E+00 -0.00000000000E+00  0.00000000000E+00  0.93800000000E+00  0.93800000000E+00 0.  1.
         11    1    1    2    0    0  0.33450625827E-01  0.15339616026E+00  0.13420147913E+01  0.13511673796E+01  0.51100000000E-03 0. -1.
    9000002    1    1    2    0    0 -0.87912109147E-01 -0.44035728186E+00  0.13693924830E+00  0.10489229869E+01  0.93800000000E+00 0.  1.
         22    1    1    2    0    0  0.54461483319E-01  0.28696112160E+00  0.25210459277E+01  0.25379096336E+01  0.00000000000E+00 0. -1.
</event>
<event>
 5    1  0.5946559E+001  0.1582886E+01  0.7818608E-02  0.3372150E+00
         11   -1    0    0    0    0  0.00000000000E+00  0.00000000000E+00  0.39999999674E+01  0.40000000000E+01  0.51100000000E-03 0.  1.
    9000002   -1    0    0    0    0 -0.00000000000E+00 -0.00000000000E+00  0.00000000000E+00  0.93800000000E+00  0.93800000000E+00 0. -1.
         11    1    1    2    0    0  0.52712443484E-01  0.91119190737E-01  0.11631756734E+01  0.11679294572E+01  0.51100000000E-03 0.  1.
    9000002    1    1    2    0    0  0.20617439932E+00 -0.18519886297E-01  0.41102264839E-01  0.96144904457E+00  0.93800000000E+00 0. -1.
         22    1    1    2    0    0 -0.25888684281E+00 -0.72599304440E-01  0.27957220291E+01  0.28086214983E+01  0.00000000000E+00 0.  1.
</event>
<event>
 5    1  0.5849602E+001  0.1575614E+01  0.7818608E-02  0.3380264E+00
         11   -1    0    0    0    0  0.00000000000E+00  0.00000000000E+00  0.39999999674E+01  0.40000000000E+01  0.51100000000E-03 0. -1.
    9000002   -1    0    0    0    0 -0.00000000000E+00 -0.00000000000E+00  0.00000000000E+00  0.93800000000E+00  0.93800000000E+00 0. -1.
         11    1    1    2    0    0  0.33926173124E+00 -0.94237563706E-01  0.10614260218E+01  0.11183043868E+01  0.51100000000E-03 0. -1.
    9000002    1    1    2    0    0 -0.69385970752E+00 -0.41307227708E-01  0.37215689392E+00  0.12253539629E+01  0.93800000000E+00 0. -1.
         22    1    1    2    0    0  0.35459797628E+00  0.13554479141E+00  0.25664170517E+01  0.25943416503E+01  0.00000000000E+00 0. -1.
</event>
<event>
 5    1  0.5849602E+001  0.1599617E+01  0.7818608E-02  0.3353780E+00
         11   -1    0    0    0    0  0.00000000000E+00  0.00000000000E+00  0.39999999674E+01  0.40000000000E+01  0.51100000000E-03 0.  1.
    9000002   -1    0    0    0    0 -0.00000000000E+00 -0.00000000000E+00  0.00000000000E+00  0.93800000000E+00  0.93800000000E+00 0.  1.
         11    1    1    2    0    0  0.14238099209E-01  0.10065886430E+00  0.83963751853E+00  0.84576968146E+00  0.51100000000E-03 0.  1.
    9000002    1    1    2    0    0 -0.92676760965E-01 -0.44015287585E+00  0.13746319336E+00  0.10493158084E+01  0.93800000000E+00 0.  1.
         22    1    1    2    0    0  0.78438661755E-01  0.33949401155E+00  0.30228992555E+01  0.30429145102E+01  0.00000000000E+00 0.  1.
</event>
<event>
 5    1  0.5849602E+001  0.1596467E+01  0.7818608E-02  0.3357207E+00
         11   -1    0    0    0    0  0.00000000000E+00  0.00000000000E+00  0.39999999674E+01  0.40000000000E+01  0.51100000000E-03 0. -1.
    9000002   -1    0    0    0    0 -0.00000000000E+00 -0.00000000000E+00  0.00000000000E+00  0.93800000000E+00  0.93800000000E+00 0. -1.
         11    1    1    2    0    0 -0.38399364064E-01  0.11920758006E+00  0.80833838121E+00  0.81798298146E+00  0.51100000000E-03 0. -1.
    9000002    1    1    2    0    0  0.34566203069E+00 -0.35779906729E+00  0.17224877120E+00  0.10756468060E+01  0.93800000000E+00 0. -1.
         22    1    1    2    0    0 -0.30726266663E+00  0.23859148723E+00  0.30194128149E+01  0.30443702126E+01  0.00000000000E+00 0. -1.
</event>
<event>
 5    1  0.5849602E+001  0.1599443E+01  0.7818608E-02  0.3353968E+00
         11   -1    0    0    0    0  0.00000000000E+00  0.00000000000E+00  0.39999999674E+01  0.40000000000E+01  0.51100000000E-03 0.  1.
    9000002   -1    0    0    0    0 -0.00000000000E+00 -0.00000000000E+00  0.00000000000E+00  0.93800000000E+00  0.93800000000E+00 0.  1.
         11    1    1    2    0    0 -0.52145587719E-02  0.37723233182E-01  0.23936427909E+00  0.24237523218E+00  0.51100000000E-03 0.  1.
    9000002    1    1    2    0    0  0.21801612157E+00 -0.55594658283E+00  0.24888628247E+00  0.11394718135E+01  0.93800000000E+00 0.  1.
         22    1    1    2    0    0 -0.21280156279E+00  0.51822334965E+00  0.35117494058E+01  0.35561529543E+01  0.00000000000E+00 0.  1.
</event>
<event>
 5    1  0.5849602E+001  0.1599677E+01  0.7818608E-02  0.3353714E+00
         11   -1    0    0    0    0  0.00000000000E+00  0.00000000000E+00  0.39999999674E+01  0.40000000000E+01  0.51100000000E-03 0.  1.
    9000002   -1    0    0    0    0 -0.00000000000E+00 -0.00000000000E+00  0.00000000000E+00  0.93800000000E+00  0.93800000000E+00 0.  1.
         11    1    1    2    0    0 -0.10206799262E+00 -0.50737498462E-01  0.11855730886E+01  0.11910398727E+01  0.51100000000E-03 0.  1.
    9000002    1    1    2    0    0  0.33719195534E+00  0.16549711418E+00  0.94879716678E-01  0.10148565762E+01  0.93800000000E+00 0.  1.
         22    1    1    2    0    0 -0.23512396272E+00 -0.11475961572E+00  0.27195471621E+01  0.27321035511E+01  0.00000000000E+00 0.  1.
</event>
<event>
 5    1  0.5849602E+001  0.1328787E+01  0.7818608E-02  0.3728299E+00
         11   -1    0    0    0    0  0.00000000000E+00  0.00000000000E+00  0.39999999674E+01  0.40000000000E+01  0.51100000000E-03 0. -1.
    9000002   -1    0    0    0    0 -0.00000000000E+00 -0.00000000000E+00  0.00000000000E+00  0.93800000000E+00  0.93800000000E+00 0. -1.
         11    1    1    2    0    0 -0.69222747703E+00  0.11702489464E+00  0.19360588656E+00  0.72825627794E+00  0.51100000000E-03 0. -1.
    9000002    1    1    2    0    0  0.89809952741E+00 -0.24651119135E+00  0.20675102041E+01  0.24539341827E+01  0.93800000000E+00 0. -1.
         22    1    1    2    0    0 -0.20587205037E+00  0.12948629671E+00  0.17388838767E+01  0.17558095394E+01  0.00000000000E+00 0. -1.
</event>
<event>
 5    1  0.5849602E+001  0.1599669E+01  0.7818608E-02  0.3353723E+00
         11   -1    0    0    0    0  0.00000000000E+00  0.00000000000E+00  0.39999999674E+01  0.40000000000E+01  0.51100000000E-03 0. -1.
    9000002   -1    0    0    0    0 -0.00000000000E+00 -0.00000000000E+00  0.00000000000E+00  0.93800000000E+00  0.93800000000E+00 0. -1.
         11    1    1    2    0    0  0.12252158110E+00  0.26305599128E-01  0.12139510452E+01  0.12204019517E+01  0.51100000000E-03 0. -1.
    9000002    1    1    2    0    0 -0.39716494705E+00 -0.93367502567E-01  0.11240243928E+00  0.10290460602E+01  0.93800000000E+00 0. -1.
         22    1    1    2    0    0  0.27464336595E+00  0.67061903439E-01  0.26736464829E+01  0.26885519881E+01  0.00000000000E+00 0. -1.
</event>
<event>
 5    1  0.5849602E+001  0.1599631E+01  0.7818608E-02  0.3353764E+00
         11   -1    0    0    0    0  0.00000000000E+00  0.00000000000E+00  0.39999999674E+01  0.40000000000E+01  0.51100000000E-03 0. -1.
    9000002   -1    0    0    0    0 -0.00000000000E+00 -0.00000000000E+00  0.00000000000E+00  0.93800000000E+00  0.93800000000E+00 0. -1.
         11    1    1    2    0    0 -0.54951826053E-01 -0.21219514940E-01  0.42224054089E+00  0.42633004409E+00  0.51100000000E-03 0. -1.
    9000002    1    1    2    0    0  0.45757971589E+00  0.21508070937E+00  0.17520663022E+00  0.10798982689E+01  0.93800000000E+00 0. -1.
         22    1    1    2    0    0 -0.40262788984E+00 -0.19386119443E+00  0.34025527962E+01  0.34317716870E+01  0.00000000000E+00 0. -1.
</event>
<event>
 5    1  0.5849602E+001  0.1598925E+01  0.7818608E-02  0.3354531E+00
         11   -1    0    0    0    0  0.00000000000E+00  0.00000000000E+00  0.39999999674E+01  0.40000000000E+01  0.51100000000E-03 0.  1.
    9000002   -1    0    0    0    0 -0.00000000000E+00 -0.00000000000E+00  0.00000000000E+00  0.93800000000E+00  0.93800000000E+00 0.  1.
         11    1    1    2    0    0  0.10537844086E-01  0.39609542027E-01  0.50940992701E+00  0.51105645171E+00  0.51100000000E-03 0.  1.
    9000002    1    1    2    0    0 -0.24200379732E+00 -0.24761598984E+00  0.80951877012E-01  0.10031334521E+01  0.93800000000E+00 0.  1.
         22    1    1    2    0    0  0.23146595323E+00  0.20800644781E+00  0.34096381633E+01  0.34238100962E+01  0.00000000000E+00 0.  1.
</event>
<event>
 5    1  0.5849602E+001  0.1448758E+01  0.7818608E-02  0.3535871E+00
         11   -1    0    0    0    0  0.00000000000E+00  0.00000000000E+00  0.39999999674E+01  0.40000000000E+01  0.51100000000E-03 0.  1.
    9000002   -1    0    0    0    0 -0.00000000000E+00 -0.00000000000E+00  0.00000000000E+00  0.93800000000E+00  0.93800000000E+00 0. -1.
         11    1    1    2    0    0 -0.23115318851E+00 -0.30035755519E+00  0.71738543826E+00  0.81134985405E+00  0.51100000000E-03 0.  1.
    9000002    1    1    2    0    0  0.12956544579E-01  0.49691139772E-01  0.12047867720E+00  0.94709882963E+00  0.93800000000E+00 0. -1.
         22    1    1    2    0    0  0.21819664393E+00  0.25066641542E+00  0.31621358519E+01  0.31795513163E+01  0.00000000000E+00 0.  1.
</event>
<event>
 5    1  0.5849602E+001  0.1599677E+01  0.7818608E-02  0.3353714E+00
         11   -1    0    0    0    0  0.00000000000E+00  0.00000000000E+00  0.39999999674E+01  0.40000000000E+01  0.51100000000E-03 0. -1.
    9000002   -1    0    0    0    0 -0.00000000000E+00 -0.00000000000E+00  0.00000000000E+00  0.93800000000E+00  0.93800000000E+00 0.  1.
         11    1    1    2    0    0 -0.11587504149E+00 -0.42483072764E-01  0.11947860297E+01  0.12011435195E+01  0.51100000000E-03 0.  1.
    9000002    1    1    2    0    0  0.37719538741E+00  0.13836939748E+00  0.10890755681E+00  0.10262199113E+01  0.93800000000E+00 0.  1.
         22    1    1    2    0    0 -0.26132034591E+00 -0.95886324720E-01  0.26963063809E+01  0.27106365691E+01  0.00000000000E+00 0. -1.
</event>
<event>
 5    1  0.5849602E+001  0.1589431E+01  0.7818608E-02  0.3364915E+00
         11   -1    0    0    0    0  0.00000000000E+00  0.00000000000E+00  0.39999999674E+01  0.40000000000E+01  0.51100000000E-03 0.  1.
    9000002   -1    0    0    0    0 -0.00000000000E+00 -0.00000000000E+00  0.00000000000E+00  0.93800000000E+00  0.93800000000E+00 0. -1.
         11    1    1    2    0    0  0.14667339408E+00 -0.19498316384E+00  0.84790374385E+00  0.88231090816E+00  0.51100000000E-03 0.  1.
    9000002    1    1    2    0    0 -0.61396741746E+00  0.38562330663E+00  0.39026344092E+00  0.12481229417E+01  0.93800000000E+00 0. -1.
         22    1    1    2    0    0  0.46729402338E+00 -0.19064014279E+00  0.27618327826E+01  0.28075661501E+01  0.00000000000E+00 0.  1.
</event>
<event>
 5    1  0.5849602E+001  0.1599674E+01  0.7818608E-02  0.3353717E+00
         11   -1    0    0    0    0  0.00000000000E+00  0.00000000000E+00  0.39999999674E+01  0.40000000000E+01  0.51100000000E-03 0.  1.
    9000002   -1    0    0    0    0 -0.00000000000E+00 -0.00000000000E+00  0.00000000000E+00  0.93800000000E+00  0.93800000000E+00 0. -1.
         11    1    1    2    0    0  0.12283741775E+00 -0.58761255488E-01  0.14745618520E+01  0.14808358562E+01  0.51100000000E-03 0.  1.
    9000002    1    1    2    0    0 -0.32337982500E+00  0.16080532902E+00  0.87568747253E-01  0.10089326789E+01  0.93800000000E+00 0. -1.
         22    1    1    2    0    0  0.20054240725E+00 -0.10204407353E+00  0.24378693681E+01  0.24482314649E+01  0.00000000000E+00 0.  1.
</event>
<event>
 5    1  0.5849602E+001  0.1599613E+01  0.7818608E-02  0.3353784E+00
         11   -1    0    0    0    0  0.00000000000E+00  0.00000000000E+00  0.39999999674E+01  0.40000000000E+01  0.51100000000E-03 0. -1.
    9000002   -1    0    0    0    0 -0.00000000000E+00 -0.00000000000E+00  0.00000000000E+00  0.93800000000E+00  0.93800000000E+00 0. -1.
         11    1    1    2    0    0  0.65801605104E-01 -0.20134011542E-01  0.55466089822E+00  0.55891341260E+00  0.51100000000E-03 0. -1.
    9000002    1    1    2    0    0 -0.42466260509E+00  0.17378175391E+00  0.14323933501E+00  0.10539923782E+01  0.93800000000E+00 0. -1.
         22    1    1    2    0    0  0.35886099999E+00 -0.15364774236E+00  0.33020997341E+01  0.33250942092E+01  0.00000000000E+00 0. -1.
</event>
<event>
 5    1  0.5849602E+001  0.1599676E+01  0.7818608E-02  0.3353715E+00
         11   -1    0    0    0    0  0.00000000000E+00  0.00000000000E+00  0.39999999674E+01  0.40000000000E+01  0.51100000000E-03 0. -1.
    9000002   -1    0    0    0    0 -0.00000000000E+00 -0.00000000000E+00  0.00000000000E+00  0.93800000000E+00  0.93800000000E+00 0.  1.
         11    1    1    2    0    0 -0.80845456755E-01  0.11939126138E+00  0.10179726972E+01  0.10281337144E+01  0.51100000000E-03 0. -1.
    9000002    1    1    2    0    0  0.29817453352E+00 -0.44816774486E+00  0.19970229561E+00  0.10997669693E+01  0.93800000000E+00 0.  1.
         22    1    1    2    0    0 -0.21732907676E+00  0.32877648347E+00  0.27823249745E+01  0.28100993163E+01  0.00000000000E+00 0. -1.
</event>
<event>
 5    1  0.5849602E+001  0.1599675E+01  0.7818608E-02  0.3353717E+00
         11   -1    0    0    0    0  0.00000000000E+00  0.00000000000E+00  0.39999999674E+01  0.40000000000E+01  0.51100000000E-03 0.  1.
    9000002   -1    0    0    0    0 -0.00000000000E+00 -0.00000000000E+00  0.00000000000E+00  0.93800000000E+00  0.93800000000E+00 0.  1.
         11    1    1    2    0    0 -0.35625999845E-01  0.26318032632E+00  0.14597565383E+01  0.14837191473E+01  0.51100000000E-03 0.  1.
    9000002    1    1    2    0    0  0.89464242723E-01 -0.65981101564E+00  0.31406900079E+00  0.11924083882E+01  0.93800000000E+00 0.  1.
         22    1    1    2    0    0 -0.53838242878E-01  0.39663068932E+00  0.22261744283E+01  0.22618724644E+01  0.00000000000E+00 0.  1.
</event>
<event>
 5    1  0.6058632E+001  0.1532140E+01  0.7818608E-02  0.3430478E+00
         11   -1    0    0    0    0  0.00000000000E+00  0.00000000000E+00  0.39999999674E+01  0.40000000000E+01  0.51100000000E-03 0.  1.
    9000002   -1    0    0    0    0 -0.00000000000E+00 -0.00000000000E+00  0.00000000000E+00  0.93800000000E+00  0.93800000000E+00 0. -1.
         11    1    1    2    0    0  0.22150723550E+00 -0.17756506351E+00  0.11305106772E+01  0.11656111957E+01  0.51100000000E-03 0.  1.
    9000002    1    1    2    0    0 -0.75668256635E-01 -0.82667717125E-01  0.59428986155E-01  0.94653866319E+00  0.93800000000E+00 0. -1.
         22    1    1    2    0    0 -0.14583897886E+00  0.26023278064E+00  0.28100603040E+01  0.28258501411E+01  0.00000000000E+00 0. -1.
</event>
<event>
 5    1  0.5849602E+001  0.1599670E+01  0.7818608E-02  0.3353721E+00
         11   -1    0    0    0    0  0.00000000000E+00  0.00000000000E+00  0.39999999674E+01  0.40000000000E+01  0.51100000000E-03 0.  1.
    9000002   -1    0    0    0    0 -0.00000000000E+00 -0.00000000000E+00  0.00000000000E+00  0.93800000000E+00  0.93800000000E+00 0. -1.
         11    1    1    2    0    0  0.38880870984E-02 -0.88988389013E-01  0.64560851182E+00  0.65172437599E+00  0.51100000000E-03 0.  1.
    9000002    1    1    2    0    0 -0.21927408114E-01  0.51287587266E+00  0.18081330356E+00  0.10844629651E+01  0.93800000000E+00 0. -1.
         22    1    1    2    0    0  0.18039321016E-01 -0.42388748365E+00  0.31735781520E+01  0.32018126589E+01  0.00000000000E+00 0.  1.
</event>
<event>
 5    1  0.5849602E+001  0.1599669E+01  0.7818608E-02  0.3353722E+00
         11   -1    0    0    0    0  0.00000000000E+00  0.00000000000E+00  0.39999999674E+01  0.40000000000E+01  0.51100000000E-03 0.  1.
    9000002   -1    0    0    0    0 -0.00000000000E+00 -0.00000000000E+00  0.00000000000E+00  0.93800000000E+00  0.93800000000E+00 0.  1.
         11    1    1    2    0    0 -0.60353827292E-01 -0.43146965322E-02  0.57532776213E+00  0.57850107699E+00  0.51100000000E-03 0.  1.
    9000002    1    1    2    0    0  0.41806887576E+00  0.40309193344E-01  0.11931091410E+00  0.10346426969E+01  0.93800000000E+00 0.  1.
         22    1    1    2    0    0 -0.35771504846E+00 -0.35994496811E-01  0.33053612911E+01  0.33248562262E+01  0.00000000000E+00 0.  1.
</event>
<event>
 5    1  0.5849602E+001  0.1599659E+01  0.7818608E-02  0.3353734E+00
         11   -1    0    0    0    0  0.00000000000E+00  0.00000000000E+00  0.39999999674E+01  0.40000000000E+01  0.51100000000E-03 0. -1.
    9000002   -1    0    0    0    0 -0.00000000000E+00 -0.00000000000E+00  0.00000000000E+00  0.93800000000E+00  0.93800000000E+00 0. -1.
         11    1    1    2    0    0 -0.60957354898E-01 -0.12197913425E+00  0.11909990224E+01  0.11987800636E+01  0.51100000000E-03 0. -1.
    9000002    1    1    2    0    0  0.19272005407E+00  0.41012953714E+00  0.13954975191E+00  0.10510306322E+01  0.93800000000E+00 0. -1.
         22    1    1    2    0    0 -0.13176269917E+00 -0.28815040289E+00  0.26694511930E+01  0.26881893043E+01  0.00000000000E+00 0. -1.
</event>
<event>
 5    1  0.5849602E+001  0.1454755E+01  0.7818608E-02  0.3527854E+00
         11   -1    0    0    0    0  0.00000000000E+00  0.00000000000E+00  0.39999999674E+01  0.40000000000E+01  0.51100000000E-03 0. -1.
    9000002   -1    0    0    0    0 -0.00000000000E+00 -0.00000000000E+00  0.00000000000E+00  0.93800000000E+00  0.93800000000E+00 0.  1.
         11    1    1    2    0    0 -0.13077589974E+00  0.25079394067E+00  0.80242186734E+00  0.85081199506E+00  0.51100000000E-03 0. -1.
    9000002    1    1    2    0    0 -0.24915694284E+00  0.36224317150E+00  0.26785226850E+00  0.10699944557E+01  0.93800000000E+00 0.  1.
         22    1    1    2    0    0  0.37993284258E+00 -0.61303711217E+00  0.29297258315E+01  0.30171935493E+01  0.00000000000E+00 0. -1.
</event>
<event>
 5    1  0.6439049E+001  0.1570006E+01  0.7818608E-02  0.3386576E+00
         11   -1    0    0    0    0  0.00000000000E+00  0.00000000000E+00  0.39999999674E+01  0.40000000000E+01  0.51100000000E-03 0.  1.
    9000002   -1    0    0    0    0 -0.00000000000E+00 -0.00000000000E+00  0.00000000000E+00  0.93800000000E+00  0.93800000000E+00 0.  1.
         11    1    1    2    0    0  0.14023842736E+00 -0.60577626749E-01  0.11740656114E+01  0.11839623247E+01  0.51100000000E-03 0.  1.
    9000002    1    1    2    0    0  0.10816116907E+00 -0.60083457931E-01  0.32184524441E-01  0.94667243755E+00  0.93800000000E+00 0.  1.
         22    1    1    2    0    0 -0.24839959643E+00  0.12066108468E+00  0.27937498316E+01  0.28073652378E+01  0.00000000000E+00 0.  1.
</event>
<event>
 5    1  0.5849602E+001  0.1579753E+01  0.7818608E-02  0.3375636E+00
         11   -1    0    0    0    0  0.00000000000E+00  0.00000000000E+00  0.39999999674E+01  0.40000000000E+01  0.51100000000E-03 0. -1.
    9000002   -1    0    0    0    0 -0.00000000000E+00 -0.00000000000E+00  0.00000000000E+00  0.93800000000E+00  0.93800000000E+00 0. -1.
         11    1    1    2    0    0  0.18732301522E+00  0.47951604337E-01  0.57976679783E+00  0.61116206474E+00  0.51100000000E-03 0. -1.
    9000002    1    1    2    0    0 -0.53881135127E+00  0.13091978909E+00  0.23168570741E+00  0.11139927874E+01  0.93800000000E+00 0. -1.
         22    1    1    2    0    0  0.35148833604E+00 -0.17887139343E+00  0.31885474621E+01  0.32128451478E+01  0.00000000000E+00 0. -1.
</event>
<event>
 5    1  0.5849602E+001  0.1599643E+01  0.7818608E-02  0.3353751E+00
         11   -1    0    0    0    0  0.00000000000E+00  0.00000000000E+00  0.39999999674E+01  0.40000000000E+01  0.51100000000E-03 0. -1.
    9000002   -1    0    0    0    0 -0.00000000000E+00 -0.00000000000E+00  0.00000000000E+00  0.93800000000E+00  0.93800000000E+00 0.  1.
         11    1    1    2    0    0 -0.38403543285E-01 -0.39308366821E-01  0.17782147238E+00  0.18612016817E+00  0.51100000000E-03 0. -1.
    9000002    1    1    2    0    0  0.70594560641E+00  0.66138391267E+00  0.73959841535E+00  0.15370874065E+01  0.93800000000E+00 0.  1.
         22    1    1    2    0    0 -0.66754206313E+00 -0.62207554585E+00  0.30825800796E+01  0.32147924254E+01  0.00000000000E+00 0. -1.
</event>
<event>
 5    1  0.5849602E+001  0.1599610E+01  0.7818608E-02  0.3353786E+00
         11   -1    0    0    0    0  0.00000000000E+00  0.00000000000E+00  0.39999999674E+01  0.40000000000E+01  0.51100000000E-03 0.  1.
    9000002   -1    0    0    0    0 -0.00000000000E+00 -0.00000000000E+00  0.00000000000E+00  0.93800000000E+00  0.93800000000E+00 0.  1.
         11    1    1    2    0    0 -0.87239554767E-01 -0.49647004549E-01  0.89432001040E+00  0.89993561276E+00  0.51100000000E-03 0.  1.
    9000002    1    1    2    0    0  0.36052850991E+00  0.18512954282E+00  0.11092381415E+00  0.10278141109E+01  0.93800000000E+00 0.  1.
         22    1    1    2    0    0 -0.27328895514E+00 -0.13548253827E+00  0.29947561428E+01  0.30102502763E+01  0.00000000000E+00 0.  1.
</event>
<event>
 5    1  0.5849602E+001  0.1599674E+01  0.7818608E-02  0.3353717E+00
         11   -1    0    0    0    0  0.00000000000E+00  0.00000000000E+00  0.39999999674E+01  0.40000000000E+01  0.51100000000E-03 0.  1.
    9000002   -1    0    0    0    0 -0.00000000000E+00 -0.00000000000E+00  0.00000000000E+00  0.93800000000E+00  0.93800000000E+00 0. -1.
         11    1    1    2    0    0  0.35505217539E-02  0.22812176008E-01  0.22970868149E+00  0.23086650050E+00  0.51100000000E-03 0.  1.
    9000002    1    1    2    0    0 -0.71484769347E-01 -0.37860474372E+00  0.99951065122E-01  0.10189631199E+01  0.93800000000E+00 0. -1.
         22    1    1    2    0    0  0.67934247593E-01  0.35579256771E+00  0.36703402207E+01  0.36881703796E+01  0.00000000000E+00 0.  1.
</event>
<event>
 5    1  0.5849602E+001  0.1599461E+01  0.7818608E-02  0.3353948E+00
         11   -1    0    0    0    0  0.00000000000E+00  0.00000000000E+00  0.39999999674E+01  0.40000000000E+01  0.51100000000E-03 0.  1.
    9000002   -1    0    0    0    0 -0.00000000000E+00 -0.00000000000E+00  0.00000000000E+00  0.93800000000E+00  0.93800000000E+00 0.  1.
         11    1    1    2    0    0  0.19079947133E+00  0.14381314940E+00  0.12621083768E+01  0.12845250002E+01  0.51100000000E-03 0.  1.
    9000002    1    1    2    0    0 -0.52384899683E+00 -0.45581567221E+00  0.34433023028E+00  0.12167962056E+01  0.93800000000E+00 0.  1.
         22    1    1    2    0    0  0.33304952550E+00  0.31200252281E+00  0.23935613603E+01  0.24366787942E+01  0.00000000000E+00 0.  1.
</event>
<event>
 5    1  0.5849602E+001  0.1599652E+01  0.7818608E-02  0.3353741E+00
         11   -1    0    0    0    0  0.00000000000E+00  0.00000000000E+00  0.39999999674E+01  0.40000000000E+01  0.51100000000E-03 0. -1.
    9000002   -1    0    0    0    0 -0.00000000000E+00 -0.00000000000E+00  0.00000000000E+00  0.93800000000E+00  0.93800000000E+00 0. -1.
         11    1    1    2    0    0  0.24450759904E-01  0.40554416894E-01  0.17959022485E+00  0.18572940093E+00  0.51100000000E-03 0. -1.
    9000002    1    1    2    0    0 -0.42011237045E+00 -0.75624185367E+00  0.56464371511E+00  0.13953718752E+01  0.93800000000E+00 0. -1.
         22    1    1    2    0    0  0.39566161054E+00  0.71568743677E+00  0.32557660274E+01  0.33568987239E+01  0.00000000000E+00 0. -1.
</event>
<event>
 5    1  0.5849602E+001  0.1599676E+01  0.7818608E-02  0.3353715E+00
         11   -1    0    0    0    0  0.00000000000E+00  0.00000000000E+00  0.39999999674E+01  0.40000000000E+01  0.51100000000E-03 0. -1.
    9000002   -1    0    0    0    0 -0.00000000000E+00 -0.00000000000E+00  0.00000000000E+00  0.93800000000E+00  0.93800000000E+00 0. -1.
         11    1    1    2    0    0 -0.14387337312E+00 -0.13151275984E+00  0.14851293934E+01  0.14978667263E+01  0.51100000000E-03 0. -1.
    9000002    1    1    2    0    0  0.37326084434E+00  0.33821869219E+00  0.17379169461E+00  0.10787785198E+01  0.93800000000E+00 0. -1.
         22    1    1    2    0    0 -0.22938747122E+00 -0.20670593235E+00  0.23410788794E+01  0.23613547539E+01  0.00000000000E+00 0. -1.
</event>
<event>
 5    1  0.5849602E+001  0.1599673E+01  0.7818608E-02  0.3353718E+00
         11   -1    0    0    0    0  0.00000000000E+00  0.00000000000E+00  0.39999999674E+01  0.40000000000E+01  0.51100000000E-03 0.  1.
    9000002   -1    0    0    0    0 -0.00000000000E+00 -0.00000000000E+00  0.00000000000E+00  0.93800000000E+00  0.93800000000E+00 0.  1.
         11    1    1    2    0    0 -0.16861041168E+00 -0.58311616900E-01  0.14325627521E+01  0.14436294591E+01  0.51100000000E-03 0.  1.
    9000002    1    1    2    0    0  0.45120524462E+00  0.15069395869E+00  0.15430322506E+00  0.10629902762E+01  0.93800000000E+00 0.  1.
         22    1    1    2    0    0 -0.28259483294E+00 -0.92382341791E-01  0.24131339902E+01  0.24313802647E+01  0.00000000000E+00 0.  1.
</event>
<event>
 5    1  0.5849602E+001  0.1599659E+01  0.7818608E-02  0.3353733E+00
         11   -1    0    0    0    0  0.00000000000E+00  0.00000000000E+00  0.39999999674E+01  0.40000000000E+01  0.51100000000E-03 0.  1.
    9000002   -1    0    0    0    0 -0.00000000000E+00 -0.00000000000E+00  0.00000000000E+00  0.93800000000E+00  0.93800000000E+00 0.  1.
         11    1    1    2    0    0 -0.14237315217E+00  0.53330500003E-01  0.13983402366E+01  0.14065809380E+01  0.51100000000E-03 0.  1.
    9000002    1    1    2    0    0  0.40742954576E+00 -0.14431559044E+00  0.12657993832E+00  0.10405250142E+01  0.93800000000E+00 0.  1.
         22    1    1    2    0    0 -0.26505639359E+00  0.90985090436E-01  0.24750797925E+01  0.24908940478E+01  0.00000000000E+00 0.  1.
</event>
<event>
 5    1  0.5849602E+001  0.1599677E+01  0.7818608E-02  0.3353714E+00
         11   -1    0    0    0    0  0.00000000000E+00  0.00000000000E+00  0.39999999674E+01  0.40000000000E+01  0.51100000000E-03 0. -1.
    9000002   -1    0    0    0    0 -0.00000000000E+00 -0.00000000000E+00  0.00000000000E+00  0.93800000000E+00  0.93800000000E+00 0. -1.
         11    1    1    2    0    0  0.46000758505E-01 -0.14113621530E+00  0.97340473830E+00  0.98465859399E+00  0.51100000000E-03 0. -1.
    9000002    1    1    2    0    0 -0.17961630107E+00  0.54743388740E+00  0.23045305085E+00  0.11246770582E+01  0.93800000000E+00 0. -1.
         22    1    1    2    0    0  0.13361554256E+00 -0.40629767210E+00  0.27961421782E+01  0.28286643478E+01  0.00000000000E+00 0. -1.
</event>
<event>
 5    1  0.5849602E+001  0.1599672E+01  0.7818608E-02  0.3353719E+00
         11   -1    0    0    0    0  0.00000000000E+00  0.00000000000E+00  0.39999999674E+01  0.40000000000E+01  0.51100000000E-03 0. -1.
    9000002   -1    0    0    0    0 -0.00000000000E+00 -0.00000000000E+00  0.00000000000E+00  0.93800000000E+00  0.93800000000E+00 0. -1.
         11    1    1    2    0    0 -0.11068696012E+00  0.53544557244E-02  0.10120924373E+01  0.10181412653E+01  0.51100000000E-03 0. -1.
    9000002    1    1    2    0    0  0.43101443302E+00 -0.15483817467E-01  0.12600188480E+00  0.10400642601E+01  0.93800000000E+00 0. -1.
         22    1    1    2    0    0 -0.32032747289E+00  0.10129361742E-01  0.28619056453E+01  0.28797944746E+01  0.00000000000E+00 0.  1.
</event>
<event>
 5    1  0.5849602E+001  0.1595666E+01  0.7818608E-02  0.3358081E+00
         11   -1    0    0    0    0  0.00000000000E+00  0.00000000000E+00  0.39999999674E+01  0.40000000000E+01  0.51100000000E-03 0.  1.
    9000002   -1    0    0    0    0 -0.00000000000E+00 -0.00000000000E+00  0.00000000000E+00  0.93800000000E+00  0.93800000000E+00 0. -1.
         11    1    1    2    0    0  0.96630435645E-01 -0.20633620867E+00  0.12533489401E+01  0.12738900654E+01  0.51100000000E-03 0.  1.
    9000002    1    1    2    0    0 -0.12171042965E+00  0.49320269119E+00  0.18054545669E+00  0.10818978627E+01  0.93800000000E+00 0. -1.
         22    1    1    2    0    0  0.25079994008E-01 -0.28686648252E+00  0.25661055706E+01  0.25822120719E+01  0.00000000000E+00 0.  1.
</event>
<event>
 5    1  0.5849602E+001  0.1597998E+01  0.7818608E-02  0.3355539E+00
         11   -1    0    0    0    0  0.00000000000E+00  0.00000000000E+00  0.39999999674E+01  0.40000000000E+01  0.51100000000E-03 0.  1.
    9000002   -1    0    0    0    0 -0.00000000000E+00 -0.00000000000E+00  0.00000000000E+00  0.93800000000E+00  0.93800000000E+00 0. -1.
         11    1    1    2    0    0  0.30597664300E-01  0.92859456696E-01  0.69538321331E+00  0.70222302029E+00  0.51100000000E-03 0.  1.
    9000002    1    1    2    0    0 -0.34697226214E+00 -0.40209118600E+00  0.19569941778E+00  0.10955406586E+01  0.93800000000E+00 0. -1.
         22    1    1    2    0    0  0.31637459784E+00  0.30923172930E+00  0.31089173363E+01  0.31402363211E+01  0.00000000000E+00 0.  1.
</event>
<event>
 5    1  0.5849602E+001  0.1599677E+01  0.7818608E-02  0.3353714E+00
         11   -1    0    0    0    0  0.00000000000E+00  0.00000000000E+00  0.39999999674E+01  0.40000000000E+01  0.51100000000E-03 0. -1.
    9000002   -1    0    0    0    0 -0.00000000000E+00 -0.00000000000E+00  0.00000000000E+00  0.93800000000E+00  0.93800000000E+00 0. -1.
         11    1    1    2    0    0 -0.97152610256E-01 -0.12313015854E+00  0.14256264599E+01  0.14342282698E+01  0.51100000000E-03 0. -1.
    9000002    1    1    2    0    0  0.26374603920E+00  0.33580068517E+00  0.12342505703E+00  0.10379796809E+01  0.93800000000E+00 0. -1.
         22    1    1    2    0    0 -0.16659342895E+00 -0.21267052662E+00  0.24509484505E+01  0.24657920493E+01  0.00000000000E+00 0. -1.
</event>
<event>
 5    1  0.5849602E+001  0.1599671E+01  0.7818608E-02  0.3353721E+00
         11   -1    0    0    0    0  0.00000000000E+00  0.00000000000E+00  0.39999999674E+01  0.40000000000E+01  0.51100000000E-03 0. -1.
    9000002   -1    0    0    0    0 -0.00000000000E+00 -0.00000000000E+00  0.00000000000E+00  0.93800000000E+00  0.93800000000E+00 0.  1.
         11    1    1    2    0    0  0.48254128621E-01  0.67113766843E-01  0.61071844847E+00  0.61628727315E+00  0.51100000000E-03 0. -1.
    9000002    1    1    2    0    0 -0.29573795877E+00 -0.40823095440E+00  0.17408095904E+00  0.10790095610E+01  0.93800000000E+00 0.  1.
         22    1    1    2    0    0  0.24748383015E+00  0.34111718756E+00  0.32152005599E+01  0.32427031659E+01  0.00000000000E+00 0. -1.
</event>
<event>
 5    1  0.5849602E+001  0.1599658E+01  0.7818608E-02  0.3353734E+00
         11   -1    0    0    0    0  0.00000000000E+00  0.00000000000E+00  0.39999999674E+01  0.40000000000E+01  0.51100000000E-03 0. -1.
    9000002   -1    0    0    0    0 -0.00000000000E+00 -0.00000000000E+00  0.00000000000E+00  0.93800000000E+00  0.93800000000E+00 0.  1.
         11    1    1    2    0    0  0.14153878347E+00  0.72696449848E-01  0.12078226441E+01  0.12182585119E+01  0.51100000000E-03 0. -1.
    9000002    1    1    2    0    0 -0.45349803719E+00 -0.21584972752E+00  0.17276260958E+00  0.10779343644E+01  0.93800000000E+00 0.  1.
         22    1    1    2    0    0  0.31195925372E+00  0.14315327768E+00  0.26194147137E+01  0.26418071237E+01  0.00000000000E+00 0. -1.
</event>
<event>
 5    1  0.6497434E+001  0.1598711E+01  0.7818608E-02  0.3354764E+00
         11   -1    0    0    0    0  0.00000000000E+00  0.00000000000E+00  0.39999999674E+01  0.40000000000E+01  0.51100000000E-03 0. -1.
    9000002   -1    0    0    0    0 -0.00000000000E+00 -0.00000000000E+00  0.00000000000E+00  0.93800000000E+00  0.93800000000E+00 0.  1.
         11    1    1    2    0    0 -0.16055743571E+00  0.42013715601E-01  0.13151424206E+01  0.13255729667E+01  0.51100000000E-03 0. -1.
    9000002    1    1    2    0    0  0.39625102482E+00 -0.54714128454E-01  0.10873351157E+00  0.10255123047E+01  0.93800000000E+00 0.  1.
         22    1    1    2    0    0 -0.23569358912E+00  0.12700412853E-01  0.25761240352E+01  0.25869147287E+01  0.00000000000E+00 0. -1.
</event>
<event>
 5    1  0.5849602E+001  0.1599124E+01  0.7818608E-02  0.3354315E+00
         11   -1    0    0    0    0  0.00000000000E+00  0.00000000000E+00  0.39999999674E+01  0.40000000000E+01  0.51100000000E-03 0.  1.
    9000002   -1    0    0    0    0 -0.00000000000E+00 -0.00000000000E+00  0.00000000000E+00  0.93800000000E+00  0.93800000000E+00 0. -1.
         11    1    1    2    0    0  0.18063433849E-02  0.21157969684E-02  0.61737475130E-02  0.67908580157E-02  0.51100000000E-03 0.  1.
    9000002    1    1    2    0    0 -0.80979258887E-01 -0.37295250905E+00  0.98473962981E-01  0.10174440209E+01  0.93800000000E+00 0. -1.
         22    1    1    2    0    0  0.79172915502E-01  0.37083671208E+00  0.38953522569E+01  0.39137651210E+01  0.00000000000E+00 0.  1.
</event>
<event>
 5    1  0.5849602E+001  0.1599580E+01  0.7818608E-02  0.3353820E+00
         11   -1    0    0    0    0  0.00000000000E+00  0.00000000000E+00  0.39999999674E+01  0.40000000000E+01  0.51100000000E-03 0.  1.
    9000002   -1    0    0    0    0 -0.00000000000E+00 -0.00000000000E+00  0.00000000000E+00  0.93800000000E+00  0.93800000000E+00 0. -1.
         11    1    1    2    0    0  0.25214196366E-01  0.18103172903E-01  0.30296865147E+00  0.30455499580E+00  0.51100000000E-03 0.  1.
    9000002    1    1    2    0    0 -0.40216623887E+00 -0.22881926675E+00  0.14577282473E+00  0.10560254054E+01  0.93800000000E+00 0. -1.
         22    1    1    2    0    0  0.37695204251E+00  0.21071609385E+00  0.35512584912E+01  0.35774195988E+01  0.00000000000E+00 0.  1.
</event>
<event>
 5    1  0.5849602E+001  0.1592673E+01  0.7818608E-02  0.3361354E+00
         11   -1    0    0    0    0  0.00000000000E+00  0.00000000000E+00  0.39999999674E+01  0.40000000000E+01  0.51100000000E-03 0.  1.
    9000002   -1    0    0    0    0 -0.00000000000E+00 -0.00000000000E+00  0.00000000000E+00  0.93800000000E+00  0.93800000000E+00 0. -1.
         11    1    1    2    0    0 -0.17975528420E+00 -0.53545952173E-01  0.14127098708E+01  0.14251065123E+01  0.51100000000E-03 0.  1.
    9000002    1    1    2    0    0  0.26155039660E+00  0.27629429340E+00  0.10316932673E+00  0.10174650149E+01  0.93800000000E+00 0. -1.
         22    1    1    2    0    0 -0.81795112398E-01 -0.22274834123E+00  0.24841207698E+01  0.24954284728E+01  0.00000000000E+00 0.  1.
</event>
<event>
 5    1  0.5849602E+001  0.1599488E+01  0.7818608E-02  0.3353919E+00
         11   -1    0    0    0    0  0.00000000000E+00  0.00000000000E+00  0.39999999674E+01  0.40000000000E+01  0.51100000000E-03 0. -1.
    9000002   -1    0    0    0    0 -0.00000000000E+00 -0.00000000000E+00  0.00000000000E+00  0.93800000000E+00  0.93800000000E+00 0.  1.
         11    1    1    2    0    0 -0.35516444408E-01  0.10971638165E-01  0.31399037799E+00  0.31618351200E+00  0.51100000000E-03 0. -1.
    9000002    1    1    2    0    0  0.43193976629E+00 -0.24253084408E-01  0.12695926968E+00  0.10407318723E+01  0.93800000000E+00 0.  1.
         22    1    1    2    0    0 -0.39642332188E+00  0.13281446243E-01  0.35590503197E+01  0.35810846157E+01  0.00000000000E+00 0. -1.
</event>
<event>
 5    1  0.5849602E+001  0.1599473E+01  0.7818608E-02  0.3353935E+00
         11   -1    0    0    0    0  0.00000000000E+00  0.00000000000E+00  0.39999999674E+01  0.40000000000E+01  0.51100000000E-03 0. -1.
    9000002   -1    0    0    0    0 -0.00000000000E+00 -0.00000000000E+00  0.00000000000E+00  0.93800000000E+00  0.93800000000E+00 0. -1.
         11    1    1    2    0    0  0.52571297323E-01  0.41767341763E-01  0.54037309031E+00  0.54452877793E+00  0.51100000000E-03 0. -1.
    9000002    1    1    2    0    0 -0.30389075491E+00 -0.34450256644E+00  0.14370755728E+00  0.10542900318E+01  0.93800000000E+00 0. -1.
         22    1    1    2    0    0  0.25131945759E+00  0.30273522468E+00  0.33159193198E+01  0.33391811902E+01  0.00000000000E+00 0. -1.
</event>
<event>
 5    1  0.5849602E+001  0.1595266E+01  0.7818608E-02  0.3358517E+00
         11   -1    0    0    0    0  0.00000000000E+00  0.00000000000E+00  0.39999999674E+01  0.40000000000E+01  0.51100000000E-03 0. -1.
    9000002   -1    0    0    0    0 -0.00000000000E+00 -0.00000000000E+00  0.00000000000E+00  0.93800000000E+00  0.93800000000E+00 0. -1.
         11    1    1    2    0    0 -0.85442036471E-02  0.37368112377E-01  0.53594115498E+00  0.53731048935E+00  0.51100000000E-03 0. -1.
    9000002    1    1    2    0    0  0.19021325431E-01 -0.64742099806E+00  0.30051156422E+00  0.11788413633E+01  0.93800000000E+00 0. -1.
         22    1    1    2    0    0 -0.10477121784E-01  0.61005288568E+00  0.31635472482E+01  0.32218481474E+01  0.00000000000E+00 0. -1.
</event>
<event>
 5    1  0.5849602E+001  0.1599632E+01  0.7818608E-02  0.3353763E+00
         11   -1    0    0    0    0  0.00000000000E+00  0.00000000000E+00  0.39999999674E+01  0.40000000000E+01  0.51100000000E-03 0. -1.
    9000002   -1    0    0    0    0 -0.00000000000E+00 -0.00000000000E+00  0.00000000000E+00  0.93800000000E+00  0.93800000000E+00 0. -1.
         11    1    1    2    0    0 -0.35491760895E-01 -0.27897575976E-01  0.42922552759E+00  0.43159327438E+00  0.51100000000E-03 0. -1.
    9000002    1    1    2    0    0  0.34367761887E+00  0.21274917086E+00  0.11029810401E+00  0.10273199050E+01  0.93800000000E+00 0. -1.
         22    1    1    2    0    0 -0.30818585797E+00 -0.18485159489E+00  0.34604763358E+01  0.34790868206E+01  0.00000000000E+00 0. -1.
</event>
<event>
 5    1  0.5849602E+001  0.1597477E+01  0.7818608E-02  0.3356106E+00
         11   -1    0    0    0    0  0.00000000000E+00  0.00000000000E+00  0.39999999674E+01  0.40000000000E+01  0.51100000000E-03 0. -1.
    9000002   -1    0    0    0    0 -0.00000000000E+00 -0.00000000000E+00  0.00000000000E+00  0.93800000000E+00  0.93800000000E+00 0.  1.
         11    1    1    2    0    0 -0.19283450549E+00  0.12377193076E+00  0.13184680112E+01  0.13382312188E+01  0.51100000000E-03 0. -1.
    9000002    1    1    2    0    0  0.57748487520E+00 -0.20101081425E+00  0.26373188030E+00  0.11503445715E+01  0.93800000000E+00 0.  1.
         22    1    1    2    0    0 -0.38465036971E+00  0.77238883487E-01  0.24178000758E+01  0.24494242096E+01  0.00000000000E+00 0. -1.
</event>
<event>
 5    1  0.5849602E+001  0.1599676E+01  0.7818608E-02  0.3353715E+00
         11   -1    0    0    0    0  0.00000000000E+00  0.00000000000E+00  0.39999999674E+01  0.40000000000E+01  0.51100000000E-03 0.  1.
    9000002   -1    0    0    0    0 -0.00000000000E+00 -0.00000000000E+00  0.00000000000E+00  0.93800000000E+00  0.93800000000E+00 0.  1.
         11    1    1    2    0    0 -0.11459431361E+00  0.23396367983E-01  0.12437551673E+01  0.12492423400E+01  0.51100000000E-03 0.  1.
    9000002    1    1    2    0    0  0.36034208167E+00 -0.70521852281E-01  0.90574810500E-01  0.10113691432E+01  0.93800000000E+00 0.  1.
         22    1    1    2    0    0 -0.24574776806E+00  0.47125484298E-01  0.26656699896E+01  0.26773885169E+01  0.00000000000E+00 0.  1.
</event>
<event>
 5    1  0.5849602E+001  0.1599677E+01  0.7818608E-02  0.3353714E+00
         11   -1    0    0    0    0  0.00000000000E+00  0.00000000000E+00  0.39999999674E+01  0.40000000000E+01  0.51100000000E-03 0.  1.
    9000002   -1    0    0    0    0 -0.00000000000E+00 -0.00000000000E+00  0.00000000000E+00  0.93800000000E+00  0.93800000000E+00 0.  1.
         11    1    1    2    0    0  0.65807445210E-03 -0.16880068518E+00  0.14310647000E+01  0.14409859614E+01  0.51100000000E-03 0.  1.
    9000002    1    1    2    0    0 -0.57253020550E-03  0.45393553720E+00  0.14003318356E+00  0.10514328758E+01  0.93800000000E+00 0.  1.
         22    1    1    2    0    0 -0.85544246606E-04 -0.28513485202E+00  0.24289020838E+01  0.24455811628E+01  0.00000000000E+00 0.  1.
</event>
<event>
 5    1  0.5849602E+001  0.1599614E+01  0.7818608E-02  0.3353783E+00
         11   -1    0    0    0    0  0.00000000000E+00  0.00000000000E+00  0.39999999674E+01  0.40000000000E+01  0.51100000000E-03 0. -1.
    9000002   -1    0    0    0    0 -0.00000000000E+00 -0.00000000000E+00  0.00000000000E+00  0.93800000000E+00  0.93800000000E+00 0. -1.
         11    1    1    2    0    0 -0.73183014175E-01  0.71106860503E-01  0.96787220505E+00  0.97323625375E+00  0.51100000000E-03 0. -1.
    9000002    1    1    2    0    0  0.26184221604E+00 -0.29228898337E+00  0.10382457273E+00  0.10220654274E+01  0.93800000000E+00 0. -1.
         22    1    1    2    0    0 -0.18865920187E+00  0.22118212287E+00  0.29283031896E+01  0.29426983189E+01  0.00000000000E+00 0. -1.
</event>
<event>
 5    1  0.5849602E+001  0.1599672E+01  0.7818608E-02  0.3353719E+00
         11   -1    0    0    0    0  0.00000000000E+00  0.00000000000E+00  0.39999999674E+01  0.40000000000E+01  0.51100000000E-03 0. -1.
    9000002   -1    0    0    0    0 -0.00000000000E+00 -0.00000000000E+00  0.00000000000E+00  0.93800000000E+00  0.93800000000E+00 0.  1.
         11    1    1    2    0    0  0.10548718082E+00 -0.17181653690E-01  0.11181677692E+01  0.11232640721E+01  0.51100000000E-03 0. -1.
    9000002    1    1    2    0    0 -0.36549325940E+00  0.67526538400E-01  0.92860970866E-01  0.10132187898E+01  0.93800000000E+00 0.  1.
         22    1    1    2    0    0  0.26000607859E+00 -0.50344884710E-01  0.27889712273E+01  0.28015171381E+01  0.00000000000E+00 0. -1.
</event>
<event>
 5    1  0.5849602E+001  0.1599253E+01  0.7818608E-02  0.3354175E+00
         11   -1    0    0    0    0  0.00000000000E+00  0.00000000000E+00  0.39999999674E+01  0.40000000000E+01  0.51100000000E-03 0. -1.
    9000002   -1    0    0    0    0 -0.00000000000E+00 -0.00000000000E+00  0.00000000000E+00  0.93800000000E+00  0.93800000000E+00 0.  1.
         11    1    1    2    0    0 -0.12064436234E-01  0.10967899694E+00  0.75053434145E+00  0.75860206420E+00  0.51100000000E-03 0. -1.
    9000002    1    1    2    0    0  0.17886838552E-03 -0.62403959136E+00  0.27357421690E+00  0.11593585708E+01  0.93800000000E+00 0.  1.
         22    1    1    2    0    0  0.11885567849E-01  0.51436059442E+00  0.29758914090E+01  0.30200393650E+01  0.00000000000E+00 0. -1.
</event>
<event>
 5    1  0.5849602E+001  0.1599415E+01  0.7818608E-02  0.3353998E+00
         11   -1    0    0    0    0  0.00000000000E+00  0.00000000000E+00  0.39999999674E+01  0.40000000000E+01  0.51100000000E-03 0.  1.
    9000002   -1    0    0    0    0 -0.00000000000E+00 -0.00000000000E+00  0.00000000000E+00  0.93800000000E+00  0.93800000000E+00 0.  1.
         11    1    1    2    0    0  0.27450638882E+00  0.25260654286E+00  0.11498558849E+01  0.12088559220E+01  0.51100000000E-03 0.  1.
    9000002    1    1    2    0    0 -0.71022735095E+00 -0.71842002004E+00  0.82642378409E+00  0.16072866845E+01  0.93800000000E+00 0.  1.
         22    1    1    2    0    0  0.43572096213E+00  0.46581347717E+00  0.20237202983E+01  0.21218573935E+01  0.00000000000E+00 0.  1.
</event>
<event>
 5    1  0.5849602E+001  0.1599507E+01  0.7818608E-02  0.3353898E+00
         11   -1    0    0    0    0  0.00000000000E+00  0.00000000000E+00  0.39999999674E+01  0.40000000000E+01  0.51100000000E-03 0. -1.
    9000002   -1    0    0    0    0 -0.00000000000E+00 -0.00000000000E+00  0.00000000000E+00  0.93800000000E+00  0.93800000000E+00 0.  1.
         11    1    1    2    0    0  0.55412235123E-01 -0.12410796961E+00  0.12946015964E+01  0.13017168887E+01  0.51100000000E-03 0. -1.
    9000002    1    1    2    0    0 -0.12563353400E+00  0.35769606351E+00  0.96836360032E-01  0.10163422353E+01  0.93800000000E+00 0.  1.
         22    1    1    2    0    0  0.70221298874E-01 -0.23358809390E+00  0.26085620109E+01  0.26199408759E+01  0.00000000000E+00 0.  1.
</event>
<event>
 5    1  0.5849602E+001  0.1599676E+01  0.7818608E-02  0.3353715E+00
         11   -1    0    0    0    0  0.00000000000E+00  0.00000000000E+00  0.39999999674E+01  0.40000000000E+01  0.51100000000E-03 0. -1.
    9000002   -1    0    0    0    0 -0.00000000000E+00 -0.00000000000E+00  0.00000000000E+00  0.93800000000E+00  0.93800000000E+00 0.  1.
         11    1    1    2    0    0  0.15223702080E+00 -0.17021124848E+00  0.66553449854E+00  0.70362234862E+00  0.51100000000E-03 0. -1.
    9000002    1    1    2    0    0 -0.70024491438E+00  0.78862951916E+00  0.92590409319E+00  0.16880230592E+01  0.93800000000E+00 0.  1.
         22    1    1    2    0    0  0.54800789358E+00 -0.61841827068E+00  0.24085613756E+01  0.25463545922E+01  0.00000000000E+00 0. -1.
</event>
<event>
 5    1  0.5849602E+001  0.1599601E+01  0.7818608E-02  0.3353796E+00
         11   -1    0    0    0    0  0.00000000000E+00  0.00000000000E+00  0.39999999674E+01  0.40000000000E+01  0.51100000000E-03 0. -1.
    9000002   -1    0    0    0    0 -0.00000000000E+00 -0.00000000000E+00  0.00000000000E+00  0.93800000000E+00  0.93800000000E+00 0. -1.
         11    1    1    2    0    0 -0.88385239703E-02 -0.15963321659E-02  0.64182267514E-01  0.64809662603E-01  0.51100000000E-03 0. -1.
    9000002    1    1    2    0    0  0.53642602851E+00 -0.62144639187E-01  0.20111258559E+00  0.11008656196E+01  0.93800000000E+00 0. -1.
         22    1    1    2    0    0 -0.52758750454E+00  0.63740971353E-01  0.37347051143E+01  0.37723247178E+01  0.00000000000E+00 0. -1.
</event>
<event>
 5    1  0.5849602E+001  0.1599561E+01  0.7818608E-02  0.3353840E+00
         11   -1    0    0    0    0  0.00000000000E+00  0.00000000000E+00  0.39999999674E+01  0.40000000000E+01  0.51100000000E-03 0. -1.
    9000002   -1    0    0    0    0 -0.00000000000E+00 -0.00000000000E+00  0.00000000000E+00  0.93800000000E+00  0.93800000000E+00 0.  1.
         11    1    1    2    0    0 -0.14324228421E+00  0.27362561410E-02  0.10052532893E+01  0.10154113825E+01  0.51100000000E-03 0. -1.
    9000002    1    1    2    0    0  0.51312486247E+00  0.20083380629E-01  0.18104050532E+00  0.10845829296E+01  0.93800000000E+00 0.  1.
         22    1    1    2    0    0 -0.36988257826E+00 -0.22819636770E-01  0.28137061728E+01  0.28380056878E+01  0.00000000000E+00 0. -1.
</event>
<event>
 5    1  0.5849602E+001  0.1523472E+01  0.7818608E-02  0.3440856E+00
         11   -1    0    0    0    0  0.00000000000E+00  0.00000000000E+00  0.39999999674E+01  0.40000000000E+01  0.51100000000E-03 0.  1.
    9000002   -1    0    0    0    0 -0.00000000000E+00 -0.00000000000E+00  0.00000000000E+00  0.93800000000E+00  0.93800000000E+00 0.  1.
         11    1    1    2    0    0 -0.54443002515E-01  0.27361734050E+00  0.88409985603E+00  0.92707243843E+00  0.51100000000E-03 0.  1.
    9000002    1    1    2    0    0 -0.27294716772E+00 -0.83987908647E-01  0.11609548055E+00  0.98735823578E+00  0.93800000000E+00 0.  1.
         22    1    1    2    0    0  0.32739017024E+00 -0.18962943185E+00  0.29998046308E+01  0.30235693258E+01  0.00000000000E+00 0.  1.
</event>
<event>
 5    1  0.1143417E+002  0.1553677E+01  0.7818608E-02  0.3405229E+00
         11   -1    0    0    0    0  0.00000000000E+00  0.00000000000E+00  0.39999999674E+01  0.40000000000E+01  0.51100000000E-03 0.  1.
    9000002   -1    0    0    0    0 -0.00000000000E+00 -0.00000000000E+00  0.00000000000E+00  0.93800000000E+00  0.93800000000E+00 0. -1.
         11    1    1    2    0    0  0.18908043620E+00  0.84881597421E-01  0.10431653209E+01  0.10635555674E+01  0.51100000000E-03 0.  1.
    9000002    1    1    2    0    0  0.92969848804E-01 -0.23210774907E-01  0.40392641694E-01  0.94374662826E+00  0.93800000000E+00 0. -1.
         22    1    1    2    0    0 -0.28205028501E+00 -0.61670822514E-01  0.29164420047E+01  0.29306978044E+01  0.00000000000E+00 0.  1.
</event>
<event>
 5    1  0.5849602E+001  0.1599665E+01  0.7818608E-02  0.3353727E+00
         11   -1    0    0    0    0  0.00000000000E+00  0.00000000000E+00  0.39999999674E+01  0.40000000000E+01  0.51100000000E-03 0.  1.
    9000002   -1    0    0    0    0 -0.00000000000E+00 -0.00000000000E+00  0.00000000000E+00  0.93800000000E+00  0.93800000000E+00 0.  1.
         11    1    1    2    0    0 -0.12965153222E+00 -0.31466554795E-01  0.12805296519E+01  0.12874611118E+01  0.51100000000E-03 0.  1.
    9000002    1    1    2    0    0  0.38360141970E+00  0.10096216301E+00  0.10609595326E+00  0.10239354271E+01  0.93800000000E+00 0.  1.
         22    1    1    2    0    0 -0.25394988748E+00 -0.69495608214E-01  0.26133743622E+01  0.26266034611E+01  0.00000000000E+00 0.  1.
</event>
<event>
 5    1  0.5849602E+001  0.1599657E+01  0.7818608E-02  0.3353736E+00
         11   -1    0    0    0    0  0.00000000000E+00  0.00000000000E+00  0.39999999674E+01  0.40000000000E+01  0.51100000000E-03 0.  1.
    9000002   -1    0    0    0    0 -0.00000000000E+00 -0.00000000000E+00  0.00000000000E+00  0.93800000000E+00  0.93800000000E+00 0. -1.
         11    1    1    2    0    0 -0.81170397155E-01  0.41426725138E-01  0.88293472889E+00  0.88762537342E+00  0.51100000000E-03 0.  1.
    9000002    1    1    2    0    0  0.35001879373E+00 -0.20102247495E+00  0.10996353082E+00  0.10270633717E+01  0.93800000000E+00 0. -1.
         22    1    1    2    0    0 -0.26884839657E+00  0.15959574981E+00  0.30071017077E+01  0.30233112549E+01  0.00000000000E+00 0. -1.
</event>
<event>
 5    1  0.5849602E+001  0.1597000E+01  0.7818608E-02  0.3356626E+00
         11   -1    0    0    0    0  0.00000000000E+00  0.00000000000E+00  0.39999999674E+01  0.40000000000E+01  0.51100000000E-03 0. -1.
    9000002   -1    0    0    0    0 -0.00000000000E+00 -0.00000000000E+00  0.00000000000E+00  0.93800000000E+00  0.93800000000E+00 0. -1.
         11    1    1    2    0    0  0.13406199724E+00  0.19545528454E-01  0.12192249294E+01  0.12267291210E+01  0.51100000000E-03 0. -1.
    9000002    1    1    2    0    0 -0.35059583237E+00  0.10453079930E+00  0.92084603036E-01  0.10110230956E+01  0.93800000000E+00 0. -1.
         22    1    1    2    0    0  0.21653383513E+00 -0.12407632775E+00  0.26886904349E+01  0.27002477834E+01  0.00000000000E+00 0. -1.
</event>
<event>
 5    1  0.5849602E+001  0.1593439E+01  0.7818608E-02  0.3360515E+00
         11   -1    0    0    0    0  0.00000000000E+00  0.00000000000E+00  0.39999999674E+01  0.40000000000E+01  0.51100000000E-03 0.  1.
    9000002   -1    0    0    0    0 -0.00000000000E+00 -0.00000000000E+00  0.00000000000E+00  0.93800000000E+00  0.93800000000E+00 0. -1.
         11    1    1    2    0    0 -0.10171103012E-01  0.35943491686E-02  0.65881209531E+00  0.65890060611E+00  0.51100000000E-03 0.  1.
    9000002    1    1    2    0    0 -0.36112876891E+00  0.90151767236E-02  0.92683900228E-01  0.10094204112E+01  0.93800000000E+00 0. -1.
         22    1    1    2    0    0  0.37129987192E+00 -0.12609525892E-01  0.32485039718E+01  0.32696789827E+01  0.00000000000E+00 0.  1.
</event>
<event>
 5    1  0.5849602E+001  0.1599677E+01  0.7818608E-02  0.3353714E+00
         11   -1    0    0    0    0  0.00000000000E+00  0.00000000000E+00  0.39999999674E+01  0.40000000000E+01  0.51100000000E-03 0.  1.
    9000002   -1    0    0    0    0 -0.00000000000E+00 -0.00000000000E+00  0.00000000000E+00  0.93800000000E+00  0.93800000000E+00 0. -1.
         11    1    1    2    0    0  0.16922231653E-01 -0.14977289480E+00  0.55739621387E+00  0.57741586599E+00  0.51100000000E-03 0.  1.
    9000002    1    1    2    0    0 -0.10043248457E+00  0.90367960823E+00  0.63536052530E+00  0.14526701330E+01  0.93800000000E+00 0. -1.
         22    1    1    2    0    0  0.83510252920E-01 -0.75390671342E+00  0.28072432282E+01  0.29079140010E+01  0.00000000000E+00 0.  1.
</event>
<event>
 5    1  0.5849602E+001  0.1599667E+01  0.7818608E-02  0.3353725E+00
         11   -1    0    0    0    0  0.00000000000E+00  0.00000000000E+00  0.39999999674E+01  0.40000000000E+01  0.51100000000E-03 0. -1.
    9000002   -1    0    0    0    0 -0.00000000000E+00 -0.00000000000E+00  0.00000000000E+00  0.93800000000E+00  0.93800000000E+00 0.  1.
         11    1    1    2    0    0 -0.84318598698E-02 -0.49170549503E-02  0.10444501946E+00  0.10490136749E+00  0.51100000000E-03 0. -1.
    9000002    1    1    2    0    0  0.34107849638E+00  0.15019459941E+00  0.93379205961E-01  0.10136353558E+01  0.93800000000E+00 0.  1.
         22    1    1    2    0    0 -0.33264663651E+00 -0.14527754446E+00  0.38021757419E+01  0.38194632767E+01  0.00000000000E+00 0. -1.
</event>
<event>
 5    1  0.5849602E+001  0.1599672E+01  0.7818608E-02  0.3353719E+00
         11   -1    0    0    0    0  0.00000000000E+00  0.00000000000E+00  0.39999999674E+01  0.40000000000E+01  0.51100000000E-03 0. -1.
    9000002   -1    0    0    0    0 -0.00000000000E+00 -0.00000000000E+00  0.00000000000E+00  0.93800000000E+00  0.93800000000E+00 0.  1.
         11    1    1    2    0    0 -0.38177838615E-02  0.64206615619E-01  0.63390862130E+00  0.63716361027E+00  0.51100000000E-03 0. -1.
    9000002    1    1    2    0    0  0.19140613170E-01 -0.38409000678E+00  0.99566667942E-01  0.10186505867E+01  0.93800000000E+00 0.  1.
         22    1    1    2    0    0 -0.15322829309E-01  0.31988339116E+00  0.32665246781E+01  0.32821858031E+01  0.00000000000E+00 0. -1.
</event>
<event>
 5    1  0.5849602E+001  0.1599676E+01  0.7818608E-02  0.3353715E+00
         11   -1    0    0    0    0  0.00000000000E+00  0.00000000000E+00  0.39999999674E+01  0.40000000000E+01  0.51100000000E-03 0. -1.
    9000002   -1    0    0    0    0 -0.00000000000E+00 -0.00000000000E+00  0.00000000000E+00  0.93800000000E+00  0.93800000000E+00 0. -1.
         11    1    1    2    0    0 -0.10119279873E+00  0.82847495629E-03  0.10337808440E+01  0.10387221782E+01  0.51100000000E-03 0. -1.
    9000002    1    1    2    0    0  0.38578040512E+00 -0.41757861568E-02  0.10022009771E+00  0.10191820378E+01  0.93800000000E+00 0. -1.
         22    1    1    2    0    0 -0.28458760638E+00  0.33473112005E-02  0.28659990257E+01  0.28800957840E+01  0.00000000000E+00 0. -1.
</event>
<event>
 5    1  0.5849602E+001  0.1574237E+01  0.7818608E-02  0.3381809E+00
         11   -1    0    0    0    0  0.00000000000E+00  0.00000000000E+00  0.39999999674E+01  0.40000000000E+01  0.51100000000E-03 0.  1.
    9000002   -1    0    0    0    0 -0.00000000000E+00 -0.00000000000E+00  0.00000000000E+00  0.93800000000E+00  0.93800000000E+00 0. -1.
         11    1    1    2    0    0 -0.17591746736E+00  0.36089759252E-01  0.10668467034E+01  0.10818556169E+01  0.51100000000E-03 0.  1.
    9000002    1    1    2    0    0  0.30080586163E-01 -0.25073292326E+00  0.62093892881E-01  0.97338147301E+00  0.93800000000E+00 0. -1.
         22    1    1    2    0    0  0.14583688120E+00  0.21464316401E+00  0.28710593711E+01  0.28827629101E+01  0.00000000000E+00 0.  1.
</event>
<event>
 5    1  0.5849602E+001  0.1599595E+01  0.7818608E-02  0.3353803E+00
         11   -1    0    0    0    0  0.00000000000E+00  0.00000000000E+00  0.39999999674E+01  0.40000000000E+01  0.51100000000E-03 0. -1.
    9000002   -1    0    0    0    0 -0.00000000000E+00 -0.00000000000E+00  0.00000000000E+00  0.93800000000E+00  0.93800000000E+00 0.  1.
         11    1    1    2    0    0  0.31949560896E-01  0.26170178891E-01  0.49868242347E+00  0.50038992126E+00  0.51100000000E-03 0. -1.
    9000002    1    1    2    0    0 -0.30405576024E+00 -0.18479829091E+00  0.85008164012E-01  0.10068121481E+01  0.93800000000E+00 0.  1.
         22    1    1    2    0    0  0.27210619935E+00  0.15862811202E+00  0.34163093799E+01  0.34307979306E+01  0.00000000000E+00 0. -1.
</event>
<event>
 5    1  0.5849602E+001  0.1599441E+01  0.7818608E-02  0.3353970E+00
         11   -1    0    0    0    0  0.00000000000E+00  0.00000000000E+00  0.39999999674E+01  0.40000000000E+01  0.51100000000E-03 0. -1.
    9000002   -1    0    0    0    0 -0.00000000000E+00 -0.00000000000E+00  0.00000000000E+00  0.93800000000E+00  0.93800000000E+00 0. -1.
         11    1    1    2    0    0 -0.89905475154E-03 -0.18950992471E-01  0.13635276597E+00  0.13766730303E+00  0.51100000000E-03 0. -1.
    9000002    1    1    2    0    0  0.15635687736E+00  0.39620602849E+00  0.12299943620E+00  0.10374967718E+01  0.93800000000E+00 0. -1.
         22    1    1    2    0    0 -0.15545782260E+00 -0.37725503601E+00  0.37406477652E+01  0.37628359252E+01  0.00000000000E+00 0. -1.
</event>
<event>
 5    1  0.5849602E+001  0.1599673E+01  0.7818608E-02  0.3353719E+00
         11   -1    0    0    0    0  0.00000000000E+00  0.00000000000E+00  0.39999999674E+01  0.40000000000E+01  0.51100000000E-03 0.  1.
    9000002   -1    0    0    0    0 -0.00000000000E+00 -0.00000000000E+00  0.00000000000E+00  0.93800000000E+00  0.93800000000E+00 0. -1.
         11    1    1    2    0    0 -0.74484808852E-02  0.22893923412E-01  0.22097077584E+00  0.22227900597E+00  0.51100000000E-03 0.  1.
    9000002    1    1    2    0    0  0.14762806010E+00 -0.39316600169E+00  0.11928544962E+00  0.10346238773E+01  0.93800000000E+00 0. -1.
         22    1    1    2    0    0 -0.14017957921E+00  0.37027207828E+00  0.36597437419E+01  0.36810971167E+01  0.00000000000E+00 0.  1.
</event>
<event>
 5    1  0.5849602E+001  0.1599676E+01  0.7818608E-02  0.3353715E+00
         11   -1    0    0    0    0  0.00000000000E+00  0.00000000000E+00  0.39999999674E+01  0.40000000000E+01  0.51100000000E-03 0.  1.
    9000002   -1    0    0    0    0 -0.00000000000E+00 -0.00000000000E+00  0.00000000000E+00  0.93800000000E+00  0.93800000000E+00 0.  1.
         11    1    1    2    0    0  0.15168705305E+00  0.17171582299E+00  0.13199137516E+01  0.13396521410E+01  0.51100000000E-03 0. -1.
    9000002    1    1    2    0    0 -0.42463769449E+00 -0.48091270444E+00  0.28985940773E+00  0.11727986516E+01  0.93800000000E+00 0.  1.
         22    1    1    2    0    0  0.27295064144E+00  0.30919688145E+00  0.23902268080E+01  0.24255492075E+01  0.00000000000E+00 0.  1.
</event>
<event>
 5    1  0.5849602E+001  0.1598367E+01  0.7818608E-02  0.3355137E+00
         11   -1    0    0    0    0  0.00000000000E+00  0.00000000000E+00  0.39999999674E+01  0.40000000000E+01  0.51100000000E-03 0. -1.
    9000002   -1    0    0    0    0 -0.00000000000E+00 -0.00000000000E+00  0.00000000000E+00  0.93800000000E+00  0.93800000000E+00 0.  1.
         11    1    1    2    0    0  0.65038687869E-01 -0.91538835812E-01  0.11934808547E+01  0.11987519347E+01  0.51100000000E-03 0. -1.
    9000002    1    1    2    0    0 -0.29544739053E+00  0.19753231052E+00  0.85800689160E-01  0.10067342909E+01  0.93800000000E+00 0.  1.
         22    1    1    2    0    0  0.23040870267E+00 -0.10599347471E+00  0.27207184235E+01  0.27325137743E+01  0.00000000000E+00 0. -1.
</event>
<event>
 5    1  0.5849602E+001  0.1578334E+01  0.7818608E-02  0.3377220E+00
         11   -1    0    0    0    0  0.00000000000E+00  0.00000000000E+00  0.39999999674E+01  0.40000000000E+01  0.51100000000E-03 0.  1.
    9000002   -1    0    0    0    0 -0.00000000000E+00 -0.00000000000E+00  0.00000000000E+00  0.93800000000E+00  0.93800000000E+00 0.  1.
         11    1    1    2    0    0  0.97679918149E-01 -0.26357773386E-01  0.91425587280E+00  0.91983702943E+00  0.51100000000E-03 0.  1.
    9000002    1    1    2    0    0  0.12340625321E+00 -0.22213433597E+00  0.59430441506E-01  0.97362659368E+00  0.93800000000E+00 0.  1.
         22    1    1    2    0    0 -0.22108617136E+00  0.24849210935E+00  0.30263136531E+01  0.30445363769E+01  0.00000000000E+00 0.  1.
</event>
<event>
 5    1  0.5849602E+001  0.1592041E+01  0.7818608E-02  0.3362047E+00
         11   -1    0    0    0    0  0.00000000000E+00  0.00000000000E+00  0.39999999674E+01  0.40000000000E+01  0.51100000000E-03 0.  1.
    9000002   -1    0    0    0    0 -0.00000000000E+00 -0.00000000000E+00  0.00000000000E+00  0.93800000000E+00  0.93800000000E+00 0.  1.
         11    1    1    2    0    0 -0.27157800740E-01 -0.44230009640E-01  0.63804417811E+00  0.64015191497E+00  0.51100000000E-03 0.  1.
    9000002    1    1    2    0    0 -0.30903625463E+00  0.25783678752E+00  0.11568735843E+00  0.10272345305E+01  0.93800000000E+00 0.  1.
         22    1    1    2    0    0  0.33619405537E+00 -0.21360677788E+00  0.32462684308E+01  0.32706135546E+01  0.00000000000E+00 0.  1.
</event>
<event>
 5    1  0.5849602E+001  0.1599668E+01  0.7818608E-02  0.3353724E+00
         11   -1    0    0    0    0  0.00000000000E+00  0.00000000000E+00  0.39999999674E+01  0.40000000000E+01  0.51100000000E-03 0. -1.
    9000002   -1    0    0    0    0 -0.00000000000E+00 -0.00000000000E+00  0.00000000000E+00  0.93800000000E+00  0.93800000000E+00 0. -1.
         11    1    1    2    0    0  0.97186271419E-01 -0.17920363470E-01  0.10346572478E+01  0.10393662455E+01  0.51100000000E-03 0. -1.
    9000002    1    1    2    0    0 -0.36719970474E+00  0.55605963930E-01  0.92715256691E-01  0.10130981025E+01  0.93800000000E+00 0. -1.
         22    1    1    2    0    0  0.27001343332E+00 -0.37685600460E-01  0.28726274629E+01  0.28855356520E+01  0.00000000000E+00 0. -1.
</event>
<event>
 5    1  0.5849602E+001  0.1599659E+01  0.7818608E-02  0.3353733E+00
         11   -1    0    0    0    0  0.00000000000E+00  0.00000000000E+00  0.39999999674E+01  0.40000000000E+01  0.51100000000E-03 0. -1.
    9000002   -1    0    0    0    0 -0.00000000000E+00 -0.00000000000E+00  0.00000000000E+00  0.93800000000E+00  0.93800000000E+00 0.  1.
         11    1    1    2    0    0 -0.81632256734E-01  0.86128029308E-01  0.11515876895E+01  0.11576857650E+01  0.51100000000E-03 0. -1.
    9000002    1    1    2    0    0  0.28859448402E+00 -0.28210023895E+00  0.10992259344E+00  0.10270317900E+01  0.93800000000E+00 0.  1.
         22    1    1    2    0    0 -0.20696222729E+00  0.19597220964E+00  0.27384896845E+01  0.27532824451E+01  0.00000000000E+00 0. -1.
</event>
<event>
 5    1  0.5849602E+001  0.1596004E+01  0.7818608E-02  0.3357712E+00
         11   -1    0    0    0    0  0.00000000000E+00  0.00000000000E+00  0.39999999674E+01  0.40000000000E+01  0.51100000000E-03 0. -1.
    9000002   -1    0    0    0    0 -0.00000000000E+00 -0.00000000000E+00  0.00000000000E+00  0.93800000000E+00  0.93800000000E+00 0.  1.
         11    1    1    2    0    0 -0.40332334630E-01 -0.11611042376E+00  0.61952272512E+00  0.63159876170E+00  0.51100000000E-03 0. -1.
    9000002    1    1    2    0    0  0.27172243432E+00  0.38572569898E+00  0.15493616565E+00  0.10613513139E+01  0.93800000000E+00 0.  1.
         22    1    1    2    0    0 -0.23139009969E+00 -0.26961527522E+00  0.32255410766E+01  0.32450499244E+01  0.00000000000E+00 0. -1.
</event>
<event>
 5    1  0.5849602E+001  0.1498832E+01  0.7818608E-02  0.3471061E+00
         11   -1    0    0    0    0  0.00000000000E+00  0.00000000000E+00  0.39999999674E+01  0.40000000000E+01  0.51100000000E-03 0. -1.
    9000002   -1    0    0    0    0 -0.00000000000E+00 -0.00000000000E+00  0.00000000000E+00  0.93800000000E+00  0.93800000000E+00 0.  1.
         11    1    1    2    0    0  0.12513376856E-01 -0.59038751442E-01 -0.88483655405E-02  0.60997651314E-01  0.51100000000E-03 0. -1.
    9000002    1    1    2    0    0  0.12766182705E+00 -0.26435430949E+00  0.14076608618E+00  0.99289467420E+00  0.93800000000E+00 0.  1.
         22    1    1    2    0    0 -0.14017520390E+00  0.32339306093E+00  0.38680822467E+01  0.38841076745E+01  0.00000000000E+00 0. -1.
</event>
<event>
 5    1  0.5849602E+001  0.1598903E+01  0.7818608E-02  0.3354555E+00
         11   -1    0    0    0    0  0.00000000000E+00  0.00000000000E+00  0.39999999674E+01  0.40000000000E+01  0.51100000000E-03 0.  1.
    9000002   -1    0    0    0    0 -0.00000000000E+00 -0.00000000000E+00  0.00000000000E+00  0.93800000000E+00  0.93800000000E+00 0. -1.
         11    1    1    2    0    0  0.98746311882E-01 -0.15439770539E-01  0.74598277194E+00  0.75264850879E+00  0.51100000000E-03 0.  1.
    9000002    1    1    2    0    0 -0.38270277663E+00  0.12011280921E+00  0.10918273108E+00  0.10259889721E+01  0.93800000000E+00 0. -1.
         22    1    1    2    0    0  0.28395646475E+00 -0.10467303867E+00  0.31448344643E+01  0.31593625191E+01  0.00000000000E+00 0. -1.
</event>
<event>
 5    1  0.5849602E+001  0.1597359E+01  0.7818608E-02  0.3356235E+00
         11   -1    0    0    0    0  0.00000000000E+00  0.00000000000E+00  0.39999999674E+01  0.40000000000E+01  0.51100000000E-03 0.  1.
    9000002   -1    0    0    0    0 -0.00000000000E+00 -0.00000000000E+00  0.00000000000E+00  0.93800000000E+00  0.93800000000E+00 0.  1.
         11    1    1    2    0    0  0.41880880000E-01 -0.85229445985E-02  0.25902343386E+00  0.26252628269E+00  0.51100000000E-03 0.  1.
    9000002    1    1    2    0    0 -0.35087023608E+00 -0.20648623649E+00  0.11384326385E+00  0.10288589685E+01  0.93800000000E+00 0.  1.
         22    1    1    2    0    0  0.30898935608E+00  0.21500918109E+00  0.36271332696E+01  0.36466147488E+01  0.00000000000E+00 0.  1.
</event>
<event>
 5    1  0.5849602E+001  0.1599608E+01  0.7818608E-02  0.3353788E+00
         11   -1    0    0    0    0  0.00000000000E+00  0.00000000000E+00  0.39999999674E+01  0.40000000000E+01  0.51100000000E-03 0.  1.
    9000002   -1    0    0    0    0 -0.00000000000E+00 -0.00000000000E+00  0.00000000000E+00  0.93800000000E+00  0.93800000000E+00 0.  1.
         11    1    1    2    0    0 -0.71193447452E-01 -0.18596085312E-01  0.66064765522E+00  0.66473295903E+00  0.51100000000E-03 0.  1.
    9000002    1    1    2    0    0  0.45601916461E+00  0.12338340346E+00  0.15215571514E+00  0.10612126575E+01  0.93800000000E+00 0.  1.
         22    1    1    2    0    0 -0.38482571715E+00 -0.10478731815E+00  0.31871965970E+01  0.32120543835E+01  0.00000000000E+00 0.  1.
</event>
<event>
 5    1  0.5849602E+001  0.1592870E+01  0.7818608E-02  0.3361138E+00
         11   -1    0    0    0    0  0.00000000000E+00  0.00000000000E+00  0.39999999674E+01  0.40000000000E+01  0.51100000000E-03 0. -1.
    9000002   -1    0    0    0    0 -0.00000000000E+00 -0.00000000000E+00  0.00000000000E+00  0.93800000000E+00  0.93800000000E+00 0. -1.
         11    1    1    2    0    0 -0.11562516183E+00  0.37904469543E-01  0.51624844637E+00  0.53039480235E+00  0.51100000000E-03 0. -1.
    9000002    1    1    2    0    0  0.35527958965E+00 -0.36192884857E+00  0.18248873744E+00  0.10818328048E+01  0.93800000000E+00 0. -1.
         22    1    1    2    0    0 -0.23965442782E+00  0.32402437903E+00  0.33012627835E+01  0.33257723928E+01  0.00000000000E+00 0. -1.
</event>
<event>
 5    1  0.5849602E+001  0.1599677E+01  0.7818608E-02  0.3353714E+00
         11   -1    0    0    0    0  0.00000000000E+00  0.00000000000E+00  0.39999999674E+01  0.40000000000E+01  0.51100000000E-03 0. -1.
    9000002   -1    0    0    0    0 -0.00000000000E+00 -0.00000000000E+00  0.00000000000E+00  0.93800000000E+00  0.93800000000E+00 0. -1.
         11    1    1    2    0    0 -0.96658028061E-01  0.29079705518E-01  0.68844805235E+00  0.69580844028E+00  0.51100000000E-03 0. -1.
    9000002    1    1    2    0    0  0.53338733287E+00 -0.15961061181E+00  0.21437909574E+00  0.11116564177E+01  0.93800000000E+00 0. -1.
         22    1    1    2    0    0 -0.43672930481E+00  0.13053090630E+00  0.30971728193E+01  0.31305351420E+01  0.00000000000E+00 0. -1.
</event>
<event>
 5    1  0.5849602E+001  0.1598443E+01  0.7818608E-02  0.3355055E+00
         11   -1    0    0    0    0  0.00000000000E+00  0.00000000000E+00  0.39999999674E+01  0.40000000000E+01  0.51100000000E-03 0.  1.
    9000002   -1    0    0    0    0 -0.00000000000E+00 -0.00000000000E+00  0.00000000000E+00  0.93800000000E+00  0.93800000000E+00 0. -1.
         11    1    1    2    0    0  0.12318422661E+00  0.10033770618E+00  0.14544288106E+01  0.14630808027E+01  0.51100000000E-03 0.  1.
    9000002    1    1    2    0    0 -0.42849028759E+00 -0.28913848533E+00  0.18457730636E+00  0.10867924237E+01  0.93800000000E+00 0. -1.
         22    1    1    2    0    0  0.30530606098E+00  0.18880077915E+00  0.23609938504E+01  0.23881267736E+01  0.00000000000E+00 0.  1.
</event>
<event>
 5    1  0.5849602E+001  0.1599581E+01  0.7818608E-02  0.3353818E+00
         11   -1    0    0    0    0  0.00000000000E+00  0.00000000000E+00  0.39999999674E+01  0.40000000000E+01  0.51100000000E-03 0.  1.
    9000002   -1    0    0    0    0 -0.00000000000E+00 -0.00000000000E+00  0.00000000000E+00  0.93800000000E+00  0.93800000000E+00 0.  1.
         11    1    1    2    0    0  0.99778795122E-01 -0.36832687065E+00  0.11126346455E+01  0.11762553324E+01  0.51100000000E-03 0.  1.
    9000002    1    1    2    0    0 -0.26461449059E+00  0.10019317621E+01  0.88333777754E+00  0.16534865327E+01  0.93800000000E+00 0.  1.
         22    1    1    2    0    0  0.16483569547E+00 -0.63360489143E+00  0.20040275444E+01  0.21082581349E+01  0.00000000000E+00 0.  1.
</event>
<event>
 5    1  0.5849602E+001  0.1594143E+01  0.7818608E-02  0.3359745E+00
         11   -1    0    0    0    0  0.00000000000E+00  0.00000000000E+00  0.39999999674E+01  0.40000000000E+01  0.51100000000E-03 0. -1.
    9000002   -1    0    0    0    0 -0.00000000000E+00 -0.00000000000E+00  0.00000000000E+00  0.93800000000E+00  0.93800000000E+00 0. -1.
         11    1    1    2    0    0  0.82519269195E-02  0.19851100558E-01  0.41288931121E-01  0.46553167941E-01  0.51100000000E-03 0. -1.
    9000002    1    1    2    0    0  0.32704784789E+00 -0.43480057666E+00  0.20943878495E+00  0.11044095440E+01  0.93800000000E+00 0. -1.
         22    1    1    2    0    0 -0.33529977481E+00  0.41494947610E+00  0.37492722513E+01  0.37870372880E+01  0.00000000000E+00 0. -1.
</event>
<event>
 5    1  0.5849602E+001  0.1598194E+01  0.7818608E-02  0.3355326E+00
         11   -1    0    0    0    0  0.00000000000E+00  0.00000000000E+00  0.39999999674E+01  0.40000000000E+01  0.51100000000E-03 0. -1.
    9000002   -1    0    0    0    0 -0.00000000000E+00 -0.00000000000E+00  0.00000000000E+00  0.93800000000E+00  0.93800000000E+00 0. -1.
         11    1    1    2    0    0 -0.12734563114E-01  0.92285620391E-01  0.63018519913E+00  0.63703410517E+00  0.51100000000E-03 0. -1.
    9000002    1    1    2    0    0 -0.96051263510E-01 -0.44691810060E+00  0.14336336218E+00  0.10532609779E+01  0.93800000000E+00 0. -1.
         22    1    1    2    0    0  0.10878582662E+00  0.35463248021E+00  0.32264514061E+01  0.32477049170E+01  0.00000000000E+00 0. -1.
</event>
<event>
 5    1  0.7090262E+001  0.1575196E+01  0.7818608E-02  0.3380733E+00
         11   -1    0    0    0    0  0.00000000000E+00  0.00000000000E+00  0.39999999674E+01  0.40000000000E+01  0.51100000000E-03 0.  1.
    9000002   -1    0    0    0    0 -0.00000000000E+00 -0.00000000000E+00  0.00000000000E+00  0.93800000000E+00  0.93800000000E+00 0.  1.
         11    1    1    2    0    0  0.84167290385E-01 -0.11565449370E+00  0.11234569428E+01  0.11325263167E+01  0.51100000000E-03 0.  1.
    9000002    1    1    2    0    0 -0.10054027945E+00 -0.15767350753E+00  0.41626473856E-01  0.95736411364E+00  0.93800000000E+00 0.  1.
         22    1    1    2    0    0  0.16372989068E-01  0.27332800123E+00  0.28349165507E+01  0.28481095697E+01  0.00000000000E+00 0.  1.
</event>
<event>
 5    1  0.5849602E+001  0.1599636E+01  0.7818608E-02  0.3353758E+00
         11   -1    0    0    0    0  0.00000000000E+00  0.00000000000E+00  0.39999999674E+01  0.40000000000E+01  0.51100000000E-03 0.  1.
    9000002   -1    0    0    0    0 -0.00000000000E+00 -0.00000000000E+00  0.00000000000E+00  0.93800000000E+00  0.93800000000E+00 0.  1.
         11    1    1    2    0    0 -0.86111585715E-01  0.82415778151E-01  0.12066225068E+01  0.12124956498E+01  0.51100000000E-03 0.  1.
    9000002    1    1    2    0    0  0.26275377360E+00 -0.25087056169E+00  0.88656603512E-01  0.10097918487E+01  0.93800000000E+00 0.  1.
         22    1    1    2    0    0 -0.17664218789E+00  0.16845478354E+00  0.27047208570E+01  0.27157125015E+01  0.00000000000E+00 0.  1.
</event>
<event>
 5    1  0.5849602E+001  0.1599387E+01  0.7818608E-02  0.3354029E+00
         11   -1    0    0    0    0  0.00000000000E+00  0.00000000000E+00  0.39999999674E+01  0.40000000000E+01  0.51100000000E-03 0.  1.
    9000002   -1    0    0    0    0 -0.00000000000E+00 -0.00000000000E+00  0.00000000000E+00  0.93800000000E+00  0.93800000000E+00 0.  1.
         11    1    1    2    0    0 -0.17770485585E+00 -0.33687670451E-01  0.14411828556E+01  0.14524882648E+01  0.51100000000E-03 0.  1.
    9000002    1    1    2    0    0  0.43079637482E+00  0.64109367360E-01  0.12881647393E+00  0.10421771498E+01  0.93800000000E+00 0.  1.
         22    1    1    2    0    0 -0.25309151898E+00 -0.30421696909E-01  0.24300006378E+01  0.24433345854E+01  0.00000000000E+00 0.  1.
</event>
<event>
 5    1  0.6256459E+001  0.1592401E+01  0.7818608E-02  0.3361653E+00
         11   -1    0    0    0    0  0.00000000000E+00  0.00000000000E+00  0.39999999674E+01  0.40000000000E+01  0.51100000000E-03 0.  1.
    9000002   -1    0    0    0    0 -0.00000000000E+00 -0.00000000000E+00  0.00000000000E+00  0.93800000000E+00  0.93800000000E+00 0.  1.
         11    1    1    2    0    0  0.27794848394E-01 -0.69113077062E-03  0.10099193182E+01  0.10103020943E+01  0.51100000000E-03 0.  1.
    9000002    1    1    2    0    0  0.19798357557E+00 -0.16685265764E+00  0.50166427571E-01  0.97437055375E+00  0.93800000000E+00 0.  1.
         22    1    1    2    0    0 -0.22577842396E+00  0.16754378841E+00  0.29399142216E+01  0.29533273520E+01  0.00000000000E+00 0.  1.
</event>
<event>
 5    1  0.5849602E+001  0.1599677E+01  0.7818608E-02  0.3353715E+00
         11   -1    0    0    0    0  0.00000000000E+00  0.00000000000E+00  0.39999999674E+01  0.40000000000E+01  0.51100000000E-03 0. -1.
    9000002   -1    0    0    0    0 -0.00000000000E+00 -0.00000000000E+00  0.00000000000E+00  0.93800000000E+00  0.93800000000E+00 0.  1.
         11    1    1    2    0    0 -0.21111060763E-01  0.33375751862E-01  0.41179116310E+00  0.41368084416E+00  0.51100000000E-03 0.  1.
    9000002    1    1    2    0    0  0.19747730131E+00 -0.31744792375E+00  0.93974361013E-01  0.10141230938E+01  0.93800000000E+00 0.  1.
         22    1    1    2    0    0 -0.17636624055E+00  0.28407217189E+00  0.34942344432E+01  0.35101960620E+01  0.00000000000E+00 0. -1.
</event>
<event>
 5    1  0.5849602E+001  0.1595244E+01  0.7818608E-02  0.3358542E+00
         11   -1    0    0    0    0  0.00000000000E+00  0.00000000000E+00  0.39999999674E+01  0.40000000000E+01  0.51100000000E-03 0. -1.
    9000002   -1    0    0    0    0 -0.00000000000E+00 -0.00000000000E+00  0.00000000000E+00  0.93800000000E+00  0.93800000000E+00 0. -1.
         11    1    1    2    0    0  0.12538305050E+00  0.13133578285E+00  0.90729682374E+00  0.92528794691E+00  0.51100000000E-03 0. -1.
    9000002    1    1    2    0    0 -0.51611887271E+00 -0.25927726240E+00  0.23598622203E+00  0.11265597572E+01  0.93800000000E+00 0. -1.
         22    1    1    2    0    0  0.39073582221E+00  0.12794147956E+00  0.28567169216E+01  0.28861522959E+01  0.00000000000E+00 0. -1.
</event>
<event>
 5    1  0.5849602E+001  0.1584448E+01  0.7818608E-02  0.3370418E+00
         11   -1    0    0    0    0  0.00000000000E+00  0.00000000000E+00  0.39999999674E+01  0.40000000000E+01  0.51100000000E-03 0.  1.
    9000002   -1    0    0    0    0 -0.00000000000E+00 -0.00000000000E+00  0.00000000000E+00  0.93800000000E+00  0.93800000000E+00 0.  1.
         11    1    1    2    0    0 -0.34724800059E-01  0.59474236372E-01  0.66604087163E+00  0.66959218957E+00  0.51100000000E-03 0.  1.
    9000002    1    1    2    0    0 -0.35218836373E+00 -0.22788133532E-02  0.95573522038E-01  0.10064890137E+01  0.93800000000E+00 0.  1.
         22    1    1    2    0    0  0.38691316378E+00 -0.57195423019E-01  0.32383855737E+01  0.32619187968E+01  0.00000000000E+00 0.  1.
</event>
<event>
 5    1  0.5849602E+001  0.1599676E+01  0.7818608E-02  0.3353715E+00
         11   -1    0    0    0    0  0.00000000000E+00  0.00000000000E+00  0.39999999674E+01  0.40000000000E+01  0.51100000000E-03 0. -1.
    9000002   -1    0    0    0    0 -0.00000000000E+00 -0.00000000000E+00  0.00000000000E+00  0.93800000000E+00  0.93800000000E+00 0.  1.
         11    1    1    2    0    0 -0.27836221948E-01 -0.19715598521E-01  0.31240821538E+00  0.31426535640E+00  0.51100000000E-03 0.  1.
    9000002    1    1    2    0    0  0.34492312427E+00  0.23950738638E+00  0.11925615574E+00  0.10346022330E+01  0.93800000000E+00 0.  1.
         22    1    1    2    0    0 -0.31708690232E+00 -0.21979178786E+00  0.35683355962E+01  0.35891324106E+01  0.00000000000E+00 0. -1.
</event>
<event>
 5    1  0.5849602E+001  0.1563368E+01  0.7818608E-02  0.3394108E+00
         11   -1    0    0    0    0  0.00000000000E+00  0.00000000000E+00  0.39999999674E+01  0.40000000000E+01  0.51100000000E-03 0. -1.
    9000002   -1    0    0    0    0 -0.00000000000E+00 -0.00000000000E+00  0.00000000000E+00  0.93800000000E+00  0.93800000000E+00 0.  1.
         11    1    1    2    0    0  0.20217490909E-01 -0.14158935534E+00  0.70039136592E+00  0.71484587084E+00  0.51100000000E-03 0. -1.
    9000002    1    1    2    0    0  0.43893494629E-01 -0.17778053749E+00  0.49739355128E-01  0.95700081600E+00  0.93800000000E+00 0.  1.
         22    1    1    2    0    0 -0.64110985539E-01  0.31936989283E+00  0.32498692463E+01  0.32661533132E+01  0.00000000000E+00 0. -1.
</event>
<event>
 5    1  0.5849602E+001  0.1593952E+01  0.7818608E-02  0.3359954E+00
         11   -1    0    0    0    0  0.00000000000E+00  0.00000000000E+00  0.39999999674E+01  0.40000000000E+01  0.51100000000E-03 0. -1.
    9000002   -1    0    0    0    0 -0.00000000000E+00 -0.00000000000E+00  0.00000000000E+00  0.93800000000E+00  0.93800000000E+00 0. -1.
         11    1    1    2    0    0 -0.48204664856E-01  0.17869352745E+00  0.14132588387E+01  0.14253265846E+01  0.51100000000E-03 0. -1.
    9000002    1    1    2    0    0 -0.79450028472E-01 -0.37741922865E+00  0.10489109368E+00  0.10196095933E+01  0.93800000000E+00 0. -1.
         22    1    1    2    0    0  0.12765469333E+00  0.19872570120E+00  0.24818500349E+01  0.24930638221E+01  0.00000000000E+00 0. -1.
</event>
<event>
 5    1  0.5849602E+001  0.1593350E+01  0.7818608E-02  0.3360613E+00
         11   -1    0    0    0    0  0.00000000000E+00  0.00000000000E+00  0.39999999674E+01  0.40000000000E+01  0.51100000000E-03 0. -1.
    9000002   -1    0    0    0    0 -0.00000000000E+00 -0.00000000000E+00  0.00000000000E+00  0.93800000000E+00  0.93800000000E+00 0. -1.
         11    1    1    2    0    0 -0.86605958227E-01 -0.67855992459E-01  0.10150125992E+01  0.10209583073E+01  0.51100000000E-03 0. -1.
    9000002    1    1    2    0    0  0.21252187169E-01  0.34446841022E+00  0.84918510607E-01  0.10030779105E+01  0.93800000000E+00 0. -1.
         22    1    1    2    0    0  0.65353771058E-01 -0.27661241776E+00  0.29000688576E+01  0.29139637822E+01  0.00000000000E+00 0. -1.
</event>
<event>
 5    1  0.5849602E+001  0.1599668E+01  0.7818608E-02  0.3353723E+00
         11   -1    0    0    0    0  0.00000000000E+00  0.00000000000E+00  0.39999999674E+01  0.40000000000E+01  0.51100000000E-03 0.  1.
    9000002   -1    0    0    0    0 -0.00000000000E+00 -0.00000000000E+00  0.00000000000E+00  0.93800000000E+00  0.93800000000E+00 0. -1.
         11    1    1    2    0    0 -0.10822932932E+00  0.99753822923E-02  0.91258590180E+00  0.91903557345E+00  0.51100000000E-03 0.  1.
    9000002    1    1    2    0    0  0.44556405332E+00 -0.43063030442E-01  0.13605631528E+00  0.10482065975E+01  0.93800000000E+00 0. -1.
         22    1    1    2    0    0 -0.33733472400E+00  0.33087648150E-01  0.29513577503E+01  0.29707578290E+01  0.00000000000E+00 0.  1.
</event>
<event>
 5    1  0.5849602E+001  0.1599674E+01  0.7818608E-02  0.3353717E+00
         11   -1    0    0    0    0  0.00000000000E+00  0.00000000000E+00  0.39999999674E+01  0.40000000000E+01  0.51100000000E-03 0. -1.
    9000002   -1    0    0    0    0 -0.00000000000E+00 -0.00000000000E+00  0.00000000000E+00  0.93800000000E+00  0.93800000000E+00 0. -1.
         11    1    1    2    0    0 -0.71165680441E-01 -0.62556631023E-01  0.55209785779E+00  0.56016978842E+00  0.51100000000E-03 0. -1.
    9000002    1    1    2    0    0  0.47408706033E+00  0.41362630183E+00  0.27797064663E+00  0.11631667717E+01  0.93800000000E+00 0. -1.
         22    1    1    2    0    0 -0.40292137989E+00 -0.35106967081E+00  0.31699314629E+01  0.32146634399E+01  0.00000000000E+00 0. -1.
</event>
<event>
 5    1  0.5849602E+001  0.1599642E+01  0.7818608E-02  0.3353752E+00
         11   -1    0    0    0    0  0.00000000000E+00  0.00000000000E+00  0.39999999674E+01  0.40000000000E+01  0.51100000000E-03 0.  1.
    9000002   -1    0    0    0    0 -0.00000000000E+00 -0.00000000000E+00  0.00000000000E+00  0.93800000000E+00  0.93800000000E+00 0. -1.
         11    1    1    2    0    0  0.21747009871E-01  0.17208926757E-01  0.21068420029E+00  0.21250217169E+00  0.51100000000E-03 0.  1.
    9000002    1    1    2    0    0 -0.34004398954E+00 -0.30602841233E+00  0.14233056560E+00  0.10532736083E+01  0.93800000000E+00 0. -1.
         22    1    1    2    0    0  0.31829697967E+00  0.28881948557E+00  0.36469852015E+01  0.36722242200E+01  0.00000000000E+00 0.  1.
</event>
<event>
 5    1  0.5849602E+001  0.1599674E+01  0.7818608E-02  0.3353717E+00
         11   -1    0    0    0    0  0.00000000000E+00  0.00000000000E+00  0.39999999674E+01  0.40000000000E+01  0.51100000000E-03 0. -1.
    9000002   -1    0    0    0    0 -0.00000000000E+00 -0.00000000000E+00  0.00000000000E+00  0.93800000000E+00  0.93800000000E+00 0. -1.
         11    1    1    2    0    0 -0.59944458589E-01  0.30611911539E+00  0.13174492977E+01  0.13538741316E+01  0.51100000000E-03 0. -1.
    9000002    1    1    2    0    0  0.15692905283E+00 -0.80771183968E+00  0.50269384375E+00  0.13452026777E+01  0.93800000000E+00 0. -1.
         22    1    1    2    0    0 -0.96984594242E-01  0.50159272429E+00  0.21798568259E+01  0.22389231907E+01  0.00000000000E+00 0. -1.
</event>
<event>
 5    1  0.5849602E+001  0.1592140E+01  0.7818608E-02  0.3361938E+00
         11   -1    0    0    0    0  0.00000000000E+00  0.00000000000E+00  0.39999999674E+01  0.40000000000E+01  0.51100000000E-03 0.  1.
    9000002   -1    0    0    0    0 -0.00000000000E+00 -0.00000000000E+00  0.00000000000E+00  0.93800000000E+00  0.93800000000E+00 0.  1.
         11    1    1    2    0    0 -0.10876207849E-01  0.23482093271E+00  0.84926237551E+00  0.88119578183E+00  0.51100000000E-03 0.  1.
    9000002    1    1    2    0    0  0.31698620185E+00 -0.10289316173E+01  0.99854028482E+00  0.17424428902E+01  0.93800000000E+00 0.  1.
         22    1    1    2    0    0 -0.30610999400E+00  0.79411068462E+00  0.21521973070E+01  0.23143613279E+01  0.00000000000E+00 0.  1.
</event>
<event>
 5    1  0.5849602E+001  0.1599467E+01  0.7818608E-02  0.3353943E+00
         11   -1    0    0    0    0  0.00000000000E+00  0.00000000000E+00  0.39999999674E+01  0.40000000000E+01  0.51100000000E-03 0.  1.
    9000002   -1    0    0    0    0 -0.00000000000E+00 -0.00000000000E+00  0.00000000000E+00  0.93800000000E+00  0.93800000000E+00 0.  1.
         11    1    1    2    0    0  0.31624363459E+00 -0.21377462261E+00  0.10357018373E+01  0.11038062251E+01  0.51100000000E-03 0.  1.
    9000002    1    1    2    0    0 -0.89833472196E+00  0.58339872586E+00  0.96676431799E+00  0.17209987195E+01  0.93800000000E+00 0.  1.
         22    1    1    2    0    0  0.58209108737E+00 -0.36962410325E+00  0.19975338121E+01  0.21131950554E+01  0.00000000000E+00 0.  1.
</event>
<event>
 5    1  0.5849602E+001  0.1547367E+01  0.7818608E-02  0.3412549E+00
         11   -1    0    0    0    0  0.00000000000E+00  0.00000000000E+00  0.39999999674E+01  0.40000000000E+01  0.51100000000E-03 0.  1.
    9000002   -1    0    0    0    0 -0.00000000000E+00 -0.00000000000E+00  0.00000000000E+00  0.93800000000E+00  0.93800000000E+00 0. -1.
         11    1    1    2    0    0 -0.66013213294E-01 -0.55431430156E-01  0.10822989302E+01  0.10857263113E+01  0.51100000000E-03 0.  1.
    9000002    1    1    2    0    0  0.60566351757E+00 -0.54381695205E+00  0.56352482988E+00  0.13638069540E+01  0.93800000000E+00 0. -1.
         22    1    1    2    0    0 -0.53965030428E+00  0.59924838220E+00  0.23541762073E+01  0.24884667347E+01  0.00000000000E+00 0.  1.
</event>
<event>
 5    1  0.5849602E+001  0.1577784E+01  0.7818608E-02  0.3377835E+00
         11   -1    0    0    0    0  0.00000000000E+00  0.00000000000E+00  0.39999999674E+01  0.40000000000E+01  0.51100000000E-03 0.  1.
    9000002   -1    0    0    0    0 -0.00000000000E+00 -0.00000000000E+00  0.00000000000E+00  0.93800000000E+00  0.93800000000E+00 0. -1.
         11    1    1    2    0    0  0.10907650818E+00  0.16040937122E-01  0.67861206419E+00  0.68750970254E+00  0.51100000000E-03 0.  1.
    9000002    1    1    2    0    0  0.84722910785E-01 -0.40285333221E+00  0.13308723628E+00  0.10329690176E+01  0.93800000000E+00 0. -1.
         22    1    1    2    0    0 -0.19379941896E+00  0.38681239509E+00  0.31883006669E+01  0.32175212798E+01  0.00000000000E+00 0.  1.
</event>
<event>
 5    1  0.5849602E+001  0.1476942E+01  0.7818608E-02  0.3498807E+00
         11   -1    0    0    0    0  0.00000000000E+00  0.00000000000E+00  0.39999999674E+01  0.40000000000E+01  0.51100000000E-03 0. -1.
    9000002   -1    0    0    0    0 -0.00000000000E+00 -0.00000000000E+00  0.00000000000E+00  0.93800000000E+00  0.93800000000E+00 0.  1.
         11    1    1    2    0    0 -0.31904015559E+00  0.10287565104E+00  0.81381934894E+00  0.88015465362E+00  0.51100000000E-03 0. -1.
    9000002    1    1    2    0    0 -0.17463350931E-01  0.10424932047E+00  0.10310468909E+00  0.94955119207E+00  0.93800000000E+00 0.  1.
         22    1    1    2    0    0  0.33650350653E+00 -0.20712497151E+00  0.30830759293E+01  0.31082941543E+01  0.00000000000E+00 0. -1.
</event>
<event>
 5    1  0.5849602E+001  0.1599078E+01  0.7818608E-02  0.3354365E+00
         11   -1    0    0    0    0  0.00000000000E+00  0.00000000000E+00  0.39999999674E+01  0.40000000000E+01  0.51100000000E-03 0.  1.
    9000002   -1    0    0    0    0 -0.00000000000E+00 -0.00000000000E+00  0.00000000000E+00  0.93800000000E+00  0.93800000000E+00 0.  1.
         11    1    1    2    0    0  0.19566244242E-01  0.78872613014E-01  0.71943119211E+00  0.72400637311E+00  0.51100000000E-03 0.  1.
    9000002    1    1    2    0    0 -0.20826087821E+00 -0.35702804200E+00  0.11594064018E+00  0.10315657266E+01  0.93800000000E+00 0.  1.
         22    1    1    2    0    0  0.18869463397E+00  0.27815542898E+00  0.31646281351E+01  0.31824279003E+01  0.00000000000E+00 0.  1.
</event>
<event>
 5    1  0.5849602E+001  0.1599676E+01  0.7818608E-02  0.3353715E+00
         11   -1    0    0    0    0  0.00000000000E+00  0.00000000000E+00  0.39999999674E+01  0.40000000000E+01  0.51100000000E-03 0. -1.
    9000002   -1    0    0    0    0 -0.00000000000E+00 -0.00000000000E+00  0.00000000000E+00  0.93800000000E+00  0.93800000000E+00 0. -1.
         11    1    1    2    0    0 -0.90914362193E-01 -0.87562385562E-02  0.93842183024E+00  0.94285623801E+00  0.51100000000E-03 0. -1.
    9000002    1    1    2    0    0  0.37947158159E+00  0.39536278584E-01  0.97958542710E-01  0.10173503205E+01  0.93800000000E+00 0. -1.
         22    1    1    2    0    0 -0.28855721939E+00 -0.30780040027E-01  0.29636195944E+01  0.29777934415E+01  0.00000000000E+00 0. -1.
</event>
<event>
 5    1  0.5849602E+001  0.1599666E+01  0.7818608E-02  0.3353726E+00
         11   -1    0    0    0    0  0.00000000000E+00  0.00000000000E+00  0.39999999674E+01  0.40000000000E+01  0.51100000000E-03 0. -1.
    9000002   -1    0    0    0    0 -0.00000000000E+00 -0.00000000000E+00  0.00000000000E+00  0.93800000000E+00  0.93800000000E+00 0.  1.
         11    1    1    2    0    0  0.67321339157E-01  0.32394803498E-01  0.78601216659E+00  0.78955492092E+00  0.51100000000E-03 0. -1.
    9000002    1    1    2    0    0 -0.32833160618E+00 -0.14703873736E+00  0.86882466141E-01  0.10083722511E+01  0.93800000000E+00 0.  1.
         22    1    1    2    0    0  0.26101026702E+00  0.11464393386E+00  0.31271053346E+01  0.31400728280E+01  0.00000000000E+00 0. -1.
</event>
<event>
 5    1  0.5849602E+001  0.1599676E+01  0.7818608E-02  0.3353715E+00
         11   -1    0    0    0    0  0.00000000000E+00  0.00000000000E+00  0.39999999674E+01  0.40000000000E+01  0.51100000000E-03 0. -1.
    9000002   -1    0    0    0    0 -0.00000000000E+00 -0.00000000000E+00  0.00000000000E+00  0.93800000000E+00  0.93800000000E+00 0.  1.
         11    1    1    2    0    0 -0.12387623065E+00 -0.65436914232E-01  0.14247304011E+01  0.14316020002E+01  0.51100000000E-03 0. -1.
    9000002    1    1    2    0    0  0.33881448003E+00  0.18188443475E+00  0.99553501381E-01  0.10186422822E+01  0.93800000000E+00 0.  1.
         22    1    1    2    0    0 -0.21493824938E+00 -0.11644752052E+00  0.24757160649E+01  0.24877557175E+01  0.00000000000E+00 0. -1.
</event>
<event>
 5    1  0.5849602E+001  0.1495910E+01  0.7818608E-02  0.3474715E+00
         11   -1    0    0    0    0  0.00000000000E+00  0.00000000000E+00  0.39999999674E+01  0.40000000000E+01  0.51100000000E-03 0.  1.
    9000002   -1    0    0    0    0 -0.00000000000E+00 -0.00000000000E+00  0.00000000000E+00  0.93800000000E+00  0.93800000000E+00 0. -1.
         11    1    1    2    0    0 -0.53230132227E-01  0.28811513950E+00  0.77009066243E+00  0.82394397265E+00  0.51100000000E-03 0.  1.
    9000002    1    1    2    0    0 -0.22569030908E-01  0.86671829789E-01  0.85117171613E-01  0.94610269006E+00  0.93800000000E+00 0. -1.
         22    1    1    2    0    0  0.75799163135E-01 -0.37478696928E+00  0.31447921333E+01  0.31679533373E+01  0.00000000000E+00 0.  1.
</event>
<event>
 5    1  0.5849602E+001  0.1599672E+01  0.7818608E-02  0.3353720E+00
         11   -1    0    0    0    0  0.00000000000E+00  0.00000000000E+00  0.39999999674E+01  0.40000000000E+01  0.51100000000E-03 0. -1.
    9000002   -1    0    0    0    0 -0.00000000000E+00 -0.00000000000E+00  0.00000000000E+00  0.93800000000E+00  0.93800000000E+00 0.  1.
         11    1    1    2    0    0 -0.20062411679E-01 -0.10287067469E-01  0.19460558761E+00  0.19590793749E+00  0.51100000000E-03 0. -1.
    9000002    1    1    2    0    0  0.38346418963E+00  0.18922047553E+00  0.12379550989E+00  0.10382766979E+01  0.93800000000E+00 0.  1.
         22    1    1    2    0    0 -0.36340177795E+00 -0.17893340806E+00  0.36815988699E+01  0.37038153646E+01  0.00000000000E+00 0. -1.
</event>
<event>
 5    1  0.5849602E+001  0.1599672E+01  0.7818608E-02  0.3353719E+00
         11   -1    0    0    0    0  0.00000000000E+00  0.00000000000E+00  0.39999999674E+01  0.40000000000E+01  0.51100000000E-03 0.  1.
    9000002   -1    0    0    0    0 -0.00000000000E+00 -0.00000000000E+00  0.00000000000E+00  0.93800000000E+00  0.93800000000E+00 0. -1.
         11    1    1    2    0    0 -0.11841889197E-01 -0.39346401701E-01  0.34630771403E+00  0.34873724147E+00  0.51100000000E-03 0.  1.
    9000002    1    1    2    0    0  0.13163208344E+00  0.42285117206E+00  0.13307398548E+00  0.10457929072E+01  0.93800000000E+00 0. -1.
         22    1    1    2    0    0 -0.11979019424E+00 -0.38350477036E+00  0.35206182678E+01  0.35434698513E+01  0.00000000000E+00 0.  1.
</event>
<event>
 5    1  0.5849602E+001  0.1599671E+01  0.7818608E-02  0.3353721E+00
         11   -1    0    0    0    0  0.00000000000E+00  0.00000000000E+00  0.39999999674E+01  0.40000000000E+01  0.51100000000E-03 0. -1.
    9000002   -1    0    0    0    0 -0.00000000000E+00 -0.00000000000E+00  0.00000000000E+00  0.93800000000E+00  0.93800000000E+00 0.  1.
         11    1    1    2    0    0 -0.18327163310E+00  0.60972430805E-01  0.11097304127E+01  0.11264137689E+01  0.51100000000E-03 0. -1.
    9000002    1    1    2    0    0  0.60435481130E+00 -0.20655110077E+00  0.28707537628E+00  0.11705402030E+01  0.93800000000E+00 0.  1.
         22    1    1    2    0    0 -0.42108317819E+00  0.14557866997E+00  0.26031941784E+01  0.26410460281E+01  0.00000000000E+00 0. -1.
</event>
<event>
 5    1  0.5849602E+001  0.1599664E+01  0.7818608E-02  0.3353728E+00
         11   -1    0    0    0    0  0.00000000000E+00  0.00000000000E+00  0.39999999674E+01  0.40000000000E+01  0.51100000000E-03 0. -1.
    9000002   -1    0    0    0    0 -0.00000000000E+00 -0.00000000000E+00  0.00000000000E+00  0.93800000000E+00  0.93800000000E+00 0. -1.
         11    1    1    2    0    0  0.46824790180E+00  0.38531066346E+00  0.11088718976E+01  0.12638502883E+01  0.51100000000E-03 0. -1.
    9000002    1    1    2    0    0 -0.96710943141E+00 -0.80729246023E+00  0.16924295521E+01  0.23089355898E+01  0.93800000000E+00 0. -1.
         22    1    1    2    0    0  0.49886152960E+00  0.42198179677E+00  0.11986985176E+01  0.13652141219E+01  0.00000000000E+00 0. -1.
</event>
<event>
 5    1  0.5849602E+001  0.1597051E+01  0.7818608E-02  0.3356570E+00
         11   -1    0    0    0    0  0.00000000000E+00  0.00000000000E+00  0.39999999674E+01  0.40000000000E+01  0.51100000000E-03 0. -1.
    9000002   -1    0    0    0    0 -0.00000000000E+00 -0.00000000000E+00  0.00000000000E+00  0.93800000000E+00  0.93800000000E+00 0.  1.
         11    1    1    2    0    0 -0.18567859032E+00 -0.31478203465E-01  0.13104804881E+01  0.13239436495E+01  0.51100000000E-03 0. -1.
    9000002    1    1    2    0    0  0.44925518006E+00  0.23549879972E+00  0.17872960893E+00  0.10812391847E+01  0.93800000000E+00 0.  1.
         22    1    1    2    0    0 -0.26357658974E+00 -0.20402059625E+00  0.25107898704E+01  0.25328171658E+01  0.00000000000E+00 0. -1.
</event>
<event>
 5    1  0.5849602E+001  0.1599441E+01  0.7818608E-02  0.3353970E+00
         11   -1    0    0    0    0  0.00000000000E+00  0.00000000000E+00  0.39999999674E+01  0.40000000000E+01  0.51100000000E-03 0. -1.
    9000002   -1    0    0    0    0 -0.00000000000E+00 -0.00000000000E+00  0.00000000000E+00  0.93800000000E+00  0.93800000000E+00 0.  1.
         11    1    1    2    0    0 -0.35692150517E-01 -0.81732449114E-01  0.59798644294E+00  0.60460083519E+00  0.51100000000E-03 0. -1.
    9000002    1    1    2    0    0  0.26224630362E+00  0.44287848837E+00  0.18202079792E+00  0.10853064314E+01  0.93800000000E+00 0.  1.
         22    1    1    2    0    0 -0.22655415311E+00 -0.36114603926E+00  0.32199927265E+01  0.32480927334E+01  0.00000000000E+00 0. -1.
</event>
<event>
 5    1  0.5849602E+001  0.1599677E+01  0.7818608E-02  0.3353714E+00
         11   -1    0    0    0    0  0.00000000000E+00  0.00000000000E+00  0.39999999674E+01  0.40000000000E+01  0.51100000000E-03 0.  1.
    9000002   -1    0    0    0    0 -0.00000000000E+00 -0.00000000000E+00  0.00000000000E+00  0.93800000000E+00  0.93800000000E+00 0.  1.
         11    1    1    2    0    0 -0.17835706135E+00 -0.61787383637E-01  0.14552115696E+01  0.14674024314E+01  0.51100000000E-03 0.  1.
    9000002    1    1    2    0    0  0.47107750513E+00  0.16156813724E+00  0.16972633184E+00  0.10754856143E+01  0.93800000000E+00 0.  1.
         22    1    1    2    0    0 -0.29272044378E+00 -0.99780753604E-01  0.23750620659E+01  0.23951119544E+01  0.00000000000E+00 0.  1.
</event>
<event>
 5    1  0.5849602E+001  0.1599454E+01  0.7818608E-02  0.3353957E+00
         11   -1    0    0    0    0  0.00000000000E+00  0.00000000000E+00  0.39999999674E+01  0.40000000000E+01  0.51100000000E-03 0.  1.
    9000002   -1    0    0    0    0 -0.00000000000E+00 -0.00000000000E+00  0.00000000000E+00  0.93800000000E+00  0.93800000000E+00 0. -1.
         11    1    1    2    0    0  0.81863194708E-01  0.23207375663E-01  0.99003048519E+00  0.99368042532E+00  0.51100000000E-03 0.  1.
    9000002    1    1    2    0    0 -0.34011388927E+00 -0.15099411781E+00  0.93267368998E-01  0.10134196976E+01  0.93800000000E+00 0. -1.
         22    1    1    2    0    0  0.25825069456E+00  0.12778674215E+00  0.29167021132E+01  0.29308998771E+01  0.00000000000E+00 0.  1.
</event>
<event>
 5    1  0.5849602E+001  0.1565216E+01  0.7818608E-02  0.3392004E+00
         11   -1    0    0    0    0  0.00000000000E+00  0.00000000000E+00  0.39999999674E+01  0.40000000000E+01  0.51100000000E-03 0.  1.
    9000002   -1    0    0    0    0 -0.00000000000E+00 -0.00000000000E+00  0.00000000000E+00  0.93800000000E+00  0.93800000000E+00 0. -1.
         11    1    1    2    0    0 -0.28834634149E-01  0.11511367122E+00  0.13923295294E+00  0.18294444440E+00  0.51100000000E-03 0.  1.
    9000002    1    1    2    0    0  0.17052152732E+00 -0.61623287054E+00  0.32451896990E+00  0.11806680752E+01  0.93800000000E+00 0. -1.
         22    1    1    2    0    0 -0.14168689317E+00  0.50111919932E+00  0.35362480445E+01  0.35743874804E+01  0.00000000000E+00 0.  1.
</event>
<event>
 5    1  0.5849602E+001  0.1599667E+01  0.7818608E-02  0.3353725E+00
         11   -1    0    0    0    0  0.00000000000E+00  0.00000000000E+00  0.39999999674E+01  0.40000000000E+01  0.51100000000E-03 0. -1.
    9000002   -1    0    0    0    0 -0.00000000000E+00 -0.00000000000E+00  0.00000000000E+00  0.93800000000E+00  0.93800000000E+00 0.  1.
         11    1    1    2    0    0  0.13412204561E+00  0.12669146977E+00  0.13907221867E+01  0.14029069511E+01  0.51100000000E-03 0. -1.
    9000002    1    1    2    0    0 -0.37550466993E+00 -0.35467360087E+00  0.18316481410E+00  0.10863657162E+01  0.93800000000E+00 0.  1.
         22    1    1    2    0    0  0.24138262432E+00  0.22798213110E+00  0.24261129666E+01  0.24487273327E+01  0.00000000000E+00 0. -1.
</event>
<event>
 5    1  0.5849602E+001  0.1599604E+01  0.7818608E-02  0.3353794E+00
         11   -1    0    0    0    0  0.00000000000E+00  0.00000000000E+00  0.39999999674E+01  0.40000000000E+01  0.51100000000E-03 0. -1.
    9000002   -1    0    0    0    0 -0.00000000000E+00 -0.00000000000E+00  0.00000000000E+00  0.93800000000E+00  0.93800000000E+00 0. -1.
         11    1    1    2    0    0 -0.17238366714E+00  0.35671176839E-01  0.99899906365E+00  0.10143904336E+01  0.51100000000E-03 0. -1.
    9000002    1    1    2    0    0  0.60879112233E+00 -0.13634061424E+00  0.27305822807E+00  0.11591463193E+01  0.93800000000E+00 0. -1.
         22    1    1    2    0    0 -0.43640745520E+00  0.10066943740E+00  0.27279426756E+01  0.27644632470E+01  0.00000000000E+00 0. -1.
</event>
<event>
 5    1  0.5849602E+001  0.1599238E+01  0.7818608E-02  0.3354190E+00
         11   -1    0    0    0    0  0.00000000000E+00  0.00000000000E+00  0.39999999674E+01  0.40000000000E+01  0.51100000000E-03 0. -1.
    9000002   -1    0    0    0    0 -0.00000000000E+00 -0.00000000000E+00  0.00000000000E+00  0.93800000000E+00  0.93800000000E+00 0. -1.
         11    1    1    2    0    0 -0.19668710311E+00 -0.10272077037E+00  0.85437649388E+00  0.88272126270E+00  0.51100000000E-03 0. -1.
    9000002    1    1    2    0    0  0.85104461492E+00  0.39099893151E+00  0.68338071369E+00  0.14913116042E+01  0.93800000000E+00 0. -1.
         22    1    1    2    0    0 -0.65435751180E+00 -0.28827816114E+00  0.24622427598E+01  0.25639671331E+01  0.00000000000E+00 0. -1.
</event>
<event>
 5    1  0.5849602E+001  0.1595541E+01  0.7818608E-02  0.3358217E+00
         11   -1    0    0    0    0  0.00000000000E+00  0.00000000000E+00  0.39999999674E+01  0.40000000000E+01  0.51100000000E-03 0.  1.
    9000002   -1    0    0    0    0 -0.00000000000E+00 -0.00000000000E+00  0.00000000000E+00  0.93800000000E+00  0.93800000000E+00 0. -1.
         11    1    1    2    0    0  0.99829418348E-01  0.12202950839E+00  0.14612835110E+01  0.14697642241E+01  0.51100000000E-03 0.  1.
    9000002    1    1    2    0    0 -0.70198840476E-01 -0.36378224828E+00  0.95634136588E-01  0.10130425901E+01  0.93800000000E+00 0. -1.
         22    1    1    2    0    0 -0.29630577872E-01  0.24175273989E+00  0.24430823197E+01  0.24551931857E+01  0.00000000000E+00 0.  1.
</event>
<event>
 5    1  0.5849602E+001  0.1599628E+01  0.7818608E-02  0.3353768E+00
         11   -1    0    0    0    0  0.00000000000E+00  0.00000000000E+00  0.39999999674E+01  0.40000000000E+01  0.51100000000E-03 0.  1.
    9000002   -1    0    0    0    0 -0.00000000000E+00 -0.00000000000E+00  0.00000000000E+00  0.93800000000E+00  0.93800000000E+00 0.  1.
         11    1    1    2    0    0 -0.13250771123E-01  0.24121128164E-01  0.25309588769E+00  0.25458829754E+00  0.51100000000E-03 0.  1.
    9000002    1    1    2    0    0  0.14693871727E+00 -0.34407452757E+00  0.94157164273E-01  0.10142424950E+01  0.93800000000E+00 0.  1.
         22    1    1    2    0    0 -0.13368794615E+00  0.31995339941E+00  0.36527469154E+01  0.36691692074E+01  0.00000000000E+00 0.  1.
</event>
<event>
 5    1  0.5849602E+001  0.1568250E+01  0.7818608E-02  0.3388561E+00
         11   -1    0    0    0    0  0.00000000000E+00  0.00000000000E+00  0.39999999674E+01  0.40000000000E+01  0.51100000000E-03 0. -1.
    9000002   -1    0    0    0    0 -0.00000000000E+00 -0.00000000000E+00  0.00000000000E+00  0.93800000000E+00  0.93800000000E+00 0.  1.
         11    1    1    2    0    0 -0.17407365443E+00  0.11734124153E+00  0.88056504490E+00  0.90524342779E+00  0.51100000000E-03 0. -1.
    9000002    1    1    2    0    0  0.34465673317E+00  0.15097641991E+00  0.12141432840E+00  0.10179231711E+01  0.93800000000E+00 0.  1.
         22    1    1    2    0    0 -0.17058307874E+00 -0.26831766144E+00  0.29980205941E+01  0.30148334011E+01  0.00000000000E+00 0. -1.
</event>
<event>
 5    1  0.5849602E+001  0.1599676E+01  0.7818608E-02  0.3353715E+00
         11   -1    0    0    0    0  0.00000000000E+00  0.00000000000E+00  0.39999999674E+01  0.40000000000E+01  0.51100000000E-03 0. -1.
    9000002   -1    0    0    0    0 -0.00000000000E+00 -0.00000000000E+00  0.00000000000E+00  0.93800000000E+00  0.93800000000E+00 0.  1.
         11    1    1    2    0    0 -0.20198405455E-01  0.15992995581E+00  0.14323263440E+01  0.14413689961E+01  0.51100000000E-03 0.  1.
    9000002    1    1    2    0    0  0.51805420773E-01 -0.43142149235E+00  0.12794996655E+00  0.10416446129E+01  0.93800000000E+00 0.  1.
         22    1    1    2    0    0 -0.31607015318E-01  0.27149153654E+00  0.24397236569E+01  0.24549863909E+01  0.00000000000E+00 0. -1.
</event>
<event>
 5    1  0.5849602E+001  0.1599676E+01  0.7818608E-02  0.3353715E+00
         11   -1    0    0    0    0  0.00000000000E+00  0.00000000000E+00  0.39999999674E+01  0.40000000000E+01  0.51100000000E-03 0.  1.
    9000002   -1    0    0    0    0 -0.00000000000E+00 -0.00000000000E+00  0.00000000000E+00  0.93800000000E+00  0.93800000000E+00 0. -1.
         11    1    1    2    0    0  0.63368111608E-01  0.77913809736E-01  0.80151281961E+00  0.80778037884E+00  0.51100000000E-03 0.  1.
    9000002    1    1    2    0    0 -0.30635582048E+00 -0.36981375808E+00  0.15736020365E+00  0.10654681310E+01  0.93800000000E+00 0. -1.
         22    1    1    2    0    0  0.24298770888E+00  0.29189994835E+00  0.30411269441E+01  0.30647514902E+01  0.00000000000E+00 0.  1.
</event>
<event>
 5    1  0.5849602E+001  0.1599676E+01  0.7818608E-02  0.3353715E+00
         11   -1    0    0    0    0  0.00000000000E+00  0.00000000000E+00  0.39999999674E+01  0.40000000000E+01  0.51100000000E-03 0. -1.
    9000002   -1    0    0    0    0 -0.00000000000E+00 -0.00000000000E+00  0.00000000000E+00  0.93800000000E+00  0.93800000000E+00 0. -1.
         11    1    1    2    0    0 -0.11292881558E+00 -0.34767578452E-01  0.84069439960E+00  0.84895761764E+00  0.51100000000E-03 0. -1.
    9000002    1    1    2    0    0  0.51016776463E+00  0.15277504029E+00  0.19525730519E+00  0.10961663999E+01  0.93800000000E+00 0. -1.
         22    1    1    2    0    0 -0.39723894905E+00 -0.11800746184E+00  0.29640482626E+01  0.29928759825E+01  0.00000000000E+00 0. -1.
</event>
<event>
 5    1  0.5849602E+001  0.1599625E+01  0.7818608E-02  0.3353770E+00
         11   -1    0    0    0    0  0.00000000000E+00  0.00000000000E+00  0.39999999674E+01  0.40000000000E+01  0.51100000000E-03 0. -1.
    9000002   -1    0    0    0    0 -0.00000000000E+00 -0.00000000000E+00  0.00000000000E+00  0.93800000000E+00  0.93800000000E+00 0. -1.
         11    1    1    2    0    0 -0.14996407230E+00  0.13841058498E-01  0.12452727621E+01  0.12543465674E+01  0.51100000000E-03 0. -1.
    9000002    1    1    2    0    0  0.44340380054E+00 -0.55307803987E-01  0.13559156426E+00  0.10478048272E+01  0.93800000000E+00 0. -1.
         22    1    1    2    0    0 -0.29343972824E+00  0.41466745489E-01  0.26191356410E+01  0.26358486055E+01  0.00000000000E+00 0. -1.
</event>
<event>
 5    1  0.5849602E+001  0.1599511E+01  0.7818608E-02  0.3353894E+00
         11   -1    0    0    0    0  0.00000000000E+00  0.00000000000E+00  0.39999999674E+01  0.40000000000E+01  0.51100000000E-03 0.  1.
    9000002   -1    0    0    0    0 -0.00000000000E+00 -0.00000000000E+00  0.00000000000E+00  0.93800000000E+00  0.93800000000E+00 0. -1.
         11    1    1    2    0    0  0.18114915667E+00  0.51021032581E-01  0.14551169559E+01  0.14672367836E+01  0.51100000000E-03 0.  1.
    9000002    1    1    2    0    0 -0.45011149006E+00 -0.16257199048E+00  0.15638223567E+00  0.10645794518E+01  0.93800000000E+00 0. -1.
         22    1    1    2    0    0  0.26896233339E+00  0.11155095790E+00  0.23885007758E+01  0.24061837646E+01  0.00000000000E+00 0.  1.
</event>
<event>
 5    1  0.5849602E+001  0.1599563E+01  0.7818608E-02  0.3353838E+00
         11   -1    0    0    0    0  0.00000000000E+00  0.00000000000E+00  0.39999999674E+01  0.40000000000E+01  0.51100000000E-03 0. -1.
    9000002   -1    0    0    0    0 -0.00000000000E+00 -0.00000000000E+00  0.00000000000E+00  0.93800000000E+00  0.93800000000E+00 0.  1.
         11    1    1    2    0    0  0.20508102914E-01  0.68047723962E-01  0.90020268844E+00  0.90300399580E+00  0.51100000000E-03 0. -1.
    9000002    1    1    2    0    0 -0.12196139600E+00 -0.33010501799E+00  0.83148296309E-01  0.10052867970E+01  0.93800000000E+00 0.  1.
         22    1    1    2    0    0  0.10145329309E+00  0.26205729403E+00  0.30166489826E+01  0.30297092072E+01  0.00000000000E+00 0. -1.
</event>
<event>
 5    1  0.5849602E+001  0.1599599E+01  0.7818608E-02  0.3353799E+00
         11   -1    0    0    0    0  0.00000000000E+00  0.00000000000E+00  0.39999999674E+01  0.40000000000E+01  0.51100000000E-03 0.  1.
    9000002   -1    0    0    0    0 -0.00000000000E+00 -0.00000000000E+00  0.00000000000E+00  0.93800000000E+00  0.93800000000E+00 0.  1.
         11    1    1    2    0    0  0.24060683073E-03 -0.55010679360E-03  0.30912687196E-02  0.31902307797E-02  0.51100000000E-03 0.  1.
    9000002    1    1    2    0    0 -0.10339204583E+00  0.34423137289E+00  0.86774421695E-01  0.10082454828E+01  0.93800000000E+00 0.  1.
         22    1    1    2    0    0  0.10315143900E+00 -0.34368126610E+00  0.39101342769E+01  0.39265642865E+01  0.00000000000E+00 0.  1.
</event>
<event>
 5    1  0.5849602E+001  0.1599650E+01  0.7818608E-02  0.3353744E+00
         11   -1    0    0    0    0  0.00000000000E+00  0.00000000000E+00  0.39999999674E+01  0.40000000000E+01  0.51100000000E-03 0.  1.
    9000002   -1    0    0    0    0 -0.00000000000E+00 -0.00000000000E+00  0.00000000000E+00  0.93800000000E+00  0.93800000000E+00 0.  1.
         11    1    1    2    0    0 -0.70318744822E-03 -0.19669360625E-02  0.17831531053E-01  0.17960733024E-01  0.51100000000E-03 0.  1.
    9000002    1    1    2    0    0  0.29859229153E+00  0.43134210718E+00  0.18922869308E+00  0.10912675512E+01  0.93800000000E+00 0.  1.
         22    1    1    2    0    0 -0.29788910408E+00 -0.42937517111E+00  0.37929397432E+01  0.38287717158E+01  0.00000000000E+00 0.  1.
</event>
<event>
 5    1  0.5849602E+001  0.1599663E+01  0.7818608E-02  0.3353730E+00
         11   -1    0    0    0    0  0.00000000000E+00  0.00000000000E+00  0.39999999674E+01  0.40000000000E+01  0.51100000000E-03 0. -1.
    9000002   -1    0    0    0    0 -0.00000000000E+00 -0.00000000000E+00  0.00000000000E+00  0.93800000000E+00  0.93800000000E+00 0. -1.
         11    1    1    2    0    0 -0.40575428367E-01 -0.15174184986E+00  0.90942963012E+00  0.92289461351E+00  0.51100000000E-03 0. -1.
    9000002    1    1    2    0    0  0.14990504255E+00  0.61767631881E+00  0.28412718068E+00  0.11681471703E+01  0.93800000000E+00 0. -1.
         22    1    1    2    0    0 -0.10932961419E+00 -0.46593446895E+00  0.28064431566E+01  0.28469582162E+01  0.00000000000E+00 0. -1.
</event>
<event>
 5    1  0.5849602E+001  0.1599675E+01  0.7818608E-02  0.3353716E+00
         11   -1    0    0    0    0  0.00000000000E+00  0.00000000000E+00  0.39999999674E+01  0.40000000000E+01  0.51100000000E-03 0.  1.
    9000002   -1    0    0    0    0 -0.00000000000E+00 -0.00000000000E+00  0.00000000000E+00  0.93800000000E+00  0.93800000000E+00 0. -1.
         11    1    1    2    0    0 -0.16201825647E+00 -0.57994091257E-01  0.69779649959E+00  0.71870261305E+00  0.51100000000E-03 0.  1.
    9000002    1    1    2    0    0  0.80423759598E+00  0.28069922150E+00  0.54457503200E+00  0.13791287573E+01  0.93800000000E+00 0. -1.
         22    1    1    2    0    0 -0.64221933950E+00 -0.22270513024E+00  0.27576284358E+01  0.28401686296E+01  0.00000000000E+00 0. -1.
</event>
<event>
 5    1  0.5849602E+001  0.1587088E+01  0.7818608E-02  0.3367497E+00
         11   -1    0    0    0    0  0.00000000000E+00  0.00000000000E+00  0.39999999674E+01  0.40000000000E+01  0.51100000000E-03 0.  1.
    9000002   -1    0    0    0    0 -0.00000000000E+00 -0.00000000000E+00  0.00000000000E+00  0.93800000000E+00  0.93800000000E+00 0. -1.
         11    1    1    2    0    0  0.49313616102E-01  0.86781464671E-02  0.14899654101E+00  0.15718579233E+00  0.51100000000E-03 0.  1.
    9000002    1    1    2    0    0 -0.69726235436E-01  0.39321377959E+00  0.11810713307E+00  0.10262904653E+01  0.93800000000E+00 0. -1.
         22    1    1    2    0    0  0.20412619334E-01 -0.40189192606E+00  0.37328962933E+01  0.37545237423E+01  0.00000000000E+00 0.  1.
</event>
<event>
 5    1  0.5849602E+001  0.1599676E+01  0.7818608E-02  0.3353715E+00
         11   -1    0    0    0    0  0.00000000000E+00  0.00000000000E+00  0.39999999674E+01  0.40000000000E+01  0.51100000000E-03 0. -1.
    9000002   -1    0    0    0    0 -0.00000000000E+00 -0.00000000000E+00  0.00000000000E+00  0.93800000000E+00  0.93800000000E+00 0.  1.
         11    1    1    2    0    0 -0.41270340735E-01 -0.10139654173E+00  0.95291596294E+00  0.95918381619E+00  0.51100000000E-03 0. -1.
    9000002    1    1    2    0    0  0.17085587230E+00  0.41116861520E+00  0.13455621304E+00  0.10469960524E+01  0.93800000000E+00 0.  1.
         22    1    1    2    0    0 -0.12958553156E+00 -0.30977207347E+00  0.29125277914E+01  0.29318201314E+01  0.00000000000E+00 0. -1.
</event>
<event>
 5    1  0.5849602E+001  0.1599669E+01  0.7818608E-02  0.3353723E+00
         11   -1    0    0    0    0  0.00000000000E+00  0.00000000000E+00  0.39999999674E+01  0.40000000000E+01  0.51100000000E-03 0.  1.
    9000002   -1    0    0    0    0 -0.00000000000E+00 -0.00000000000E+00  0.00000000000E+00  0.93800000000E+00  0.93800000000E+00 0.  1.
         11    1    1    2    0    0  0.10143686864E+00 -0.77765103694E-01  0.13978687631E+01  0.14037001780E+01  0.51100000000E-03 0.  1.
    9000002    1    1    2    0    0 -0.29239274505E+00  0.21463126315E+00  0.88345056011E-01  0.10095587875E+01  0.93800000000E+00 0.  1.
         22    1    1    2    0    0  0.19095587641E+00 -0.13686615946E+00  0.25137861483E+01  0.25247410345E+01  0.00000000000E+00 0.  1.
</event>
<event>
 5    1  0.5849602E+001  0.1599677E+01  0.7818608E-02  0.3353714E+00
         11   -1    0    0    0    0  0.00000000000E+00  0.00000000000E+00  0.39999999674E+01  0.40000000000E+01  0.51100000000E-03 0. -1.
    9000002   -1    0    0    0    0 -0.00000000000E+00 -0.00000000000E+00  0.00000000000E+00  0.93800000000E+00  0.93800000000E+00 0.  1.
         11    1    1    2    0    0  0.16050143841E+00 -0.64907776240E-01  0.10055356736E+01  0.10203313105E+01  0.51100000000E-03 0.  1.
    9000002    1    1    2    0    0 -0.59209892387E+00  0.24099617993E+00  0.28763816273E+00  0.11709995760E+01  0.93800000000E+00 0.  1.
         22    1    1    2    0    0  0.43159748547E+00 -0.17608840370E+00  0.27068261310E+01  0.27466691135E+01  0.00000000000E+00 0. -1.
</event>
<event>
 5    1  0.5849602E+001  0.1599674E+01  0.7818608E-02  0.3353717E+00
         11   -1    0    0    0    0  0.00000000000E+00  0.00000000000E+00  0.39999999674E+01  0.40000000000E+01  0.51100000000E-03 0.  1.
    9000002   -1    0    0    0    0 -0.00000000000E+00 -0.00000000000E+00  0.00000000000E+00  0.93800000000E+00  0.93800000000E+00 0.  1.
         11    1    1    2    0    0  0.14473807867E-01 -0.13074145209E+00  0.11178642381E+01  0.11255769785E+01  0.51100000000E-03 0.  1.
    9000002    1    1    2    0    0 -0.55645183988E-01  0.44955491431E+00  0.13942972924E+00  0.10509427467E+01  0.93800000000E+00 0.  1.
         22    1    1    2    0    0  0.41171376121E-01 -0.31881346222E+00  0.27427060000E+01  0.27614802748E+01  0.00000000000E+00 0.  1.
</event>
<event>
 5    1  0.5849602E+001  0.1536114E+01  0.7818608E-02  0.3425763E+00
         11   -1    0    0    0    0  0.00000000000E+00  0.00000000000E+00  0.39999999674E+01  0.40000000000E+01  0.51100000000E-03 0.  1.
    9000002   -1    0    0    0    0 -0.00000000000E+00 -0.00000000000E+00  0.00000000000E+00  0.93800000000E+00  0.93800000000E+00 0.  1.
         11    1    1    2    0    0  0.24192032842E+00 -0.21255346102E-01  0.10156888035E+01  0.10443185538E+01  0.51100000000E-03 0.  1.
    9000002    1    1    2    0    0  0.90640985680E-01  0.15817815410E+00  0.70924974210E-01  0.95818081211E+00  0.93800000000E+00 0.  1.
         22    1    1    2    0    0 -0.33256131410E+00 -0.13692280800E+00  0.29133861896E+01  0.29355006341E+01  0.00000000000E+00 0.  1.
</event>
<event>
 5    1  0.5849602E+001  0.1599667E+01  0.7818608E-02  0.3353725E+00
         11   -1    0    0    0    0  0.00000000000E+00  0.00000000000E+00  0.39999999674E+01  0.40000000000E+01  0.51100000000E-03 0. -1.
    9000002   -1    0    0    0    0 -0.00000000000E+00 -0.00000000000E+00  0.00000000000E+00  0.93800000000E+00  0.93800000000E+00 0. -1.
         11    1    1    2    0    0 -0.21363841485E-01  0.62755242269E-01  0.70202013133E+00  0.70514336136E+00  0.51100000000E-03 0. -1.
    9000002    1    1    2    0    0  0.12277502288E+00 -0.33439399450E+00  0.85149924873E-01  0.10069694928E+01  0.93800000000E+00 0. -1.
         22    1    1    2    0    0 -0.10141118139E+00  0.27163875223E+00  0.32128299112E+01  0.32258871458E+01  0.00000000000E+00 0. -1.
</event>
<event>
 5    1  0.5849602E+001  0.1595438E+01  0.7818608E-02  0.3358330E+00
         11   -1    0    0    0    0  0.00000000000E+00  0.00000000000E+00  0.39999999674E+01  0.40000000000E+01  0.51100000000E-03 0. -1.
    9000002   -1    0    0    0    0 -0.00000000000E+00 -0.00000000000E+00  0.00000000000E+00  0.93800000000E+00  0.93800000000E+00 0.  1.
         11    1    1    2    0    0 -0.63469267977E-02 -0.54178462710E-01  0.66814866681E+00  0.67037190528E+00  0.51100000000E-03 0. -1.
    9000002    1    1    2    0    0  0.36021653493E+00  0.19784705275E+00  0.11765214516E+00  0.10308178479E+01  0.93800000000E+00 0.  1.
         22    1    1    2    0    0 -0.35386960813E+00 -0.14366859004E+00  0.32141991554E+01  0.32368102468E+01  0.00000000000E+00 0. -1.
</event>
<event>
 5    1  0.5849602E+001  0.1599650E+01  0.7818608E-02  0.3353744E+00
         11   -1    0    0    0    0  0.00000000000E+00  0.00000000000E+00  0.39999999674E+01  0.40000000000E+01  0.51100000000E-03 0.  1.
    9000002   -1    0    0    0    0 -0.00000000000E+00 -0.00000000000E+00  0.00000000000E+00  0.93800000000E+00  0.93800000000E+00 0.  1.
         11    1    1    2    0    0 -0.10127706158E+00 -0.37928776027E-01  0.10816328913E+01  0.10870260383E+01  0.51100000000E-03 0.  1.
    9000002    1    1    2    0    0  0.34743694107E+00  0.12821637924E+00  0.92197427888E-01  0.10126678792E+01  0.93800000000E+00 0.  1.
         22    1    1    2    0    0 -0.24615987950E+00 -0.90287603213E-01  0.28261696482E+01  0.28383060825E+01  0.00000000000E+00 0.  1.
</event>
<event>
 5    1  0.5849602E+001  0.1599668E+01  0.7818608E-02  0.3353724E+00
         11   -1    0    0    0    0  0.00000000000E+00  0.00000000000E+00  0.39999999674E+01  0.40000000000E+01  0.51100000000E-03 0.  1.
    9000002   -1    0    0    0    0 -0.00000000000E+00 -0.00000000000E+00  0.00000000000E+00  0.93800000000E+00  0.93800000000E+00 0.  1.
         11    1    1    2    0    0 -0.27667584554E+00  0.14755035542E-01  0.12319654731E+01  0.12627376698E+01  0.51100000000E-03 0.  1.
    9000002    1    1    2    0    0  0.80144029936E+00 -0.44817116110E-01  0.47506273031E+00  0.13228165878E+01  0.93800000000E+00 0.  1.
         22    1    1    2    0    0 -0.52476445383E+00  0.30062080568E-01  0.22929717639E+01  0.23524457424E+01  0.00000000000E+00 0.  1.
</event>
<event>
 5    1  0.5849602E+001  0.1512891E+01  0.7818608E-02  0.3453698E+00
         11   -1    0    0    0    0  0.00000000000E+00  0.00000000000E+00  0.39999999674E+01  0.40000000000E+01  0.51100000000E-03 0.  1.
    9000002   -1    0    0    0    0 -0.00000000000E+00 -0.00000000000E+00  0.00000000000E+00  0.93800000000E+00  0.93800000000E+00 0.  1.
         11    1    1    2    0    0 -0.20735848801E-01  0.28761537295E+00  0.84997619613E+00  0.89755911967E+00  0.51100000000E-03 0.  1.
    9000002    1    1    2    0    0 -0.12458845994E+00  0.11275124925E-01  0.76928801343E-01  0.94942690781E+00  0.93800000000E+00 0.  1.
         22    1    1    2    0    0  0.14532430874E+00 -0.29889049787E+00  0.30730949699E+01  0.30910139725E+01  0.00000000000E+00 0. -1.
</event>
<event>
 5    1  0.5849602E+001  0.1599676E+01  0.7818608E-02  0.3353715E+00
         11   -1    0    0    0    0  0.00000000000E+00  0.00000000000E+00  0.39999999674E+01  0.40000000000E+01  0.51100000000E-03 0. -1.
    9000002   -1    0    0    0    0 -0.00000000000E+00 -0.00000000000E+00  0.00000000000E+00  0.93800000000E+00  0.93800000000E+00 0.  1.
         11    1    1    2    0    0 -0.10854581984E+00  0.76960750202E-01  0.86851674376E+00  0.87865052631E+00  0.51100000000E-03 0. -1.
    9000002    1    1    2    0    0  0.46965087379E+00 -0.33137591230E+00  0.22930476756E+00  0.11237466863E+01  0.93800000000E+00 0.  1.
         22    1    1    2    0    0 -0.36110505395E+00  0.25441516210E+00  0.29021784560E+01  0.29356027874E+01  0.00000000000E+00 0. -1.
</event>
<event>
 5    1  0.5849602E+001  0.1560918E+01  0.7818608E-02  0.3396905E+00
         11   -1    0    0    0    0  0.00000000000E+00  0.00000000000E+00  0.39999999674E+01  0.40000000000E+01  0.51100000000E-03 0. -1.
    9000002   -1    0    0    0    0 -0.00000000000E+00 -0.00000000000E+00  0.00000000000E+00  0.93800000000E+00  0.93800000000E+00 0.  1.
         11    1    1    2    0    0  0.22043566474E+00 -0.26706166913E+00  0.97873171784E+00  0.10381858475E+01  0.51100000000E-03 0. -1.
    9000002    1    1    2    0    0 -0.11919581832E+00  0.63208193532E+00  0.33316018124E+00  0.11851476374E+01  0.93800000000E+00 0.  1.
         22    1    1    2    0    0 -0.10123984642E+00 -0.36502026619E+00  0.26881080683E+01  0.27146665151E+01  0.00000000000E+00 0. -1.
</event>
<event>
 5    1  0.5849602E+001  0.1587893E+01  0.7818608E-02  0.3366610E+00
         11   -1    0    0    0    0  0.00000000000E+00  0.00000000000E+00  0.39999999674E+01  0.40000000000E+01  0.51100000000E-03 0.  1.
    9000002   -1    0    0    0    0 -0.00000000000E+00 -0.00000000000E+00  0.00000000000E+00  0.93800000000E+00  0.93800000000E+00 0.  1.
         11    1    1    2    0    0 -0.79831198813E-03  0.37054913652E-01  0.79702026212E-01  0.87899818152E-01  0.51100000000E-03 0.  1.
    9000002    1    1    2    0    0 -0.40486413314E+00 -0.16908527705E-01  0.12073885315E+00  0.10288939378E+01  0.93800000000E+00 0.  1.
         22    1    1    2    0    0  0.40566244512E+00 -0.20146385948E-01  0.37995590880E+01  0.38212062440E+01  0.00000000000E+00 0.  1.
</event>
<event>
 5    1  0.5849602E+001  0.1599314E+01  0.7818608E-02  0.3354108E+00
         11   -1    0    0    0    0  0.00000000000E+00  0.00000000000E+00  0.39999999674E+01  0.40000000000E+01  0.51100000000E-03 0. -1.
    9000002   -1    0    0    0    0 -0.00000000000E+00 -0.00000000000E+00  0.00000000000E+00  0.93800000000E+00  0.93800000000E+00 0.  1.
         11    1    1    2    0    0 -0.48435916274E-01 -0.11070111405E+00  0.11947673190E+01  0.12008621829E+01  0.51100000000E-03 0. -1.
    9000002    1    1    2    0    0  0.22316314106E+00  0.33916928012E+00  0.11157590563E+00  0.10281686490E+01  0.93800000000E+00 0.  1.
         22    1    1    2    0    0 -0.17472722478E+00 -0.22846816607E+00  0.26936567427E+01  0.27089691681E+01  0.00000000000E+00 0. -1.
</event>
<event>
 5    1  0.1197208E+002  0.1568640E+01  0.7818608E-02  0.3388120E+00
         11   -1    0    0    0    0  0.00000000000E+00  0.00000000000E+00  0.39999999674E+01  0.40000000000E+01  0.51100000000E-03 0. -1.
    9000002   -1    0    0    0    0 -0.00000000000E+00 -0.00000000000E+00  0.00000000000E+00  0.93800000000E+00  0.93800000000E+00 0.  1.
         11    1    1    2    0    0  0.11252909477E+00 -0.11696190361E+00  0.10740084998E+01  0.10862032051E+01  0.51100000000E-03 0. -1.
    9000002    1    1    2    0    0  0.16704356257E-01 -0.11351295716E+00  0.31756091880E-01  0.94552455089E+00  0.93800000000E+00 0.  1.
         22    1    1    2    0    0 -0.12923345102E+00  0.23047486077E+00  0.28942353757E+01  0.29062722440E+01  0.00000000000E+00 0. -1.
</event>
<event>
 5    1  0.5849602E+001  0.1599675E+01  0.7818608E-02  0.3353716E+00
         11   -1    0    0    0    0  0.00000000000E+00  0.00000000000E+00  0.39999999674E+01  0.40000000000E+01  0.51100000000E-03 0.  1.
    9000002   -1    0    0    0    0 -0.00000000000E+00 -0.00000000000E+00  0.00000000000E+00  0.93800000000E+00  0.93800000000E+00 0. -1.
         11    1    1    2    0    0 -0.17043771953E+00  0.44358068171E-01  0.10960215241E+01  0.11100811217E+01  0.51100000000E-03 0.  1.
    9000002    1    1    2    0    0  0.58672437128E+00 -0.15263852088E+00  0.25678210703E+00  0.11460039513E+01  0.93800000000E+00 0. -1.
         22    1    1    2    0    0 -0.41628665175E+00  0.10828045271E+00  0.26471963362E+01  0.26819149270E+01  0.00000000000E+00 0.  1.
</event>
<event>
 5    1  0.5849602E+001  0.1597495E+01  0.7818608E-02  0.3356086E+00
         11   -1    0    0    0    0  0.00000000000E+00  0.00000000000E+00  0.39999999674E+01  0.40000000000E+01  0.51100000000E-03 0.  1.
    9000002   -1    0    0    0    0 -0.00000000000E+00 -0.00000000000E+00  0.00000000000E+00  0.93800000000E+00  0.93800000000E+00 0.  1.
         11    1    1    2    0    0 -0.16743669499E-01  0.18071351309E+00  0.11723720544E+01  0.11863364697E+01  0.51100000000E-03 0.  1.
    9000002    1    1    2    0    0 -0.36458259333E-01 -0.45035803334E+00  0.14058335530E+00  0.10505994682E+01  0.93800000000E+00 0.  1.
         22    1    1    2    0    0  0.53201928831E-01  0.26964452025E+00  0.26870445576E+01  0.27010640620E+01  0.00000000000E+00 0.  1.
</event>
<event>
 5    1  0.5849602E+001  0.1492872E+01  0.7818608E-02  0.3478528E+00
         11   -1    0    0    0    0  0.00000000000E+00  0.00000000000E+00  0.39999999674E+01  0.40000000000E+01  0.51100000000E-03 0.  1.
    9000002   -1    0    0    0    0 -0.00000000000E+00 -0.00000000000E+00  0.00000000000E+00  0.93800000000E+00  0.93800000000E+00 0. -1.
         11    1    1    2    0    0  0.18273294159E+00  0.17142665830E+00  0.47085942031E+00  0.53337349196E+00  0.51100000000E-03 0.  1.
    9000002    1    1    2    0    0  0.12214865875E+00 -0.72475842292E-03  0.92682381612E-01  0.95044981139E+00  0.93800000000E+00 0. -1.
         22    1    1    2    0    0 -0.30488160034E+00 -0.17070189987E+00  0.34364581654E+01  0.34541766966E+01  0.00000000000E+00 0.  1.
</event>
<event>
 5    1  0.5849602E+001  0.1467875E+01  0.7818608E-02  0.3510562E+00
         11   -1    0    0    0    0  0.00000000000E+00  0.00000000000E+00  0.39999999674E+01  0.40000000000E+01  0.51100000000E-03 0. -1.
    9000002   -1    0    0    0    0 -0.00000000000E+00 -0.00000000000E+00  0.00000000000E+00  0.93800000000E+00  0.93800000000E+00 0.  1.
         11    1    1    2    0    0  0.25183513855E+00 -0.25400091661E-01  0.34194803785E+00  0.42543486384E+00  0.51100000000E-03 0. -1.
    9000002    1    1    2    0    0  0.14722839083E-01 -0.46572518057E+00  0.27389030912E+00  0.10825786841E+01  0.93800000000E+00 0.  1.
         22    1    1    2    0    0 -0.26655797763E+00  0.49112527223E+00  0.33841616204E+01  0.34299864521E+01  0.00000000000E+00 0. -1.
</event>
<event>
 5    1  0.5849602E+001  0.1599671E+01  0.7818608E-02  0.3353721E+00
         11   -1    0    0    0    0  0.00000000000E+00  0.00000000000E+00  0.39999999674E+01  0.40000000000E+01  0.51100000000E-03 0. -1.
    9000002   -1    0    0    0    0 -0.00000000000E+00 -0.00000000000E+00  0.00000000000E+00  0.93800000000E+00  0.93800000000E+00 0.  1.
         11    1    1    2    0    0 -0.17440506487E+00 -0.15738786881E+00  0.93179673513E+00  0.96095446543E+00  0.51100000000E-03 0. -1.
    9000002    1    1    2    0    0  0.63964753640E+00  0.57328571833E+00  0.55528197241E+00  0.13877995369E+01  0.93800000000E+00 0. -1.
         22    1    1    2    0    0 -0.46524247153E+00 -0.41589784952E+00  0.25129212598E+01  0.25892459977E+01  0.00000000000E+00 0. -1.
</event>
<event>
 5    1  0.5849602E+001  0.1599677E+01  0.7818608E-02  0.3353714E+00
         11   -1    0    0    0    0  0.00000000000E+00  0.00000000000E+00  0.39999999674E+01  0.40000000000E+01  0.51100000000E-03 0. -1.
    9000002   -1    0    0    0    0 -0.00000000000E+00 -0.00000000000E+00  0.00000000000E+00  0.93800000000E+00  0.93800000000E+00 0.  1.
         11    1    1    2    0    0 -0.74778616993E-01 -0.77493016991E-02  0.45769529290E+00  0.46382877822E+00  0.51100000000E-03 0.  1.
    9000002    1    1    2    0    0  0.61169862933E+00  0.61617697511E-01  0.26456062211E+00  0.11523056350E+01  0.93800000000E+00 0.  1.
         22    1    1    2    0    0 -0.53692001234E+00 -0.53868395812E-01  0.32777440523E+01  0.33218655867E+01  0.00000000000E+00 0. -1.
</event>
<event>
 5    1  0.5849602E+001  0.1555262E+01  0.7818608E-02  0.3403399E+00
         11   -1    0    0    0    0  0.00000000000E+00  0.00000000000E+00  0.39999999674E+01  0.40000000000E+01  0.51100000000E-03 0.  1.
    9000002   -1    0    0    0    0 -0.00000000000E+00 -0.00000000000E+00  0.00000000000E+00  0.93800000000E+00  0.93800000000E+00 0.  1.
         11    1    1    2    0    0 -0.95296678266E-01 -0.13288633729E+00  0.75041068400E+00  0.76802128311E+00  0.51100000000E-03 0.  1.
    9000002    1    1    2    0    0  0.41489101432E+00 -0.34807905335E+00  0.24510381592E+00  0.11105014461E+01  0.93800000000E+00 0.  1.
         22    1    1    2    0    0 -0.31959433605E+00  0.48096539064E+00  0.30044854674E+01  0.30594772708E+01  0.00000000000E+00 0.  1.
</event>
<event>
 5    1  0.5849602E+001  0.1595533E+01  0.7818608E-02  0.3358226E+00
         11   -1    0    0    0    0  0.00000000000E+00  0.00000000000E+00  0.39999999674E+01  0.40000000000E+01  0.51100000000E-03 0. -1.
    9000002   -1    0    0    0    0 -0.00000000000E+00 -0.00000000000E+00  0.00000000000E+00  0.93800000000E+00  0.93800000000E+00 0.  1.
         11    1    1    2    0    0 -0.14452425869E-01 -0.80674670406E-02  0.63026700563E+00  0.63048450905E+00  0.51100000000E-03 0. -1.
    9000002    1    1    2    0    0 -0.22156172871E+00  0.21983553494E+00  0.68334943951E-01  0.99092427895E+00  0.93800000000E+00 0.  1.
         22    1    1    2    0    0  0.23601415458E+00 -0.21176806790E+00  0.33013980178E+01  0.33165912120E+01  0.00000000000E+00 0. -1.
</event>
