<event>
 5    1  0.7095115E+001  0.1432628E+01  0.7818608E-02  0.3557799E+00
         11   -1    0    0    0    0  0.00000000000E+00  0.00000000000E+00  0.39999999674E+01  0.40000000000E+01  0.51100000000E-03 0.  1.
    9000002   -1    0    0    0    0 -0.00000000000E+00 -0.00000000000E+00  0.00000000000E+00  0.93800000000E+00  0.93800000000E+00 0. -1.
         11    1    1    2    0    0  0.42919739894E+00 -0.65314807214E+00  0.11602604087E+01  0.13989343403E+01  0.51100000000E-03 0.  1.
    9000002    1    1    2    0    0 -0.26835712911E+00  0.78762166513E+00  0.79730915299E+00  0.14859035371E+01  0.93800000000E+00 0. -1.
         22    1    1    2    0    0 -0.16084026983E+00 -0.13447359299E+00  0.20424304057E+01  0.20531621226E+01  0.00000000000E+00 0. -1.
</event>
<event>
 5    1  0.7095115E+001  0.1597035E+01  0.7818608E-02  0.3356588E+00
         11   -1    0    0    0    0  0.00000000000E+00  0.00000000000E+00  0.39999999674E+01  0.40000000000E+01  0.51100000000E-03 0.  1.
    9000002   -1    0    0    0    0 -0.00000000000E+00 -0.00000000000E+00  0.00000000000E+00  0.93800000000E+00  0.93800000000E+00 0. -1.
         11    1    1    2    0    0 -0.21245284714E-01  0.28998282495E+00  0.13384355087E+01  0.13696537055E+01  0.51100000000E-03 0.  1.
    9000002    1    1    2    0    0  0.40873022664E-01 -0.63743563790E+00  0.28988351865E+00  0.11712690770E+01  0.93800000000E+00 0. -1.
         22    1    1    2    0    0 -0.19627737951E-01  0.34745281295E+00  0.23716809400E+01  0.23970772175E+01  0.00000000000E+00 0.  1.
</event>
<event>
 5    1  0.7095115E+001  0.1599658E+01  0.7818608E-02  0.3353734E+00
         11   -1    0    0    0    0  0.00000000000E+00  0.00000000000E+00  0.39999999674E+01  0.40000000000E+01  0.51100000000E-03 0.  1.
    9000002   -1    0    0    0    0 -0.00000000000E+00 -0.00000000000E+00  0.00000000000E+00  0.93800000000E+00  0.93800000000E+00 0. -1.
         11    1    1    2    0    0  0.17737453075E-01  0.32438145582E-02  0.17848405003E+00  0.17939330203E+00  0.51100000000E-03 0.  1.
    9000002    1    1    2    0    0 -0.43080347516E+00 -0.65313804863E-01  0.12869810639E+00  0.10422402458E+01  0.93800000000E+00 0. -1.
         22    1    1    2    0    0  0.41306602208E+00  0.62069990305E-01  0.36928178109E+01  0.37163664522E+01  0.00000000000E+00 0.  1.
</event>
<event>
 5    1  0.7095115E+001  0.1599569E+01  0.7818608E-02  0.3353831E+00
         11   -1    0    0    0    0  0.00000000000E+00  0.00000000000E+00  0.39999999674E+01  0.40000000000E+01  0.51100000000E-03 0.  1.
    9000002   -1    0    0    0    0 -0.00000000000E+00 -0.00000000000E+00  0.00000000000E+00  0.93800000000E+00  0.93800000000E+00 0. -1.
         11    1    1    2    0    0  0.35558832400E-01 -0.57367363782E-01  0.21074907231E+00  0.22129364561E+00  0.51100000000E-03 0.  1.
    9000002    1    1    2    0    0 -0.45385611529E+00  0.90924522523E+00  0.83896144871E+00  0.16175328638E+01  0.93800000000E+00 0. -1.
         22    1    1    2    0    0  0.41829728289E+00 -0.85187786144E+00  0.29502894463E+01  0.30991734906E+01  0.00000000000E+00 0.  1.
</event>
<event>
 5    1  0.7095115E+001  0.1599634E+01  0.7818608E-02  0.3353761E+00
         11   -1    0    0    0    0  0.00000000000E+00  0.00000000000E+00  0.39999999674E+01  0.40000000000E+01  0.51100000000E-03 0.  1.
    9000002   -1    0    0    0    0 -0.00000000000E+00 -0.00000000000E+00  0.00000000000E+00  0.93800000000E+00  0.93800000000E+00 0. -1.
         11    1    1    2    0    0 -0.62088596271E-01 -0.70283038417E-01  0.55267603791E+00  0.56057627784E+00  0.51100000000E-03 0.  1.
    9000002    1    1    2    0    0  0.38238806559E+00  0.48237757678E+00  0.26530419466E+00  0.11528829407E+01  0.93800000000E+00 0. -1.
         22    1    1    2    0    0 -0.32029946932E+00 -0.41209453836E+00  0.31820197348E+01  0.32245407814E+01  0.00000000000E+00 0.  1.
</event>
<event>
 5    1  0.7095115E+001  0.1599675E+01  0.7818608E-02  0.3353716E+00
         11   -1    0    0    0    0  0.00000000000E+00  0.00000000000E+00  0.39999999674E+01  0.40000000000E+01  0.51100000000E-03 0.  1.
    9000002   -1    0    0    0    0 -0.00000000000E+00 -0.00000000000E+00  0.00000000000E+00  0.93800000000E+00  0.93800000000E+00 0.  1.
         11    1    1    2    0    0 -0.32454282979E-01  0.80477917008E-01  0.78598305853E+00  0.79075887919E+00  0.51100000000E-03 0.  1.
    9000002    1    1    2    0    0  0.15359838405E+00 -0.39662201228E+00  0.12243534841E+00  0.10371768888E+01  0.93800000000E+00 0.  1.
         22    1    1    2    0    0 -0.12114410107E+00  0.31614409528E+00  0.30915815604E+01  0.31100642320E+01  0.00000000000E+00 0.  1.
</event>
<event>
 5    1  0.7095115E+001  0.1599676E+01  0.7818608E-02  0.3353715E+00
         11   -1    0    0    0    0  0.00000000000E+00  0.00000000000E+00  0.39999999674E+01  0.40000000000E+01  0.51100000000E-03 0.  1.
    9000002   -1    0    0    0    0 -0.00000000000E+00 -0.00000000000E+00  0.00000000000E+00  0.93800000000E+00  0.93800000000E+00 0.  1.
         11    1    1    2    0    0  0.23387995158E-01  0.19397103553E+00  0.14083431215E+01  0.14218306404E+01  0.51100000000E-03 0.  1.
    9000002    1    1    2    0    0 -0.64692742757E-01 -0.52216657404E+00  0.19037741072E+00  0.10922136423E+01  0.93800000000E+00 0.  1.
         22    1    1    2    0    0  0.41304747598E-01  0.32819553851E+00  0.24012794351E+01  0.24239557172E+01  0.00000000000E+00 0.  1.
</event>
<event>
 5    1  0.7095115E+001  0.1596942E+01  0.7818608E-02  0.3356689E+00
         11   -1    0    0    0    0  0.00000000000E+00  0.00000000000E+00  0.39999999674E+01  0.40000000000E+01  0.51100000000E-03 0.  1.
    9000002   -1    0    0    0    0 -0.00000000000E+00 -0.00000000000E+00  0.00000000000E+00  0.93800000000E+00  0.93800000000E+00 0. -1.
         11    1    1    2    0    0  0.11541862653E+00  0.48223660526E-01  0.90824900328E+00  0.91682249856E+00  0.51100000000E-03 0.  1.
    9000002    1    1    2    0    0 -0.29553309289E+00 -0.32062650458E+00  0.13122084511E+00  0.10426907857E+01  0.93800000000E+00 0. -1.
         22    1    1    2    0    0  0.18011446635E+00  0.27240284405E+00  0.29605301190E+01  0.29784867157E+01  0.00000000000E+00 0.  1.
</event>
<event>
 5    1  0.7095115E+001  0.1599369E+01  0.7818608E-02  0.3354049E+00
         11   -1    0    0    0    0  0.00000000000E+00  0.00000000000E+00  0.39999999674E+01  0.40000000000E+01  0.51100000000E-03 0.  1.
    9000002   -1    0    0    0    0 -0.00000000000E+00 -0.00000000000E+00  0.00000000000E+00  0.93800000000E+00  0.93800000000E+00 0.  1.
         11    1    1    2    0    0 -0.67422313186E-02 -0.78688250409E-02  0.20704761195E+00  0.20730738247E+00  0.51100000000E-03 0.  1.
    9000002    1    1    2    0    0  0.21783572053E+00  0.30270197685E+00  0.93752077866E-01  0.10137624673E+01  0.93800000000E+00 0.  1.
         22    1    1    2    0    0 -0.21109348922E+00 -0.29483315181E+00  0.36992002775E+01  0.37169301503E+01  0.00000000000E+00 0.  1.
</event>
<event>
 5    1  0.7095115E+001  0.1596438E+01  0.7818608E-02  0.3357239E+00
         11   -1    0    0    0    0  0.00000000000E+00  0.00000000000E+00  0.39999999674E+01  0.40000000000E+01  0.51100000000E-03 0.  1.
    9000002   -1    0    0    0    0 -0.00000000000E+00 -0.00000000000E+00  0.00000000000E+00  0.93800000000E+00  0.93800000000E+00 0. -1.
         11    1    1    2    0    0 -0.23989669286E-01 -0.11878186265E+00  0.11886157165E+01  0.11947770578E+01  0.51100000000E-03 0.  1.
    9000002    1    1    2    0    0  0.13605868883E+00  0.56979775092E+00  0.24190220257E+00  0.11320521717E+01  0.93800000000E+00 0. -1.
         22    1    1    2    0    0 -0.11206901955E+00 -0.45101588827E+00  0.25694820483E+01  0.26111707706E+01  0.00000000000E+00 0. -1.
</event>
<event>
 5    1  0.7095115E+001  0.1598275E+01  0.7818608E-02  0.3355237E+00
         11   -1    0    0    0    0  0.00000000000E+00  0.00000000000E+00  0.39999999674E+01  0.40000000000E+01  0.51100000000E-03 0. -1.
    9000002   -1    0    0    0    0 -0.00000000000E+00 -0.00000000000E+00  0.00000000000E+00  0.93800000000E+00  0.93800000000E+00 0.  1.
         11    1    1    2    0    0  0.46740815793E-01  0.27716835824E-01  0.60708423875E+00  0.60951165773E+00  0.51100000000E-03 0. -1.
    9000002    1    1    2    0    0 -0.49857162794E+00 -0.20149298068E+00  0.20058312554E+00  0.10996593471E+01  0.93800000000E+00 0.  1.
         22    1    1    2    0    0  0.45183081215E+00  0.17377614486E+00  0.31923326031E+01  0.32288289952E+01  0.00000000000E+00 0. -1.
</event>
<event>
 5    1  0.7095115E+001  0.1599642E+01  0.7818608E-02  0.3353753E+00
         11   -1    0    0    0    0  0.00000000000E+00  0.00000000000E+00  0.39999999674E+01  0.40000000000E+01  0.51100000000E-03 0. -1.
    9000002   -1    0    0    0    0 -0.00000000000E+00 -0.00000000000E+00  0.00000000000E+00  0.93800000000E+00  0.93800000000E+00 0. -1.
         11    1    1    2    0    0 -0.49769031949E-01  0.34606198419E-01  0.36534591522E+00  0.37034098396E+00  0.51100000000E-03 0. -1.
    9000002    1    1    2    0    0  0.52128766939E+00 -0.39053473490E+00  0.29951188535E+00  0.11805971298E+01  0.93800000000E+00 0. -1.
         22    1    1    2    0    0 -0.47151863744E+00  0.35592853648E+00  0.33351421668E+01  0.33870618862E+01  0.00000000000E+00 0. -1.
</event>
<event>
 5    1  0.7095115E+001  0.1590436E+01  0.7818608E-02  0.3363810E+00
         11   -1    0    0    0    0  0.00000000000E+00  0.00000000000E+00  0.39999999674E+01  0.40000000000E+01  0.51100000000E-03 0.  1.
    9000002   -1    0    0    0    0 -0.00000000000E+00 -0.00000000000E+00  0.00000000000E+00  0.93800000000E+00  0.93800000000E+00 0.  1.
         11    1    1    2    0    0 -0.26115525575E+00 -0.68079303057E-02  0.80404992795E+00  0.84542590644E+00  0.51100000000E-03 0.  1.
    9000002    1    1    2    0    0  0.75542111457E+00  0.21777824972E+00  0.46501400449E+00  0.13092633237E+01  0.93800000000E+00 0.  1.
         22    1    1    2    0    0 -0.49426585882E+00 -0.21097031941E+00  0.27309360349E+01  0.27833107699E+01  0.00000000000E+00 0.  1.
</event>
<event>
 5    1  0.7095115E+001  0.1596376E+01  0.7818608E-02  0.3357307E+00
         11   -1    0    0    0    0  0.00000000000E+00  0.00000000000E+00  0.39999999674E+01  0.40000000000E+01  0.51100000000E-03 0. -1.
    9000002   -1    0    0    0    0 -0.00000000000E+00 -0.00000000000E+00  0.00000000000E+00  0.93800000000E+00  0.93800000000E+00 0.  1.
         11    1    1    2    0    0 -0.70818850260E-01 -0.29159596426E-01  0.61815394423E+00  0.62288052747E+00  0.51100000000E-03 0. -1.
    9000002    1    1    2    0    0  0.39238872625E+00 -0.13029185215E+00  0.11828732612E+00  0.10318821496E+01  0.93800000000E+00 0.  1.
         22    1    1    2    0    0 -0.32156987599E+00  0.15945144858E+00  0.32635586970E+01  0.32832373229E+01  0.00000000000E+00 0. -1.
</event>
<event>
 5    1  0.7095115E+001  0.1598766E+01  0.7818608E-02  0.3354704E+00
         11   -1    0    0    0    0  0.00000000000E+00  0.00000000000E+00  0.39999999674E+01  0.40000000000E+01  0.51100000000E-03 0. -1.
    9000002   -1    0    0    0    0 -0.00000000000E+00 -0.00000000000E+00  0.00000000000E+00  0.93800000000E+00  0.93800000000E+00 0. -1.
         11    1    1    2    0    0 -0.12118069958E+00 -0.13464956726E-01  0.10323459103E+01  0.10395212391E+01  0.51100000000E-03 0. -1.
    9000002    1    1    2    0    0  0.40279355125E+00  0.15932289701E+00  0.12790087728E+00  0.10410711142E+01  0.93800000000E+00 0. -1.
         22    1    1    2    0    0 -0.28161285168E+00 -0.14585794029E+00  0.28397531798E+01  0.28574076467E+01  0.00000000000E+00 0. -1.
</event>
<event>
 5    1  0.7095115E+001  0.1599677E+01  0.7818608E-02  0.3353714E+00
         11   -1    0    0    0    0  0.00000000000E+00  0.00000000000E+00  0.39999999674E+01  0.40000000000E+01  0.51100000000E-03 0.  1.
    9000002   -1    0    0    0    0 -0.00000000000E+00 -0.00000000000E+00  0.00000000000E+00  0.93800000000E+00  0.93800000000E+00 0.  1.
         11    1    1    2    0    0 -0.67578412830E-01 -0.32231853588E-01  0.80250405580E+00  0.80598930201E+00  0.51100000000E-03 0. -1.
    9000002    1    1    2    0    0  0.32840825612E+00  0.15719820886E+00  0.89026532276E-01  0.10101153315E+01  0.93800000000E+00 0.  1.
         22    1    1    2    0    0 -0.26082984329E+00 -0.12496635527E+00  0.31084693793E+01  0.31218953665E+01  0.00000000000E+00 0.  1.
</event>
<event>
 5    1  0.7095115E+001  0.1563729E+01  0.7818608E-02  0.3393697E+00
         11   -1    0    0    0    0  0.00000000000E+00  0.00000000000E+00  0.39999999674E+01  0.40000000000E+01  0.51100000000E-03 0. -1.
    9000002   -1    0    0    0    0 -0.00000000000E+00 -0.00000000000E+00  0.00000000000E+00  0.93800000000E+00  0.93800000000E+00 0. -1.
         11    1    1    2    0    0  0.60194920341E-01  0.20699266684E+00  0.13526888750E+01  0.13697579516E+01  0.51100000000E-03 0. -1.
    9000002    1    1    2    0    0  0.20946072883E+00 -0.10239642115E+00  0.63857963696E-01  0.96864888557E+00  0.93800000000E+00 0. -1.
         22    1    1    2    0    0 -0.26965564917E+00 -0.10459624569E+00  0.25834531287E+01  0.25995931628E+01  0.00000000000E+00 0. -1.
</event>
<event>
 5    1  0.7095115E+001  0.1531470E+01  0.7818608E-02  0.3431276E+00
         11   -1    0    0    0    0  0.00000000000E+00  0.00000000000E+00  0.39999999674E+01  0.40000000000E+01  0.51100000000E-03 0. -1.
    9000002   -1    0    0    0    0 -0.00000000000E+00 -0.00000000000E+00  0.00000000000E+00  0.93800000000E+00  0.93800000000E+00 0. -1.
         11    1    1    2    0    0 -0.20051984332E-02 -0.32092448319E+00  0.11221775754E+01  0.11671672188E+01  0.51100000000E-03 0. -1.
    9000002    1    1    2    0    0 -0.30550099063E+00  0.16919274209E+00  0.13885712673E+00  0.10104861904E+01  0.93800000000E+00 0. -1.
         22    1    1    2    0    0  0.30750618907E+00  0.15173174110E+00  0.27389652652E+01  0.27603465909E+01  0.00000000000E+00 0. -1.
</event>
<event>
 5    1  0.7095115E+001  0.1599666E+01  0.7818608E-02  0.3353726E+00
         11   -1    0    0    0    0  0.00000000000E+00  0.00000000000E+00  0.39999999674E+01  0.40000000000E+01  0.51100000000E-03 0.  1.
    9000002   -1    0    0    0    0 -0.00000000000E+00 -0.00000000000E+00  0.00000000000E+00  0.93800000000E+00  0.93800000000E+00 0.  1.
         11    1    1    2    0    0 -0.35039520520E-01  0.50767568424E-01  0.56310687912E+00  0.56647571213E+00  0.51100000000E-03 0.  1.
    9000002    1    1    2    0    0  0.25907022855E+00 -0.35469821550E+00  0.13083832127E+00  0.10439783876E+01  0.93800000000E+00 0.  1.
         22    1    1    2    0    0 -0.22403070803E+00  0.30393064707E+00  0.33060547670E+01  0.33275459003E+01  0.00000000000E+00 0.  1.
</event>
<event>
 5    1  0.7095115E+001  0.1561063E+01  0.7818608E-02  0.3396740E+00
         11   -1    0    0    0    0  0.00000000000E+00  0.00000000000E+00  0.39999999674E+01  0.40000000000E+01  0.51100000000E-03 0.  1.
    9000002   -1    0    0    0    0 -0.00000000000E+00 -0.00000000000E+00  0.00000000000E+00  0.93800000000E+00  0.93800000000E+00 0.  1.
         11    1    1    2    0    0 -0.14680585051E+00  0.90757021512E-01  0.88887632558E+00  0.90547787273E+00  0.51100000000E-03 0.  1.
    9000002    1    1    2    0    0 -0.97521502269E-01  0.53339310631E-01  0.36945545959E-01  0.94528540602E+00  0.93800000000E+00 0.  1.
         22    1    1    2    0    0  0.24432735278E+00 -0.14409633214E+00  0.30741780958E+01  0.30872367213E+01  0.00000000000E+00 0.  1.
</event>
<event>
 5    1  0.7095115E+001  0.1599676E+01  0.7818608E-02  0.3353716E+00
         11   -1    0    0    0    0  0.00000000000E+00  0.00000000000E+00  0.39999999674E+01  0.40000000000E+01  0.51100000000E-03 0.  1.
    9000002   -1    0    0    0    0 -0.00000000000E+00 -0.00000000000E+00  0.00000000000E+00  0.93800000000E+00  0.93800000000E+00 0.  1.
         11    1    1    2    0    0 -0.79035662607E-01  0.29059616718E-01  0.88746144098E+00  0.89144779300E+00  0.51100000000E-03 0. -1.
    9000002    1    1    2    0    0  0.34524765124E+00 -0.12387015599E+00  0.90383203901E-01  0.10112135678E+01  0.93800000000E+00 0.  1.
         22    1    1    2    0    0 -0.26621198863E+00  0.94810539268E-01  0.30221553225E+01  0.30353386392E+01  0.00000000000E+00 0.  1.
</event>
<event>
 5    1  0.7095115E+001  0.1599666E+01  0.7818608E-02  0.3353725E+00
         11   -1    0    0    0    0  0.00000000000E+00  0.00000000000E+00  0.39999999674E+01  0.40000000000E+01  0.51100000000E-03 0.  1.
    9000002   -1    0    0    0    0 -0.00000000000E+00 -0.00000000000E+00  0.00000000000E+00  0.93800000000E+00  0.93800000000E+00 0. -1.
         11    1    1    2    0    0  0.78502766771E-01  0.91762832925E-02  0.79893868672E+00  0.80283882245E+00  0.51100000000E-03 0.  1.
    9000002    1    1    2    0    0 -0.38083219419E+00 -0.29718561093E-01  0.98210747854E-01  0.10175488706E+01  0.93800000000E+00 0. -1.
         22    1    1    2    0    0  0.30232942742E+00  0.20542277801E-01  0.31028505328E+01  0.31176123070E+01  0.00000000000E+00 0.  1.
</event>
<event>
 5    1  0.7876430E+001  0.1599671E+01  0.7818608E-02  0.3353720E+00
         11   -1    0    0    0    0  0.00000000000E+00  0.00000000000E+00  0.39999999674E+01  0.40000000000E+01  0.51100000000E-03 0.  1.
    9000002   -1    0    0    0    0 -0.00000000000E+00 -0.00000000000E+00  0.00000000000E+00  0.93800000000E+00  0.93800000000E+00 0. -1.
         11    1    1    2    0    0  0.13845486937E+00  0.33262665610E-01  0.13877729040E+01  0.13950591564E+01  0.51100000000E-03 0.  1.
    9000002    1    1    2    0    0 -0.39555631675E+00 -0.92350420930E-01  0.11138529864E+00  0.10282237523E+01  0.93800000000E+00 0. -1.
         22    1    1    2    0    0  0.25710144737E+00  0.59087755320E-01  0.25008417648E+01  0.25147170913E+01  0.00000000000E+00 0.  1.
</event>
<event>
 5    1  0.7095115E+001  0.1550771E+01  0.7818608E-02  0.3408592E+00
         11   -1    0    0    0    0  0.00000000000E+00  0.00000000000E+00  0.39999999674E+01  0.40000000000E+01  0.51100000000E-03 0. -1.
    9000002   -1    0    0    0    0 -0.00000000000E+00 -0.00000000000E+00  0.00000000000E+00  0.93800000000E+00  0.93800000000E+00 0. -1.
         11    1    1    2    0    0  0.16192167268E+00  0.20354957863E+00  0.12296301282E+01  0.12568379260E+01  0.51100000000E-03 0. -1.
    9000002    1    1    2    0    0 -0.14255718594E+00  0.43658054535E-01  0.51672011825E-01  0.95117956969E+00  0.93800000000E+00 0. -1.
         22    1    1    2    0    0 -0.19364486735E-01 -0.24720763317E+00  0.27186978273E+01  0.27299825043E+01  0.00000000000E+00 0. -1.
</event>
<event>
 5    1  0.7095115E+001  0.1599675E+01  0.7818608E-02  0.3353716E+00
         11   -1    0    0    0    0  0.00000000000E+00  0.00000000000E+00  0.39999999674E+01  0.40000000000E+01  0.51100000000E-03 0.  1.
    9000002   -1    0    0    0    0 -0.00000000000E+00 -0.00000000000E+00  0.00000000000E+00  0.93800000000E+00  0.93800000000E+00 0. -1.
         11    1    1    2    0    0 -0.86125852728E-02  0.41031812074E-01  0.42939739791E+00  0.43143965126E+00  0.51100000000E-03 0.  1.
    9000002    1    1    2    0    0  0.83909880049E-01 -0.36723893364E+00  0.95443078766E-01  0.10153121114E+01  0.93800000000E+00 0. -1.
         22    1    1    2    0    0 -0.75297294776E-01  0.32620712157E+00  0.34751594907E+01  0.34912482373E+01  0.00000000000E+00 0.  1.
</event>
<event>
 5    1  0.7095115E+001  0.1599674E+01  0.7818608E-02  0.3353717E+00
         11   -1    0    0    0    0  0.00000000000E+00  0.00000000000E+00  0.39999999674E+01  0.40000000000E+01  0.51100000000E-03 0.  1.
    9000002   -1    0    0    0    0 -0.00000000000E+00 -0.00000000000E+00  0.00000000000E+00  0.93800000000E+00  0.93800000000E+00 0. -1.
         11    1    1    2    0    0 -0.80735509969E-01 -0.84237443748E-01  0.11500187122E+01  0.11559227781E+01  0.51100000000E-03 0.  1.
    9000002    1    1    2    0    0  0.26769701332E+00  0.28579603992E+00  0.10332343169E+00  0.10216950616E+01  0.93800000000E+00 0. -1.
         22    1    1    2    0    0 -0.18696150335E+00 -0.20155859617E+00  0.27466578235E+01  0.27603821603E+01  0.00000000000E+00 0.  1.
</event>
<event>
 5    1  0.7095115E+001  0.1599666E+01  0.7818608E-02  0.3353726E+00
         11   -1    0    0    0    0  0.00000000000E+00  0.00000000000E+00  0.39999999674E+01  0.40000000000E+01  0.51100000000E-03 0.  1.
    9000002   -1    0    0    0    0 -0.00000000000E+00 -0.00000000000E+00  0.00000000000E+00  0.93800000000E+00  0.93800000000E+00 0.  1.
         11    1    1    2    0    0  0.64309861183E-02  0.97038940538E-03  0.42362769183E-01  0.42862157807E-01  0.51100000000E-03 0.  1.
    9000002    1    1    2    0    0 -0.51913947527E+00 -0.92883123389E-01  0.19131555186E+00  0.10929678448E+01  0.93800000000E+00 0.  1.
         22    1    1    2    0    0  0.51270848915E+00  0.91912733983E-01  0.37663216463E+01  0.38021699974E+01  0.00000000000E+00 0.  1.
</event>
<event>
 5    1  0.7095115E+001  0.1599415E+01  0.7818608E-02  0.3353998E+00
         11   -1    0    0    0    0  0.00000000000E+00  0.00000000000E+00  0.39999999674E+01  0.40000000000E+01  0.51100000000E-03 0. -1.
    9000002   -1    0    0    0    0 -0.00000000000E+00 -0.00000000000E+00  0.00000000000E+00  0.93800000000E+00  0.93800000000E+00 0.  1.
         11    1    1    2    0    0  0.57716113668E-01  0.63986234587E-01  0.55931732581E+00  0.56591653101E+00  0.51100000000E-03 0. -1.
    9000002    1    1    2    0    0 -0.36477445119E+00 -0.34774106879E+00  0.17421954896E+00  0.10789720582E+01  0.93800000000E+00 0.  1.
         22    1    1    2    0    0  0.30705833753E+00  0.28375483420E+00  0.32664630926E+01  0.32931114108E+01  0.00000000000E+00 0. -1.
</event>
<event>
 5    1  0.7095115E+001  0.1528483E+01  0.7818608E-02  0.3434841E+00
         11   -1    0    0    0    0  0.00000000000E+00  0.00000000000E+00  0.39999999674E+01  0.40000000000E+01  0.51100000000E-03 0. -1.
    9000002   -1    0    0    0    0 -0.00000000000E+00 -0.00000000000E+00  0.00000000000E+00  0.93800000000E+00  0.93800000000E+00 0. -1.
         11    1    1    2    0    0  0.28800511164E+00  0.20811634392E+00  0.65923460704E+00  0.74889911549E+00  0.51100000000E-03 0. -1.
    9000002    1    1    2    0    0 -0.68432627894E+00 -0.41627538754E-01  0.41777820989E+00  0.12346732121E+01  0.93800000000E+00 0. -1.
         22    1    1    2    0    0  0.39632116730E+00 -0.16648880516E+00  0.29229871504E+01  0.29544276724E+01  0.00000000000E+00 0. -1.
</event>
<event>
 5    1  0.7095115E+001  0.1598979E+01  0.7818608E-02  0.3354472E+00
         11   -1    0    0    0    0  0.00000000000E+00  0.00000000000E+00  0.39999999674E+01  0.40000000000E+01  0.51100000000E-03 0. -1.
    9000002   -1    0    0    0    0 -0.00000000000E+00 -0.00000000000E+00  0.00000000000E+00  0.93800000000E+00  0.93800000000E+00 0. -1.
         11    1    1    2    0    0 -0.48595226550E-02 -0.16436563000E-01  0.19589252386E+00  0.19664159679E+00  0.51100000000E-03 0. -1.
    9000002    1    1    2    0    0  0.22208451234E+00  0.55491977318E+00  0.24982871906E+00  0.11399631021E+01  0.93800000000E+00 0. -1.
         22    1    1    2    0    0 -0.21722498969E+00 -0.53848321018E+00  0.35542787244E+01  0.36013953011E+01  0.00000000000E+00 0. -1.
</event>
<event>
 5    1  0.7095115E+001  0.1599675E+01  0.7818608E-02  0.3353716E+00
         11   -1    0    0    0    0  0.00000000000E+00  0.00000000000E+00  0.39999999674E+01  0.40000000000E+01  0.51100000000E-03 0.  1.
    9000002   -1    0    0    0    0 -0.00000000000E+00 -0.00000000000E+00  0.00000000000E+00  0.93800000000E+00  0.93800000000E+00 0. -1.
         11    1    1    2    0    0 -0.75107971409E-01 -0.26878873327E-01  0.81987069147E+00  0.82374261335E+00  0.51100000000E-03 0.  1.
    9000002    1    1    2    0    0  0.35210311272E+00  0.13093139909E+00  0.94903002777E-01  0.10148744815E+01  0.93800000000E+00 0. -1.
         22    1    1    2    0    0 -0.27699514132E+00 -0.10405252576E+00  0.30852262731E+01  0.30993829052E+01  0.00000000000E+00 0.  1.
</event>
<event>
 5    1  0.7095115E+001  0.1592193E+01  0.7818608E-02  0.3361881E+00
         11   -1    0    0    0    0  0.00000000000E+00  0.00000000000E+00  0.39999999674E+01  0.40000000000E+01  0.51100000000E-03 0.  1.
    9000002   -1    0    0    0    0 -0.00000000000E+00 -0.00000000000E+00  0.00000000000E+00  0.93800000000E+00  0.93800000000E+00 0.  1.
         11    1    1    2    0    0  0.18979347489E-01 -0.40074377375E-01  0.56545303680E+00  0.56718918299E+00  0.51100000000E-03 0.  1.
    9000002    1    1    2    0    0  0.29417345358E+00  0.21084239916E-02  0.63565728955E-01  0.98510256732E+00  0.93800000000E+00 0.  1.
         22    1    1    2    0    0 -0.31315280107E+00  0.37965953383E-01  0.33709812016E+01  0.33857082497E+01  0.00000000000E+00 0.  1.
</event>
<event>
 5    1  0.7095115E+001  0.1598083E+01  0.7818608E-02  0.3355447E+00
         11   -1    0    0    0    0  0.00000000000E+00  0.00000000000E+00  0.39999999674E+01  0.40000000000E+01  0.51100000000E-03 0.  1.
    9000002   -1    0    0    0    0 -0.00000000000E+00 -0.00000000000E+00  0.00000000000E+00  0.93800000000E+00  0.93800000000E+00 0.  1.
         11    1    1    2    0    0  0.14865798151E-01  0.26599861353E-01  0.67806737805E+00  0.67875192440E+00  0.51100000000E-03 0.  1.
    9000002    1    1    2    0    0 -0.29069770441E+00 -0.20117422384E+00  0.85117972271E-01  0.10060145590E+01  0.93800000000E+00 0.  1.
         22    1    1    2    0    0  0.27583190626E+00  0.17457436249E+00  0.32368146170E+01  0.32532335166E+01  0.00000000000E+00 0.  1.
</event>
<event>
 5    1  0.7095115E+001  0.1558422E+01  0.7818608E-02  0.3399765E+00
         11   -1    0    0    0    0  0.00000000000E+00  0.00000000000E+00  0.39999999674E+01  0.40000000000E+01  0.51100000000E-03 0.  1.
    9000002   -1    0    0    0    0 -0.00000000000E+00 -0.00000000000E+00  0.00000000000E+00  0.93800000000E+00  0.93800000000E+00 0.  1.
         11    1    1    2    0    0  0.89501666729E-01  0.13323384015E+00  0.72563470368E+00  0.74317413088E+00  0.51100000000E-03 0.  1.
    9000002    1    1    2    0    0 -0.12741213967E+00  0.24369003887E+00  0.82933867107E-01  0.98098966085E+00  0.93800000000E+00 0.  1.
         22    1    1    2    0    0  0.37910472942E-01 -0.37692387902E+00  0.31914313966E+01  0.32138362083E+01  0.00000000000E+00 0.  1.
</event>
<event>
 5    1  0.7095115E+001  0.1499883E+01  0.7818608E-02  0.3469751E+00
         11   -1    0    0    0    0  0.00000000000E+00  0.00000000000E+00  0.39999999674E+01  0.40000000000E+01  0.51100000000E-03 0. -1.
    9000002   -1    0    0    0    0 -0.00000000000E+00 -0.00000000000E+00  0.00000000000E+00  0.93800000000E+00  0.93800000000E+00 0.  1.
         11    1    1    2    0    0  0.33292463306E-01 -0.86429934915E-01  0.31306228059E-01  0.97769436936E-01  0.51100000000E-03 0. -1.
    9000002    1    1    2    0    0  0.14222148598E+00 -0.21571126314E+00  0.12528190894E+00  0.98096781641E+00  0.93800000000E+00 0.  1.
         22    1    1    2    0    0 -0.17551394929E+00  0.30214119805E+00  0.38434118304E+01  0.38592627467E+01  0.00000000000E+00 0. -1.
</event>
<event>
 5    1  0.7095115E+001  0.1599447E+01  0.7818608E-02  0.3353964E+00
         11   -1    0    0    0    0  0.00000000000E+00  0.00000000000E+00  0.39999999674E+01  0.40000000000E+01  0.51100000000E-03 0.  1.
    9000002   -1    0    0    0    0 -0.00000000000E+00 -0.00000000000E+00  0.00000000000E+00  0.93800000000E+00  0.93800000000E+00 0. -1.
         11    1    1    2    0    0  0.14702563897E+00  0.83517607925E-01  0.14776896815E+01  0.14873327756E+01  0.51100000000E-03 0.  1.
    9000002    1    1    2    0    0 -0.41053362795E+00 -0.18007373429E+00  0.13665568834E+00  0.10485624381E+01  0.93800000000E+00 0. -1.
         22    1    1    2    0    0  0.26350798898E+00  0.96556126368E-01  0.23856545975E+01  0.24021047863E+01  0.00000000000E+00 0.  1.
</event>
<event>
 5    1  0.7095115E+001  0.1599676E+01  0.7818608E-02  0.3353715E+00
         11   -1    0    0    0    0  0.00000000000E+00  0.00000000000E+00  0.39999999674E+01  0.40000000000E+01  0.51100000000E-03 0. -1.
    9000002   -1    0    0    0    0 -0.00000000000E+00 -0.00000000000E+00  0.00000000000E+00  0.93800000000E+00  0.93800000000E+00 0. -1.
         11    1    1    2    0    0  0.28887280946E-01  0.65332032388E-01  0.77361144228E+00  0.77690261565E+00  0.51100000000E-03 0. -1.
    9000002    1    1    2    0    0 -0.14823065008E+00 -0.32718242020E+00  0.86599364963E-01  0.10081488540E+01  0.93800000000E+00 0. -1.
         22    1    1    2    0    0  0.11934336913E+00  0.26185038782E+00  0.31397891601E+01  0.31529485304E+01  0.00000000000E+00 0. -1.
</event>
<event>
 5    1  0.7095115E+001  0.1598531E+01  0.7818608E-02  0.3354959E+00
         11   -1    0    0    0    0  0.00000000000E+00  0.00000000000E+00  0.39999999674E+01  0.40000000000E+01  0.51100000000E-03 0. -1.
    9000002   -1    0    0    0    0 -0.00000000000E+00 -0.00000000000E+00  0.00000000000E+00  0.93800000000E+00  0.93800000000E+00 0.  1.
         11    1    1    2    0    0  0.13359309527E-01  0.13316736166E+00  0.10032313334E+01  0.10121192552E+01  0.51100000000E-03 0. -1.
    9000002    1    1    2    0    0  0.19427702370E-01 -0.39747202320E+00  0.10774225004E+00  0.10246042345E+01  0.93800000000E+00 0.  1.
         22    1    1    2    0    0 -0.32787011896E-01  0.26430466154E+00  0.28890263840E+01  0.29012765104E+01  0.00000000000E+00 0. -1.
</event>
<event>
 5    1  0.7095115E+001  0.1573756E+01  0.7818608E-02  0.3382350E+00
         11   -1    0    0    0    0  0.00000000000E+00  0.00000000000E+00  0.39999999674E+01  0.40000000000E+01  0.51100000000E-03 0. -1.
    9000002   -1    0    0    0    0 -0.00000000000E+00 -0.00000000000E+00  0.00000000000E+00  0.93800000000E+00  0.93800000000E+00 0.  1.
         11    1    1    2    0    0  0.15588203675E+00 -0.13246686630E+00  0.60029348133E+00  0.63419177297E+00  0.51100000000E-03 0. -1.
    9000002    1    1    2    0    0 -0.70948127704E-01  0.68940637742E+00  0.37202535374E+00  0.12241575282E+01  0.93800000000E+00 0.  1.
         22    1    1    2    0    0 -0.84933909048E-01 -0.55693951112E+00  0.30276811323E+01  0.30796506988E+01  0.00000000000E+00 0.  1.
</event>
<event>
 5    1  0.7095115E+001  0.1591995E+01  0.7818608E-02  0.3362098E+00
         11   -1    0    0    0    0  0.00000000000E+00  0.00000000000E+00  0.39999999674E+01  0.40000000000E+01  0.51100000000E-03 0.  1.
    9000002   -1    0    0    0    0 -0.00000000000E+00 -0.00000000000E+00  0.00000000000E+00  0.93800000000E+00  0.93800000000E+00 0. -1.
         11    1    1    2    0    0 -0.67523631003E-02 -0.26955125814E-01  0.49659195959E+00  0.49736908697E+00  0.51100000000E-03 0.  1.
    9000002    1    1    2    0    0 -0.43879617872E+00 -0.36733799838E-01  0.13811699440E+00  0.10453763737E+01  0.93800000000E+00 0. -1.
         22    1    1    2    0    0  0.44554854182E+00  0.63688925652E-01  0.33652910134E+01  0.33952545394E+01  0.00000000000E+00 0.  1.
</event>
<event>
 5    1  0.7095115E+001  0.1544517E+01  0.7818608E-02  0.3415875E+00
         11   -1    0    0    0    0  0.00000000000E+00  0.00000000000E+00  0.39999999674E+01  0.40000000000E+01  0.51100000000E-03 0.  1.
    9000002   -1    0    0    0    0 -0.00000000000E+00 -0.00000000000E+00  0.00000000000E+00  0.93800000000E+00  0.93800000000E+00 0. -1.
         11    1    1    2    0    0  0.15765084711E+00 -0.17510404695E+00  0.11269015287E+01  0.11512699654E+01  0.51100000000E-03 0.  1.
    9000002    1    1    2    0    0  0.24071740676E-01 -0.71219582459E-01  0.44967194967E-01  0.94208159214E+00  0.93800000000E+00 0. -1.
         22    1    1    2    0    0 -0.18172258779E+00  0.24632362941E+00  0.28281312437E+01  0.28446484424E+01  0.00000000000E+00 0.  1.
</event>
<event>
 5    1  0.7095115E+001  0.1598752E+01  0.7818608E-02  0.3354719E+00
         11   -1    0    0    0    0  0.00000000000E+00  0.00000000000E+00  0.39999999674E+01  0.40000000000E+01  0.51100000000E-03 0. -1.
    9000002   -1    0    0    0    0 -0.00000000000E+00 -0.00000000000E+00  0.00000000000E+00  0.93800000000E+00  0.93800000000E+00 0. -1.
         11    1    1    2    0    0 -0.61240912538E-02 -0.34699840388E-01  0.34493041439E+00  0.34672587920E+00  0.51100000000E-03 0. -1.
    9000002    1    1    2    0    0 -0.16437675235E+00  0.36816548049E+00  0.11047060166E+00  0.10269436652E+01  0.93800000000E+00 0. -1.
         22    1    1    2    0    0  0.17050084360E+00 -0.33346564011E+00  0.35445989513E+01  0.35643304556E+01  0.00000000000E+00 0. -1.
</event>
<event>
 5    1  0.7095115E+001  0.1465342E+01  0.7818608E-02  0.3513874E+00
         11   -1    0    0    0    0  0.00000000000E+00  0.00000000000E+00  0.39999999674E+01  0.40000000000E+01  0.51100000000E-03 0. -1.
    9000002   -1    0    0    0    0 -0.00000000000E+00 -0.00000000000E+00  0.00000000000E+00  0.93800000000E+00  0.93800000000E+00 0. -1.
         11    1    1    2    0    0 -0.34594505142E+00  0.29914014861E+00  0.83450698256E+00  0.95161177597E+00  0.51100000000E-03 0. -1.
    9000002    1    1    2    0    0  0.39046836501E-01 -0.54449304646E+00  0.34520658522E+00  0.11388629942E+01  0.93800000000E+00 0. -1.
         22    1    1    2    0    0  0.30689821492E+00  0.24535289786E+00  0.28202863996E+01  0.28475252298E+01  0.00000000000E+00 0.  1.
</event>
<event>
 5    1  0.7095115E+001  0.1599218E+01  0.7818608E-02  0.3354212E+00
         11   -1    0    0    0    0  0.00000000000E+00  0.00000000000E+00  0.39999999674E+01  0.40000000000E+01  0.51100000000E-03 0. -1.
    9000002   -1    0    0    0    0 -0.00000000000E+00 -0.00000000000E+00  0.00000000000E+00  0.93800000000E+00  0.93800000000E+00 0.  1.
         11    1    1    2    0    0  0.30963154508E-02  0.43079104115E-03  0.12825954749E+00  0.12829865702E+00  0.51100000000E-03 0. -1.
    9000002    1    1    2    0    0 -0.29755742360E+00  0.18004244341E+00  0.81451357058E-01  0.10037101301E+01  0.93800000000E+00 0.  1.
         22    1    1    2    0    0  0.29446110815E+00 -0.18047323445E+00  0.37902890628E+01  0.38059912128E+01  0.00000000000E+00 0. -1.
</event>
<event>
 5    1  0.7095115E+001  0.1582685E+01  0.7818608E-02  0.3372374E+00
         11   -1    0    0    0    0  0.00000000000E+00  0.00000000000E+00  0.39999999674E+01  0.40000000000E+01  0.51100000000E-03 0.  1.
    9000002   -1    0    0    0    0 -0.00000000000E+00 -0.00000000000E+00  0.00000000000E+00  0.93800000000E+00  0.93800000000E+00 0.  1.
         11    1    1    2    0    0 -0.71789743447E-01  0.60455783031E-01  0.97438063916E+00  0.97889047398E+00  0.51100000000E-03 0.  1.
    9000002    1    1    2    0    0 -0.22592554807E+00 -0.62687684652E-01  0.49489059840E-01  0.96812461291E+00  0.93800000000E+00 0.  1.
         22    1    1    2    0    0  0.29771529151E+00  0.22319016205E-02  0.29761302684E+01  0.29909849131E+01  0.00000000000E+00 0.  1.
</event>
<event>
 5    1  0.7095115E+001  0.1599677E+01  0.7818608E-02  0.3353714E+00
         11   -1    0    0    0    0  0.00000000000E+00  0.00000000000E+00  0.39999999674E+01  0.40000000000E+01  0.51100000000E-03 0. -1.
    9000002   -1    0    0    0    0 -0.00000000000E+00 -0.00000000000E+00  0.00000000000E+00  0.93800000000E+00  0.93800000000E+00 0.  1.
         11    1    1    2    0    0  0.29831676131E+00 -0.14196009759E+00  0.14073355390E+01  0.14455930063E+01  0.51100000000E-03 0. -1.
    9000002    1    1    2    0    0 -0.74204702902E+00  0.35253081684E+00  0.50089076606E+00  0.13437437738E+01  0.93800000000E+00 0.  1.
         22    1    1    2    0    0  0.44373026771E+00 -0.21057071925E+00  0.20917736623E+01  0.21486632199E+01  0.00000000000E+00 0.  1.
</event>
<event>
 5    1  0.7095115E+001  0.1599673E+01  0.7818608E-02  0.3353719E+00
         11   -1    0    0    0    0  0.00000000000E+00  0.00000000000E+00  0.39999999674E+01  0.40000000000E+01  0.51100000000E-03 0. -1.
    9000002   -1    0    0    0    0 -0.00000000000E+00 -0.00000000000E+00  0.00000000000E+00  0.93800000000E+00  0.93800000000E+00 0.  1.
         11    1    1    2    0    0 -0.15476167157E-01  0.14956359345E+00  0.12543750345E+01  0.12633549654E+01  0.51100000000E-03 0. -1.
    9000002    1    1    2    0    0  0.44839964377E-01 -0.46591197619E+00  0.14920927072E+00  0.10588635410E+01  0.93800000000E+00 0.  1.
         22    1    1    2    0    0 -0.29363797219E-01  0.31634838274E+00  0.25964156622E+01  0.26157814937E+01  0.00000000000E+00 0. -1.
</event>
<event>
 5    1  0.7095115E+001  0.1599676E+01  0.7818608E-02  0.3353715E+00
         11   -1    0    0    0    0  0.00000000000E+00  0.00000000000E+00  0.39999999674E+01  0.40000000000E+01  0.51100000000E-03 0.  1.
    9000002   -1    0    0    0    0 -0.00000000000E+00 -0.00000000000E+00  0.00000000000E+00  0.93800000000E+00  0.93800000000E+00 0. -1.
         11    1    1    2    0    0  0.21040779982E-01  0.55156399469E-01  0.56911791715E+00  0.57217165917E+00  0.51100000000E-03 0. -1.
    9000002    1    1    2    0    0 -0.14691431310E+00 -0.37993907046E+00  0.11203565127E+00  0.10287533717E+01  0.93800000000E+00 0. -1.
         22    1    1    2    0    0  0.12587353312E+00  0.32478267099E+00  0.33188463989E+01  0.33370749691E+01  0.00000000000E+00 0.  1.
</event>
<event>
 5    1  0.7095115E+001  0.1597166E+01  0.7818608E-02  0.3356445E+00
         11   -1    0    0    0    0  0.00000000000E+00  0.00000000000E+00  0.39999999674E+01  0.40000000000E+01  0.51100000000E-03 0. -1.
    9000002   -1    0    0    0    0 -0.00000000000E+00 -0.00000000000E+00  0.00000000000E+00  0.93800000000E+00  0.93800000000E+00 0.  1.
         11    1    1    2    0    0  0.21260712495E-01 -0.57486902440E-01  0.22267812272E+00  0.23096010328E+00  0.51100000000E-03 0. -1.
    9000002    1    1    2    0    0 -0.16994393121E+00  0.52420661481E+00  0.21216610109E+00  0.11083916137E+01  0.93800000000E+00 0.  1.
         22    1    1    2    0    0  0.14868321871E+00 -0.46671971237E+00  0.35651557436E+01  0.35986482831E+01  0.00000000000E+00 0. -1.
</event>
<event>
 5    1  0.7095115E+001  0.1599676E+01  0.7818608E-02  0.3353715E+00
         11   -1    0    0    0    0  0.00000000000E+00  0.00000000000E+00  0.39999999674E+01  0.40000000000E+01  0.51100000000E-03 0.  1.
    9000002   -1    0    0    0    0 -0.00000000000E+00 -0.00000000000E+00  0.00000000000E+00  0.93800000000E+00  0.93800000000E+00 0. -1.
         11    1    1    2    0    0 -0.16499289500E-01 -0.11059007398E+00  0.88501442259E+00  0.89204998757E+00  0.51100000000E-03 0.  1.
    9000002    1    1    2    0    0  0.74889222799E-01  0.48001561880E+00  0.16119451647E+00  0.10685743129E+01  0.93800000000E+00 0. -1.
         22    1    1    2    0    0 -0.58389933299E-01 -0.36942554482E+00  0.29537910283E+01  0.29773756996E+01  0.00000000000E+00 0.  1.
</event>
<event>
 5    1  0.7095115E+001  0.1483485E+01  0.7818608E-02  0.3490420E+00
         11   -1    0    0    0    0  0.00000000000E+00  0.00000000000E+00  0.39999999674E+01  0.40000000000E+01  0.51100000000E-03 0. -1.
    9000002   -1    0    0    0    0 -0.00000000000E+00 -0.00000000000E+00  0.00000000000E+00  0.93800000000E+00  0.93800000000E+00 0.  1.
         11    1    1    2    0    0 -0.23397566983E+00  0.79349060433E-02  0.40109139645E+00  0.46441591945E+00  0.51100000000E-03 0. -1.
    9000002    1    1    2    0    0 -0.20915270823E+00 -0.73791413176E-01  0.12619159486E+00  0.97208968034E+00  0.93800000000E+00 0.  1.
         22    1    1    2    0    0  0.44312837806E+00  0.65856507132E-01  0.34727169760E+01  0.35014944002E+01  0.00000000000E+00 0. -1.
</event>
<event>
 5    1  0.7095115E+001  0.1538811E+01  0.7818608E-02  0.3422576E+00
         11   -1    0    0    0    0  0.00000000000E+00  0.00000000000E+00  0.39999999674E+01  0.40000000000E+01  0.51100000000E-03 0.  1.
    9000002   -1    0    0    0    0 -0.00000000000E+00 -0.00000000000E+00  0.00000000000E+00  0.93800000000E+00  0.93800000000E+00 0. -1.
         11    1    1    2    0    0  0.15135475908E+00 -0.23057919334E+00  0.80057777830E+00  0.84675856520E+00  0.51100000000E-03 0.  1.
    9000002    1    1    2    0    0  0.21251140592E+00  0.40559965730E+00  0.19754073082E+00  0.10623269365E+01  0.93800000000E+00 0. -1.
         22    1    1    2    0    0 -0.36386616500E+00 -0.17502046395E+00  0.30018814582E+01  0.30289144983E+01  0.00000000000E+00 0.  1.
</event>
<event>
 5    1  0.7095115E+001  0.1599676E+01  0.7818608E-02  0.3353715E+00
         11   -1    0    0    0    0  0.00000000000E+00  0.00000000000E+00  0.39999999674E+01  0.40000000000E+01  0.51100000000E-03 0. -1.
    9000002   -1    0    0    0    0 -0.00000000000E+00 -0.00000000000E+00  0.00000000000E+00  0.93800000000E+00  0.93800000000E+00 0.  1.
         11    1    1    2    0    0 -0.18841524193E+00 -0.27510761054E-01  0.11587056321E+01  0.11742470559E+01  0.51100000000E-03 0. -1.
    9000002    1    1    2    0    0  0.60538423029E+00  0.86940942261E-01  0.26163049858E+00  0.11499318726E+01  0.93800000000E+00 0.  1.
         22    1    1    2    0    0 -0.41696898836E+00 -0.59430181207E-01  0.25796638367E+01  0.26138210715E+01  0.00000000000E+00 0. -1.
</event>
<event>
 5    1  0.7095115E+001  0.1599638E+01  0.7818608E-02  0.3353757E+00
         11   -1    0    0    0    0  0.00000000000E+00  0.00000000000E+00  0.39999999674E+01  0.40000000000E+01  0.51100000000E-03 0.  1.
    9000002   -1    0    0    0    0 -0.00000000000E+00 -0.00000000000E+00  0.00000000000E+00  0.93800000000E+00  0.93800000000E+00 0. -1.
         11    1    1    2    0    0 -0.97897724393E-01  0.14915798699E+00  0.11083585058E+01  0.11226267893E+01  0.51100000000E-03 0.  1.
    9000002    1    1    2    0    0  0.31402489249E+00 -0.51993490783E+00  0.25786235339E+00  0.11468569810E+01  0.93800000000E+00 0. -1.
         22    1    1    2    0    0 -0.21612716810E+00  0.37077692084E+00  0.26337791081E+01  0.26685162297E+01  0.00000000000E+00 0.  1.
</event>
<event>
 5    1  0.7095115E+001  0.1599669E+01  0.7818608E-02  0.3353722E+00
         11   -1    0    0    0    0  0.00000000000E+00  0.00000000000E+00  0.39999999674E+01  0.40000000000E+01  0.51100000000E-03 0. -1.
    9000002   -1    0    0    0    0 -0.00000000000E+00 -0.00000000000E+00  0.00000000000E+00  0.93800000000E+00  0.93800000000E+00 0. -1.
         11    1    1    2    0    0 -0.79738296014E-01  0.85905660552E-02  0.64212853283E+00  0.64711769214E+00  0.51100000000E-03 0. -1.
    9000002    1    1    2    0    0  0.46845404703E+00 -0.40244069373E-01  0.15061283294E+00  0.10599985871E+01  0.93800000000E+00 0. -1.
         22    1    1    2    0    0 -0.38871575101E+00  0.31653503317E-01  0.32072586016E+01  0.32308837207E+01  0.00000000000E+00 0. -1.
</event>
<event>
 5    1  0.7095115E+001  0.1597966E+01  0.7818608E-02  0.3355574E+00
         11   -1    0    0    0    0  0.00000000000E+00  0.00000000000E+00  0.39999999674E+01  0.40000000000E+01  0.51100000000E-03 0.  1.
    9000002   -1    0    0    0    0 -0.00000000000E+00 -0.00000000000E+00  0.00000000000E+00  0.93800000000E+00  0.93800000000E+00 0. -1.
         11    1    1    2    0    0  0.43453129392E-01 -0.40795550223E-02  0.76538677894E+00  0.76663028881E+00  0.51100000000E-03 0.  1.
    9000002    1    1    2    0    0 -0.38233957259E+00  0.14122850175E+00  0.11360049753E+00  0.10290180326E+01  0.93800000000E+00 0. -1.
         22    1    1    2    0    0  0.33888644320E+00 -0.13714894673E+00  0.31210126909E+01  0.31423516785E+01  0.00000000000E+00 0.  1.
</event>
<event>
 5    1  0.7095115E+001  0.1598210E+01  0.7818608E-02  0.3355309E+00
         11   -1    0    0    0    0  0.00000000000E+00  0.00000000000E+00  0.39999999674E+01  0.40000000000E+01  0.51100000000E-03 0. -1.
    9000002   -1    0    0    0    0 -0.00000000000E+00 -0.00000000000E+00  0.00000000000E+00  0.93800000000E+00  0.93800000000E+00 0. -1.
         11    1    1    2    0    0 -0.12238052166E+00  0.16488296863E+00  0.13238754666E+01  0.13397051533E+01  0.51100000000E-03 0. -1.
    9000002    1    1    2    0    0  0.22578688154E+00 -0.48692423741E+00  0.19984898955E+00  0.10990261814E+01  0.93800000000E+00 0. -1.
         22    1    1    2    0    0 -0.10340635987E+00  0.32204126878E+00  0.24762755112E+01  0.24992686653E+01  0.00000000000E+00 0. -1.
</event>
<event>
 5    1  0.7095115E+001  0.1599674E+01  0.7818608E-02  0.3353717E+00
         11   -1    0    0    0    0  0.00000000000E+00  0.00000000000E+00  0.39999999674E+01  0.40000000000E+01  0.51100000000E-03 0. -1.
    9000002   -1    0    0    0    0 -0.00000000000E+00 -0.00000000000E+00  0.00000000000E+00  0.93800000000E+00  0.93800000000E+00 0. -1.
         11    1    1    2    0    0  0.12706734587E+00 -0.38384308050E-01  0.11403459136E+01  0.11480455258E+01  0.51100000000E-03 0. -1.
    9000002    1    1    2    0    0 -0.42668502569E+00  0.12497084840E+00  0.13415642674E+00  0.10466708035E+01  0.93800000000E+00 0. -1.
         22    1    1    2    0    0  0.29961767981E+00 -0.86586540353E-01  0.27254976270E+01  0.27432836707E+01  0.00000000000E+00 0. -1.
</event>
<event>
 5    1  0.7095115E+001  0.1599634E+01  0.7818608E-02  0.3353761E+00
         11   -1    0    0    0    0  0.00000000000E+00  0.00000000000E+00  0.39999999674E+01  0.40000000000E+01  0.51100000000E-03 0. -1.
    9000002   -1    0    0    0    0 -0.00000000000E+00 -0.00000000000E+00  0.00000000000E+00  0.93800000000E+00  0.93800000000E+00 0.  1.
         11    1    1    2    0    0  0.18319187156E-02  0.87899173983E-01  0.83606924375E+00  0.84067928616E+00  0.51100000000E-03 0. -1.
    9000002    1    1    2    0    0 -0.36312939040E-01 -0.39727126859E+00  0.10736641993E+00  0.10249461637E+01  0.93800000000E+00 0.  1.
         22    1    1    2    0    0  0.34481020324E-01  0.30937209461E+00  0.30565643037E+01  0.30723745501E+01  0.00000000000E+00 0. -1.
</event>
<event>
 5    1  0.7095115E+001  0.1553500E+01  0.7818608E-02  0.3405433E+00
         11   -1    0    0    0    0  0.00000000000E+00  0.00000000000E+00  0.39999999674E+01  0.40000000000E+01  0.51100000000E-03 0.  1.
    9000002   -1    0    0    0    0 -0.00000000000E+00 -0.00000000000E+00  0.00000000000E+00  0.93800000000E+00  0.93800000000E+00 0. -1.
         11    1    1    2    0    0 -0.16437863933E+00 -0.82753492110E-01  0.75217188306E+00  0.77435862513E+00  0.51100000000E-03 0.  1.
    9000002    1    1    2    0    0 -0.11209252019E+00 -0.25564250002E-02  0.42869858857E-01  0.94564956151E+00  0.93800000000E+00 0. -1.
         22    1    1    2    0    0  0.27647115952E+00  0.85309917110E-01  0.32049582254E+01  0.32179918134E+01  0.00000000000E+00 0.  1.
</event>
<event>
 5    1  0.7095115E+001  0.1599672E+01  0.7818608E-02  0.3353720E+00
         11   -1    0    0    0    0  0.00000000000E+00  0.00000000000E+00  0.39999999674E+01  0.40000000000E+01  0.51100000000E-03 0.  1.
    9000002   -1    0    0    0    0 -0.00000000000E+00 -0.00000000000E+00  0.00000000000E+00  0.93800000000E+00  0.93800000000E+00 0. -1.
         11    1    1    2    0    0  0.15495705136E+00  0.48336184652E-01  0.71224696580E+00  0.73050946327E+00  0.51100000000E-03 0.  1.
    9000002    1    1    2    0    0 -0.76979414968E+00 -0.24851093495E+00  0.48348208634E+00  0.13296389155E+01  0.93800000000E+00 0. -1.
         22    1    1    2    0    0  0.61483709832E+00  0.20017475030E+00  0.28042709152E+01  0.28778516213E+01  0.00000000000E+00 0. -1.
</event>
<event>
 5    1  0.7095115E+001  0.1599600E+01  0.7818608E-02  0.3353797E+00
         11   -1    0    0    0    0  0.00000000000E+00  0.00000000000E+00  0.39999999674E+01  0.40000000000E+01  0.51100000000E-03 0.  1.
    9000002   -1    0    0    0    0 -0.00000000000E+00 -0.00000000000E+00  0.00000000000E+00  0.93800000000E+00  0.93800000000E+00 0.  1.
         11    1    1    2    0    0 -0.34722405293E+00  0.27641809769E+00  0.10746021101E+01  0.11626441691E+01  0.51100000000E-03 0.  1.
    9000002    1    1    2    0    0  0.91407544850E+00 -0.69654004946E+00  0.11891330374E+01  0.19012057613E+01  0.93800000000E+00 0.  1.
         22    1    1    2    0    0 -0.56685139557E+00  0.42012195177E+00  0.17362648198E+01  0.18741500697E+01  0.00000000000E+00 0.  1.
</event>
<event>
 5    1  0.7095115E+001  0.1599623E+01  0.7818608E-02  0.3353773E+00
         11   -1    0    0    0    0  0.00000000000E+00  0.00000000000E+00  0.39999999674E+01  0.40000000000E+01  0.51100000000E-03 0.  1.
    9000002   -1    0    0    0    0 -0.00000000000E+00 -0.00000000000E+00  0.00000000000E+00  0.93800000000E+00  0.93800000000E+00 0. -1.
         11    1    1    2    0    0  0.24079323072E+00 -0.25289084924E+00  0.13719539108E+01  0.14156952200E+01  0.51100000000E-03 0.  1.
    9000002    1    1    2    0    0 -0.58231633762E+00  0.63270939578E+00  0.55676458849E+00  0.13889723912E+01  0.93800000000E+00 0. -1.
         22    1    1    2    0    0  0.34152310691E+00 -0.37981854654E+00  0.20712814681E+01  0.21333323887E+01  0.00000000000E+00 0.  1.
</event>
<event>
 5    1  0.7095115E+001  0.1599664E+01  0.7818608E-02  0.3353728E+00
         11   -1    0    0    0    0  0.00000000000E+00  0.00000000000E+00  0.39999999674E+01  0.40000000000E+01  0.51100000000E-03 0. -1.
    9000002   -1    0    0    0    0 -0.00000000000E+00 -0.00000000000E+00  0.00000000000E+00  0.93800000000E+00  0.93800000000E+00 0. -1.
         11    1    1    2    0    0 -0.84195152019E-01  0.23851887558E-01  0.89892986231E+00  0.90317932585E+00  0.51100000000E-03 0. -1.
    9000002    1    1    2    0    0  0.35343290759E+00 -0.11325144712E+00  0.92589936782E-01  0.10129943765E+01  0.93800000000E+00 0. -1.
         22    1    1    2    0    0 -0.26923775557E+00  0.89399559561E-01  0.30084801683E+01  0.30218262976E+01  0.00000000000E+00 0. -1.
</event>
<event>
 5    1  0.7095115E+001  0.1598457E+01  0.7818608E-02  0.3355040E+00
         11   -1    0    0    0    0  0.00000000000E+00  0.00000000000E+00  0.39999999674E+01  0.40000000000E+01  0.51100000000E-03 0.  1.
    9000002   -1    0    0    0    0 -0.00000000000E+00 -0.00000000000E+00  0.00000000000E+00  0.93800000000E+00  0.93800000000E+00 0.  1.
         11    1    1    2    0    0  0.42116804402E-02  0.43258845056E-01  0.23091050818E+00  0.23496593335E+00  0.51100000000E-03 0.  1.
    9000002    1    1    2    0    0 -0.15840608282E+00 -0.40073095486E+00  0.12680254140E+00  0.10400003220E+01  0.93800000000E+00 0.  1.
         22    1    1    2    0    0  0.15419440238E+00  0.35747210980E+00  0.36422869178E+01  0.36630337447E+01  0.00000000000E+00 0.  1.
</event>
<event>
 5    1  0.7095115E+001  0.1598271E+01  0.7818608E-02  0.3355242E+00
         11   -1    0    0    0    0  0.00000000000E+00  0.00000000000E+00  0.39999999674E+01  0.40000000000E+01  0.51100000000E-03 0.  1.
    9000002   -1    0    0    0    0 -0.00000000000E+00 -0.00000000000E+00  0.00000000000E+00  0.93800000000E+00  0.93800000000E+00 0.  1.
         11    1    1    2    0    0  0.64372227182E-01  0.16240908528E-01  0.87389138344E+00  0.87640969981E+00  0.51100000000E-03 0.  1.
    9000002    1    1    2    0    0 -0.43492524715E+00  0.33913865377E-02  0.12940374669E+00  0.10419984653E+01  0.93800000000E+00 0.  1.
         22    1    1    2    0    0  0.37055301997E+00 -0.19632295066E-01  0.29967048372E+01  0.30195918349E+01  0.00000000000E+00 0.  1.
</event>
<event>
 5    1  0.7095115E+001  0.1599676E+01  0.7818608E-02  0.3353715E+00
         11   -1    0    0    0    0  0.00000000000E+00  0.00000000000E+00  0.39999999674E+01  0.40000000000E+01  0.51100000000E-03 0.  1.
    9000002   -1    0    0    0    0 -0.00000000000E+00 -0.00000000000E+00  0.00000000000E+00  0.93800000000E+00  0.93800000000E+00 0. -1.
         11    1    1    2    0    0  0.42043822007E-01 -0.14037703358E-01  0.46445391116E+00  0.46656450443E+00  0.51100000000E-03 0. -1.
    9000002    1    1    2    0    0 -0.34961870521E+00  0.12339347968E+00  0.92387144612E-01  0.10128368942E+01  0.93800000000E+00 0. -1.
         22    1    1    2    0    0  0.30757488320E+00 -0.10935577632E+00  0.34431589116E+01  0.34585986013E+01  0.00000000000E+00 0.  1.
</event>
<event>
 5    1  0.7095115E+001  0.1599674E+01  0.7818608E-02  0.3353717E+00
         11   -1    0    0    0    0  0.00000000000E+00  0.00000000000E+00  0.39999999674E+01  0.40000000000E+01  0.51100000000E-03 0. -1.
    9000002   -1    0    0    0    0 -0.00000000000E+00 -0.00000000000E+00  0.00000000000E+00  0.93800000000E+00  0.93800000000E+00 0.  1.
         11    1    1    2    0    0  0.29924066805E-01  0.50762461082E-01  0.53135564601E+00  0.53461328163E+00  0.51100000000E-03 0. -1.
    9000002    1    1    2    0    0 -0.22725731932E+00 -0.37211199953E+00  0.12886318795E+00  0.10423833031E+01  0.93800000000E+00 0.  1.
         22    1    1    2    0    0  0.19733325252E+00  0.32134953845E+00  0.33397811334E+01  0.33610034153E+01  0.00000000000E+00 0. -1.
</event>
<event>
 5    1  0.7095115E+001  0.1599391E+01  0.7818608E-02  0.3354025E+00
         11   -1    0    0    0    0  0.00000000000E+00  0.00000000000E+00  0.39999999674E+01  0.40000000000E+01  0.51100000000E-03 0.  1.
    9000002   -1    0    0    0    0 -0.00000000000E+00 -0.00000000000E+00  0.00000000000E+00  0.93800000000E+00  0.93800000000E+00 0.  1.
         11    1    1    2    0    0 -0.54682853872E-01  0.82487747900E-01  0.12452177683E+01  0.12491445051E+01  0.51100000000E-03 0.  1.
    9000002    1    1    2    0    0  0.21713782984E+00 -0.29769155075E+00  0.91458978368E-01  0.10119179024E+01  0.93800000000E+00 0.  1.
         22    1    1    2    0    0 -0.16245497597E+00  0.21520380285E+00  0.26633232207E+01  0.26769375925E+01  0.00000000000E+00 0.  1.
</event>
<event>
 5    1  0.7095115E+001  0.1577290E+01  0.7818608E-02  0.3378386E+00
         11   -1    0    0    0    0  0.00000000000E+00  0.00000000000E+00  0.39999999674E+01  0.40000000000E+01  0.51100000000E-03 0.  1.
    9000002   -1    0    0    0    0 -0.00000000000E+00 -0.00000000000E+00  0.00000000000E+00  0.93800000000E+00  0.93800000000E+00 0.  1.
         11    1    1    2    0    0  0.37359650060E-02 -0.99312750006E-01  0.34817521033E+00  0.36208178352E+00  0.51100000000E-03 0.  1.
    9000002    1    1    2    0    0  0.38856455421E+00  0.36961949097E-01  0.12137634052E+00  0.10231934394E+01  0.93800000000E+00 0.  1.
         22    1    1    2    0    0 -0.39230051922E+00  0.62350800909E-01  0.35304484165E+01  0.35527247770E+01  0.00000000000E+00 0.  1.
</event>
<event>
 5    1  0.7095115E+001  0.1599647E+01  0.7818608E-02  0.3353747E+00
         11   -1    0    0    0    0  0.00000000000E+00  0.00000000000E+00  0.39999999674E+01  0.40000000000E+01  0.51100000000E-03 0. -1.
    9000002   -1    0    0    0    0 -0.00000000000E+00 -0.00000000000E+00  0.00000000000E+00  0.93800000000E+00  0.93800000000E+00 0.  1.
         11    1    1    2    0    0 -0.90984694157E-01 -0.59395892898E-01  0.10080153291E+01  0.10138546501E+01  0.51100000000E-03 0. -1.
    9000002    1    1    2    0    0  0.33685642571E+00  0.21230636834E+00  0.10694270748E+00  0.10246106520E+01  0.93800000000E+00 0.  1.
         22    1    1    2    0    0 -0.24587173155E+00 -0.15291047544E+00  0.28850419308E+01  0.28995346979E+01  0.00000000000E+00 0. -1.
</event>
<event>
 5    1  0.7095115E+001  0.1599677E+01  0.7818608E-02  0.3353715E+00
         11   -1    0    0    0    0  0.00000000000E+00  0.00000000000E+00  0.39999999674E+01  0.40000000000E+01  0.51100000000E-03 0. -1.
    9000002   -1    0    0    0    0 -0.00000000000E+00 -0.00000000000E+00  0.00000000000E+00  0.93800000000E+00  0.93800000000E+00 0.  1.
         11    1    1    2    0    0 -0.31023567113E-02  0.10783181000E+00  0.91676830674E+00  0.92309355605E+00  0.51100000000E-03 0.  1.
    9000002    1    1    2    0    0  0.12551423057E-01 -0.45149933937E+00  0.13859450909E+00  0.10502674086E+01  0.93800000000E+00 0.  1.
         22    1    1    2    0    0 -0.94490663461E-02  0.34366752937E+00  0.29446371515E+01  0.29646390353E+01  0.00000000000E+00 0. -1.
</event>
<event>
 5    1  0.7095115E+001  0.1599256E+01  0.7818608E-02  0.3354171E+00
         11   -1    0    0    0    0  0.00000000000E+00  0.00000000000E+00  0.39999999674E+01  0.40000000000E+01  0.51100000000E-03 0. -1.
    9000002   -1    0    0    0    0 -0.00000000000E+00 -0.00000000000E+00  0.00000000000E+00  0.93800000000E+00  0.93800000000E+00 0. -1.
         11    1    1    2    0    0 -0.20561634578E-01 -0.54440548413E-01  0.62617534224E+00  0.62887389394E+00  0.51100000000E-03 0. -1.
    9000002    1    1    2    0    0  0.37403236969E-01  0.40559399046E+00  0.11236491940E+00  0.10287737178E+01  0.93800000000E+00 0. -1.
         22    1    1    2    0    0 -0.16841602392E-01 -0.35115344205E+00  0.32614597057E+01  0.32803523883E+01  0.00000000000E+00 0. -1.
</event>
<event>
 5    1  0.7095115E+001  0.1599312E+01  0.7818608E-02  0.3354111E+00
         11   -1    0    0    0    0  0.00000000000E+00  0.00000000000E+00  0.39999999674E+01  0.40000000000E+01  0.51100000000E-03 0.  1.
    9000002   -1    0    0    0    0 -0.00000000000E+00 -0.00000000000E+00  0.00000000000E+00  0.93800000000E+00  0.93800000000E+00 0.  1.
         11    1    1    2    0    0  0.49671613226E-01  0.42097470340E-01  0.91726343817E+00  0.91957160803E+00  0.51100000000E-03 0.  1.
    9000002    1    1    2    0    0 -0.29563569567E+00 -0.17811136803E+00  0.80124778039E-01  0.10026904328E+01  0.93800000000E+00 0.  1.
         22    1    1    2    0    0  0.24596408245E+00  0.13601389769E+00  0.30026117512E+01  0.30157379592E+01  0.00000000000E+00 0.  1.
</event>
<event>
 5    1  0.7095115E+001  0.1599661E+01  0.7818608E-02  0.3353731E+00
         11   -1    0    0    0    0  0.00000000000E+00  0.00000000000E+00  0.39999999674E+01  0.40000000000E+01  0.51100000000E-03 0. -1.
    9000002   -1    0    0    0    0 -0.00000000000E+00 -0.00000000000E+00  0.00000000000E+00  0.93800000000E+00  0.93800000000E+00 0.  1.
         11    1    1    2    0    0  0.40891797803E-01 -0.11557551487E+00  0.11394924651E+01  0.11460685747E+01  0.51100000000E-03 0. -1.
    9000002    1    1    2    0    0 -0.12531657959E+00  0.38931781706E+00  0.11297416412E+00  0.10295046234E+01  0.93800000000E+00 0.  1.
         22    1    1    2    0    0  0.84424781790E-01 -0.27374230219E+00  0.27475333381E+01  0.27624268019E+01  0.00000000000E+00 0. -1.
</event>
<event>
 5    1  0.7095115E+001  0.1599539E+01  0.7818608E-02  0.3353864E+00
         11   -1    0    0    0    0  0.00000000000E+00  0.00000000000E+00  0.39999999674E+01  0.40000000000E+01  0.51100000000E-03 0.  1.
    9000002   -1    0    0    0    0 -0.00000000000E+00 -0.00000000000E+00  0.00000000000E+00  0.93800000000E+00  0.93800000000E+00 0. -1.
         11    1    1    2    0    0  0.52826169223E-01 -0.11483363394E+00  0.12015906019E+01  0.12082208421E+01  0.51100000000E-03 0.  1.
    9000002    1    1    2    0    0 -0.19174634086E+00  0.33538100655E+00  0.10061098968E+00  0.10194182900E+01  0.93800000000E+00 0. -1.
         22    1    1    2    0    0  0.13892017163E+00 -0.22054737262E+00  0.26977983758E+01  0.27103608678E+01  0.00000000000E+00 0.  1.
</event>
<event>
 5    1  0.7095115E+001  0.1599450E+01  0.7818608E-02  0.3353961E+00
         11   -1    0    0    0    0  0.00000000000E+00  0.00000000000E+00  0.39999999674E+01  0.40000000000E+01  0.51100000000E-03 0.  1.
    9000002   -1    0    0    0    0 -0.00000000000E+00 -0.00000000000E+00  0.00000000000E+00  0.93800000000E+00  0.93800000000E+00 0.  1.
         11    1    1    2    0    0 -0.18737625599E-01  0.86578499298E-01  0.83410924170E+00  0.83879999009E+00  0.51100000000E-03 0.  1.
    9000002    1    1    2    0    0  0.19899335578E-01 -0.41934991893E+00  0.11938757081E+00  0.10345761113E+01  0.93800000000E+00 0.  1.
         22    1    1    2    0    0 -0.11617099791E-02  0.33277141964E+00  0.30465031548E+01  0.30646238986E+01  0.00000000000E+00 0.  1.
</event>
<event>
 5    1  0.7095115E+001  0.1502877E+01  0.7818608E-02  0.3466030E+00
         11   -1    0    0    0    0  0.00000000000E+00  0.00000000000E+00  0.39999999674E+01  0.40000000000E+01  0.51100000000E-03 0.  1.
    9000002   -1    0    0    0    0 -0.00000000000E+00 -0.00000000000E+00  0.00000000000E+00  0.93800000000E+00  0.93800000000E+00 0. -1.
         11    1    1    2    0    0 -0.66388772574E-01  0.23631357771E+00  0.50442369496E+00  0.56097691690E+00  0.51100000000E-03 0.  1.
    9000002    1    1    2    0    0 -0.65220907182E-01  0.58978060363E-01  0.79256522121E-01  0.94544051883E+00  0.93800000000E+00 0. -1.
         22    1    1    2    0    0  0.13160967976E+00 -0.29529163807E+00  0.34163197503E+01  0.34315825643E+01  0.00000000000E+00 0.  1.
</event>
<event>
 5    1  0.7422286E+001  0.1599495E+01  0.7818608E-02  0.3353911E+00
         11   -1    0    0    0    0  0.00000000000E+00  0.00000000000E+00  0.39999999674E+01  0.40000000000E+01  0.51100000000E-03 0. -1.
    9000002   -1    0    0    0    0 -0.00000000000E+00 -0.00000000000E+00  0.00000000000E+00  0.93800000000E+00  0.93800000000E+00 0.  1.
         11    1    1    2    0    0 -0.92917893570E-01  0.56238799182E-01  0.12444293836E+01  0.12491602337E+01  0.51100000000E-03 0. -1.
    9000002    1    1    2    0    0  0.27635968068E+00 -0.22170868226E+00  0.84355618000E-01  0.10062252646E+01  0.93800000000E+00 0.  1.
         22    1    1    2    0    0 -0.18344178711E+00  0.16546988308E+00  0.26712149658E+01  0.26826145017E+01  0.00000000000E+00 0. -1.
</event>
<event>
 5    1  0.7095115E+001  0.1599566E+01  0.7818608E-02  0.3353835E+00
         11   -1    0    0    0    0  0.00000000000E+00  0.00000000000E+00  0.39999999674E+01  0.40000000000E+01  0.51100000000E-03 0.  1.
    9000002   -1    0    0    0    0 -0.00000000000E+00 -0.00000000000E+00  0.00000000000E+00  0.93800000000E+00  0.93800000000E+00 0.  1.
         11    1    1    2    0    0 -0.61142752579E-01 -0.45898303042E-01  0.68174058607E+00  0.68601426970E+00  0.51100000000E-03 0.  1.
    9000002    1    1    2    0    0  0.30114618732E+00  0.23644731796E+00  0.98761688442E-01  0.10179362610E+01  0.93800000000E+00 0.  1.
         22    1    1    2    0    0 -0.24000343474E+00 -0.19054901492E+00  0.32194976928E+01  0.32340494693E+01  0.00000000000E+00 0.  1.
</event>
<event>
 5    1  0.7095115E+001  0.1590748E+01  0.7818608E-02  0.3363466E+00
         11   -1    0    0    0    0  0.00000000000E+00  0.00000000000E+00  0.39999999674E+01  0.40000000000E+01  0.51100000000E-03 0.  1.
    9000002   -1    0    0    0    0 -0.00000000000E+00 -0.00000000000E+00  0.00000000000E+00  0.93800000000E+00  0.93800000000E+00 0. -1.
         11    1    1    2    0    0 -0.57931987044E-01 -0.18651861327E+00  0.12325114348E+01  0.12478902220E+01  0.51100000000E-03 0.  1.
    9000002    1    1    2    0    0 -0.10273005585E+00  0.41254725881E+00  0.12993172014E+00  0.10380149118E+01  0.93800000000E+00 0. -1.
         22    1    1    2    0    0  0.16066204290E+00 -0.22602864554E+00  0.26375568124E+01  0.26520948662E+01  0.00000000000E+00 0.  1.
</event>
<event>
 5    1  0.7095115E+001  0.1599677E+01  0.7818608E-02  0.3353714E+00
         11   -1    0    0    0    0  0.00000000000E+00  0.00000000000E+00  0.39999999674E+01  0.40000000000E+01  0.51100000000E-03 0. -1.
    9000002   -1    0    0    0    0 -0.00000000000E+00 -0.00000000000E+00  0.00000000000E+00  0.93800000000E+00  0.93800000000E+00 0.  1.
         11    1    1    2    0    0  0.75210554461E-02 -0.90484778316E-01  0.60357363572E+00  0.61036501885E+00  0.51100000000E-03 0.  1.
    9000002    1    1    2    0    0 -0.46905883886E-01  0.56674168129E+00  0.22418188588E+00  0.11195971656E+01  0.93800000000E+00 0.  1.
         22    1    1    2    0    0  0.39384828440E-01 -0.47625690297E+00  0.31722444458E+01  0.32080378156E+01  0.00000000000E+00 0. -1.
</event>
<event>
 5    1  0.7095115E+001  0.1599670E+01  0.7818608E-02  0.3353722E+00
         11   -1    0    0    0    0  0.00000000000E+00  0.00000000000E+00  0.39999999674E+01  0.40000000000E+01  0.51100000000E-03 0. -1.
    9000002   -1    0    0    0    0 -0.00000000000E+00 -0.00000000000E+00  0.00000000000E+00  0.93800000000E+00  0.93800000000E+00 0.  1.
         11    1    1    2    0    0 -0.36094686859E-01  0.15680809048E+00  0.12180613212E+01  0.12286436615E+01  0.51100000000E-03 0. -1.
    9000002    1    1    2    0    0  0.12209094680E+00 -0.49531180248E+00  0.17846276055E+00  0.10825585148E+01  0.93800000000E+00 0.  1.
         22    1    1    2    0    0 -0.85996259943E-01  0.33850371201E+00  0.26034758856E+01  0.26267978237E+01  0.00000000000E+00 0. -1.
</event>
<event>
 5    1  0.7095115E+001  0.1599668E+01  0.7818608E-02  0.3353724E+00
         11   -1    0    0    0    0  0.00000000000E+00  0.00000000000E+00  0.39999999674E+01  0.40000000000E+01  0.51100000000E-03 0. -1.
    9000002   -1    0    0    0    0 -0.00000000000E+00 -0.00000000000E+00  0.00000000000E+00  0.93800000000E+00  0.93800000000E+00 0.  1.
         11    1    1    2    0    0 -0.36628178494E-01 -0.65487598795E-01  0.81955989915E+00  0.82298781186E+00  0.51100000000E-03 0. -1.
    9000002    1    1    2    0    0  0.16193679325E+00  0.31793811801E+00  0.85433526723E-01  0.10071996125E+01  0.93800000000E+00 0.  1.
         22    1    1    2    0    0 -0.12530861475E+00 -0.25245051921E+00  0.30950065415E+01  0.31078125757E+01  0.00000000000E+00 0. -1.
</event>
<event>
 5    1  0.7095115E+001  0.1562385E+01  0.7818608E-02  0.3395230E+00
         11   -1    0    0    0    0  0.00000000000E+00  0.00000000000E+00  0.39999999674E+01  0.40000000000E+01  0.51100000000E-03 0. -1.
    9000002   -1    0    0    0    0 -0.00000000000E+00 -0.00000000000E+00  0.00000000000E+00  0.93800000000E+00  0.93800000000E+00 0. -1.
         11    1    1    2    0    0  0.70068412070E-01  0.47601585460E-01  0.12169138282E+01  0.12198586064E+01  0.51100000000E-03 0. -1.
    9000002    1    1    2    0    0 -0.79329338388E-01  0.51440304180E+00  0.22117209159E+00  0.10952920740E+01  0.93800000000E+00 0. -1.
         22    1    1    2    0    0  0.92609263175E-02 -0.56200462726E+00  0.25619140476E+01  0.26228493196E+01  0.00000000000E+00 0. -1.
</event>
<event>
 5    1  0.7095115E+001  0.1503625E+01  0.7818608E-02  0.3465102E+00
         11   -1    0    0    0    0  0.00000000000E+00  0.00000000000E+00  0.39999999674E+01  0.40000000000E+01  0.51100000000E-03 0.  1.
    9000002   -1    0    0    0    0 -0.00000000000E+00 -0.00000000000E+00  0.00000000000E+00  0.93800000000E+00  0.93800000000E+00 0. -1.
         11    1    1    2    0    0 -0.29061268140E+00 -0.42363499019E-01  0.62938569979E+00  0.69453366863E+00  0.51100000000E-03 0.  1.
    9000002    1    1    2    0    0  0.14834426555E+00 -0.27746765286E+00  0.14619924086E+00  0.10001062631E+01  0.93800000000E+00 0. -1.
         22    1    1    2    0    0  0.14226841585E+00  0.31983115188E+00  0.32244150267E+01  0.32433600682E+01  0.00000000000E+00 0. -1.
</event>
<event>
 5    1  0.7095115E+001  0.1599677E+01  0.7818608E-02  0.3353714E+00
         11   -1    0    0    0    0  0.00000000000E+00  0.00000000000E+00  0.39999999674E+01  0.40000000000E+01  0.51100000000E-03 0. -1.
    9000002   -1    0    0    0    0 -0.00000000000E+00 -0.00000000000E+00  0.00000000000E+00  0.93800000000E+00  0.93800000000E+00 0.  1.
         11    1    1    2    0    0  0.18845208642E+00  0.69321910592E-01  0.10304311263E+01  0.10498134517E+01  0.51100000000E-03 0. -1.
    9000002    1    1    2    0    0 -0.66476278537E+00 -0.24323809005E+00  0.35887094625E+00  0.12287012189E+01  0.93800000000E+00 0.  1.
         22    1    1    2    0    0  0.47631069895E+00  0.17391617946E+00  0.26106978948E+01  0.26594853294E+01  0.00000000000E+00 0. -1.
</event>
<event>
 5    1  0.7095115E+001  0.1597369E+01  0.7818608E-02  0.3356224E+00
         11   -1    0    0    0    0  0.00000000000E+00  0.00000000000E+00  0.39999999674E+01  0.40000000000E+01  0.51100000000E-03 0. -1.
    9000002   -1    0    0    0    0 -0.00000000000E+00 -0.00000000000E+00  0.00000000000E+00  0.93800000000E+00  0.93800000000E+00 0. -1.
         11    1    1    2    0    0 -0.20804408813E+00 -0.26809199805E-01  0.13213928613E+01  0.13379388741E+01  0.51100000000E-03 0. -1.
    9000002    1    1    2    0    0  0.44617814726E+00  0.73332242154E-01  0.14090487771E+00  0.10507857733E+01  0.93800000000E+00 0. -1.
         22    1    1    2    0    0 -0.23813405913E+00 -0.46523042349E-01  0.25377022284E+01  0.25492753526E+01  0.00000000000E+00 0. -1.
</event>
<event>
 5    1  0.7095115E+001  0.1598788E+01  0.7818608E-02  0.3354680E+00
         11   -1    0    0    0    0  0.00000000000E+00  0.00000000000E+00  0.39999999674E+01  0.40000000000E+01  0.51100000000E-03 0. -1.
    9000002   -1    0    0    0    0 -0.00000000000E+00 -0.00000000000E+00  0.00000000000E+00  0.93800000000E+00  0.93800000000E+00 0. -1.
         11    1    1    2    0    0 -0.13971708274E+00  0.22036890046E+00  0.11976816677E+01  0.12257752461E+01  0.51100000000E-03 0. -1.
    9000002    1    1    2    0    0  0.33617461974E+00 -0.71609609321E+00  0.46074162237E+00  0.13106997491E+01  0.93800000000E+00 0. -1.
         22    1    1    2    0    0 -0.19645753701E+00  0.49572719275E+00  0.23415766773E+01  0.24015250049E+01  0.00000000000E+00 0. -1.
</event>
<event>
 5    1  0.7095115E+001  0.1599677E+01  0.7818608E-02  0.3353714E+00
         11   -1    0    0    0    0  0.00000000000E+00  0.00000000000E+00  0.39999999674E+01  0.40000000000E+01  0.51100000000E-03 0. -1.
    9000002   -1    0    0    0    0 -0.00000000000E+00 -0.00000000000E+00  0.00000000000E+00  0.93800000000E+00  0.93800000000E+00 0.  1.
         11    1    1    2    0    0 -0.71981695805E-01 -0.41864183663E-01  0.81878092612E+00  0.82300452034E+00  0.51100000000E-03 0. -1.
    9000002    1    1    2    0    0  0.34380158206E+00  0.19996329920E+00  0.10666798483E+00  0.10244056364E+01  0.93800000000E+00 0.  1.
         22    1    1    2    0    0 -0.27181988625E+00 -0.15809911554E+00  0.30745510564E+01  0.30905898433E+01  0.00000000000E+00 0. -1.
</event>
<event>
 5    1  0.7095115E+001  0.1599658E+01  0.7818608E-02  0.3353735E+00
         11   -1    0    0    0    0  0.00000000000E+00  0.00000000000E+00  0.39999999674E+01  0.40000000000E+01  0.51100000000E-03 0.  1.
    9000002   -1    0    0    0    0 -0.00000000000E+00 -0.00000000000E+00  0.00000000000E+00  0.93800000000E+00  0.93800000000E+00 0. -1.
         11    1    1    2    0    0 -0.10765007691E+00  0.38003105143E-01  0.73707056535E+00  0.74585927257E+00  0.51100000000E-03 0.  1.
    9000002    1    1    2    0    0  0.56897137216E+00 -0.19421638944E+00  0.25226655032E+00  0.11423356953E+01  0.93800000000E+00 0. -1.
         22    1    1    2    0    0 -0.46132129524E+00  0.15621328430E+00  0.30106628517E+01  0.30498050322E+01  0.00000000000E+00 0.  1.
</event>
<event>
 5    1  0.7095115E+001  0.1478708E+01  0.7818608E-02  0.3496535E+00
         11   -1    0    0    0    0  0.00000000000E+00  0.00000000000E+00  0.39999999674E+01  0.40000000000E+01  0.51100000000E-03 0. -1.
    9000002   -1    0    0    0    0 -0.00000000000E+00 -0.00000000000E+00  0.00000000000E+00  0.93800000000E+00  0.93800000000E+00 0.  1.
         11    1    1    2    0    0  0.11980235109E+00 -0.35033482587E+00  0.12495096025E+01  0.13032120324E+01  0.51100000000E-03 0. -1.
    9000002    1    1    2    0    0  0.33073591036E+00  0.91701016752E-01  0.18322070329E+00  0.10154846848E+01  0.93800000000E+00 0.  1.
         22    1    1    2    0    0 -0.45053826145E+00  0.25863380912E+00  0.25672696616E+01  0.26193032829E+01  0.00000000000E+00 0. -1.
</event>
<event>
 5    1  0.7095115E+001  0.1597808E+01  0.7818608E-02  0.3355746E+00
         11   -1    0    0    0    0  0.00000000000E+00  0.00000000000E+00  0.39999999674E+01  0.40000000000E+01  0.51100000000E-03 0.  1.
    9000002   -1    0    0    0    0 -0.00000000000E+00 -0.00000000000E+00  0.00000000000E+00  0.93800000000E+00  0.93800000000E+00 0. -1.
         11    1    1    2    0    0  0.19782727634E-02 -0.72661718338E-01  0.71555704682E+00  0.71923972864E+00  0.51100000000E-03 0.  1.
    9000002    1    1    2    0    0 -0.21730077904E+00  0.32177280140E+00  0.10308266406E+00  0.10204055076E+01  0.93800000000E+00 0. -1.
         22    1    1    2    0    0  0.21532250627E+00 -0.24911108306E+00  0.31813602565E+01  0.31983547638E+01  0.00000000000E+00 0.  1.
</event>
<event>
 5    1  0.7095115E+001  0.1583371E+01  0.7818608E-02  0.3371612E+00
         11   -1    0    0    0    0  0.00000000000E+00  0.00000000000E+00  0.39999999674E+01  0.40000000000E+01  0.51100000000E-03 0. -1.
    9000002   -1    0    0    0    0 -0.00000000000E+00 -0.00000000000E+00  0.00000000000E+00  0.93800000000E+00  0.93800000000E+00 0.  1.
         11    1    1    2    0    0 -0.66315261639E-01  0.27614885067E-01  0.47641182896E+00  0.48179745506E+00  0.51100000000E-03 0. -1.
    9000002    1    1    2    0    0 -0.26884379337E+00 -0.89351720834E-01  0.66226315654E-01  0.98208484365E+00  0.93800000000E+00 0.  1.
         22    1    1    2    0    0  0.33515905501E+00  0.61736835767E-01  0.34573618227E+01  0.34741177013E+01  0.00000000000E+00 0. -1.
</event>
<event>
 5    1  0.7095115E+001  0.1595967E+01  0.7818608E-02  0.3357753E+00
         11   -1    0    0    0    0  0.00000000000E+00  0.00000000000E+00  0.39999999674E+01  0.40000000000E+01  0.51100000000E-03 0. -1.
    9000002   -1    0    0    0    0 -0.00000000000E+00 -0.00000000000E+00  0.00000000000E+00  0.93800000000E+00  0.93800000000E+00 0. -1.
         11    1    1    2    0    0 -0.46803789426E-01  0.69329101310E-02  0.73943123531E+00  0.74094363674E+00  0.51100000000E-03 0. -1.
    9000002    1    1    2    0    0  0.36265069074E+00  0.24193618367E+00  0.13199188974E+00  0.10427437362E+01  0.93800000000E+00 0. -1.
         22    1    1    2    0    0 -0.31584690132E+00 -0.24886909380E+00  0.31285768423E+01  0.31543126270E+01  0.00000000000E+00 0. -1.
</event>
<event>
 5    1  0.7095115E+001  0.1599676E+01  0.7818608E-02  0.3353715E+00
         11   -1    0    0    0    0  0.00000000000E+00  0.00000000000E+00  0.39999999674E+01  0.40000000000E+01  0.51100000000E-03 0.  1.
    9000002   -1    0    0    0    0 -0.00000000000E+00 -0.00000000000E+00  0.00000000000E+00  0.93800000000E+00  0.93800000000E+00 0.  1.
         11    1    1    2    0    0  0.26429317355E-01  0.15635782618E+00  0.88989458536E+00  0.90391311131E+00  0.51100000000E-03 0.  1.
    9000002    1    1    2    0    0 -0.10684873989E+00 -0.64850921863E+00  0.30536266632E+00  0.11853570002E+01  0.93800000000E+00 0.  1.
         22    1    1    2    0    0  0.80419422538E-01  0.49215139244E+00  0.28047427157E+01  0.28487298885E+01  0.00000000000E+00 0.  1.
</event>
<event>
 5    1  0.7095115E+001  0.1599661E+01  0.7818608E-02  0.3353731E+00
         11   -1    0    0    0    0  0.00000000000E+00  0.00000000000E+00  0.39999999674E+01  0.40000000000E+01  0.51100000000E-03 0. -1.
    9000002   -1    0    0    0    0 -0.00000000000E+00 -0.00000000000E+00  0.00000000000E+00  0.93800000000E+00  0.93800000000E+00 0. -1.
         11    1    1    2    0    0 -0.19584236407E+00  0.21838133433E-01  0.71336154416E+00  0.74007843466E+00  0.51100000000E-03 0. -1.
    9000002    1    1    2    0    0  0.90440657116E+00 -0.10594154384E+00  0.63765048627E+00  0.14545160705E+01  0.93800000000E+00 0. -1.
         22    1    1    2    0    0 -0.70856420708E+00  0.84103410406E-01  0.26489879369E+01  0.27434054949E+01  0.00000000000E+00 0. -1.
</event>
<event>
 5    1  0.7095115E+001  0.1599677E+01  0.7818608E-02  0.3353714E+00
         11   -1    0    0    0    0  0.00000000000E+00  0.00000000000E+00  0.39999999674E+01  0.40000000000E+01  0.51100000000E-03 0. -1.
    9000002   -1    0    0    0    0 -0.00000000000E+00 -0.00000000000E+00  0.00000000000E+00  0.93800000000E+00  0.93800000000E+00 0.  1.
         11    1    1    2    0    0 -0.22431680008E+00 -0.15467593456E+00  0.13045317097E+01  0.13326837263E+01  0.51100000000E-03 0. -1.
    9000002    1    1    2    0    0  0.61817659784E+00  0.42639075532E+00  0.40894611054E+00  0.12692644735E+01  0.93800000000E+00 0.  1.
         22    1    1    2    0    0 -0.39385979776E+00 -0.27171482076E+00  0.22865221471E+01  0.23360518002E+01  0.00000000000E+00 0. -1.
</event>
<event>
 5    1  0.7095115E+001  0.1598989E+01  0.7818608E-02  0.3354461E+00
         11   -1    0    0    0    0  0.00000000000E+00  0.00000000000E+00  0.39999999674E+01  0.40000000000E+01  0.51100000000E-03 0. -1.
    9000002   -1    0    0    0    0 -0.00000000000E+00 -0.00000000000E+00  0.00000000000E+00  0.93800000000E+00  0.93800000000E+00 0.  1.
         11    1    1    2    0    0 -0.61049421300E-01 -0.67366533862E-01  0.99959085553E+00  0.10037168033E+01  0.51100000000E-03 0. -1.
    9000002    1    1    2    0    0  0.29689716756E+00  0.34803133954E+00  0.14289129572E+00  0.10533449880E+01  0.93800000000E+00 0.  1.
         22    1    1    2    0    0 -0.23584774626E+00 -0.28066480568E+00  0.28575178161E+01  0.28809382086E+01  0.00000000000E+00 0. -1.
</event>
<event>
 5    1  0.7095115E+001  0.1599621E+01  0.7818608E-02  0.3353775E+00
         11   -1    0    0    0    0  0.00000000000E+00  0.00000000000E+00  0.39999999674E+01  0.40000000000E+01  0.51100000000E-03 0. -1.
    9000002   -1    0    0    0    0 -0.00000000000E+00 -0.00000000000E+00  0.00000000000E+00  0.93800000000E+00  0.93800000000E+00 0. -1.
         11    1    1    2    0    0 -0.15954574322E+00 -0.81094340535E-01  0.10302092044E+01  0.10456397096E+01  0.51100000000E-03 0. -1.
    9000002    1    1    2    0    0  0.56728777186E+00  0.26541617639E+00  0.27532906130E+00  0.11609958031E+01  0.93800000000E+00 0. -1.
         22    1    1    2    0    0 -0.40774202864E+00 -0.18432183585E+00  0.26944617016E+01  0.27313644873E+01  0.00000000000E+00 0. -1.
</event>
<event>
 5    1  0.7095115E+001  0.1588063E+01  0.7818608E-02  0.3366422E+00
         11   -1    0    0    0    0  0.00000000000E+00  0.00000000000E+00  0.39999999674E+01  0.40000000000E+01  0.51100000000E-03 0. -1.
    9000002   -1    0    0    0    0 -0.00000000000E+00 -0.00000000000E+00  0.00000000000E+00  0.93800000000E+00  0.93800000000E+00 0. -1.
         11    1    1    2    0    0  0.17489066726E-01  0.67426782805E-01  0.14793895237E+00  0.16351890791E+00  0.51100000000E-03 0. -1.
    9000002    1    1    2    0    0  0.10132545682E+00 -0.51413415297E+00  0.19953396747E+00  0.10928213851E+01  0.93800000000E+00 0. -1.
         22    1    1    2    0    0 -0.11881452355E+00  0.44670737017E+00  0.36525270475E+01  0.36816597070E+01  0.00000000000E+00 0. -1.
</event>
<event>
 5    1  0.7095115E+001  0.1599663E+01  0.7818608E-02  0.3353729E+00
         11   -1    0    0    0    0  0.00000000000E+00  0.00000000000E+00  0.39999999674E+01  0.40000000000E+01  0.51100000000E-03 0. -1.
    9000002   -1    0    0    0    0 -0.00000000000E+00 -0.00000000000E+00  0.00000000000E+00  0.93800000000E+00  0.93800000000E+00 0. -1.
         11    1    1    2    0    0 -0.24705643830E-01  0.35416793474E-01  0.45544931503E+00  0.45749213958E+00  0.51100000000E-03 0. -1.
    9000002    1    1    2    0    0  0.18834247795E+00 -0.30940625922E+00  0.88106599501E-01  0.10093621229E+01  0.93800000000E+00 0. -1.
         22    1    1    2    0    0 -0.16363683412E+00  0.27398946575E+00  0.34564440528E+01  0.34711457375E+01  0.00000000000E+00 0. -1.
</event>
<event>
 5    1  0.7095115E+001  0.1596830E+01  0.7818608E-02  0.3356811E+00
         11   -1    0    0    0    0  0.00000000000E+00  0.00000000000E+00  0.39999999674E+01  0.40000000000E+01  0.51100000000E-03 0.  1.
    9000002   -1    0    0    0    0 -0.00000000000E+00 -0.00000000000E+00  0.00000000000E+00  0.93800000000E+00  0.93800000000E+00 0. -1.
         11    1    1    2    0    0 -0.17864403355E+00 -0.86176489233E-01  0.10449400426E+01  0.10635976832E+01  0.51100000000E-03 0.  1.
    9000002    1    1    2    0    0  0.52057609362E+00  0.14667691430E+00  0.20436005851E+00  0.11018714172E+01  0.93800000000E+00 0. -1.
         22    1    1    2    0    0 -0.34193206007E+00 -0.60500425063E-01  0.27506998663E+01  0.27725308996E+01  0.00000000000E+00 0.  1.
</event>
<event>
 5    1  0.7095115E+001  0.1599643E+01  0.7818608E-02  0.3353751E+00
         11   -1    0    0    0    0  0.00000000000E+00  0.00000000000E+00  0.39999999674E+01  0.40000000000E+01  0.51100000000E-03 0. -1.
    9000002   -1    0    0    0    0 -0.00000000000E+00 -0.00000000000E+00  0.00000000000E+00  0.93800000000E+00  0.93800000000E+00 0.  1.
         11    1    1    2    0    0  0.95492148618E-01  0.85460131479E-01  0.13191124645E+01  0.13253226549E+01  0.51100000000E-03 0. -1.
    9000002    1    1    2    0    0 -0.26469233067E+00 -0.26093921991E+00  0.92889472049E-01  0.10132244373E+01  0.93800000000E+00 0.  1.
         22    1    1    2    0    0  0.16920018206E+00  0.17547908843E+00  0.25879980308E+01  0.25994529078E+01  0.00000000000E+00 0. -1.
</event>
<event>
 5    1  0.7095115E+001  0.1599677E+01  0.7818608E-02  0.3353714E+00
         11   -1    0    0    0    0  0.00000000000E+00  0.00000000000E+00  0.39999999674E+01  0.40000000000E+01  0.51100000000E-03 0.  1.
    9000002   -1    0    0    0    0 -0.00000000000E+00 -0.00000000000E+00  0.00000000000E+00  0.93800000000E+00  0.93800000000E+00 0.  1.
         11    1    1    2    0    0  0.99740605946E-02 -0.10472132950E+00  0.98985334812E+00  0.99542752155E+00  0.51100000000E-03 0. -1.
    9000002    1    1    2    0    0 -0.38207014395E-01  0.41167424789E+00  0.11550252569E+00  0.10315620659E+01  0.93800000000E+00 0.  1.
         22    1    1    2    0    0  0.28232953800E-01 -0.30695291838E+00  0.28946440936E+01  0.29110104126E+01  0.00000000000E+00 0.  1.
</event>
<event>
 5    1  0.7095115E+001  0.1599637E+01  0.7818608E-02  0.3353758E+00
         11   -1    0    0    0    0  0.00000000000E+00  0.00000000000E+00  0.39999999674E+01  0.40000000000E+01  0.51100000000E-03 0. -1.
    9000002   -1    0    0    0    0 -0.00000000000E+00 -0.00000000000E+00  0.00000000000E+00  0.93800000000E+00  0.93800000000E+00 0. -1.
         11    1    1    2    0    0 -0.91684537665E-01  0.36171018232E-02  0.10575416126E+01  0.10615147957E+01  0.51100000000E-03 0. -1.
    9000002    1    1    2    0    0  0.35467015417E+00  0.65204722763E-02  0.84449314481E-01  0.10063841819E+01  0.93800000000E+00 0. -1.
         22    1    1    2    0    0 -0.26298561651E+00 -0.10137574100E-01  0.28580090402E+01  0.28701010224E+01  0.00000000000E+00 0. -1.
</event>
<event>
 5    1  0.7095115E+001  0.1594967E+01  0.7818608E-02  0.3358844E+00
         11   -1    0    0    0    0  0.00000000000E+00  0.00000000000E+00  0.39999999674E+01  0.40000000000E+01  0.51100000000E-03 0. -1.
    9000002   -1    0    0    0    0 -0.00000000000E+00 -0.00000000000E+00  0.00000000000E+00  0.93800000000E+00  0.93800000000E+00 0.  1.
         11    1    1    2    0    0 -0.11816822107E-02 -0.13526122137E-01  0.10632225424E+01  0.10633093567E+01  0.51100000000E-03 0. -1.
    9000002    1    1    2    0    0  0.27584314171E+00  0.68761448556E-01  0.57503666903E-01  0.98181884650E+00  0.93800000000E+00 0.  1.
         22    1    1    2    0    0 -0.27466145950E+00 -0.55235326419E-01  0.28792737581E+01  0.28928717968E+01  0.00000000000E+00 0. -1.
</event>
<event>
 5    1  0.7095115E+001  0.1599672E+01  0.7818608E-02  0.3353720E+00
         11   -1    0    0    0    0  0.00000000000E+00  0.00000000000E+00  0.39999999674E+01  0.40000000000E+01  0.51100000000E-03 0.  1.
    9000002   -1    0    0    0    0 -0.00000000000E+00 -0.00000000000E+00  0.00000000000E+00  0.93800000000E+00  0.93800000000E+00 0. -1.
         11    1    1    2    0    0  0.78021526883E-01 -0.14481947212E+00  0.11304192062E+01  0.11423256458E+01  0.51100000000E-03 0.  1.
    9000002    1    1    2    0    0 -0.25925114450E+00  0.49310047535E+00  0.21466188390E+00  0.11118826193E+01  0.93800000000E+00 0. -1.
         22    1    1    2    0    0  0.18122961761E+00 -0.34828100322E+00  0.26549188773E+01  0.26837917349E+01  0.00000000000E+00 0.  1.
</event>
<event>
 5    1  0.7095115E+001  0.1584258E+01  0.7818608E-02  0.3370628E+00
         11   -1    0    0    0    0  0.00000000000E+00  0.00000000000E+00  0.39999999674E+01  0.40000000000E+01  0.51100000000E-03 0.  1.
    9000002   -1    0    0    0    0 -0.00000000000E+00 -0.00000000000E+00  0.00000000000E+00  0.93800000000E+00  0.93800000000E+00 0.  1.
         11    1    1    2    0    0  0.47013735973E-01 -0.73414142320E-01  0.93595082430E+00  0.94000219909E+00  0.51100000000E-03 0.  1.
    9000002    1    1    2    0    0  0.33345509464E+00  0.32370544741E+00  0.16061624935E+00  0.10590651993E+01  0.93800000000E+00 0.  1.
         22    1    1    2    0    0 -0.38046883062E+00 -0.25029130509E+00  0.29034328937E+01  0.29389326016E+01  0.00000000000E+00 0.  1.
</event>
<event>
 5    1  0.7095115E+001  0.1599673E+01  0.7818608E-02  0.3353719E+00
         11   -1    0    0    0    0  0.00000000000E+00  0.00000000000E+00  0.39999999674E+01  0.40000000000E+01  0.51100000000E-03 0. -1.
    9000002   -1    0    0    0    0 -0.00000000000E+00 -0.00000000000E+00  0.00000000000E+00  0.93800000000E+00  0.93800000000E+00 0. -1.
         11    1    1    2    0    0 -0.94486049683E-01 -0.61504967399E-01  0.12327372335E+01  0.12378819906E+01  0.51100000000E-03 0. -1.
    9000002    1    1    2    0    0  0.30295784421E+00  0.20178649099E+00  0.88987408842E-01  0.10100811860E+01  0.93800000000E+00 0. -1.
         22    1    1    2    0    0 -0.20847179453E+00 -0.14028152359E+00  0.26782753250E+01  0.26900368235E+01  0.00000000000E+00 0. -1.
</event>
<event>
 5    1  0.7095115E+001  0.1599654E+01  0.7818608E-02  0.3353739E+00
         11   -1    0    0    0    0  0.00000000000E+00  0.00000000000E+00  0.39999999674E+01  0.40000000000E+01  0.51100000000E-03 0. -1.
    9000002   -1    0    0    0    0 -0.00000000000E+00 -0.00000000000E+00  0.00000000000E+00  0.93800000000E+00  0.93800000000E+00 0. -1.
         11    1    1    2    0    0 -0.94344323217E-01  0.78970443243E-01  0.78467610256E+00  0.79426319899E+00  0.51100000000E-03 0. -1.
    9000002    1    1    2    0    0  0.45122386191E+00 -0.35709017194E+00  0.22986547479E+00  0.11241879296E+01  0.93800000000E+00 0. -1.
         22    1    1    2    0    0 -0.35687953869E+00  0.27811972869E+00  0.29854583900E+01  0.30195488715E+01  0.00000000000E+00 0. -1.
</event>
<event>
 5    1  0.7095115E+001  0.1598383E+01  0.7818608E-02  0.3355121E+00
         11   -1    0    0    0    0  0.00000000000E+00  0.00000000000E+00  0.39999999674E+01  0.40000000000E+01  0.51100000000E-03 0.  1.
    9000002   -1    0    0    0    0 -0.00000000000E+00 -0.00000000000E+00  0.00000000000E+00  0.93800000000E+00  0.93800000000E+00 0. -1.
         11    1    1    2    0    0  0.12427461701E+00  0.15271284989E+00  0.13409530073E+01  0.13553304483E+01  0.51100000000E-03 0.  1.
    9000002    1    1    2    0    0 -0.36895874299E+00 -0.31918166386E+00  0.16375716253E+00  0.10698915351E+01  0.93800000000E+00 0. -1.
         22    1    1    2    0    0  0.24468412599E+00  0.16646881397E+00  0.24952897975E+01  0.25127780166E+01  0.00000000000E+00 0.  1.
</event>
<event>
 5    1  0.7095115E+001  0.1599563E+01  0.7818608E-02  0.3353838E+00
         11   -1    0    0    0    0  0.00000000000E+00  0.00000000000E+00  0.39999999674E+01  0.40000000000E+01  0.51100000000E-03 0.  1.
    9000002   -1    0    0    0    0 -0.00000000000E+00 -0.00000000000E+00  0.00000000000E+00  0.93800000000E+00  0.93800000000E+00 0.  1.
         11    1    1    2    0    0 -0.36741814621E-01 -0.89299352196E-01  0.75111041880E+00  0.75729218773E+00  0.51100000000E-03 0.  1.
    9000002    1    1    2    0    0  0.14467495537E+00  0.43036211267E+00  0.14019132905E+00  0.10514941747E+01  0.93800000000E+00 0.  1.
         22    1    1    2    0    0 -0.10793314074E+00 -0.34106276048E+00  0.31086982195E+01  0.31292136375E+01  0.00000000000E+00 0.  1.
</event>
<event>
 5    1  0.7095115E+001  0.1583386E+01  0.7818608E-02  0.3371596E+00
         11   -1    0    0    0    0  0.00000000000E+00  0.00000000000E+00  0.39999999674E+01  0.40000000000E+01  0.51100000000E-03 0. -1.
    9000002   -1    0    0    0    0 -0.00000000000E+00 -0.00000000000E+00  0.00000000000E+00  0.93800000000E+00  0.93800000000E+00 0.  1.
         11    1    1    2    0    0  0.22372197409E+00  0.15428178628E+00  0.11042839032E+01  0.11372324262E+01  0.51100000000E-03 0. -1.
    9000002    1    1    2    0    0 -0.98966867151E+00 -0.20354096089E+00  0.85935780635E+00  0.16245654316E+01  0.93800000000E+00 0.  1.
         22    1    1    2    0    0  0.76594669742E+00  0.49259174610E-01  0.20363582579E+01  0.21762021422E+01  0.00000000000E+00 0. -1.
</event>
<event>
 5    1  0.7095115E+001  0.1599677E+01  0.7818608E-02  0.3353714E+00
         11   -1    0    0    0    0  0.00000000000E+00  0.00000000000E+00  0.39999999674E+01  0.40000000000E+01  0.51100000000E-03 0. -1.
    9000002   -1    0    0    0    0 -0.00000000000E+00 -0.00000000000E+00  0.00000000000E+00  0.93800000000E+00  0.93800000000E+00 0.  1.
         11    1    1    2    0    0  0.11228154885E+00  0.88492683889E-01  0.11307592604E+01  0.11397608817E+01  0.51100000000E-03 0. -1.
    9000002    1    1    2    0    0 -0.37920517110E+00 -0.29972143072E+00  0.15949576002E+00  0.10671983861E+01  0.93800000000E+00 0.  1.
         22    1    1    2    0    0  0.26692362224E+00  0.21122874683E+00  0.27097449470E+01  0.27310407322E+01  0.00000000000E+00 0. -1.
</event>
<event>
 5    1  0.7154095E+001  0.1599448E+01  0.7818608E-02  0.3353963E+00
         11   -1    0    0    0    0  0.00000000000E+00  0.00000000000E+00  0.39999999674E+01  0.40000000000E+01  0.51100000000E-03 0. -1.
    9000002   -1    0    0    0    0 -0.00000000000E+00 -0.00000000000E+00  0.00000000000E+00  0.93800000000E+00  0.93800000000E+00 0.  1.
         11    1    1    2    0    0 -0.33122529958E-01  0.11228830603E+00  0.13955621542E+01  0.14004641206E+01  0.51100000000E-03 0. -1.
    9000002    1    1    2    0    0  0.12671269970E+00 -0.34973712077E+00  0.93200502089E-01  0.10133619765E+01  0.93800000000E+00 0.  1.
         22    1    1    2    0    0 -0.93590169740E-01  0.23744881473E+00  0.25112373111E+01  0.25241739029E+01  0.00000000000E+00 0. -1.
</event>
<event>
 5    1  0.7095115E+001  0.1556751E+01  0.7818608E-02  0.3401685E+00
         11   -1    0    0    0    0  0.00000000000E+00  0.00000000000E+00  0.39999999674E+01  0.40000000000E+01  0.51100000000E-03 0. -1.
    9000002   -1    0    0    0    0 -0.00000000000E+00 -0.00000000000E+00  0.00000000000E+00  0.93800000000E+00  0.93800000000E+00 0. -1.
         11    1    1    2    0    0  0.48710877244E-01  0.66995740789E-01  0.44348682030E+00  0.45115629192E+00  0.51100000000E-03 0. -1.
    9000002    1    1    2    0    0 -0.43155624170E+00  0.77128318873E+00  0.66139193166E+00  0.14485861501E+01  0.93800000000E+00 0. -1.
         22    1    1    2    0    0  0.38284536446E+00 -0.83827892952E+00  0.28951212154E+01  0.30382575580E+01  0.00000000000E+00 0. -1.
</event>
<event>
 5    1  0.7095115E+001  0.1599650E+01  0.7818608E-02  0.3353743E+00
         11   -1    0    0    0    0  0.00000000000E+00  0.00000000000E+00  0.39999999674E+01  0.40000000000E+01  0.51100000000E-03 0. -1.
    9000002   -1    0    0    0    0 -0.00000000000E+00 -0.00000000000E+00  0.00000000000E+00  0.93800000000E+00  0.93800000000E+00 0.  1.
         11    1    1    2    0    0 -0.41972578188E-01 -0.26840463042E-01  0.46224153842E+00  0.46491892706E+00  0.51100000000E-03 0. -1.
    9000002    1    1    2    0    0  0.31995829323E+00  0.22867909944E+00  0.10425933555E+00  0.10224389708E+01  0.93800000000E+00 0.  1.
         22    1    1    2    0    0 -0.27798571504E+00 -0.20183863640E+00  0.34334990934E+01  0.34506421022E+01  0.00000000000E+00 0. -1.
</event>
<event>
 5    1  0.7095115E+001  0.1599658E+01  0.7818608E-02  0.3353735E+00
         11   -1    0    0    0    0  0.00000000000E+00  0.00000000000E+00  0.39999999674E+01  0.40000000000E+01  0.51100000000E-03 0.  1.
    9000002   -1    0    0    0    0 -0.00000000000E+00 -0.00000000000E+00  0.00000000000E+00  0.93800000000E+00  0.93800000000E+00 0.  1.
         11    1    1    2    0    0 -0.13182669423E-01 -0.80614688413E-01  0.61794961356E+00  0.62332535388E+00  0.51100000000E-03 0.  1.
    9000002    1    1    2    0    0  0.10079983132E+00  0.48511377786E+00  0.16794630524E+00  0.10740325623E+01  0.93800000000E+00 0.  1.
         22    1    1    2    0    0 -0.87617161892E-01 -0.40449908944E+00  0.32141040486E+01  0.32406420838E+01  0.00000000000E+00 0.  1.
</event>
<event>
 5    1  0.7095115E+001  0.1599612E+01  0.7818608E-02  0.3353785E+00
         11   -1    0    0    0    0  0.00000000000E+00  0.00000000000E+00  0.39999999674E+01  0.40000000000E+01  0.51100000000E-03 0. -1.
    9000002   -1    0    0    0    0 -0.00000000000E+00 -0.00000000000E+00  0.00000000000E+00  0.93800000000E+00  0.93800000000E+00 0.  1.
         11    1    1    2    0    0  0.12546990132E+00  0.17361627581E+00  0.83154346486E+00  0.85869092370E+00  0.51100000000E-03 0. -1.
    9000002    1    1    2    0    0 -0.48422930459E+00 -0.72667400808E+00  0.57724670393E+00  0.14055571460E+01  0.93800000000E+00 0.  1.
         22    1    1    2    0    0  0.35875940326E+00  0.55305773227E+00  0.25912097986E+01  0.26737519303E+01  0.00000000000E+00 0. -1.
</event>
<event>
 5    1  0.7095115E+001  0.1595418E+01  0.7818608E-02  0.3358352E+00
         11   -1    0    0    0    0  0.00000000000E+00  0.00000000000E+00  0.39999999674E+01  0.40000000000E+01  0.51100000000E-03 0. -1.
    9000002   -1    0    0    0    0 -0.00000000000E+00 -0.00000000000E+00  0.00000000000E+00  0.93800000000E+00  0.93800000000E+00 0. -1.
         11    1    1    2    0    0 -0.19121827674E+00 -0.30539286160E-01  0.58312722551E+00  0.61443852387E+00  0.51100000000E-03 0. -1.
    9000002    1    1    2    0    0  0.78907297102E+00  0.16071755788E+00  0.48411802620E+00  0.13276598022E+01  0.93800000000E+00 0. -1.
         22    1    1    2    0    0 -0.59785469428E+00 -0.13017827172E+00  0.29327547157E+01  0.29959016740E+01  0.00000000000E+00 0. -1.
</event>
<event>
 5    1  0.7095115E+001  0.1599426E+01  0.7818608E-02  0.3353987E+00
         11   -1    0    0    0    0  0.00000000000E+00  0.00000000000E+00  0.39999999674E+01  0.40000000000E+01  0.51100000000E-03 0. -1.
    9000002   -1    0    0    0    0 -0.00000000000E+00 -0.00000000000E+00  0.00000000000E+00  0.93800000000E+00  0.93800000000E+00 0. -1.
         11    1    1    2    0    0 -0.39049161057E-01  0.69551268103E-01  0.65345837238E+00  0.65830868248E+00  0.51100000000E-03 0. -1.
    9000002    1    1    2    0    0  0.15024242371E+00 -0.43675978794E+00  0.14536866566E+00  0.10556078567E+01  0.93800000000E+00 0. -1.
         22    1    1    2    0    0 -0.11119326266E+00  0.36720851984E+00  0.32011729293E+01  0.32240834608E+01  0.00000000000E+00 0. -1.
</event>
<event>
 5    1  0.7095115E+001  0.1520991E+01  0.7818608E-02  0.3443849E+00
         11   -1    0    0    0    0  0.00000000000E+00  0.00000000000E+00  0.39999999674E+01  0.40000000000E+01  0.51100000000E-03 0.  1.
    9000002   -1    0    0    0    0 -0.00000000000E+00 -0.00000000000E+00  0.00000000000E+00  0.93800000000E+00  0.93800000000E+00 0. -1.
         11    1    1    2    0    0 -0.22825676021E+00  0.25102233008E+00  0.12330074027E+01  0.12788357498E+01  0.51100000000E-03 0.  1.
    9000002    1    1    2    0    0  0.11772882755E-01 -0.99108976714E-01  0.66373989703E-01  0.94562714457E+00  0.93800000000E+00 0. -1.
         22    1    1    2    0    0  0.21648387746E+00 -0.15191335336E+00  0.27006185750E+01  0.27135371056E+01  0.00000000000E+00 0.  1.
</event>
<event>
 5    1  0.7095115E+001  0.1599675E+01  0.7818608E-02  0.3353717E+00
         11   -1    0    0    0    0  0.00000000000E+00  0.00000000000E+00  0.39999999674E+01  0.40000000000E+01  0.51100000000E-03 0.  1.
    9000002   -1    0    0    0    0 -0.00000000000E+00 -0.00000000000E+00  0.00000000000E+00  0.93800000000E+00  0.93800000000E+00 0. -1.
         11    1    1    2    0    0  0.24340100751E-01 -0.11854104795E+00  0.12188795439E+01  0.12248722481E+01  0.51100000000E-03 0.  1.
    9000002    1    1    2    0    0 -0.82049616857E-01  0.37581713774E+00  0.99619213214E-01  0.10186945805E+01  0.93800000000E+00 0. -1.
         22    1    1    2    0    0  0.57709516106E-01 -0.25727608980E+00  0.26815012102E+01  0.26944331714E+01  0.00000000000E+00 0.  1.
</event>
<event>
 5    1  0.7095115E+001  0.1592891E+01  0.7818608E-02  0.3361116E+00
         11   -1    0    0    0    0  0.00000000000E+00  0.00000000000E+00  0.39999999674E+01  0.40000000000E+01  0.51100000000E-03 0. -1.
    9000002   -1    0    0    0    0 -0.00000000000E+00 -0.00000000000E+00  0.00000000000E+00  0.93800000000E+00  0.93800000000E+00 0. -1.
         11    1    1    2    0    0 -0.52672710685E-01  0.18626524360E-01  0.25089886711E+00  0.25704447961E+00  0.51100000000E-03 0. -1.
    9000002    1    1    2    0    0  0.29548914785E+00  0.26199535115E+00  0.11077439149E+00  0.10237530788E+01  0.93800000000E+00 0. -1.
         22    1    1    2    0    0 -0.24281643717E+00 -0.28062187551E+00  0.36383267088E+01  0.36572024416E+01  0.00000000000E+00 0. -1.
</event>
<event>
 5    1  0.7095115E+001  0.1599676E+01  0.7818608E-02  0.3353716E+00
         11   -1    0    0    0    0  0.00000000000E+00  0.00000000000E+00  0.39999999674E+01  0.40000000000E+01  0.51100000000E-03 0.  1.
    9000002   -1    0    0    0    0 -0.00000000000E+00 -0.00000000000E+00  0.00000000000E+00  0.93800000000E+00  0.93800000000E+00 0.  1.
         11    1    1    2    0    0 -0.10387838872E+00  0.70002253607E-01  0.13696721891E+01  0.13753883822E+01  0.51100000000E-03 0.  1.
    9000002    1    1    2    0    0  0.29942470875E+00 -0.19708593455E+00  0.86241996417E-01  0.10078589702E+01  0.93800000000E+00 0.  1.
         22    1    1    2    0    0 -0.19554632003E+00  0.12708368094E+00  0.25440857818E+01  0.25547526476E+01  0.00000000000E+00 0.  1.
</event>
<event>
 5    1  0.7095115E+001  0.1599512E+01  0.7818608E-02  0.3353893E+00
         11   -1    0    0    0    0  0.00000000000E+00  0.00000000000E+00  0.39999999674E+01  0.40000000000E+01  0.51100000000E-03 0.  1.
    9000002   -1    0    0    0    0 -0.00000000000E+00 -0.00000000000E+00  0.00000000000E+00  0.93800000000E+00  0.93800000000E+00 0. -1.
         11    1    1    2    0    0 -0.11971132118E+00 -0.90637203136E-01  0.12941506867E+01  0.13028323622E+01  0.51100000000E-03 0.  1.
    9000002    1    1    2    0    0  0.31533968890E+00  0.27208734944E+00  0.11740197365E+00  0.10330042926E+01  0.93800000000E+00 0. -1.
         22    1    1    2    0    0 -0.19562836772E+00 -0.18145014631E+00  0.25884473071E+01  0.26021633452E+01  0.00000000000E+00 0. -1.
</event>
<event>
 5    1  0.7095115E+001  0.1599482E+01  0.7818608E-02  0.3353925E+00
         11   -1    0    0    0    0  0.00000000000E+00  0.00000000000E+00  0.39999999674E+01  0.40000000000E+01  0.51100000000E-03 0. -1.
    9000002   -1    0    0    0    0 -0.00000000000E+00 -0.00000000000E+00  0.00000000000E+00  0.93800000000E+00  0.93800000000E+00 0.  1.
         11    1    1    2    0    0 -0.31141126688E+00  0.21311480907E-01  0.14256879511E+01  0.14594579649E+01  0.51100000000E-03 0. -1.
    9000002    1    1    2    0    0  0.75052566256E+00 -0.28730800623E-01  0.40931155445E+00  0.12694464060E+01  0.93800000000E+00 0.  1.
         22    1    1    2    0    0 -0.43911439569E+00  0.74193197165E-02  0.21650004618E+01  0.22090956291E+01  0.00000000000E+00 0. -1.
</event>
<event>
 5    1  0.7095115E+001  0.1599626E+01  0.7818608E-02  0.3353769E+00
         11   -1    0    0    0    0  0.00000000000E+00  0.00000000000E+00  0.39999999674E+01  0.40000000000E+01  0.51100000000E-03 0.  1.
    9000002   -1    0    0    0    0 -0.00000000000E+00 -0.00000000000E+00  0.00000000000E+00  0.93800000000E+00  0.93800000000E+00 0. -1.
         11    1    1    2    0    0 -0.55240188247E-01  0.21063983655E-01  0.44657714770E+00  0.45047372818E+00  0.51100000000E-03 0.  1.
    9000002    1    1    2    0    0  0.45588055572E+00 -0.13820429926E+00  0.15479261479E+00  0.10633589530E+01  0.93800000000E+00 0. -1.
         22    1    1    2    0    0 -0.40064036747E+00  0.11714031560E+00  0.33986302049E+01  0.34241673188E+01  0.00000000000E+00 0.  1.
</event>
<event>
 5    1  0.7095115E+001  0.1599424E+01  0.7818608E-02  0.3353989E+00
         11   -1    0    0    0    0  0.00000000000E+00  0.00000000000E+00  0.39999999674E+01  0.40000000000E+01  0.51100000000E-03 0. -1.
    9000002   -1    0    0    0    0 -0.00000000000E+00 -0.00000000000E+00  0.00000000000E+00  0.93800000000E+00  0.93800000000E+00 0.  1.
         11    1    1    2    0    0  0.10709245088E-04  0.24850306202E-01  0.96442613644E-01  0.99594059464E-01  0.51100000000E-03 0. -1.
    9000002    1    1    2    0    0  0.46168947135E-01 -0.70610478787E+00  0.35887489085E+00  0.12285563603E+01  0.93800000000E+00 0.  1.
         22    1    1    2    0    0 -0.46179656380E-01  0.68125448167E+00  0.35446824629E+01  0.36098495802E+01  0.00000000000E+00 0. -1.
</event>
<event>
 5    1  0.7095115E+001  0.1599675E+01  0.7818608E-02  0.3353716E+00
         11   -1    0    0    0    0  0.00000000000E+00  0.00000000000E+00  0.39999999674E+01  0.40000000000E+01  0.51100000000E-03 0.  1.
    9000002   -1    0    0    0    0 -0.00000000000E+00 -0.00000000000E+00  0.00000000000E+00  0.93800000000E+00  0.93800000000E+00 0.  1.
         11    1    1    2    0    0  0.74414231061E-01 -0.55754083384E-01  0.85326412288E+00  0.85831574617E+00  0.51100000000E-03 0.  1.
    9000002    1    1    2    0    0 -0.33318274868E+00  0.25206814704E+00  0.11801434635E+00  0.10335958982E+01  0.93800000000E+00 0.  1.
         22    1    1    2    0    0  0.25876851762E+00 -0.19631406365E+00  0.30287214981E+01  0.30460883557E+01  0.00000000000E+00 0.  1.
</event>
<event>
 5    1  0.7095115E+001  0.1594732E+01  0.7818608E-02  0.3359101E+00
         11   -1    0    0    0    0  0.00000000000E+00  0.00000000000E+00  0.39999999674E+01  0.40000000000E+01  0.51100000000E-03 0. -1.
    9000002   -1    0    0    0    0 -0.00000000000E+00 -0.00000000000E+00  0.00000000000E+00  0.93800000000E+00  0.93800000000E+00 0. -1.
         11    1    1    2    0    0 -0.13287963298E+00 -0.82141973466E-01  0.71570287766E+00  0.73255386892E+00  0.51100000000E-03 0. -1.
    9000002    1    1    2    0    0  0.86778885994E+00  0.52407187116E+00  0.84340802346E+00  0.16182984662E+01  0.93800000000E+00 0. -1.
         22    1    1    2    0    0 -0.73490922696E+00 -0.44192989769E+00  0.24408890662E+01  0.25871476649E+01  0.00000000000E+00 0. -1.
</event>
<event>
 5    1  0.7095115E+001  0.1496943E+01  0.7818608E-02  0.3473421E+00
         11   -1    0    0    0    0  0.00000000000E+00  0.00000000000E+00  0.39999999674E+01  0.40000000000E+01  0.51100000000E-03 0. -1.
    9000002   -1    0    0    0    0 -0.00000000000E+00 -0.00000000000E+00  0.00000000000E+00  0.93800000000E+00  0.93800000000E+00 0. -1.
         11    1    1    2    0    0 -0.17210621160E+00 -0.60927157364E-01  0.25244717976E+00  0.31154856165E+00  0.51100000000E-03 0. -1.
    9000002    1    1    2    0    0 -0.16678707415E+00 -0.22284291114E+00  0.13586403146E+00  0.98781573494E+00  0.93800000000E+00 0. -1.
         22    1    1    2    0    0  0.33889328576E+00  0.28377006851E+00  0.36116887561E+01  0.36386357034E+01  0.00000000000E+00 0. -1.
</event>
<event>
 5    1  0.7095115E+001  0.1599677E+01  0.7818608E-02  0.3353714E+00
         11   -1    0    0    0    0  0.00000000000E+00  0.00000000000E+00  0.39999999674E+01  0.40000000000E+01  0.51100000000E-03 0.  1.
    9000002   -1    0    0    0    0 -0.00000000000E+00 -0.00000000000E+00  0.00000000000E+00  0.93800000000E+00  0.93800000000E+00 0. -1.
         11    1    1    2    0    0 -0.68751617037E-01  0.98525346419E-01  0.10879096278E+01  0.10945234800E+01  0.51100000000E-03 0. -1.
    9000002    1    1    2    0    0  0.24389584369E+00 -0.35221214423E+00  0.12427178802E+00  0.10386655161E+01  0.93800000000E+00 0. -1.
         22    1    1    2    0    0 -0.17514422665E+00  0.25368679781E+00  0.27878185515E+01  0.28048110039E+01  0.00000000000E+00 0.  1.
</event>
<event>
 5    1  0.7095115E+001  0.1599673E+01  0.7818608E-02  0.3353718E+00
         11   -1    0    0    0    0  0.00000000000E+00  0.00000000000E+00  0.39999999674E+01  0.40000000000E+01  0.51100000000E-03 0. -1.
    9000002   -1    0    0    0    0 -0.00000000000E+00 -0.00000000000E+00  0.00000000000E+00  0.93800000000E+00  0.93800000000E+00 0. -1.
         11    1    1    2    0    0 -0.10995194447E+00 -0.64666892625E-01  0.13869663379E+01  0.13928198450E+01  0.51100000000E-03 0. -1.
    9000002    1    1    2    0    0  0.31365819846E+00  0.17701918120E+00  0.87079074792E-01  0.10085355825E+01  0.93800000000E+00 0. -1.
         22    1    1    2    0    0 -0.20370625398E+00 -0.11235228858E+00  0.25259545547E+01  0.25366445724E+01  0.00000000000E+00 0. -1.
</event>
<event>
 5    1  0.7799645E+001  0.1591333E+01  0.7818608E-02  0.3362825E+00
         11   -1    0    0    0    0  0.00000000000E+00  0.00000000000E+00  0.39999999674E+01  0.40000000000E+01  0.51100000000E-03 0.  1.
    9000002   -1    0    0    0    0 -0.00000000000E+00 -0.00000000000E+00  0.00000000000E+00  0.93800000000E+00  0.93800000000E+00 0. -1.
         11    1    1    2    0    0 -0.33135277177E-01  0.36852222916E-01  0.10602362464E+01  0.10613939854E+01  0.51100000000E-03 0.  1.
    9000002    1    1    2    0    0  0.11246671246E+00  0.22561974291E+00  0.48634433878E-01  0.97250313005E+00  0.93800000000E+00 0. -1.
         22    1    1    2    0    0 -0.79331435281E-01 -0.26247196582E+00  0.28911292871E+01  0.29041028846E+01  0.00000000000E+00 0.  1.
</event>
<event>
 5    1  0.7095115E+001  0.1535113E+01  0.7818608E-02  0.3426948E+00
         11   -1    0    0    0    0  0.00000000000E+00  0.00000000000E+00  0.39999999674E+01  0.40000000000E+01  0.51100000000E-03 0.  1.
    9000002   -1    0    0    0    0 -0.00000000000E+00 -0.00000000000E+00  0.00000000000E+00  0.93800000000E+00  0.93800000000E+00 0. -1.
         11    1    1    2    0    0  0.16387787377E+00 -0.28190666367E+00  0.10057960763E+01  0.10573331229E+01  0.51100000000E-03 0.  1.
    9000002    1    1    2    0    0  0.95575823819E-01  0.33812255281E+00  0.13679155733E+00  0.10109488261E+01  0.93800000000E+00 0. -1.
         22    1    1    2    0    0 -0.25945369759E+00 -0.56215889143E-01  0.28574123338E+01  0.28697180511E+01  0.00000000000E+00 0.  1.
</event>
<event>
 5    1  0.7095115E+001  0.1599590E+01  0.7818608E-02  0.3353809E+00
         11   -1    0    0    0    0  0.00000000000E+00  0.00000000000E+00  0.39999999674E+01  0.40000000000E+01  0.51100000000E-03 0.  1.
    9000002   -1    0    0    0    0 -0.00000000000E+00 -0.00000000000E+00  0.00000000000E+00  0.93800000000E+00  0.93800000000E+00 0. -1.
         11    1    1    2    0    0  0.90558793500E-03 -0.76089541350E-02  0.48543169376E-01  0.49146888881E-01  0.51100000000E-03 0.  1.
    9000002    1    1    2    0    0  0.77709731191E-01  0.47567427564E+00  0.15863360346E+00  0.10664489856E+01  0.93800000000E+00 0. -1.
         22    1    1    2    0    0 -0.78615319126E-01 -0.46806532150E+00  0.37928231945E+01  0.38224041255E+01  0.00000000000E+00 0.  1.
</event>
<event>
 5    1  0.7095115E+001  0.1599675E+01  0.7818608E-02  0.3353716E+00
         11   -1    0    0    0    0  0.00000000000E+00  0.00000000000E+00  0.39999999674E+01  0.40000000000E+01  0.51100000000E-03 0.  1.
    9000002   -1    0    0    0    0 -0.00000000000E+00 -0.00000000000E+00  0.00000000000E+00  0.93800000000E+00  0.93800000000E+00 0.  1.
         11    1    1    2    0    0 -0.36630195746E-02  0.70891503855E-01  0.68155997017E+00  0.68524687310E+00  0.51100000000E-03 0.  1.
    9000002    1    1    2    0    0  0.23937642154E-01 -0.40971418789E+00  0.11377086366E+00  0.10301585004E+01  0.93800000000E+00 0.  1.
         22    1    1    2    0    0 -0.20274622580E-01  0.33882268404E+00  0.32046691335E+01  0.32225946265E+01  0.00000000000E+00 0.  1.
</event>
<event>
 5    1  0.7095115E+001  0.1599572E+01  0.7818608E-02  0.3353828E+00
         11   -1    0    0    0    0  0.00000000000E+00  0.00000000000E+00  0.39999999674E+01  0.40000000000E+01  0.51100000000E-03 0. -1.
    9000002   -1    0    0    0    0 -0.00000000000E+00 -0.00000000000E+00  0.00000000000E+00  0.93800000000E+00  0.93800000000E+00 0. -1.
         11    1    1    2    0    0 -0.10377117097E+00 -0.60809172584E-01  0.75468112177E+00  0.76420551429E+00  0.51100000000E-03 0. -1.
    9000002    1    1    2    0    0  0.51372295024E+00  0.34967810728E+00  0.27081755764E+00  0.11573124893E+01  0.93800000000E+00 0. -1.
         22    1    1    2    0    0 -0.40995177928E+00 -0.28886893469E+00  0.29745012879E+01  0.30164819964E+01  0.00000000000E+00 0. -1.
</event>
<event>
 5    1  0.7095115E+001  0.1598506E+01  0.7818608E-02  0.3354986E+00
         11   -1    0    0    0    0  0.00000000000E+00  0.00000000000E+00  0.39999999674E+01  0.40000000000E+01  0.51100000000E-03 0.  1.
    9000002   -1    0    0    0    0 -0.00000000000E+00 -0.00000000000E+00  0.00000000000E+00  0.93800000000E+00  0.93800000000E+00 0. -1.
         11    1    1    2    0    0 -0.11078991855E-01 -0.31082910361E-01  0.27182876284E+00  0.27382481408E+00  0.51100000000E-03 0.  1.
    9000002    1    1    2    0    0  0.31951928667E+00  0.19169858427E+00  0.94291901875E-01  0.10136941770E+01  0.93800000000E+00 0. -1.
         22    1    1    2    0    0 -0.30844029481E+00 -0.16061567390E+00  0.36338793026E+01  0.36504810089E+01  0.00000000000E+00 0.  1.
</event>
<event>
 5    1  0.7095115E+001  0.1599503E+01  0.7818608E-02  0.3353903E+00
         11   -1    0    0    0    0  0.00000000000E+00  0.00000000000E+00  0.39999999674E+01  0.40000000000E+01  0.51100000000E-03 0.  1.
    9000002   -1    0    0    0    0 -0.00000000000E+00 -0.00000000000E+00  0.00000000000E+00  0.93800000000E+00  0.93800000000E+00 0.  1.
         11    1    1    2    0    0 -0.29882425714E-03  0.11643825382E+00  0.99957415780E+00  0.10063333018E+01  0.51100000000E-03 0.  1.
    9000002    1    1    2    0    0  0.89173873092E-02 -0.49935911751E+00  0.17089596740E+00  0.10763310270E+01  0.93800000000E+00 0.  1.
         22    1    1    2    0    0 -0.86185630521E-02  0.38292086370E+00  0.28295298422E+01  0.28553356712E+01  0.00000000000E+00 0.  1.
</event>
<event>
 5    1  0.7095115E+001  0.1596671E+01  0.7818608E-02  0.3356984E+00
         11   -1    0    0    0    0  0.00000000000E+00  0.00000000000E+00  0.39999999674E+01  0.40000000000E+01  0.51100000000E-03 0.  1.
    9000002   -1    0    0    0    0 -0.00000000000E+00 -0.00000000000E+00  0.00000000000E+00  0.93800000000E+00  0.93800000000E+00 0.  1.
         11    1    1    2    0    0  0.75805345796E-01  0.90205290038E-01  0.92402834147E+00  0.93151064501E+00  0.51100000000E-03 0.  1.
    9000002    1    1    2    0    0 -0.91624143187E-01 -0.44524506234E+00  0.14305068027E+00  0.10521148446E+01  0.93800000000E+00 0.  1.
         22    1    1    2    0    0  0.15818797391E-01  0.35503977231E+00  0.29329209456E+01  0.29543745104E+01  0.00000000000E+00 0.  1.
</event>
<event>
 5    1  0.7095115E+001  0.1599662E+01  0.7818608E-02  0.3353730E+00
         11   -1    0    0    0    0  0.00000000000E+00  0.00000000000E+00  0.39999999674E+01  0.40000000000E+01  0.51100000000E-03 0. -1.
    9000002   -1    0    0    0    0 -0.00000000000E+00 -0.00000000000E+00  0.00000000000E+00  0.93800000000E+00  0.93800000000E+00 0. -1.
         11    1    1    2    0    0 -0.10576555467E-02 -0.15373340915E-01  0.14961955055E+00  0.15041186547E+00  0.51100000000E-03 0. -1.
    9000002    1    1    2    0    0  0.59921013082E-01  0.36949386683E+00  0.94224014440E-01  0.10143167209E+01  0.93800000000E+00 0. -1.
         22    1    1    2    0    0 -0.58863357535E-01 -0.35412052592E+00  0.37561564024E+01  0.37732714136E+01  0.00000000000E+00 0. -1.
</event>
<event>
 5    1  0.7095115E+001  0.1599363E+01  0.7818608E-02  0.3354055E+00
         11   -1    0    0    0    0  0.00000000000E+00  0.00000000000E+00  0.39999999674E+01  0.40000000000E+01  0.51100000000E-03 0. -1.
    9000002   -1    0    0    0    0 -0.00000000000E+00 -0.00000000000E+00  0.00000000000E+00  0.93800000000E+00  0.93800000000E+00 0. -1.
         11    1    1    2    0    0 -0.12645666522E-01  0.33028351316E-01  0.37645300917E+00  0.37811098120E+00  0.51100000000E-03 0. -1.
    9000002    1    1    2    0    0  0.24546190679E+00 -0.27972310924E+00  0.93354864954E-01  0.10134375641E+01  0.93800000000E+00 0. -1.
         22    1    1    2    0    0 -0.23281624027E+00  0.24669475793E+00  0.35301920932E+01  0.35464514547E+01  0.00000000000E+00 0. -1.
</event>
<event>
 5    1  0.7095115E+001  0.1599649E+01  0.7818608E-02  0.3353744E+00
         11   -1    0    0    0    0  0.00000000000E+00  0.00000000000E+00  0.39999999674E+01  0.40000000000E+01  0.51100000000E-03 0. -1.
    9000002   -1    0    0    0    0 -0.00000000000E+00 -0.00000000000E+00  0.00000000000E+00  0.93800000000E+00  0.93800000000E+00 0. -1.
         11    1    1    2    0    0  0.92258280704E-01 -0.51151222440E-01  0.10858076204E+01  0.10909200188E+01  0.51100000000E-03 0. -1.
    9000002    1    1    2    0    0 -0.31345954641E+00  0.19232524246E+00  0.90889077681E-01  0.10116079827E+01  0.93800000000E+00 0. -1.
         22    1    1    2    0    0  0.22120126571E+00 -0.14117402002E+00  0.28233032693E+01  0.28354719985E+01  0.00000000000E+00 0. -1.
</event>
<event>
 5    1  0.7095115E+001  0.1598862E+01  0.7818608E-02  0.3354599E+00
         11   -1    0    0    0    0  0.00000000000E+00  0.00000000000E+00  0.39999999674E+01  0.40000000000E+01  0.51100000000E-03 0. -1.
    9000002   -1    0    0    0    0 -0.00000000000E+00 -0.00000000000E+00  0.00000000000E+00  0.93800000000E+00  0.93800000000E+00 0. -1.
         11    1    1    2    0    0 -0.25382887912E-01 -0.39647970897E-01  0.45953966978E+00  0.46194504199E+00  0.51100000000E-03 0. -1.
    9000002    1    1    2    0    0  0.31181427713E+00  0.17538935691E+00  0.86552352910E-01  0.10076333062E+01  0.93800000000E+00 0. -1.
         22    1    1    2    0    0 -0.28643138921E+00 -0.13574138602E+00  0.34539079447E+01  0.34684216518E+01  0.00000000000E+00 0. -1.
</event>
<event>
 5    1  0.7095115E+001  0.1598138E+01  0.7818608E-02  0.3355387E+00
         11   -1    0    0    0    0  0.00000000000E+00  0.00000000000E+00  0.39999999674E+01  0.40000000000E+01  0.51100000000E-03 0. -1.
    9000002   -1    0    0    0    0 -0.00000000000E+00 -0.00000000000E+00  0.00000000000E+00  0.93800000000E+00  0.93800000000E+00 0. -1.
         11    1    1    2    0    0  0.23594593110E-01  0.39122530684E-01  0.71323950304E+00  0.71470142511E+00  0.51100000000E-03 0. -1.
    9000002    1    1    2    0    0 -0.13876525247E-01 -0.37750257313E+00  0.97251291717E-01  0.10158752701E+01  0.93800000000E+00 0. -1.
         22    1    1    2    0    0 -0.97180678626E-02  0.33838004245E+00  0.31895091726E+01  0.32074233048E+01  0.00000000000E+00 0. -1.
</event>
<event>
 5    1  0.7095115E+001  0.1569169E+01  0.7818608E-02  0.3387521E+00
         11   -1    0    0    0    0  0.00000000000E+00  0.00000000000E+00  0.39999999674E+01  0.40000000000E+01  0.51100000000E-03 0.  1.
    9000002   -1    0    0    0    0 -0.00000000000E+00 -0.00000000000E+00  0.00000000000E+00  0.93800000000E+00  0.93800000000E+00 0.  1.
         11    1    1    2    0    0  0.10943373767E+00  0.30472923483E+00  0.18124933260E+00  0.37106230096E+00  0.51100000000E-03 0.  1.
    9000002    1    1    2    0    0 -0.21864224723E+00  0.10151581187E+00  0.28684199744E+00  0.10100654552E+01  0.93800000000E+00 0.  1.
         22    1    1    2    0    0  0.10920850956E+00 -0.40624504670E+00  0.35319086373E+01  0.35568722438E+01  0.00000000000E+00 0.  1.
</event>
<event>
 5    1  0.7095115E+001  0.1599676E+01  0.7818608E-02  0.3353715E+00
         11   -1    0    0    0    0  0.00000000000E+00  0.00000000000E+00  0.39999999674E+01  0.40000000000E+01  0.51100000000E-03 0.  1.
    9000002   -1    0    0    0    0 -0.00000000000E+00 -0.00000000000E+00  0.00000000000E+00  0.93800000000E+00  0.93800000000E+00 0.  1.
         11    1    1    2    0    0  0.58861087860E-01  0.11631695047E+00  0.12987034206E+01  0.13052299017E+01  0.51100000000E-03 0.  1.
    9000002    1    1    2    0    0 -0.18003135053E+00 -0.34990185139E+00  0.10435908323E+00  0.10225347970E+01  0.93800000000E+00 0.  1.
         22    1    1    2    0    0  0.12117026267E+00  0.23358490092E+00  0.25969374636E+01  0.26102353013E+01  0.00000000000E+00 0.  1.
</event>
<event>
 5    1  0.7095115E+001  0.1558235E+01  0.7818608E-02  0.3399979E+00
         11   -1    0    0    0    0  0.00000000000E+00  0.00000000000E+00  0.39999999674E+01  0.40000000000E+01  0.51100000000E-03 0.  1.
    9000002   -1    0    0    0    0 -0.00000000000E+00 -0.00000000000E+00  0.00000000000E+00  0.93800000000E+00  0.93800000000E+00 0.  1.
         11    1    1    2    0    0  0.12457188692E+00 -0.19224673351E+00  0.13624326833E+01  0.13815571068E+01  0.51100000000E-03 0.  1.
    9000002    1    1    2    0    0 -0.11006322727E+00 -0.69463085108E-01  0.42255253580E-01  0.94792855250E+00  0.93800000000E+00 0.  1.
         22    1    1    2    0    0 -0.14508659655E-01  0.26170981862E+00  0.25953120304E+01  0.26085143407E+01  0.00000000000E+00 0.  1.
</event>
<event>
 5    1  0.7095115E+001  0.1592324E+01  0.7818608E-02  0.3361737E+00
         11   -1    0    0    0    0  0.00000000000E+00  0.00000000000E+00  0.39999999674E+01  0.40000000000E+01  0.51100000000E-03 0.  1.
    9000002   -1    0    0    0    0 -0.00000000000E+00 -0.00000000000E+00  0.00000000000E+00  0.93800000000E+00  0.93800000000E+00 0.  1.
         11    1    1    2    0    0 -0.15546677783E+00 -0.51453582287E-01  0.12826560110E+01  0.12930677066E+01  0.51100000000E-03 0.  1.
    9000002    1    1    2    0    0  0.26784136827E+00  0.36823573754E+00  0.14733655117E+00  0.10530378038E+01  0.93800000000E+00 0.  1.
         22    1    1    2    0    0 -0.11237459044E+00 -0.31678215525E+00  0.25700074052E+01  0.25918944896E+01  0.00000000000E+00 0.  1.
</event>
<event>
 5    1  0.7095115E+001  0.1580209E+01  0.7818608E-02  0.3375128E+00
         11   -1    0    0    0    0  0.00000000000E+00  0.00000000000E+00  0.39999999674E+01  0.40000000000E+01  0.51100000000E-03 0. -1.
    9000002   -1    0    0    0    0 -0.00000000000E+00 -0.00000000000E+00  0.00000000000E+00  0.93800000000E+00  0.93800000000E+00 0. -1.
         11    1    1    2    0    0  0.12996830395E-01 -0.79944244984E-01  0.23680453379E+00  0.25027314729E+00  0.51100000000E-03 0. -1.
    9000002    1    1    2    0    0 -0.39488017253E+00 -0.78965252114E-02  0.12147435047E+00  0.10249842553E+01  0.93800000000E+00 0. -1.
         22    1    1    2    0    0  0.38188334213E+00  0.87840770196E-01  0.36417210831E+01  0.36627425974E+01  0.00000000000E+00 0. -1.
</event>
<event>
 5    1  0.7095115E+001  0.1599612E+01  0.7818608E-02  0.3353784E+00
         11   -1    0    0    0    0  0.00000000000E+00  0.00000000000E+00  0.39999999674E+01  0.40000000000E+01  0.51100000000E-03 0.  1.
    9000002   -1    0    0    0    0 -0.00000000000E+00 -0.00000000000E+00  0.00000000000E+00  0.93800000000E+00  0.93800000000E+00 0.  1.
         11    1    1    2    0    0  0.82418552325E-02 -0.62741018429E-02  0.13605998447E+00  0.13645465557E+00  0.51100000000E-03 0.  1.
    9000002    1    1    2    0    0 -0.33601404545E+00  0.19578170358E+00  0.10192201373E+00  0.10205234006E+01  0.93800000000E+00 0.  1.
         22    1    1    2    0    0  0.32777219022E+00 -0.18950760174E+00  0.37620179692E+01  0.37810219439E+01  0.00000000000E+00 0.  1.
</event>
<event>
 5    1  0.7095115E+001  0.1599676E+01  0.7818608E-02  0.3353715E+00
         11   -1    0    0    0    0  0.00000000000E+00  0.00000000000E+00  0.39999999674E+01  0.40000000000E+01  0.51100000000E-03 0. -1.
    9000002   -1    0    0    0    0 -0.00000000000E+00 -0.00000000000E+00  0.00000000000E+00  0.93800000000E+00  0.93800000000E+00 0.  1.
         11    1    1    2    0    0  0.12573195121E-01  0.77255173532E-01  0.86829735474E+00  0.87181821755E+00  0.51100000000E-03 0. -1.
    9000002    1    1    2    0    0 -0.60297645811E-01 -0.35035903504E+00  0.84796672924E-01  0.10066884996E+01  0.93800000000E+00 0.  1.
         22    1    1    2    0    0  0.47724450690E-01  0.27310386151E+00  0.30469059397E+01  0.30594932828E+01  0.00000000000E+00 0. -1.
</event>
<event>
 5    1  0.9338425E+001  0.1599490E+01  0.7818608E-02  0.3353917E+00
         11   -1    0    0    0    0  0.00000000000E+00  0.00000000000E+00  0.39999999674E+01  0.40000000000E+01  0.51100000000E-03 0. -1.
    9000002   -1    0    0    0    0 -0.00000000000E+00 -0.00000000000E+00  0.00000000000E+00  0.93800000000E+00  0.93800000000E+00 0. -1.
         11    1    1    2    0    0  0.64265188233E-01  0.75326687840E-01  0.12343923837E+01  0.12383573565E+01  0.51100000000E-03 0. -1.
    9000002    1    1    2    0    0 -0.25244633601E+00 -0.23373828720E+00  0.79462031956E-01  0.10022579279E+01  0.93800000000E+00 0. -1.
         22    1    1    2    0    0  0.18818114778E+00  0.15841159936E+00  0.26861455517E+01  0.26973847156E+01  0.00000000000E+00 0. -1.
</event>
<event>
 5    1  0.7095115E+001  0.1561500E+01  0.7818608E-02  0.3396240E+00
         11   -1    0    0    0    0  0.00000000000E+00  0.00000000000E+00  0.39999999674E+01  0.40000000000E+01  0.51100000000E-03 0.  1.
    9000002   -1    0    0    0    0 -0.00000000000E+00 -0.00000000000E+00  0.00000000000E+00  0.93800000000E+00  0.93800000000E+00 0.  1.
         11    1    1    2    0    0 -0.15105633593E+00 -0.40623726951E-01  0.68590028368E+00  0.70351102627E+00  0.51100000000E-03 0.  1.
    9000002    1    1    2    0    0 -0.72651359351E-01 -0.17698334215E+00  0.53305836700E-01  0.95879446997E+00  0.93800000000E+00 0.  1.
         22    1    1    2    0    0  0.22370769528E+00  0.21760706910E+00  0.32607938470E+01  0.32756945038E+01  0.00000000000E+00 0.  1.
</event>
<event>
 5    1  0.7095115E+001  0.1599639E+01  0.7818608E-02  0.3353755E+00
         11   -1    0    0    0    0  0.00000000000E+00  0.00000000000E+00  0.39999999674E+01  0.40000000000E+01  0.51100000000E-03 0.  1.
    9000002   -1    0    0    0    0 -0.00000000000E+00 -0.00000000000E+00  0.00000000000E+00  0.93800000000E+00  0.93800000000E+00 0. -1.
         11    1    1    2    0    0  0.51716561770E-01  0.12271465643E+00  0.13371510021E+01  0.13437658104E+01  0.51100000000E-03 0.  1.
    9000002    1    1    2    0    0 -0.13781511000E+00 -0.34295004827E+00  0.91832282001E-01  0.10123659952E+01  0.93800000000E+00 0. -1.
         22    1    1    2    0    0  0.86098548232E-01  0.22023539184E+00  0.25710166833E+01  0.25818681944E+01  0.00000000000E+00 0.  1.
</event>
<event>
 5    1  0.7095115E+001  0.1599097E+01  0.7818608E-02  0.3354345E+00
         11   -1    0    0    0    0  0.00000000000E+00  0.00000000000E+00  0.39999999674E+01  0.40000000000E+01  0.51100000000E-03 0.  1.
    9000002   -1    0    0    0    0 -0.00000000000E+00 -0.00000000000E+00  0.00000000000E+00  0.93800000000E+00  0.93800000000E+00 0.  1.
         11    1    1    2    0    0  0.23842798275E-01  0.82868533096E-02  0.47088491955E+00  0.47156125747E+00  0.51100000000E-03 0.  1.
    9000002    1    1    2    0    0 -0.34771594403E+00 -0.19886877567E-01  0.81785844542E-01  0.10039097519E+01  0.93800000000E+00 0.  1.
         22    1    1    2    0    0  0.32387314575E+00  0.11600024258E-01  0.34473292033E+01  0.34625289906E+01  0.00000000000E+00 0.  1.
</event>
<event>
 5    1  0.7095115E+001  0.1544932E+01  0.7818608E-02  0.3415390E+00
         11   -1    0    0    0    0  0.00000000000E+00  0.00000000000E+00  0.39999999674E+01  0.40000000000E+01  0.51100000000E-03 0.  1.
    9000002   -1    0    0    0    0 -0.00000000000E+00 -0.00000000000E+00  0.00000000000E+00  0.93800000000E+00  0.93800000000E+00 0.  1.
         11    1    1    2    0    0 -0.23808205338E+00  0.24671770895E+00  0.14548028122E+01  0.14946585482E+01  0.51100000000E-03 0.  1.
    9000002    1    1    2    0    0  0.70103984158E+00  0.63742077367E-01  0.41911288511E+00  0.12453993425E+01  0.93800000000E+00 0.  1.
         22    1    1    2    0    0 -0.46295778820E+00 -0.31045978631E+00  0.21260842700E+01  0.21979421093E+01  0.00000000000E+00 0.  1.
</event>
<event>
 5    1  0.7095115E+001  0.1598291E+01  0.7818608E-02  0.3355220E+00
         11   -1    0    0    0    0  0.00000000000E+00  0.00000000000E+00  0.39999999674E+01  0.40000000000E+01  0.51100000000E-03 0.  1.
    9000002   -1    0    0    0    0 -0.00000000000E+00 -0.00000000000E+00  0.00000000000E+00  0.93800000000E+00  0.93800000000E+00 0.  1.
         11    1    1    2    0    0 -0.45202244947E-01  0.19205985417E+00  0.13380427125E+01  0.13525120303E+01  0.51100000000E-03 0.  1.
    9000002    1    1    2    0    0  0.67614445352E-01 -0.44730504058E+00  0.14024662744E+00  0.10507933332E+01  0.93800000000E+00 0.  1.
         22    1    1    2    0    0 -0.22412200404E-01  0.25524518642E+00  0.25217106274E+01  0.25346946365E+01  0.00000000000E+00 0.  1.
</event>
<event>
 5    1  0.7095115E+001  0.1519597E+01  0.7818608E-02  0.3445537E+00
         11   -1    0    0    0    0  0.00000000000E+00  0.00000000000E+00  0.39999999674E+01  0.40000000000E+01  0.51100000000E-03 0.  1.
    9000002   -1    0    0    0    0 -0.00000000000E+00 -0.00000000000E+00  0.00000000000E+00  0.93800000000E+00  0.93800000000E+00 0. -1.
         11    1    1    2    0    0 -0.14824711841E+00 -0.25145386787E+00  0.92378782098E+00  0.96880878149E+00  0.51100000000E-03 0.  1.
    9000002    1    1    2    0    0 -0.31337144478E+00  0.26060337327E+00  0.18250119743E+00  0.10388775037E+01  0.93800000000E+00 0. -1.
         22    1    1    2    0    0  0.46161856319E+00 -0.91495054046E-02  0.28937109489E+01  0.29303137148E+01  0.00000000000E+00 0.  1.
</event>
<event>
 5    1  0.7095115E+001  0.1481937E+01  0.7818608E-02  0.3492398E+00
         11   -1    0    0    0    0  0.00000000000E+00  0.00000000000E+00  0.39999999674E+01  0.40000000000E+01  0.51100000000E-03 0. -1.
    9000002   -1    0    0    0    0 -0.00000000000E+00 -0.00000000000E+00  0.00000000000E+00  0.93800000000E+00  0.93800000000E+00 0.  1.
         11    1    1    2    0    0 -0.15380755074E+00 -0.19732836505E+00  0.46776783807E+00  0.53047361647E+00  0.51100000000E-03 0. -1.
    9000002    1    1    2    0    0 -0.23885522426E+00 -0.58537301223E-01  0.13609802538E+00  0.97920636553E+00  0.93800000000E+00 0.  1.
         22    1    1    2    0    0  0.39266277500E+00  0.25586566627E+00  0.33961341039E+01  0.34283200180E+01  0.00000000000E+00 0. -1.
</event>
<event>
 5    1  0.7095115E+001  0.1569285E+01  0.7818608E-02  0.3387390E+00
         11   -1    0    0    0    0  0.00000000000E+00  0.00000000000E+00  0.39999999674E+01  0.40000000000E+01  0.51100000000E-03 0.  1.
    9000002   -1    0    0    0    0 -0.00000000000E+00 -0.00000000000E+00  0.00000000000E+00  0.93800000000E+00  0.93800000000E+00 0. -1.
         11    1    1    2    0    0  0.95134898093E-01 -0.76948810869E-01  0.81519203776E+00  0.82432401875E+00  0.51100000000E-03 0.  1.
    9000002    1    1    2    0    0  0.19306632541E+00 -0.12667434627E+00  0.58777069376E-01  0.96779116543E+00  0.93800000000E+00 0. -1.
         22    1    1    2    0    0 -0.28820122350E+00  0.20362315714E+00  0.31260308602E+01  0.31458848158E+01  0.00000000000E+00 0.  1.
</event>
<event>
 5    1  0.1394597E+002  0.1552273E+01  0.7818608E-02  0.3406851E+00
         11   -1    0    0    0    0  0.00000000000E+00  0.00000000000E+00  0.39999999674E+01  0.40000000000E+01  0.51100000000E-03 0.  1.
    9000002   -1    0    0    0    0 -0.00000000000E+00 -0.00000000000E+00  0.00000000000E+00  0.93800000000E+00  0.93800000000E+00 0. -1.
         11    1    1    2    0    0  0.20696799148E+00  0.71062078563E-01  0.10335784629E+01  0.10564895970E+01  0.51100000000E-03 0.  1.
    9000002    1    1    2    0    0  0.54997331367E-01 -0.25804695009E-01  0.37671721156E-01  0.94071980277E+00  0.93800000000E+00 0. -1.
         22    1    1    2    0    0 -0.26196532285E+00 -0.45257383553E-01  0.29287497833E+01  0.29407906002E+01  0.00000000000E+00 0. -1.
</event>
<event>
 5    1  0.7095115E+001  0.1581560E+01  0.7818608E-02  0.3373624E+00
         11   -1    0    0    0    0  0.00000000000E+00  0.00000000000E+00  0.39999999674E+01  0.40000000000E+01  0.51100000000E-03 0.  1.
    9000002   -1    0    0    0    0 -0.00000000000E+00 -0.00000000000E+00  0.00000000000E+00  0.93800000000E+00  0.93800000000E+00 0.  1.
         11    1    1    2    0    0  0.12473503485E+00  0.19026050076E-01  0.21318043619E+00  0.24772359395E+00  0.51100000000E-03 0.  1.
    9000002    1    1    2    0    0 -0.68279289615E+00 -0.80447342511E+00  0.96921968616E+00  0.17124877900E+01  0.93800000000E+00 0.  1.
         22    1    1    2    0    0  0.55805786130E+00  0.78544737504E+00  0.28175998450E+01  0.29777886161E+01  0.00000000000E+00 0.  1.
</event>
<event>
 5    1  0.7095115E+001  0.1599674E+01  0.7818608E-02  0.3353717E+00
         11   -1    0    0    0    0  0.00000000000E+00  0.00000000000E+00  0.39999999674E+01  0.40000000000E+01  0.51100000000E-03 0. -1.
    9000002   -1    0    0    0    0 -0.00000000000E+00 -0.00000000000E+00  0.00000000000E+00  0.93800000000E+00  0.93800000000E+00 0. -1.
         11    1    1    2    0    0 -0.15605789247E+00 -0.89843025525E-01  0.98100552920E+00  0.99739558074E+00  0.51100000000E-03 0. -1.
    9000002    1    1    2    0    0  0.59021261276E+00  0.33832714572E+00  0.32905693704E+00  0.12045491495E+01  0.93800000000E+00 0. -1.
         22    1    1    2    0    0 -0.43415472029E+00 -0.24848412020E+00  0.26899375011E+01  0.27360552697E+01  0.00000000000E+00 0. -1.
</event>
<event>
 5    1  0.7095115E+001  0.1547846E+01  0.7818608E-02  0.3411990E+00
         11   -1    0    0    0    0  0.00000000000E+00  0.00000000000E+00  0.39999999674E+01  0.40000000000E+01  0.51100000000E-03 0.  1.
    9000002   -1    0    0    0    0 -0.00000000000E+00 -0.00000000000E+00  0.00000000000E+00  0.93800000000E+00  0.93800000000E+00 0. -1.
         11    1    1    2    0    0  0.10830286105E-01  0.27158014408E+00  0.11881472750E+01  0.12188384954E+01  0.51100000000E-03 0.  1.
    9000002    1    1    2    0    0  0.26558233786E+00 -0.11887590980E+00  0.97971081251E-01  0.98696899286E+00  0.93800000000E+00 0. -1.
         22    1    1    2    0    0 -0.27641262397E+00 -0.15270423427E+00  0.27138816111E+01  0.27321925117E+01  0.00000000000E+00 0.  1.
</event>
<event>
 5    1  0.7095115E+001  0.1585826E+01  0.7818608E-02  0.3368892E+00
         11   -1    0    0    0    0  0.00000000000E+00  0.00000000000E+00  0.39999999674E+01  0.40000000000E+01  0.51100000000E-03 0. -1.
    9000002   -1    0    0    0    0 -0.00000000000E+00 -0.00000000000E+00  0.00000000000E+00  0.93800000000E+00  0.93800000000E+00 0.  1.
         11    1    1    2    0    0  0.60264209056E-01  0.11934725140E+00  0.13898846952E+01  0.13963005652E+01  0.51100000000E-03 0. -1.
    9000002    1    1    2    0    0  0.18570713044E+00 -0.45984832965E+00  0.18078892731E+00  0.10763253508E+01  0.93800000000E+00 0.  1.
         22    1    1    2    0    0 -0.24597133950E+00  0.34050107825E+00  0.24293263448E+01  0.24653740840E+01  0.00000000000E+00 0.  1.
</event>
<event>
 5    1  0.7095115E+001  0.1599159E+01  0.7818608E-02  0.3354276E+00
         11   -1    0    0    0    0  0.00000000000E+00  0.00000000000E+00  0.39999999674E+01  0.40000000000E+01  0.51100000000E-03 0. -1.
    9000002   -1    0    0    0    0 -0.00000000000E+00 -0.00000000000E+00  0.00000000000E+00  0.93800000000E+00  0.93800000000E+00 0. -1.
         11    1    1    2    0    0 -0.18801519053E+00 -0.98934448265E-01  0.14461361085E+01  0.14616592087E+01  0.51100000000E-03 0. -1.
    9000002    1    1    2    0    0  0.45428914028E+00  0.20615748995E+00  0.17080602160E+00  0.10760567971E+01  0.93800000000E+00 0. -1.
         22    1    1    2    0    0 -0.26627394975E+00 -0.10722304168E+00  0.23830578372E+01  0.24002839942E+01  0.00000000000E+00 0.  1.
</event>
<event>
 5    1  0.7095115E+001  0.1599432E+01  0.7818608E-02  0.3353981E+00
         11   -1    0    0    0    0  0.00000000000E+00  0.00000000000E+00  0.39999999674E+01  0.40000000000E+01  0.51100000000E-03 0. -1.
    9000002   -1    0    0    0    0 -0.00000000000E+00 -0.00000000000E+00  0.00000000000E+00  0.93800000000E+00  0.93800000000E+00 0. -1.
         11    1    1    2    0    0 -0.45210543755E-01 -0.15256616039E-01  0.37586994409E+00  0.37888683481E+00  0.51100000000E-03 0. -1.
    9000002    1    1    2    0    0  0.35543042853E+00  0.18425584685E+00  0.10832188263E+00  0.10256015975E+01  0.93800000000E+00 0. -1.
         22    1    1    2    0    0 -0.31021988478E+00 -0.16899923081E+00  0.35158081406E+01  0.35335115677E+01  0.00000000000E+00 0. -1.
</event>
<event>
 5    1  0.7095115E+001  0.1502311E+01  0.7818608E-02  0.3466732E+00
         11   -1    0    0    0    0  0.00000000000E+00  0.00000000000E+00  0.39999999674E+01  0.40000000000E+01  0.51100000000E-03 0.  1.
    9000002   -1    0    0    0    0 -0.00000000000E+00 -0.00000000000E+00  0.00000000000E+00  0.93800000000E+00  0.93800000000E+00 0. -1.
         11    1    1    2    0    0 -0.28705599173E+00 -0.13577445589E+00  0.10043260755E+01  0.10533313687E+01  0.51100000000E-03 0.  1.
    9000002    1    1    2    0    0  0.39988032000E-01 -0.16769645455E+00  0.95801071152E-01  0.95851081830E+00  0.93800000000E+00 0. -1.
         22    1    1    2    0    0  0.24706795973E+00  0.30347091044E+00  0.28998728207E+01  0.29261578130E+01  0.00000000000E+00 0.  1.
</event>
<event>
 5    1  0.7095115E+001  0.1596389E+01  0.7818608E-02  0.3357292E+00
         11   -1    0    0    0    0  0.00000000000E+00  0.00000000000E+00  0.39999999674E+01  0.40000000000E+01  0.51100000000E-03 0. -1.
    9000002   -1    0    0    0    0 -0.00000000000E+00 -0.00000000000E+00  0.00000000000E+00  0.93800000000E+00  0.93800000000E+00 0. -1.
         11    1    1    2    0    0 -0.78306774390E-01 -0.46051594473E-01  0.77686447958E+00  0.78215815602E+00  0.51100000000E-03 0. -1.
    9000002    1    1    2    0    0  0.35786674194E+00 -0.43061172267E-01  0.89886312953E-01  0.10088837489E+01  0.93800000000E+00 0. -1.
         22    1    1    2    0    0 -0.27955996755E+00  0.89112766740E-01  0.31332491748E+01  0.31469580951E+01  0.00000000000E+00 0. -1.
</event>
<event>
 5    1  0.7095115E+001  0.1540312E+01  0.7818608E-02  0.3420809E+00
         11   -1    0    0    0    0  0.00000000000E+00  0.00000000000E+00  0.39999999674E+01  0.40000000000E+01  0.51100000000E-03 0. -1.
    9000002   -1    0    0    0    0 -0.00000000000E+00 -0.00000000000E+00  0.00000000000E+00  0.93800000000E+00  0.93800000000E+00 0. -1.
         11    1    1    2    0    0 -0.19763422586E+00  0.11878193842E+00  0.96706851224E+00  0.99417815537E+00  0.51100000000E-03 0. -1.
    9000002    1    1    2    0    0 -0.82917436544E-01  0.36783197387E-01  0.50011870435E-01  0.94370201445E+00  0.93800000000E+00 0. -1.
         22    1    1    2    0    0  0.28055166240E+00 -0.15556513580E+00  0.29829195847E+01  0.30001198302E+01  0.00000000000E+00 0. -1.
</event>
<event>
 5    1  0.7095115E+001  0.1533489E+01  0.7818608E-02  0.3428875E+00
         11   -1    0    0    0    0  0.00000000000E+00  0.00000000000E+00  0.39999999674E+01  0.40000000000E+01  0.51100000000E-03 0.  1.
    9000002   -1    0    0    0    0 -0.00000000000E+00 -0.00000000000E+00  0.00000000000E+00  0.93800000000E+00  0.93800000000E+00 0. -1.
         11    1    1    2    0    0 -0.23614115056E+00 -0.16565764411E+00  0.58197711485E+00  0.64954039241E+00  0.51100000000E-03 0.  1.
    9000002    1    1    2    0    0  0.15462432443E+00  0.48808472438E+00  0.24280333293E+00  0.10958708128E+01  0.93800000000E+00 0. -1.
         22    1    1    2    0    0  0.81516826134E-01 -0.32242708027E+00  0.31752195196E+01  0.31925887948E+01  0.00000000000E+00 0.  1.
</event>
<event>
 5    1  0.7095115E+001  0.1599669E+01  0.7818608E-02  0.3353723E+00
         11   -1    0    0    0    0  0.00000000000E+00  0.00000000000E+00  0.39999999674E+01  0.40000000000E+01  0.51100000000E-03 0.  1.
    9000002   -1    0    0    0    0 -0.00000000000E+00 -0.00000000000E+00  0.00000000000E+00  0.93800000000E+00  0.93800000000E+00 0. -1.
         11    1    1    2    0    0 -0.17095385389E+00 -0.15494082136E+00  0.14206656130E+01  0.14392786121E+01  0.51100000000E-03 0.  1.
    9000002    1    1    2    0    0  0.45375472916E+00  0.41523448039E+00  0.26482364072E+00  0.11525140297E+01  0.93800000000E+00 0. -1.
         22    1    1    2    0    0 -0.28280087528E+00 -0.26029365903E+00  0.23145107136E+01  0.23462073582E+01  0.00000000000E+00 0. -1.
</event>
<event>
 5    1  0.7095115E+001  0.1594500E+01  0.7818608E-02  0.3359355E+00
         11   -1    0    0    0    0  0.00000000000E+00  0.00000000000E+00  0.39999999674E+01  0.40000000000E+01  0.51100000000E-03 0. -1.
    9000002   -1    0    0    0    0 -0.00000000000E+00 -0.00000000000E+00  0.00000000000E+00  0.93800000000E+00  0.93800000000E+00 0.  1.
         11    1    1    2    0    0 -0.21613273806E-01  0.14252281517E+00  0.60614441720E+00  0.62304991941E+00  0.51100000000E-03 0. -1.
    9000002    1    1    2    0    0  0.10357567545E+00 -0.49486152988E+00  0.17984989216E+00  0.10806506549E+01  0.93800000000E+00 0.  1.
         22    1    1    2    0    0 -0.81962401643E-01  0.35233871471E+00  0.32140056580E+01  0.32342994257E+01  0.00000000000E+00 0. -1.
</event>
<event>
 5    1  0.7095115E+001  0.1558400E+01  0.7818608E-02  0.3399790E+00
         11   -1    0    0    0    0  0.00000000000E+00  0.00000000000E+00  0.39999999674E+01  0.40000000000E+01  0.51100000000E-03 0.  1.
    9000002   -1    0    0    0    0 -0.00000000000E+00 -0.00000000000E+00  0.00000000000E+00  0.93800000000E+00  0.93800000000E+00 0. -1.
         11    1    1    2    0    0 -0.98822909556E-01  0.18638673629E+00  0.13037751163E+01  0.13207330532E+01  0.51100000000E-03 0.  1.
    9000002    1    1    2    0    0  0.39268710462E+00  0.12536959666E+00  0.15029922995E+00  0.10355455357E+01  0.93800000000E+00 0. -1.
         22    1    1    2    0    0 -0.29386419507E+00 -0.31175633295E+00  0.25459256212E+01  0.25817214111E+01  0.00000000000E+00 0.  1.
</event>
<event>
 5    1  0.7095115E+001  0.1586646E+01  0.7818608E-02  0.3367986E+00
         11   -1    0    0    0    0  0.00000000000E+00  0.00000000000E+00  0.39999999674E+01  0.40000000000E+01  0.51100000000E-03 0. -1.
    9000002   -1    0    0    0    0 -0.00000000000E+00 -0.00000000000E+00  0.00000000000E+00  0.93800000000E+00  0.93800000000E+00 0.  1.
         11    1    1    2    0    0 -0.34424879409E-01  0.20211847931E-02  0.31118795908E+00  0.31309322016E+00  0.51100000000E-03 0. -1.
    9000002    1    1    2    0    0  0.32679046105E+00 -0.87949306503E+00  0.70778631716E+00  0.15036972859E+01  0.93800000000E+00 0.  1.
         22    1    1    2    0    0 -0.29236558164E+00  0.87747188024E+00  0.29810256911E+01  0.31212094939E+01  0.00000000000E+00 0. -1.
</event>
<event>
 5    1  0.7095115E+001  0.1584763E+01  0.7818608E-02  0.3370069E+00
         11   -1    0    0    0    0  0.00000000000E+00  0.00000000000E+00  0.39999999674E+01  0.40000000000E+01  0.51100000000E-03 0. -1.
    9000002   -1    0    0    0    0 -0.00000000000E+00 -0.00000000000E+00  0.00000000000E+00  0.93800000000E+00  0.93800000000E+00 0.  1.
         11    1    1    2    0    0  0.15473596624E+00  0.97843612602E-01  0.74937802197E+00  0.77141705497E+00  0.51100000000E-03 0. -1.
    9000002    1    1    2    0    0 -0.19470598063E+00 -0.43328011126E+00  0.16710530816E+00  0.10646174232E+01  0.93800000000E+00 0.  1.
         22    1    1    2    0    0  0.39970014389E-01  0.33543649866E+00  0.30835166372E+01  0.31019655219E+01  0.00000000000E+00 0. -1.
</event>
<event>
 5    1  0.7095115E+001  0.1599079E+01  0.7818608E-02  0.3354363E+00
         11   -1    0    0    0    0  0.00000000000E+00  0.00000000000E+00  0.39999999674E+01  0.40000000000E+01  0.51100000000E-03 0.  1.
    9000002   -1    0    0    0    0 -0.00000000000E+00 -0.00000000000E+00  0.00000000000E+00  0.93800000000E+00  0.93800000000E+00 0.  1.
         11    1    1    2    0    0  0.23685625474E-01  0.13297324354E-01  0.16852624344E+00  0.17070203144E+00  0.51100000000E-03 0.  1.
    9000002    1    1    2    0    0 -0.27102617653E+00 -0.35302128725E+00  0.13494944697E+00  0.10469644554E+01  0.93800000000E+00 0.  1.
         22    1    1    2    0    0  0.24734055105E+00  0.33972396289E+00  0.36965242769E+01  0.37203335132E+01  0.00000000000E+00 0.  1.
</event>
<event>
 5    1  0.7095115E+001  0.1599665E+01  0.7818608E-02  0.3353727E+00
         11   -1    0    0    0    0  0.00000000000E+00  0.00000000000E+00  0.39999999674E+01  0.40000000000E+01  0.51100000000E-03 0. -1.
    9000002   -1    0    0    0    0 -0.00000000000E+00 -0.00000000000E+00  0.00000000000E+00  0.93800000000E+00  0.93800000000E+00 0. -1.
         11    1    1    2    0    0 -0.43913945713E+00  0.21582563414E+00  0.87135508678E+00  0.99934184118E+00  0.51100000000E-03 0. -1.
    9000002    1    1    2    0    0  0.11330711092E+01 -0.56175298566E+00  0.17285113718E+01  0.23381642624E+01  0.93800000000E+00 0. -1.
         22    1    1    2    0    0 -0.69393165203E+00  0.34592735153E+00  0.14001335088E+01  0.16004938965E+01  0.00000000000E+00 0.  1.
</event>
<event>
 5    1  0.7095115E+001  0.1599666E+01  0.7818608E-02  0.3353726E+00
         11   -1    0    0    0    0  0.00000000000E+00  0.00000000000E+00  0.39999999674E+01  0.40000000000E+01  0.51100000000E-03 0. -1.
    9000002   -1    0    0    0    0 -0.00000000000E+00 -0.00000000000E+00  0.00000000000E+00  0.93800000000E+00  0.93800000000E+00 0. -1.
         11    1    1    2    0    0  0.15504271600E+00 -0.31548345895E+00  0.14434057160E+01  0.14855936115E+01  0.51100000000E-03 0. -1.
    9000002    1    1    2    0    0 -0.38072870399E+00  0.75331667682E+00  0.53314377897E+00  0.13698637343E+01  0.93800000000E+00 0. -1.
         22    1    1    2    0    0  0.22568598798E+00 -0.43783321787E+00  0.20234504724E+01  0.20825426541E+01  0.00000000000E+00 0. -1.
</event>
<event>
 5    1  0.7095115E+001  0.1599675E+01  0.7818608E-02  0.3353716E+00
         11   -1    0    0    0    0  0.00000000000E+00  0.00000000000E+00  0.39999999674E+01  0.40000000000E+01  0.51100000000E-03 0. -1.
    9000002   -1    0    0    0    0 -0.00000000000E+00 -0.00000000000E+00  0.00000000000E+00  0.93800000000E+00  0.93800000000E+00 0. -1.
         11    1    1    2    0    0 -0.90972263985E-02 -0.73809082939E-02  0.11739356085E+00  0.11797773767E+00  0.51100000000E-03 0.  1.
    9000002    1    1    2    0    0  0.30146686863E+00  0.23573512689E+00  0.98573460575E-01  0.10178477539E+01  0.93800000000E+00 0. -1.
         22    1    1    2    0    0 -0.29236964223E+00 -0.22835421860E+00  0.37840329459E+01  0.38021745085E+01  0.00000000000E+00 0. -1.
</event>
<event>
 5    1  0.7095115E+001  0.1599635E+01  0.7818608E-02  0.3353760E+00
         11   -1    0    0    0    0  0.00000000000E+00  0.00000000000E+00  0.39999999674E+01  0.40000000000E+01  0.51100000000E-03 0.  1.
    9000002   -1    0    0    0    0 -0.00000000000E+00 -0.00000000000E+00  0.00000000000E+00  0.93800000000E+00  0.93800000000E+00 0. -1.
         11    1    1    2    0    0 -0.34538968974E-01 -0.87076193654E-01  0.49966223692E+00  0.50836779600E+00  0.51100000000E-03 0.  1.
    9000002    1    1    2    0    0  0.22670479691E+00  0.66545344266E+00  0.35354342957E+00  0.12243611828E+01  0.93800000000E+00 0. -1.
         22    1    1    2    0    0 -0.19216582794E+00 -0.57837724900E+00  0.31467943009E+01  0.32052710212E+01  0.00000000000E+00 0.  1.
</event>
<event>
 5    1  0.7095115E+001  0.1599647E+01  0.7818608E-02  0.3353746E+00
         11   -1    0    0    0    0  0.00000000000E+00  0.00000000000E+00  0.39999999674E+01  0.40000000000E+01  0.51100000000E-03 0. -1.
    9000002   -1    0    0    0    0 -0.00000000000E+00 -0.00000000000E+00  0.00000000000E+00  0.93800000000E+00  0.93800000000E+00 0.  1.
         11    1    1    2    0    0  0.80560402465E-03  0.66296066831E-02  0.52590428409E-01  0.53015233319E-01  0.51100000000E-03 0. -1.
    9000002    1    1    2    0    0 -0.15880800076E+00 -0.45192080246E+00  0.15656118756E+00  0.10648041126E+01  0.93800000000E+00 0.  1.
         22    1    1    2    0    0  0.15800239674E+00  0.44529119578E+00  0.37908483514E+01  0.38201806541E+01  0.00000000000E+00 0. -1.
</event>
<event>
 5    1  0.7095115E+001  0.1599676E+01  0.7818608E-02  0.3353715E+00
         11   -1    0    0    0    0  0.00000000000E+00  0.00000000000E+00  0.39999999674E+01  0.40000000000E+01  0.51100000000E-03 0.  1.
    9000002   -1    0    0    0    0 -0.00000000000E+00 -0.00000000000E+00  0.00000000000E+00  0.93800000000E+00  0.93800000000E+00 0.  1.
         11    1    1    2    0    0 -0.36444709147E-01 -0.13556335438E+00  0.75057894805E+00  0.76359325446E+00  0.51100000000E-03 0.  1.
    9000002    1    1    2    0    0  0.17460611862E+00  0.65896427768E+00  0.33052887667E+00  0.12057423250E+01  0.93800000000E+00 0.  1.
         22    1    1    2    0    0 -0.13816140947E+00 -0.52340092330E+00  0.29188921426E+01  0.29686644206E+01  0.00000000000E+00 0.  1.
</event>
<event>
 5    1  0.7095115E+001  0.1590461E+01  0.7818608E-02  0.3363782E+00
         11   -1    0    0    0    0  0.00000000000E+00  0.00000000000E+00  0.39999999674E+01  0.40000000000E+01  0.51100000000E-03 0. -1.
    9000002   -1    0    0    0    0 -0.00000000000E+00 -0.00000000000E+00  0.00000000000E+00  0.93800000000E+00  0.93800000000E+00 0. -1.
         11    1    1    2    0    0  0.20306456140E-01  0.62936795029E-01  0.23982630145E+00  0.24877762825E+00  0.51100000000E-03 0. -1.
    9000002    1    1    2    0    0 -0.42361731133E+00 -0.11381840698E+00  0.13839573397E+00  0.10447026541E+01  0.93800000000E+00 0. -1.
         22    1    1    2    0    0  0.40331085519E+00  0.50881611946E-01  0.36217779319E+01  0.36445197177E+01  0.00000000000E+00 0. -1.
</event>
<event>
 5    1  0.7095115E+001  0.1599392E+01  0.7818608E-02  0.3354024E+00
         11   -1    0    0    0    0  0.00000000000E+00  0.00000000000E+00  0.39999999674E+01  0.40000000000E+01  0.51100000000E-03 0.  1.
    9000002   -1    0    0    0    0 -0.00000000000E+00 -0.00000000000E+00  0.00000000000E+00  0.93800000000E+00  0.93800000000E+00 0. -1.
         11    1    1    2    0    0  0.19970956249E-01  0.55059214637E-01  0.33062006170E+00  0.33576813805E+00  0.51100000000E-03 0.  1.
    9000002    1    1    2    0    0 -0.95687424346E-01 -0.60837278050E+00  0.26582223118E+00  0.11531604320E+01  0.93800000000E+00 0. -1.
         22    1    1    2    0    0  0.75716468097E-01  0.55331356587E+00  0.34035576745E+01  0.34490714300E+01  0.00000000000E+00 0.  1.
</event>
<event>
 5    1  0.7095115E+001  0.1599599E+01  0.7818608E-02  0.3353799E+00
         11   -1    0    0    0    0  0.00000000000E+00  0.00000000000E+00  0.39999999674E+01  0.40000000000E+01  0.51100000000E-03 0.  1.
    9000002   -1    0    0    0    0 -0.00000000000E+00 -0.00000000000E+00  0.00000000000E+00  0.93800000000E+00  0.93800000000E+00 0.  1.
         11    1    1    2    0    0  0.31326414767E-01 -0.11609894119E-01  0.35141824882E+00  0.35300308869E+00  0.51100000000E-03 0.  1.
    9000002    1    1    2    0    0 -0.37627783856E+00  0.67755445539E-01  0.98445008514E-01  0.10176989888E+01  0.93800000000E+00 0.  1.
         22    1    1    2    0    0  0.34495142379E+00 -0.56145551420E-01  0.35501367100E+01  0.35672979225E+01  0.00000000000E+00 0.  1.
</event>
<event>
 5    1  0.7095115E+001  0.1599673E+01  0.7818608E-02  0.3353719E+00
         11   -1    0    0    0    0  0.00000000000E+00  0.00000000000E+00  0.39999999674E+01  0.40000000000E+01  0.51100000000E-03 0. -1.
    9000002   -1    0    0    0    0 -0.00000000000E+00 -0.00000000000E+00  0.00000000000E+00  0.93800000000E+00  0.93800000000E+00 0. -1.
         11    1    1    2    0    0 -0.14306569182E+00 -0.10013321193E+00  0.10214133282E+01  0.10362335164E+01  0.51100000000E-03 0. -1.
    9000002    1    1    2    0    0  0.51594809944E+00  0.37098310088E+00  0.28399239504E+00  0.11680439131E+01  0.93800000000E+00 0. -1.
         22    1    1    2    0    0 -0.37288240762E+00 -0.27084988895E+00  0.26945942441E+01  0.27337225705E+01  0.00000000000E+00 0. -1.
</event>
<event>
 5    1  0.7095115E+001  0.1599659E+01  0.7818608E-02  0.3353734E+00
         11   -1    0    0    0    0  0.00000000000E+00  0.00000000000E+00  0.39999999674E+01  0.40000000000E+01  0.51100000000E-03 0. -1.
    9000002   -1    0    0    0    0 -0.00000000000E+00 -0.00000000000E+00  0.00000000000E+00  0.93800000000E+00  0.93800000000E+00 0. -1.
         11    1    1    2    0    0  0.16512779061E+00  0.32642633082E-01  0.96665579509E+00  0.98120151652E+00  0.51100000000E-03 0. -1.
    9000002    1    1    2    0    0 -0.64422550071E+00 -0.11284830776E+00  0.30216225457E+00  0.11827541014E+01  0.93800000000E+00 0. -1.
         22    1    1    2    0    0  0.47909771010E+00  0.80205674678E-01  0.27311819177E+01  0.27740443821E+01  0.00000000000E+00 0. -1.
</event>
<event>
 5    1  0.7095115E+001  0.1599596E+01  0.7818608E-02  0.3353802E+00
         11   -1    0    0    0    0  0.00000000000E+00  0.00000000000E+00  0.39999999674E+01  0.40000000000E+01  0.51100000000E-03 0.  1.
    9000002   -1    0    0    0    0 -0.00000000000E+00 -0.00000000000E+00  0.00000000000E+00  0.93800000000E+00  0.93800000000E+00 0. -1.
         11    1    1    2    0    0 -0.37571934744E-01  0.53272035254E-01  0.74895835340E+00  0.75179015441E+00  0.51100000000E-03 0.  1.
    9000002    1    1    2    0    0  0.24069229141E+00 -0.27815688682E+00  0.90972669046E-01  0.10116442356E+01  0.93800000000E+00 0. -1.
         22    1    1    2    0    0 -0.20312035667E+00  0.22488485157E+00  0.31600689449E+01  0.31745656100E+01  0.00000000000E+00 0.  1.
</event>
<event>
 5    1  0.7095115E+001  0.1567891E+01  0.7818608E-02  0.3388968E+00
         11   -1    0    0    0    0  0.00000000000E+00  0.00000000000E+00  0.39999999674E+01  0.40000000000E+01  0.51100000000E-03 0.  1.
    9000002   -1    0    0    0    0 -0.00000000000E+00 -0.00000000000E+00  0.00000000000E+00  0.93800000000E+00  0.93800000000E+00 0.  1.
         11    1    1    2    0    0  0.16438781984E+00  0.43773091117E-01  0.10118729166E+01  0.10260733401E+01  0.51100000000E-03 0.  1.
    9000002    1    1    2    0    0  0.77217871388E-01 -0.31101733828E+00  0.94240051188E-01  0.99570054315E+00  0.93800000000E+00 0.  1.
         22    1    1    2    0    0 -0.24160569123E+00  0.26724424717E+00  0.28938869996E+01  0.29162261167E+01  0.00000000000E+00 0.  1.
</event>
<event>
 5    1  0.7095115E+001  0.1587445E+01  0.7818608E-02  0.3367104E+00
         11   -1    0    0    0    0  0.00000000000E+00  0.00000000000E+00  0.39999999674E+01  0.40000000000E+01  0.51100000000E-03 0. -1.
    9000002   -1    0    0    0    0 -0.00000000000E+00 -0.00000000000E+00  0.00000000000E+00  0.93800000000E+00  0.93800000000E+00 0.  1.
         11    1    1    2    0    0  0.70941669477E-01  0.63833060888E-01  0.98403937843E+00  0.98865622921E+00  0.51100000000E-03 0. -1.
    9000002    1    1    2    0    0  0.17681669602E+00 -0.23651198326E+00  0.67760677298E-01  0.98571678062E+00  0.93800000000E+00 0.  1.
         22    1    1    2    0    0 -0.24775836550E+00  0.17267892237E+00  0.29481999116E+01  0.29636269902E+01  0.00000000000E+00 0. -1.
</event>
<event>
 5    1  0.7095115E+001  0.1579503E+01  0.7818608E-02  0.3375915E+00
         11   -1    0    0    0    0  0.00000000000E+00  0.00000000000E+00  0.39999999674E+01  0.40000000000E+01  0.51100000000E-03 0. -1.
    9000002   -1    0    0    0    0 -0.00000000000E+00 -0.00000000000E+00  0.00000000000E+00  0.93800000000E+00  0.93800000000E+00 0. -1.
         11    1    1    2    0    0 -0.47599575591E-01 -0.54987436994E-01  0.27539584402E+00  0.28483762014E+00  0.51100000000E-03 0. -1.
    9000002    1    1    2    0    0  0.20627616652E-01 -0.27739037805E+00  0.67298548877E-01  0.98068548224E+00  0.93800000000E+00 0. -1.
         22    1    1    2    0    0  0.26971958939E-01  0.33237781505E+00  0.36573055745E+01  0.36724768976E+01  0.00000000000E+00 0. -1.
</event>
<event>
 5    1  0.7095115E+001  0.1599461E+01  0.7818608E-02  0.3353949E+00
         11   -1    0    0    0    0  0.00000000000E+00  0.00000000000E+00  0.39999999674E+01  0.40000000000E+01  0.51100000000E-03 0.  1.
    9000002   -1    0    0    0    0 -0.00000000000E+00 -0.00000000000E+00  0.00000000000E+00  0.93800000000E+00  0.93800000000E+00 0. -1.
         11    1    1    2    0    0  0.55586630550E-01 -0.11970951828E+00  0.12060057010E+01  0.12132066000E+01  0.51100000000E-03 0.  1.
    9000002    1    1    2    0    0 -0.15058608163E+00  0.42806384186E+00  0.14011950079E+00  0.10513763813E+01  0.93800000000E+00 0. -1.
         22    1    1    2    0    0  0.94999451083E-01 -0.30835432359E+00  0.26538747656E+01  0.26734170187E+01  0.00000000000E+00 0.  1.
</event>
<event>
 5    1  0.7095115E+001  0.1599565E+01  0.7818608E-02  0.3353836E+00
         11   -1    0    0    0    0  0.00000000000E+00  0.00000000000E+00  0.39999999674E+01  0.40000000000E+01  0.51100000000E-03 0.  1.
    9000002   -1    0    0    0    0 -0.00000000000E+00 -0.00000000000E+00  0.00000000000E+00  0.93800000000E+00  0.93800000000E+00 0. -1.
         11    1    1    2    0    0  0.34538671523E-01  0.11789082306E-01  0.25389947117E+00  0.25650946352E+00  0.51100000000E-03 0.  1.
    9000002    1    1    2    0    0 -0.43013276836E+00 -0.15947058606E+00  0.14321503379E+00  0.10539447861E+01  0.93800000000E+00 0. -1.
         22    1    1    2    0    0  0.39559409684E+00  0.14768150375E+00  0.36028854624E+01  0.36275457504E+01  0.00000000000E+00 0.  1.
</event>
<event>
 5    1  0.7095115E+001  0.1449279E+01  0.7818608E-02  0.3535172E+00
         11   -1    0    0    0    0  0.00000000000E+00  0.00000000000E+00  0.39999999674E+01  0.40000000000E+01  0.51100000000E-03 0.  1.
    9000002   -1    0    0    0    0 -0.00000000000E+00 -0.00000000000E+00  0.00000000000E+00  0.93800000000E+00  0.93800000000E+00 0.  1.
         11    1    1    2    0    0 -0.16756002312E-01  0.16431132095E+00  0.12139286360E+00  0.20497673590E+00  0.51100000000E-03 0.  1.
    9000002    1    1    2    0    0  0.29110755142E-01  0.63321267258E+00  0.45897286682E+00  0.12215996960E+01  0.93800000000E+00 0.  1.
         22    1    1    2    0    0 -0.12354752830E-01 -0.79752399353E+00  0.34196342369E+01  0.35114235681E+01  0.00000000000E+00 0.  1.
</event>
<event>
 5    1  0.7095115E+001  0.1599676E+01  0.7818608E-02  0.3353715E+00
         11   -1    0    0    0    0  0.00000000000E+00  0.00000000000E+00  0.39999999674E+01  0.40000000000E+01  0.51100000000E-03 0. -1.
    9000002   -1    0    0    0    0 -0.00000000000E+00 -0.00000000000E+00  0.00000000000E+00  0.93800000000E+00  0.93800000000E+00 0.  1.
         11    1    1    2    0    0  0.66617443696E-01 -0.88748371335E-01  0.12096066128E+01  0.12146862048E+01  0.51100000000E-03 0. -1.
    9000002    1    1    2    0    0 -0.21629373579E+00  0.28997680467E+00  0.87865997455E-01  0.10091748911E+01  0.93800000000E+00 0.  1.
         22    1    1    2    0    0  0.14967629210E+00 -0.20122843333E+00  0.27025273571E+01  0.27141389041E+01  0.00000000000E+00 0. -1.
</event>
<event>
 5    1  0.7095115E+001  0.1594732E+01  0.7818608E-02  0.3359101E+00
         11   -1    0    0    0    0  0.00000000000E+00  0.00000000000E+00  0.39999999674E+01  0.40000000000E+01  0.51100000000E-03 0. -1.
    9000002   -1    0    0    0    0 -0.00000000000E+00 -0.00000000000E+00  0.00000000000E+00  0.93800000000E+00  0.93800000000E+00 0.  1.
         11    1    1    2    0    0 -0.13218243134E-01 -0.21204678558E-01  0.32898942031E+00  0.32993735791E+00  0.51100000000E-03 0. -1.
    9000002    1    1    2    0    0 -0.32280554038E+00 -0.33632341293E-01  0.74370824268E-01  0.99534394597E+00  0.93800000000E+00 0.  1.
         22    1    1    2    0    0  0.33602378351E+00  0.54837019851E-01  0.35966397228E+01  0.36127186961E+01  0.00000000000E+00 0. -1.
</event>
<event>
 5    1  0.7095115E+001  0.1599674E+01  0.7818608E-02  0.3353717E+00
         11   -1    0    0    0    0  0.00000000000E+00  0.00000000000E+00  0.39999999674E+01  0.40000000000E+01  0.51100000000E-03 0.  1.
    9000002   -1    0    0    0    0 -0.00000000000E+00 -0.00000000000E+00  0.00000000000E+00  0.93800000000E+00  0.93800000000E+00 0.  1.
         11    1    1    2    0    0 -0.33256700247E-01 -0.36099812453E-02  0.34415583754E+00  0.34577816836E+00  0.51100000000E-03 0.  1.
    9000002    1    1    2    0    0  0.37457969404E+00  0.52050555092E-01  0.96210029349E-01  0.10159328606E+01  0.93800000000E+00 0.  1.
         22    1    1    2    0    0 -0.34132299379E+00 -0.48440573847E-01  0.35596341005E+01  0.35762889711E+01  0.00000000000E+00 0.  1.
</event>
<event>
 5    1  0.7095115E+001  0.1599647E+01  0.7818608E-02  0.3353746E+00
         11   -1    0    0    0    0  0.00000000000E+00  0.00000000000E+00  0.39999999674E+01  0.40000000000E+01  0.51100000000E-03 0. -1.
    9000002   -1    0    0    0    0 -0.00000000000E+00 -0.00000000000E+00  0.00000000000E+00  0.93800000000E+00  0.93800000000E+00 0. -1.
         11    1    1    2    0    0 -0.26693135238E-02  0.15543474397E-03  0.20530949163E-01  0.20710634688E-01  0.51100000000E-03 0. -1.
    9000002    1    1    2    0    0  0.35509970529E+00 -0.26074012647E-01  0.85085773820E-01  0.10069057770E+01  0.93800000000E+00 0. -1.
         22    1    1    2    0    0 -0.35243039177E+00  0.25918577903E-01  0.38943832444E+01  0.39103835883E+01  0.00000000000E+00 0. -1.
</event>
<event>
 5    1  0.7095115E+001  0.1599446E+01  0.7818608E-02  0.3353965E+00
         11   -1    0    0    0    0  0.00000000000E+00  0.00000000000E+00  0.39999999674E+01  0.40000000000E+01  0.51100000000E-03 0.  1.
    9000002   -1    0    0    0    0 -0.00000000000E+00 -0.00000000000E+00  0.00000000000E+00  0.93800000000E+00  0.93800000000E+00 0. -1.
         11    1    1    2    0    0  0.15424802544E+00  0.67198297953E-01  0.13563352404E+01  0.13667309940E+01  0.51100000000E-03 0.  1.
    9000002    1    1    2    0    0 -0.40926913771E+00 -0.15235784810E+00  0.12947860094E+00  0.10427477399E+01  0.93800000000E+00 0. -1.
         22    1    1    2    0    0  0.25502111227E+00  0.85159550142E-01  0.25141861260E+01  0.25285212661E+01  0.00000000000E+00 0.  1.
</event>
<event>
 5    1  0.7095115E+001  0.1598536E+01  0.7818608E-02  0.3354954E+00
         11   -1    0    0    0    0  0.00000000000E+00  0.00000000000E+00  0.39999999674E+01  0.40000000000E+01  0.51100000000E-03 0. -1.
    9000002   -1    0    0    0    0 -0.00000000000E+00 -0.00000000000E+00  0.00000000000E+00  0.93800000000E+00  0.93800000000E+00 0.  1.
         11    1    1    2    0    0  0.14739179406E-01 -0.27046636721E-01  0.14101915021E+00  0.14434481569E+00  0.51100000000E-03 0. -1.
    9000002    1    1    2    0    0 -0.27366347998E+00  0.33999483558E+00  0.13009866586E+00  0.10427165729E+01  0.93800000000E+00 0.  1.
         22    1    1    2    0    0  0.25892430058E+00 -0.31294819886E+00  0.37288821513E+01  0.37509386114E+01  0.00000000000E+00 0. -1.
</event>
<event>
 5    1  0.7095115E+001  0.1599658E+01  0.7818608E-02  0.3353735E+00
         11   -1    0    0    0    0  0.00000000000E+00  0.00000000000E+00  0.39999999674E+01  0.40000000000E+01  0.51100000000E-03 0.  1.
    9000002   -1    0    0    0    0 -0.00000000000E+00 -0.00000000000E+00  0.00000000000E+00  0.93800000000E+00  0.93800000000E+00 0. -1.
         11    1    1    2    0    0 -0.19935746222E-01 -0.78424114843E-02  0.15698883018E+00  0.15844460016E+00  0.51100000000E-03 0.  1.
    9000002    1    1    2    0    0  0.45072191933E+00  0.22613429539E+00  0.17421643526E+00  0.10791118267E+01  0.93800000000E+00 0. -1.
         22    1    1    2    0    0 -0.43078617311E+00 -0.21829188390E+00  0.36687947019E+01  0.37004435732E+01  0.00000000000E+00 0.  1.
</event>
<event>
 5    1  0.7095115E+001  0.1599676E+01  0.7818608E-02  0.3353716E+00
         11   -1    0    0    0    0  0.00000000000E+00  0.00000000000E+00  0.39999999674E+01  0.40000000000E+01  0.51100000000E-03 0. -1.
    9000002   -1    0    0    0    0 -0.00000000000E+00 -0.00000000000E+00  0.00000000000E+00  0.93800000000E+00  0.93800000000E+00 0.  1.
         11    1    1    2    0    0  0.22787019961E-01  0.97278236738E-01  0.80693554538E+00  0.81309749670E+00  0.51100000000E-03 0. -1.
    9000002    1    1    2    0    0 -0.10674665076E+00 -0.45897266492E+00  0.15130092366E+00  0.10605596278E+01  0.93800000000E+00 0.  1.
         22    1    1    2    0    0  0.83959630797E-01  0.36169442818E+00  0.30417634983E+01  0.30643428755E+01  0.00000000000E+00 0. -1.
</event>
<event>
 5    1  0.7095115E+001  0.1599660E+01  0.7818608E-02  0.3353733E+00
         11   -1    0    0    0    0  0.00000000000E+00  0.00000000000E+00  0.39999999674E+01  0.40000000000E+01  0.51100000000E-03 0.  1.
    9000002   -1    0    0    0    0 -0.00000000000E+00 -0.00000000000E+00  0.00000000000E+00  0.93800000000E+00  0.93800000000E+00 0.  1.
         11    1    1    2    0    0  0.32593445574E-01  0.13088065663E-01  0.39945325668E+00  0.40099475751E+00  0.51100000000E-03 0.  1.
    9000002    1    1    2    0    0 -0.34760286075E+00 -0.12071592719E+00  0.90986626537E-01  0.10116929624E+01  0.93800000000E+00 0.  1.
         22    1    1    2    0    0  0.31500941518E+00  0.10762786153E+00  0.35095600841E+01  0.35253122801E+01  0.00000000000E+00 0.  1.
</event>
<event>
 5    1  0.1016978E+002  0.1591953E+01  0.7818608E-02  0.3362144E+00
         11   -1    0    0    0    0  0.00000000000E+00  0.00000000000E+00  0.39999999674E+01  0.40000000000E+01  0.51100000000E-03 0.  1.
    9000002   -1    0    0    0    0 -0.00000000000E+00 -0.00000000000E+00  0.00000000000E+00  0.93800000000E+00  0.93800000000E+00 0.  1.
         11    1    1    2    0    0 -0.24407512721E-02  0.27876631122E-01  0.14743288648E+01  0.14745944956E+01  0.51100000000E-03 0.  1.
    9000002    1    1    2    0    0  0.16851211601E+00  0.14723003614E+00  0.39062167150E-01  0.96511287925E+00  0.93800000000E+00 0.  1.
         22    1    1    2    0    0 -0.16607136473E+00 -0.17510666727E+00  0.24866089354E+01  0.24982926251E+01  0.00000000000E+00 0.  1.
</event>
<event>
 5    1  0.7095115E+001  0.1549137E+01  0.7818608E-02  0.3410488E+00
         11   -1    0    0    0    0  0.00000000000E+00  0.00000000000E+00  0.39999999674E+01  0.40000000000E+01  0.51100000000E-03 0. -1.
    9000002   -1    0    0    0    0 -0.00000000000E+00 -0.00000000000E+00  0.00000000000E+00  0.93800000000E+00  0.93800000000E+00 0.  1.
         11    1    1    2    0    0 -0.21114661953E+00  0.10319788485E+00  0.10567457952E+01  0.10825639173E+01  0.51100000000E-03 0. -1.
    9000002    1    1    2    0    0 -0.66467366984E-01 -0.11673478631E+00  0.50027774353E-01  0.94888971931E+00  0.93800000000E+00 0.  1.
         22    1    1    2    0    0  0.27761398651E+00  0.13536901464E-01  0.28932263978E+01  0.29065463633E+01  0.00000000000E+00 0. -1.
</event>
<event>
 5    1  0.7095115E+001  0.1599675E+01  0.7818608E-02  0.3353716E+00
         11   -1    0    0    0    0  0.00000000000E+00  0.00000000000E+00  0.39999999674E+01  0.40000000000E+01  0.51100000000E-03 0.  1.
    9000002   -1    0    0    0    0 -0.00000000000E+00 -0.00000000000E+00  0.00000000000E+00  0.93800000000E+00  0.93800000000E+00 0.  1.
         11    1    1    2    0    0  0.20794732229E-01 -0.12431811769E+00  0.98050994438E+00  0.98857848825E+00  0.51100000000E-03 0.  1.
    9000002    1    1    2    0    0 -0.84828409440E-01  0.48944002809E+00  0.16882174647E+00  0.10747521492E+01  0.93800000000E+00 0.  1.
         22    1    1    2    0    0  0.64033677211E-01 -0.36512191040E+00  0.28506682765E+01  0.28746693625E+01  0.00000000000E+00 0.  1.
</event>
<event>
 5    1  0.7095115E+001  0.1588851E+01  0.7818608E-02  0.3365553E+00
         11   -1    0    0    0    0  0.00000000000E+00  0.00000000000E+00  0.39999999674E+01  0.40000000000E+01  0.51100000000E-03 0. -1.
    9000002   -1    0    0    0    0 -0.00000000000E+00 -0.00000000000E+00  0.00000000000E+00  0.93800000000E+00  0.93800000000E+00 0. -1.
         11    1    1    2    0    0  0.67480729542E-01 -0.13462408993E-01  0.21354215899E+00  0.22435552166E+00  0.51100000000E-03 0. -1.
    9000002    1    1    2    0    0 -0.47782640738E+00 -0.52413086238E+00  0.37279642176E+00  0.12336338227E+01  0.93800000000E+00 0. -1.
         22    1    1    2    0    0  0.41034567784E+00  0.53759327137E+00  0.34136613866E+01  0.34800106556E+01  0.00000000000E+00 0. -1.
</event>
<event>
 5    1  0.7095115E+001  0.1598373E+01  0.7818608E-02  0.3355131E+00
         11   -1    0    0    0    0  0.00000000000E+00  0.00000000000E+00  0.39999999674E+01  0.40000000000E+01  0.51100000000E-03 0. -1.
    9000002   -1    0    0    0    0 -0.00000000000E+00 -0.00000000000E+00  0.00000000000E+00  0.93800000000E+00  0.93800000000E+00 0.  1.
         11    1    1    2    0    0 -0.89179591178E-01  0.37049650504E-01  0.88996790442E+00  0.89519205096E+00  0.51100000000E-03 0. -1.
    9000002    1    1    2    0    0  0.26677295844E+00 -0.26301825140E+00  0.95436888185E-01  0.10145435484E+01  0.93800000000E+00 0.  1.
         22    1    1    2    0    0 -0.17759336726E+00  0.22596860089E+00  0.30145951748E+01  0.30282644007E+01  0.00000000000E+00 0. -1.
</event>
<event>
 5    1  0.7095115E+001  0.1599496E+01  0.7818608E-02  0.3353910E+00
         11   -1    0    0    0    0  0.00000000000E+00  0.00000000000E+00  0.39999999674E+01  0.40000000000E+01  0.51100000000E-03 0. -1.
    9000002   -1    0    0    0    0 -0.00000000000E+00 -0.00000000000E+00  0.00000000000E+00  0.93800000000E+00  0.93800000000E+00 0. -1.
         11    1    1    2    0    0 -0.10467787463E+00 -0.10840770497E+00  0.13298112645E+01  0.13383228117E+01  0.51100000000E-03 0. -1.
    9000002    1    1    2    0    0  0.31177470039E+00  0.27211151444E+00  0.11587148937E+00  0.10317549816E+01  0.93800000000E+00 0. -1.
         22    1    1    2    0    0 -0.20709682575E+00 -0.16370380947E+00  0.25543172135E+01  0.25679222067E+01  0.00000000000E+00 0. -1.
</event>
<event>
 5    1  0.7095115E+001  0.1599481E+01  0.7818608E-02  0.3353927E+00
         11   -1    0    0    0    0  0.00000000000E+00  0.00000000000E+00  0.39999999674E+01  0.40000000000E+01  0.51100000000E-03 0. -1.
    9000002   -1    0    0    0    0 -0.00000000000E+00 -0.00000000000E+00  0.00000000000E+00  0.93800000000E+00  0.93800000000E+00 0. -1.
         11    1    1    2    0    0  0.18346950616E-01  0.14156035896E+00  0.11266080627E+01  0.11356152226E+01  0.51100000000E-03 0. -1.
    9000002    1    1    2    0    0 -0.10910767576E+00 -0.45935637228E+00  0.15208080427E+00  0.10610774395E+01  0.93800000000E+00 0. -1.
         22    1    1    2    0    0  0.90760725148E-01  0.31779601332E+00  0.27213111004E+01  0.27413073379E+01  0.00000000000E+00 0. -1.
</event>
<event>
 5    1  0.7095115E+001  0.1599676E+01  0.7818608E-02  0.3353715E+00
         11   -1    0    0    0    0  0.00000000000E+00  0.00000000000E+00  0.39999999674E+01  0.40000000000E+01  0.51100000000E-03 0.  1.
    9000002   -1    0    0    0    0 -0.00000000000E+00 -0.00000000000E+00  0.00000000000E+00  0.93800000000E+00  0.93800000000E+00 0.  1.
         11    1    1    2    0    0  0.53651390849E-02  0.90086354392E-01  0.79110419378E+00  0.79623516784E+00  0.51100000000E-03 0.  1.
    9000002    1    1    2    0    0 -0.23312227720E-01 -0.43846753721E+00  0.13073790063E+00  0.10439030797E+01  0.93800000000E+00 0.  1.
         22    1    1    2    0    0  0.17947088635E-01  0.34838118282E+00  0.30781578729E+01  0.30978617525E+01  0.00000000000E+00 0.  1.
</event>
<event>
 5    1  0.7095115E+001  0.1591922E+01  0.7818608E-02  0.3362178E+00
         11   -1    0    0    0    0  0.00000000000E+00  0.00000000000E+00  0.39999999674E+01  0.40000000000E+01  0.51100000000E-03 0.  1.
    9000002   -1    0    0    0    0 -0.00000000000E+00 -0.00000000000E+00  0.00000000000E+00  0.93800000000E+00  0.93800000000E+00 0. -1.
         11    1    1    2    0    0  0.19334928331E-01 -0.16043760747E-01  0.81311672940E+00  0.81350495909E+00  0.51100000000E-03 0.  1.
    9000002    1    1    2    0    0  0.28806938687E+00 -0.86537677225E-01  0.66456746229E-01  0.98728579467E+00  0.93800000000E+00 0. -1.
         22    1    1    2    0    0 -0.30740431520E+00  0.10258143797E+00  0.31204264917E+01  0.31372092462E+01  0.00000000000E+00 0.  1.
</event>
<event>
 5    1  0.7095115E+001  0.1599632E+01  0.7818608E-02  0.3353763E+00
         11   -1    0    0    0    0  0.00000000000E+00  0.00000000000E+00  0.39999999674E+01  0.40000000000E+01  0.51100000000E-03 0.  1.
    9000002   -1    0    0    0    0 -0.00000000000E+00 -0.00000000000E+00  0.00000000000E+00  0.93800000000E+00  0.93800000000E+00 0. -1.
         11    1    1    2    0    0  0.74611071049E-01 -0.43628487790E-01  0.94413083516E+00  0.94807887430E+00  0.51100000000E-03 0.  1.
    9000002    1    1    2    0    0 -0.32974282484E+00  0.19906107534E+00  0.99919500098E-01  0.10189129250E+01  0.93800000000E+00 0. -1.
         22    1    1    2    0    0  0.25513175379E+00 -0.15543258755E+00  0.29559496321E+01  0.29710082007E+01  0.00000000000E+00 0.  1.
</event>
<event>
 5    1  0.7095115E+001  0.1598825E+01  0.7818608E-02  0.3354640E+00
         11   -1    0    0    0    0  0.00000000000E+00  0.00000000000E+00  0.39999999674E+01  0.40000000000E+01  0.51100000000E-03 0.  1.
    9000002   -1    0    0    0    0 -0.00000000000E+00 -0.00000000000E+00  0.00000000000E+00  0.93800000000E+00  0.93800000000E+00 0.  1.
         11    1    1    2    0    0 -0.48116754879E-01 -0.53013528950E-01  0.52225800541E+00  0.52714261987E+00  0.51100000000E-03 0.  1.
    9000002    1    1    2    0    0  0.37386576668E+00  0.21566723106E+00  0.12691542037E+00  0.10403074017E+01  0.93800000000E+00 0.  1.
         22    1    1    2    0    0 -0.32574901180E+00 -0.16265370211E+00  0.33508265416E+01  0.33705499785E+01  0.00000000000E+00 0.  1.
</event>
<event>
 5    1  0.7095115E+001  0.1599675E+01  0.7818608E-02  0.3353716E+00
         11   -1    0    0    0    0  0.00000000000E+00  0.00000000000E+00  0.39999999674E+01  0.40000000000E+01  0.51100000000E-03 0.  1.
    9000002   -1    0    0    0    0 -0.00000000000E+00 -0.00000000000E+00  0.00000000000E+00  0.93800000000E+00  0.93800000000E+00 0.  1.
         11    1    1    2    0    0 -0.12653702493E+00  0.42651761337E-01  0.10725151144E+01  0.10807958748E+01  0.51100000000E-03 0.  1.
    9000002    1    1    2    0    0  0.45689941077E+00 -0.14843475416E+00  0.15748438303E+00  0.10655680545E+01  0.93800000000E+00 0.  1.
         22    1    1    2    0    0 -0.33036238583E+00  0.10578299282E+00  0.27700004700E+01  0.27916360707E+01  0.00000000000E+00 0.  1.
</event>
<event>
 5    1  0.7095115E+001  0.1599401E+01  0.7818608E-02  0.3354013E+00
         11   -1    0    0    0    0  0.00000000000E+00  0.00000000000E+00  0.39999999674E+01  0.40000000000E+01  0.51100000000E-03 0. -1.
    9000002   -1    0    0    0    0 -0.00000000000E+00 -0.00000000000E+00  0.00000000000E+00  0.93800000000E+00  0.93800000000E+00 0. -1.
         11    1    1    2    0    0 -0.28070579885E-01  0.74354146558E-01  0.83171914569E+00  0.83550792635E+00  0.51100000000E-03 0. -1.
    9000002    1    1    2    0    0  0.20297544929E+00 -0.32032394001E+00  0.96975800422E-01  0.10163930172E+01  0.93800000000E+00 0. -1.
         22    1    1    2    0    0 -0.17490486941E+00  0.24596979345E+00  0.30713050212E+01  0.30860990564E+01  0.00000000000E+00 0. -1.
</event>
<event>
 5    1  0.7095115E+001  0.1598792E+01  0.7818608E-02  0.3354676E+00
         11   -1    0    0    0    0  0.00000000000E+00  0.00000000000E+00  0.39999999674E+01  0.40000000000E+01  0.51100000000E-03 0. -1.
    9000002   -1    0    0    0    0 -0.00000000000E+00 -0.00000000000E+00  0.00000000000E+00  0.93800000000E+00  0.93800000000E+00 0. -1.
         11    1    1    2    0    0 -0.62026684027E-01  0.81969251071E-01  0.65398664643E+00  0.66201590803E+00  0.51100000000E-03 0. -1.
    9000002    1    1    2    0    0  0.35465510232E+00 -0.32290388732E+00  0.15774018230E+00  0.10652573056E+01  0.93800000000E+00 0. -1.
         22    1    1    2    0    0 -0.29262841829E+00  0.24093463625E+00  0.31882731386E+01  0.32107267864E+01  0.00000000000E+00 0. -1.
</event>
<event>
 5    1  0.7095115E+001  0.1596461E+01  0.7818608E-02  0.3357213E+00
         11   -1    0    0    0    0  0.00000000000E+00  0.00000000000E+00  0.39999999674E+01  0.40000000000E+01  0.51100000000E-03 0.  1.
    9000002   -1    0    0    0    0 -0.00000000000E+00 -0.00000000000E+00  0.00000000000E+00  0.93800000000E+00  0.93800000000E+00 0.  1.
         11    1    1    2    0    0  0.27721750551E-01 -0.34593021653E-01  0.15977390516E+00  0.16581053794E+00  0.51100000000E-03 0.  1.
    9000002    1    1    2    0    0 -0.38035768524E+00  0.23499405597E+00  0.13848310023E+00  0.10482918220E+01  0.93800000000E+00 0.  1.
         22    1    1    2    0    0  0.35263593469E+00 -0.20040103432E+00  0.37017429620E+01  0.37238976400E+01  0.00000000000E+00 0.  1.
</event>
<event>
 5    1  0.7095115E+001  0.1521239E+01  0.7818608E-02  0.3443550E+00
         11   -1    0    0    0    0  0.00000000000E+00  0.00000000000E+00  0.39999999674E+01  0.40000000000E+01  0.51100000000E-03 0.  1.
    9000002   -1    0    0    0    0 -0.00000000000E+00 -0.00000000000E+00  0.00000000000E+00  0.93800000000E+00  0.93800000000E+00 0.  1.
         11    1    1    2    0    0 -0.29782434728E+00 -0.29607545134E-01  0.14372888253E+01  0.14681196739E+01  0.51100000000E-03 0.  1.
    9000002    1    1    2    0    0  0.16755442318E+00 -0.52143050808E+00  0.28515871958E+00  0.11229976647E+01  0.93800000000E+00 0.  1.
         22    1    1    2    0    0  0.13026992410E+00  0.55103805321E+00  0.22775524225E+01  0.23468826614E+01  0.00000000000E+00 0.  1.
</event>
<event>
 5    1  0.7095115E+001  0.1599513E+01  0.7818608E-02  0.3353892E+00
         11   -1    0    0    0    0  0.00000000000E+00  0.00000000000E+00  0.39999999674E+01  0.40000000000E+01  0.51100000000E-03 0. -1.
    9000002   -1    0    0    0    0 -0.00000000000E+00 -0.00000000000E+00  0.00000000000E+00  0.93800000000E+00  0.93800000000E+00 0. -1.
         11    1    1    2    0    0 -0.13554503749E-01 -0.19179821513E-01  0.17624821061E+00  0.17780686991E+00  0.51100000000E-03 0. -1.
    9000002    1    1    2    0    0  0.17395663197E+00  0.35747381353E+00  0.10670971495E+00  0.10243433997E+01  0.93800000000E+00 0. -1.
         22    1    1    2    0    0 -0.16040212822E+00 -0.33829399201E+00  0.37170420418E+01  0.37358497304E+01  0.00000000000E+00 0. -1.
</event>
<event>
 5    1  0.7193111E+001  0.1597312E+01  0.7818608E-02  0.3356286E+00
         11   -1    0    0    0    0  0.00000000000E+00  0.00000000000E+00  0.39999999674E+01  0.40000000000E+01  0.51100000000E-03 0.  1.
    9000002   -1    0    0    0    0 -0.00000000000E+00 -0.00000000000E+00  0.00000000000E+00  0.93800000000E+00  0.93800000000E+00 0.  1.
         11    1    1    2    0    0 -0.11850299990E+00 -0.17734655882E-02  0.14380287406E+01  0.14429043718E+01  0.51100000000E-03 0.  1.
    9000002    1    1    2    0    0  0.31117391207E+00  0.15809211926E+00  0.83580169067E-01  0.10043166664E+01  0.93800000000E+00 0.  1.
         22    1    1    2    0    0 -0.19267091218E+00 -0.15631865367E+00  0.24783910577E+01  0.24907789618E+01  0.00000000000E+00 0.  1.
</event>
<event>
 5    1  0.7095115E+001  0.1597708E+01  0.7818608E-02  0.3355855E+00
         11   -1    0    0    0    0  0.00000000000E+00  0.00000000000E+00  0.39999999674E+01  0.40000000000E+01  0.51100000000E-03 0. -1.
    9000002   -1    0    0    0    0 -0.00000000000E+00 -0.00000000000E+00  0.00000000000E+00  0.93800000000E+00  0.93800000000E+00 0. -1.
         11    1    1    2    0    0 -0.31622711122E+00  0.26834183837E-01  0.13446528515E+01  0.13815973406E+01  0.51100000000E-03 0. -1.
    9000002    1    1    2    0    0  0.71256809503E+00 -0.92606176982E-01  0.37315912670E+00  0.12391210304E+01  0.93800000000E+00 0. -1.
         22    1    1    2    0    0 -0.39634098381E+00  0.65771993145E-01  0.22821879892E+01  0.23172816291E+01  0.00000000000E+00 0. -1.
</event>
<event>
 5    1  0.7095115E+001  0.1598054E+01  0.7818608E-02  0.3355478E+00
         11   -1    0    0    0    0  0.00000000000E+00  0.00000000000E+00  0.39999999674E+01  0.40000000000E+01  0.51100000000E-03 0.  1.
    9000002   -1    0    0    0    0 -0.00000000000E+00 -0.00000000000E+00  0.00000000000E+00  0.93800000000E+00  0.93800000000E+00 0. -1.
         11    1    1    2    0    0  0.35130906853E-02  0.38141309858E-02  0.17401991913E+00  0.17409791147E+00  0.51100000000E-03 0.  1.
    9000002    1    1    2    0    0  0.37670130691E-01 -0.51336280586E+00  0.18332105289E+00  0.10855464143E+01  0.93800000000E+00 0. -1.
         22    1    1    2    0    0 -0.41183221376E-01  0.50954867487E+00  0.36426589953E+01  0.36783556742E+01  0.00000000000E+00 0.  1.
</event>
<event>
 5    1  0.7095115E+001  0.1591002E+01  0.7818608E-02  0.3363188E+00
         11   -1    0    0    0    0  0.00000000000E+00  0.00000000000E+00  0.39999999674E+01  0.40000000000E+01  0.51100000000E-03 0.  1.
    9000002   -1    0    0    0    0 -0.00000000000E+00 -0.00000000000E+00  0.00000000000E+00  0.93800000000E+00  0.93800000000E+00 0. -1.
         11    1    1    2    0    0  0.90622700290E-01  0.14302429101E+00  0.85914200699E+00  0.87566755731E+00  0.51100000000E-03 0.  1.
    9000002    1    1    2    0    0 -0.53420107773E-01 -0.41640385465E+00  0.12655071726E+00  0.10354250152E+01  0.93800000000E+00 0. -1.
         22    1    1    2    0    0 -0.37202592518E-01  0.27337956364E+00  0.30143072431E+01  0.30269074275E+01  0.00000000000E+00 0.  1.
</event>
<event>
 5    1  0.7095115E+001  0.1599650E+01  0.7818608E-02  0.3353743E+00
         11   -1    0    0    0    0  0.00000000000E+00  0.00000000000E+00  0.39999999674E+01  0.40000000000E+01  0.51100000000E-03 0.  1.
    9000002   -1    0    0    0    0 -0.00000000000E+00 -0.00000000000E+00  0.00000000000E+00  0.93800000000E+00  0.93800000000E+00 0.  1.
         11    1    1    2    0    0  0.62231506984E-02 -0.35353123954E-01  0.43830813580E+00  0.43977591340E+00  0.51100000000E-03 0.  1.
    9000002    1    1    2    0    0 -0.74234123834E-01  0.34571189898E+00  0.83887415195E-01  0.10059366385E+01  0.93800000000E+00 0.  1.
         22    1    1    2    0    0  0.68010973136E-01 -0.31035877503E+00  0.34778044164E+01  0.34922874481E+01  0.00000000000E+00 0.  1.
</event>
<event>
 5    1  0.7095115E+001  0.1599671E+01  0.7818608E-02  0.3353720E+00
         11   -1    0    0    0    0  0.00000000000E+00  0.00000000000E+00  0.39999999674E+01  0.40000000000E+01  0.51100000000E-03 0.  1.
    9000002   -1    0    0    0    0 -0.00000000000E+00 -0.00000000000E+00  0.00000000000E+00  0.93800000000E+00  0.93800000000E+00 0. -1.
         11    1    1    2    0    0  0.25461967666E-01  0.20192280199E+00  0.10687794893E+01  0.10879848288E+01  0.51100000000E-03 0.  1.
    9000002    1    1    2    0    0 -0.83214227948E-01 -0.68386836284E+00  0.33819362871E+00  0.12119486276E+01  0.93800000000E+00 0. -1.
         22    1    1    2    0    0  0.57752260282E-01  0.48194556085E+00  0.25930268494E+01  0.26380665437E+01  0.00000000000E+00 0.  1.
</event>
<event>
 5    1  0.7095115E+001  0.1599662E+01  0.7818608E-02  0.3353731E+00
         11   -1    0    0    0    0  0.00000000000E+00  0.00000000000E+00  0.39999999674E+01  0.40000000000E+01  0.51100000000E-03 0. -1.
    9000002   -1    0    0    0    0 -0.00000000000E+00 -0.00000000000E+00  0.00000000000E+00  0.93800000000E+00  0.93800000000E+00 0. -1.
         11    1    1    2    0    0 -0.12956477751E-02  0.31299512632E-02  0.41469549060E-01  0.41610814920E-01  0.51100000000E-03 0. -1.
    9000002    1    1    2    0    0  0.17421525298E+00 -0.35219727928E+00  0.10406103664E+00  0.10222849785E+01  0.93800000000E+00 0. -1.
         22    1    1    2    0    0 -0.17291960520E+00  0.34906732802E+00  0.38544693817E+01  0.38741042066E+01  0.00000000000E+00 0. -1.
</event>
<event>
 5    1  0.7095115E+001  0.1599662E+01  0.7818608E-02  0.3353731E+00
         11   -1    0    0    0    0  0.00000000000E+00  0.00000000000E+00  0.39999999674E+01  0.40000000000E+01  0.51100000000E-03 0.  1.
    9000002   -1    0    0    0    0 -0.00000000000E+00 -0.00000000000E+00  0.00000000000E+00  0.93800000000E+00  0.93800000000E+00 0.  1.
         11    1    1    2    0    0 -0.20918191504E+00  0.22469729953E+00  0.13333209153E+01  0.13682071752E+01  0.51100000000E-03 0.  1.
    9000002    1    1    2    0    0  0.55501891121E+00 -0.58170875323E+00  0.47684564879E+00  0.13242570891E+01  0.93800000000E+00 0.  1.
         22    1    1    2    0    0 -0.34583699618E+00  0.35701145370E+00  0.21898334033E+01  0.22455357357E+01  0.00000000000E+00 0.  1.
</event>
<event>
 5    1  0.7095115E+001  0.1564819E+01  0.7818608E-02  0.3392456E+00
         11   -1    0    0    0    0  0.00000000000E+00  0.00000000000E+00  0.39999999674E+01  0.40000000000E+01  0.51100000000E-03 0.  1.
    9000002   -1    0    0    0    0 -0.00000000000E+00 -0.00000000000E+00  0.00000000000E+00  0.93800000000E+00  0.93800000000E+00 0. -1.
         11    1    1    2    0    0 -0.10123893134E-01  0.45885607839E-01  0.36542090583E-01  0.59527873506E-01  0.51100000000E-03 0.  1.
    9000002    1    1    2    0    0 -0.36479457125E+00  0.12169310071E+00  0.12883625557E+00  0.10219232215E+01  0.93800000000E+00 0. -1.
         22    1    1    2    0    0  0.37491846438E+00 -0.16757870855E+00  0.38346216212E+01  0.38565489050E+01  0.00000000000E+00 0.  1.
</event>
<event>
 5    1  0.7095115E+001  0.1599666E+01  0.7818608E-02  0.3353726E+00
         11   -1    0    0    0    0  0.00000000000E+00  0.00000000000E+00  0.39999999674E+01  0.40000000000E+01  0.51100000000E-03 0.  1.
    9000002   -1    0    0    0    0 -0.00000000000E+00 -0.00000000000E+00  0.00000000000E+00  0.93800000000E+00  0.93800000000E+00 0. -1.
         11    1    1    2    0    0 -0.96591666165E-01  0.12278639356E-02  0.83592514598E+00  0.84148830558E+00  0.51100000000E-03 0. -1.
    9000002    1    1    2    0    0  0.43826454797E+00 -0.18123784084E-01  0.13047203116E+00  0.10436815781E+01  0.93800000000E+00 0. -1.
         22    1    1    2    0    0 -0.34167288180E+00  0.16895920149E-01  0.30336027902E+01  0.30528301163E+01  0.00000000000E+00 0.  1.
</event>
<event>
 5    1  0.7095115E+001  0.1599670E+01  0.7818608E-02  0.3353721E+00
         11   -1    0    0    0    0  0.00000000000E+00  0.00000000000E+00  0.39999999674E+01  0.40000000000E+01  0.51100000000E-03 0.  1.
    9000002   -1    0    0    0    0 -0.00000000000E+00 -0.00000000000E+00  0.00000000000E+00  0.93800000000E+00  0.93800000000E+00 0.  1.
         11    1    1    2    0    0 -0.17340816691E-01 -0.76803549017E-01  0.76164102928E+00  0.76570020744E+00  0.51100000000E-03 0.  1.
    9000002    1    1    2    0    0  0.76448248689E-01  0.38932815020E+00  0.10614519253E+00  0.10239782933E+01  0.93800000000E+00 0.  1.
         22    1    1    2    0    0 -0.59107431998E-01 -0.31252460118E+00  0.31322137455E+01  0.31483214993E+01  0.00000000000E+00 0.  1.
</event>
<event>
 5    1  0.7095115E+001  0.1599624E+01  0.7818608E-02  0.3353771E+00
         11   -1    0    0    0    0  0.00000000000E+00  0.00000000000E+00  0.39999999674E+01  0.40000000000E+01  0.51100000000E-03 0.  1.
    9000002   -1    0    0    0    0 -0.00000000000E+00 -0.00000000000E+00  0.00000000000E+00  0.93800000000E+00  0.93800000000E+00 0.  1.
         11    1    1    2    0    0 -0.14550530269E-01  0.23167218609E-02  0.10905714641E+00  0.11004911374E+00  0.51100000000E-03 0.  1.
    9000002    1    1    2    0    0  0.50229367845E+00  0.18893750723E-01  0.17308185613E+00  0.10781731040E+01  0.93800000000E+00 0.  1.
         22    1    1    2    0    0 -0.48774314818E+00 -0.21210472584E-01  0.37178609648E+01  0.37497777823E+01  0.00000000000E+00 0.  1.
</event>
<event>
 5    1  0.7095115E+001  0.1599653E+01  0.7818608E-02  0.3353740E+00
         11   -1    0    0    0    0  0.00000000000E+00  0.00000000000E+00  0.39999999674E+01  0.40000000000E+01  0.51100000000E-03 0. -1.
    9000002   -1    0    0    0    0 -0.00000000000E+00 -0.00000000000E+00  0.00000000000E+00  0.93800000000E+00  0.93800000000E+00 0. -1.
         11    1    1    2    0    0  0.10713412908E+00  0.11463540311E+00  0.14640672619E+01  0.14724510877E+01  0.51100000000E-03 0. -1.
    9000002    1    1    2    0    0 -0.26932872622E+00 -0.30537243915E+00  0.11195304887E+00  0.10286728219E+01  0.93800000000E+00 0. -1.
         22    1    1    2    0    0  0.16219459715E+00  0.19073703604E+00  0.24239796566E+01  0.24368760904E+01  0.00000000000E+00 0. -1.
</event>
<event>
 5    1  0.7095115E+001  0.1599665E+01  0.7818608E-02  0.3353727E+00
         11   -1    0    0    0    0  0.00000000000E+00  0.00000000000E+00  0.39999999674E+01  0.40000000000E+01  0.51100000000E-03 0. -1.
    9000002   -1    0    0    0    0 -0.00000000000E+00 -0.00000000000E+00  0.00000000000E+00  0.93800000000E+00  0.93800000000E+00 0. -1.
         11    1    1    2    0    0 -0.45159445129E-01  0.77582685268E-02  0.51154435864E+00  0.51359269679E+00  0.51100000000E-03 0. -1.
    9000002    1    1    2    0    0  0.35423359278E+00 -0.78440768665E-01  0.88399153384E-01  0.10096003183E+01  0.93800000000E+00 0. -1.
         22    1    1    2    0    0 -0.30907414765E+00  0.70682500138E-01  0.34000564553E+01  0.34148069849E+01  0.00000000000E+00 0. -1.
</event>
<event>
 5    1  0.7095115E+001  0.1553380E+01  0.7818608E-02  0.3405571E+00
         11   -1    0    0    0    0  0.00000000000E+00  0.00000000000E+00  0.39999999674E+01  0.40000000000E+01  0.51100000000E-03 0. -1.
    9000002   -1    0    0    0    0 -0.00000000000E+00 -0.00000000000E+00  0.00000000000E+00  0.93800000000E+00  0.93800000000E+00 0.  1.
         11    1    1    2    0    0 -0.11838094000E-01  0.22779140644E+00  0.83674328202E+00  0.86727656860E+00  0.51100000000E-03 0. -1.
    9000002    1    1    2    0    0  0.32223953423E+00 -0.10171576011E+00  0.11444224382E+00  0.10035563962E+01  0.93800000000E+00 0.  1.
         22    1    1    2    0    0 -0.31040144023E+00 -0.12607564633E+00  0.30488144415E+01  0.30671670352E+01  0.00000000000E+00 0.  1.
</event>
<event>
 5    1  0.7095115E+001  0.1599633E+01  0.7818608E-02  0.3353762E+00
         11   -1    0    0    0    0  0.00000000000E+00  0.00000000000E+00  0.39999999674E+01  0.40000000000E+01  0.51100000000E-03 0. -1.
    9000002   -1    0    0    0    0 -0.00000000000E+00 -0.00000000000E+00  0.00000000000E+00  0.93800000000E+00  0.93800000000E+00 0.  1.
         11    1    1    2    0    0  0.79742333691E-02 -0.36929740543E-01  0.44744211998E+00  0.44903463785E+00  0.51100000000E-03 0. -1.
    9000002    1    1    2    0    0 -0.79890821092E-01  0.36556525415E+00  0.94181760579E-01  0.10142655975E+01  0.93800000000E+00 0.  1.
         22    1    1    2    0    0  0.71916587723E-01 -0.32863551361E+00  0.34583760868E+01  0.34746997646E+01  0.00000000000E+00 0. -1.
</event>
<event>
 5    1  0.7095115E+001  0.1528679E+01  0.7818608E-02  0.3434606E+00
         11   -1    0    0    0    0  0.00000000000E+00  0.00000000000E+00  0.39999999674E+01  0.40000000000E+01  0.51100000000E-03 0.  1.
    9000002   -1    0    0    0    0 -0.00000000000E+00 -0.00000000000E+00  0.00000000000E+00  0.93800000000E+00  0.93800000000E+00 0.  1.
         11    1    1    2    0    0 -0.26900206216E+00 -0.22283621936E-01  0.97732979866E+00  0.10139193586E+01  0.51100000000E-03 0.  1.
    9000002    1    1    2    0    0 -0.35959959955E-01  0.94922752702E-01  0.60549727492E-01  0.94541721859E+00  0.93800000000E+00 0.  1.
         22    1    1    2    0    0  0.30496202211E+00 -0.72639130766E-01  0.29621204412E+01  0.29786634228E+01  0.00000000000E+00 0.  1.
</event>
<event>
 5    1  0.7095115E+001  0.1599670E+01  0.7818608E-02  0.3353721E+00
         11   -1    0    0    0    0  0.00000000000E+00  0.00000000000E+00  0.39999999674E+01  0.40000000000E+01  0.51100000000E-03 0.  1.
    9000002   -1    0    0    0    0 -0.00000000000E+00 -0.00000000000E+00  0.00000000000E+00  0.93800000000E+00  0.93800000000E+00 0. -1.
         11    1    1    2    0    0 -0.11699115798E-01  0.31214737453E-01  0.16833672626E+00  0.17160636257E+00  0.51100000000E-03 0.  1.
    9000002    1    1    2    0    0  0.26269843702E+00 -0.69196322971E+00  0.39597780401E+00  0.12587557354E+01  0.93800000000E+00 0. -1.
         22    1    1    2    0    0 -0.25099932123E+00  0.66074849225E+00  0.34356854371E+01  0.35076379021E+01  0.00000000000E+00 0.  1.
</event>
<event>
 5    1  0.7095115E+001  0.1599676E+01  0.7818608E-02  0.3353715E+00
         11   -1    0    0    0    0  0.00000000000E+00  0.00000000000E+00  0.39999999674E+01  0.40000000000E+01  0.51100000000E-03 0. -1.
    9000002   -1    0    0    0    0 -0.00000000000E+00 -0.00000000000E+00  0.00000000000E+00  0.93800000000E+00  0.93800000000E+00 0. -1.
         11    1    1    2    0    0 -0.55674384361E-01  0.24265310157E-02  0.41755995661E+00  0.42126251152E+00  0.51100000000E-03 0. -1.
    9000002    1    1    2    0    0  0.51454547349E+00 -0.19124307985E-01  0.18195562837E+00  0.10853914658E+01  0.93800000000E+00 0. -1.
         22    1    1    2    0    0 -0.45887108913E+00  0.16697776970E-01  0.34004843824E+01  0.34313460226E+01  0.00000000000E+00 0. -1.
</event>
<event>
 5    1  0.7095115E+001  0.1599675E+01  0.7818608E-02  0.3353716E+00
         11   -1    0    0    0    0  0.00000000000E+00  0.00000000000E+00  0.39999999674E+01  0.40000000000E+01  0.51100000000E-03 0.  1.
    9000002   -1    0    0    0    0 -0.00000000000E+00 -0.00000000000E+00  0.00000000000E+00  0.93800000000E+00  0.93800000000E+00 0.  1.
         11    1    1    2    0    0 -0.30591768865E-01  0.11735324861E-01  0.27204655267E+00  0.27401306923E+00  0.51100000000E-03 0. -1.
    9000002    1    1    2    0    0  0.42893092826E+00 -0.15826848121E+00  0.14212405027E+00  0.10531257755E+01  0.93800000000E+00 0.  1.
         22    1    1    2    0    0 -0.39833915940E+00  0.14653315635E+00  0.35858293644E+01  0.36108611553E+01  0.00000000000E+00 0.  1.
</event>
<event>
 5    1  0.7095115E+001  0.1599654E+01  0.7818608E-02  0.3353739E+00
         11   -1    0    0    0    0  0.00000000000E+00  0.00000000000E+00  0.39999999674E+01  0.40000000000E+01  0.51100000000E-03 0. -1.
    9000002   -1    0    0    0    0 -0.00000000000E+00 -0.00000000000E+00  0.00000000000E+00  0.93800000000E+00  0.93800000000E+00 0. -1.
         11    1    1    2    0    0 -0.12898563483E+00  0.16457427717E-01  0.10697047318E+01  0.10775790529E+01  0.51100000000E-03 0. -1.
    9000002    1    1    2    0    0  0.45787922645E+00 -0.41979775620E-01  0.14382085144E+00  0.10544876125E+01  0.93800000000E+00 0. -1.
         22    1    1    2    0    0 -0.32889359162E+00  0.25522347903E-01  0.27864743841E+01  0.28059333346E+01  0.00000000000E+00 0. -1.
</event>
<event>
 5    1  0.7095115E+001  0.1597042E+01  0.7818608E-02  0.3356580E+00
         11   -1    0    0    0    0  0.00000000000E+00  0.00000000000E+00  0.39999999674E+01  0.40000000000E+01  0.51100000000E-03 0.  1.
    9000002   -1    0    0    0    0 -0.00000000000E+00 -0.00000000000E+00  0.00000000000E+00  0.93800000000E+00  0.93800000000E+00 0. -1.
         11    1    1    2    0    0 -0.58691220990E-01 -0.61444694103E-01  0.11690860511E+01  0.11721700243E+01  0.51100000000E-03 0.  1.
    9000002    1    1    2    0    0  0.93324232159E-01  0.36402722780E+00  0.97133889527E-01  0.10151375411E+01  0.93800000000E+00 0. -1.
         22    1    1    2    0    0 -0.34633011169E-01 -0.30258253369E+00  0.27337800267E+01  0.27506924346E+01  0.00000000000E+00 0.  1.
</event>
<event>
 5    1  0.7095115E+001  0.1599590E+01  0.7818608E-02  0.3353809E+00
         11   -1    0    0    0    0  0.00000000000E+00  0.00000000000E+00  0.39999999674E+01  0.40000000000E+01  0.51100000000E-03 0. -1.
    9000002   -1    0    0    0    0 -0.00000000000E+00 -0.00000000000E+00  0.00000000000E+00  0.93800000000E+00  0.93800000000E+00 0.  1.
         11    1    1    2    0    0 -0.58789362093E-01 -0.10048641604E+00  0.75144292932E+00  0.76040807864E+00  0.51100000000E-03 0. -1.
    9000002    1    1    2    0    0  0.28525557726E+00  0.46348171428E+00  0.20443517676E+00  0.11035505359E+01  0.93800000000E+00 0.  1.
         22    1    1    2    0    0 -0.22646621516E+00 -0.36299529824E+00  0.30441218613E+01  0.30740413854E+01  0.00000000000E+00 0. -1.
</event>
<event>
 5    1  0.7095115E+001  0.1599614E+01  0.7818608E-02  0.3353783E+00
         11   -1    0    0    0    0  0.00000000000E+00  0.00000000000E+00  0.39999999674E+01  0.40000000000E+01  0.51100000000E-03 0. -1.
    9000002   -1    0    0    0    0 -0.00000000000E+00 -0.00000000000E+00  0.00000000000E+00  0.93800000000E+00  0.93800000000E+00 0.  1.
         11    1    1    2    0    0 -0.46410255445E-01 -0.10344835705E-01  0.48755455853E+00  0.48986797824E+00  0.51100000000E-03 0. -1.
    9000002    1    1    2    0    0  0.40621918875E+00  0.47196946118E-01  0.11299218016E+00  0.10294915317E+01  0.93800000000E+00 0.  1.
         22    1    1    2    0    0 -0.35980893330E+00 -0.36852110413E-01  0.33994532287E+01  0.34186404901E+01  0.00000000000E+00 0. -1.
</event>
<event>
 5    1  0.7095115E+001  0.1599648E+01  0.7818608E-02  0.3353746E+00
         11   -1    0    0    0    0  0.00000000000E+00  0.00000000000E+00  0.39999999674E+01  0.40000000000E+01  0.51100000000E-03 0.  1.
    9000002   -1    0    0    0    0 -0.00000000000E+00 -0.00000000000E+00  0.00000000000E+00  0.93800000000E+00  0.93800000000E+00 0. -1.
         11    1    1    2    0    0 -0.40391087793E-01  0.49270332616E-01  0.73396645428E+00  0.73672655903E+00  0.51100000000E-03 0.  1.
    9000002    1    1    2    0    0  0.22304258509E+00 -0.28846995526E+00  0.89324216595E-01  0.10103394110E+01  0.93800000000E+00 0. -1.
         22    1    1    2    0    0 -0.18265149730E+00  0.23919962264E+00  0.31767092965E+01  0.31909340299E+01  0.00000000000E+00 0.  1.
</event>
<event>
 5    1  0.7095115E+001  0.1577281E+01  0.7818608E-02  0.3378397E+00
         11   -1    0    0    0    0  0.00000000000E+00  0.00000000000E+00  0.39999999674E+01  0.40000000000E+01  0.51100000000E-03 0. -1.
    9000002   -1    0    0    0    0 -0.00000000000E+00 -0.00000000000E+00  0.00000000000E+00  0.93800000000E+00  0.93800000000E+00 0.  1.
         11    1    1    2    0    0 -0.75790504321E-01  0.91536679405E-01  0.11441273952E+01  0.11502829746E+01  0.51100000000E-03 0. -1.
    9000002    1    1    2    0    0 -0.94873230585E-01  0.12088407134E+00  0.32326782911E-01  0.95105357866E+00  0.93800000000E+00 0.  1.
         22    1    1    2    0    0  0.17066373491E+00 -0.21242075075E+00  0.28235457893E+01  0.28366634467E+01  0.00000000000E+00 0. -1.
</event>
<event>
 5    1  0.7095115E+001  0.1599644E+01  0.7818608E-02  0.3353750E+00
         11   -1    0    0    0    0  0.00000000000E+00  0.00000000000E+00  0.39999999674E+01  0.40000000000E+01  0.51100000000E-03 0.  1.
    9000002   -1    0    0    0    0 -0.00000000000E+00 -0.00000000000E+00  0.00000000000E+00  0.93800000000E+00  0.93800000000E+00 0. -1.
         11    1    1    2    0    0  0.83611296245E-02 -0.14842356125E+00  0.12127007498E+01  0.12217785526E+01  0.51100000000E-03 0.  1.
    9000002    1    1    2    0    0 -0.70542721710E-02  0.47632992983E+00  0.15478526237E+00  0.10633637394E+01  0.93800000000E+00 0. -1.
         22    1    1    2    0    0 -0.13068574535E-02 -0.32790636858E+00  0.26325139552E+01  0.26528577080E+01  0.00000000000E+00 0.  1.
</event>
<event>
 5    1  0.7095115E+001  0.1596034E+01  0.7818608E-02  0.3357679E+00
         11   -1    0    0    0    0  0.00000000000E+00  0.00000000000E+00  0.39999999674E+01  0.40000000000E+01  0.51100000000E-03 0. -1.
    9000002   -1    0    0    0    0 -0.00000000000E+00 -0.00000000000E+00  0.00000000000E+00  0.93800000000E+00  0.93800000000E+00 0. -1.
         11    1    1    2    0    0  0.96841124309E-02 -0.97093930611E-01  0.10529242859E+01  0.10574359679E+01  0.51100000000E-03 0. -1.
    9000002    1    1    2    0    0 -0.24929386021E+00  0.45115284431E+00  0.18569346146E+00  0.10862837471E+01  0.93800000000E+00 0. -1.
         22    1    1    2    0    0  0.23960974778E+00 -0.35405891370E+00  0.27613822200E+01  0.27942802849E+01  0.00000000000E+00 0.  1.
</event>
<event>
 5    1  0.7095115E+001  0.1524476E+01  0.7818608E-02  0.3439648E+00
         11   -1    0    0    0    0  0.00000000000E+00  0.00000000000E+00  0.39999999674E+01  0.40000000000E+01  0.51100000000E-03 0. -1.
    9000002   -1    0    0    0    0 -0.00000000000E+00 -0.00000000000E+00  0.00000000000E+00  0.93800000000E+00  0.93800000000E+00 0.  1.
         11    1    1    2    0    0 -0.16978544964E+00  0.22827268155E+00  0.91559065669E+00  0.95877110292E+00  0.51100000000E-03 0. -1.
    9000002    1    1    2    0    0 -0.11226568707E+00 -0.11732768435E+00  0.75334616786E-01  0.95492862272E+00  0.93800000000E+00 0.  1.
         22    1    1    2    0    0  0.28205113671E+00 -0.11094499719E+00  0.30090746939E+01  0.30243002744E+01  0.00000000000E+00 0. -1.
</event>
<event>
 5    1  0.7095115E+001  0.1596788E+01  0.7818608E-02  0.3356857E+00
         11   -1    0    0    0    0  0.00000000000E+00  0.00000000000E+00  0.39999999674E+01  0.40000000000E+01  0.51100000000E-03 0.  1.
    9000002   -1    0    0    0    0 -0.00000000000E+00 -0.00000000000E+00  0.00000000000E+00  0.93800000000E+00  0.93800000000E+00 0.  1.
         11    1    1    2    0    0  0.10976350844E-01  0.46058816005E-02  0.18543322150E+00  0.18581559455E+00  0.51100000000E-03 0.  1.
    9000002    1    1    2    0    0  0.34015834202E+00  0.13385858156E-03  0.79816266675E-01  0.10009607145E+01  0.93800000000E+00 0.  1.
         22    1    1    2    0    0 -0.35113469286E+00 -0.47397401821E-02  0.37347504792E+01  0.37512236909E+01  0.00000000000E+00 0.  1.
</event>
<event>
 5    1  0.7095115E+001  0.1599674E+01  0.7818608E-02  0.3353718E+00
         11   -1    0    0    0    0  0.00000000000E+00  0.00000000000E+00  0.39999999674E+01  0.40000000000E+01  0.51100000000E-03 0.  1.
    9000002   -1    0    0    0    0 -0.00000000000E+00 -0.00000000000E+00  0.00000000000E+00  0.93800000000E+00  0.93800000000E+00 0. -1.
         11    1    1    2    0    0  0.84085247632E-01 -0.48327283234E-01  0.97107306647E+00  0.97590420469E+00  0.51100000000E-03 0.  1.
    9000002    1    1    2    0    0 -0.33258331879E+00  0.18874192128E+00  0.98424386336E-01  0.10177261599E+01  0.93800000000E+00 0. -1.
         22    1    1    2    0    0  0.24849807116E+00 -0.14041463805E+00  0.29305025146E+01  0.29443696354E+01  0.00000000000E+00 0.  1.
</event>
<event>
 5    1  0.7095115E+001  0.1599583E+01  0.7818608E-02  0.3353816E+00
         11   -1    0    0    0    0  0.00000000000E+00  0.00000000000E+00  0.39999999674E+01  0.40000000000E+01  0.51100000000E-03 0.  1.
    9000002   -1    0    0    0    0 -0.00000000000E+00 -0.00000000000E+00  0.00000000000E+00  0.93800000000E+00  0.93800000000E+00 0. -1.
         11    1    1    2    0    0 -0.52259603857E-02 -0.14056327524E-01  0.87524964201E-01  0.88801866449E-01  0.51100000000E-03 0.  1.
    9000002    1    1    2    0    0  0.89181127960E-01  0.54594863873E+00  0.21158043202E+00  0.11093346965E+01  0.93800000000E+00 0. -1.
         22    1    1    2    0    0 -0.83955167574E-01 -0.53189231120E+00  0.37008945711E+01  0.37398634370E+01  0.00000000000E+00 0.  1.
</event>
<event>
 5    1  0.7095115E+001  0.1599418E+01  0.7818608E-02  0.3353996E+00
         11   -1    0    0    0    0  0.00000000000E+00  0.00000000000E+00  0.39999999674E+01  0.40000000000E+01  0.51100000000E-03 0. -1.
    9000002   -1    0    0    0    0 -0.00000000000E+00 -0.00000000000E+00  0.00000000000E+00  0.93800000000E+00  0.93800000000E+00 0.  1.
         11    1    1    2    0    0  0.50679548411E-01  0.51883742968E-01  0.77847888748E+00  0.78185035575E+00  0.51100000000E-03 0. -1.
    9000002    1    1    2    0    0 -0.31541744227E+00 -0.21250884682E+00  0.97541941193E-01  0.10168611523E+01  0.93800000000E+00 0.  1.
         22    1    1    2    0    0  0.26473789386E+00  0.16062510386E+00  0.31239791387E+01  0.31392884919E+01  0.00000000000E+00 0. -1.
</event>
<event>
 5    1  0.7095115E+001  0.1599359E+01  0.7818608E-02  0.3354059E+00
         11   -1    0    0    0    0  0.00000000000E+00  0.00000000000E+00  0.39999999674E+01  0.40000000000E+01  0.51100000000E-03 0.  1.
    9000002   -1    0    0    0    0 -0.00000000000E+00 -0.00000000000E+00  0.00000000000E+00  0.93800000000E+00  0.93800000000E+00 0. -1.
         11    1    1    2    0    0  0.15426630488E+00 -0.19023737808E+00  0.12999125317E+01  0.13227853961E+01  0.51100000000E-03 0.  1.
    9000002    1    1    2    0    0 -0.48809584262E+00  0.53126915361E+00  0.37454935679E+00  0.12412154067E+01  0.93800000000E+00 0. -1.
         22    1    1    2    0    0  0.33382953775E+00 -0.34103177554E+00  0.23255380788E+01  0.23739991972E+01  0.00000000000E+00 0.  1.
</event>
<event>
 5    1  0.7095115E+001  0.1573339E+01  0.7818608E-02  0.3382818E+00
         11   -1    0    0    0    0  0.00000000000E+00  0.00000000000E+00  0.39999999674E+01  0.40000000000E+01  0.51100000000E-03 0.  1.
    9000002   -1    0    0    0    0 -0.00000000000E+00 -0.00000000000E+00  0.00000000000E+00  0.93800000000E+00  0.93800000000E+00 0. -1.
         11    1    1    2    0    0  0.10632679370E+00  0.85969119856E-01  0.13494919632E+01  0.13564014511E+01  0.51100000000E-03 0.  1.
    9000002    1    1    2    0    0  0.15505327501E+00  0.25062439976E-01  0.36028900311E-01  0.95174141743E+00  0.93800000000E+00 0. -1.
         22    1    1    2    0    0 -0.26138006871E+00 -0.11103155983E+00  0.26144791039E+01  0.26298571315E+01  0.00000000000E+00 0.  1.
</event>
<event>
 5    1  0.7095115E+001  0.1599669E+01  0.7818608E-02  0.3353722E+00
         11   -1    0    0    0    0  0.00000000000E+00  0.00000000000E+00  0.39999999674E+01  0.40000000000E+01  0.51100000000E-03 0. -1.
    9000002   -1    0    0    0    0 -0.00000000000E+00 -0.00000000000E+00  0.00000000000E+00  0.93800000000E+00  0.93800000000E+00 0.  1.
         11    1    1    2    0    0 -0.44667180750E-01 -0.52303251820E-01  0.72570897735E+00  0.72896129398E+00  0.51100000000E-03 0. -1.
    9000002    1    1    2    0    0  0.25250430729E+00  0.27471296977E+00  0.93605841724E-01  0.10138203463E+01  0.93800000000E+00 0.  1.
         22    1    1    2    0    0 -0.20783712654E+00 -0.22240971795E+00  0.31806851483E+01  0.31952183597E+01  0.00000000000E+00 0. -1.
</event>
<event>
 5    1  0.7095115E+001  0.1599676E+01  0.7818608E-02  0.3353715E+00
         11   -1    0    0    0    0  0.00000000000E+00  0.00000000000E+00  0.39999999674E+01  0.40000000000E+01  0.51100000000E-03 0. -1.
    9000002   -1    0    0    0    0 -0.00000000000E+00 -0.00000000000E+00  0.00000000000E+00  0.93800000000E+00  0.93800000000E+00 0. -1.
         11    1    1    2    0    0 -0.53014459658E-01 -0.44528716489E-01  0.74666690339E+00  0.74987003225E+00  0.51100000000E-03 0. -1.
    9000002    1    1    2    0    0  0.27725744102E+00  0.23723232411E+00  0.89429994703E-01  0.10104417787E+01  0.93800000000E+00 0. -1.
         22    1    1    2    0    0 -0.22424298136E+00 -0.19270360762E+00  0.31639030693E+01  0.31776881890E+01  0.00000000000E+00 0. -1.
</event>
<event>
 5    1  0.7095115E+001  0.1593756E+01  0.7818608E-02  0.3360168E+00
         11   -1    0    0    0    0  0.00000000000E+00  0.00000000000E+00  0.39999999674E+01  0.40000000000E+01  0.51100000000E-03 0.  1.
    9000002   -1    0    0    0    0 -0.00000000000E+00 -0.00000000000E+00  0.00000000000E+00  0.93800000000E+00  0.93800000000E+00 0.  1.
         11    1    1    2    0    0  0.69343071188E-01 -0.17840088759E+00  0.94966790758E+00  0.96876454003E+00  0.51100000000E-03 0.  1.
    9000002    1    1    2    0    0 -0.20389625050E+00  0.40625567157E+00  0.14557604974E+00  0.10524512995E+01  0.93800000000E+00 0.  1.
         22    1    1    2    0    0  0.13455317931E+00 -0.22785478398E+00  0.29047560100E+01  0.29167841604E+01  0.00000000000E+00 0.  1.
</event>
<event>
 5    1  0.7095115E+001  0.1593911E+01  0.7818608E-02  0.3359999E+00
         11   -1    0    0    0    0  0.00000000000E+00  0.00000000000E+00  0.39999999674E+01  0.40000000000E+01  0.51100000000E-03 0.  1.
    9000002   -1    0    0    0    0 -0.00000000000E+00 -0.00000000000E+00  0.00000000000E+00  0.93800000000E+00  0.93800000000E+00 0.  1.
         11    1    1    2    0    0 -0.25009373723E+00 -0.54861519993E-01  0.99217631071E+00  0.10246808071E+01  0.51100000000E-03 0.  1.
    9000002    1    1    2    0    0  0.62308376824E+00  0.23308143809E+00  0.31966531367E+00  0.11935620017E+01  0.93800000000E+00 0.  1.
         22    1    1    2    0    0 -0.37299003101E+00 -0.17821991809E+00  0.26881583430E+01  0.27197571913E+01  0.00000000000E+00 0.  1.
</event>
<event>
 5    1  0.7095115E+001  0.1561050E+01  0.7818608E-02  0.3396755E+00
         11   -1    0    0    0    0  0.00000000000E+00  0.00000000000E+00  0.39999999674E+01  0.40000000000E+01  0.51100000000E-03 0. -1.
    9000002   -1    0    0    0    0 -0.00000000000E+00 -0.00000000000E+00  0.00000000000E+00  0.93800000000E+00  0.93800000000E+00 0. -1.
         11    1    1    2    0    0  0.34459733664E-01  0.20767973321E+00  0.12720085987E+01  0.12893116307E+01  0.51100000000E-03 0. -1.
    9000002    1    1    2    0    0 -0.96037905456E-01  0.41179905119E-01  0.35970089519E-01  0.94448764482E+00  0.93800000000E+00 0. -1.
         22    1    1    2    0    0  0.61578171792E-01 -0.24885963833E+00  0.26920212791E+01  0.27042007244E+01  0.00000000000E+00 0. -1.
</event>
<event>
 5    1  0.7095115E+001  0.1519020E+01  0.7818608E-02  0.3446236E+00
         11   -1    0    0    0    0  0.00000000000E+00  0.00000000000E+00  0.39999999674E+01  0.40000000000E+01  0.51100000000E-03 0.  1.
    9000002   -1    0    0    0    0 -0.00000000000E+00 -0.00000000000E+00  0.00000000000E+00  0.93800000000E+00  0.93800000000E+00 0.  1.
         11    1    1    2    0    0 -0.14890276947E+00 -0.68900856965E-01  0.26582981209E+00  0.31238616000E+00  0.51100000000E-03 0.  1.
    9000002    1    1    2    0    0 -0.20095235077E+00 -0.21287921221E-01  0.90170940631E-01  0.96374779969E+00  0.93800000000E+00 0.  1.
         22    1    1    2    0    0  0.34985512024E+00  0.90188778186E-01  0.36439992146E+01  0.36618660403E+01  0.00000000000E+00 0.  1.
</event>
<event>
 5    1  0.7095115E+001  0.1599629E+01  0.7818608E-02  0.3353766E+00
         11   -1    0    0    0    0  0.00000000000E+00  0.00000000000E+00  0.39999999674E+01  0.40000000000E+01  0.51100000000E-03 0.  1.
    9000002   -1    0    0    0    0 -0.00000000000E+00 -0.00000000000E+00  0.00000000000E+00  0.93800000000E+00  0.93800000000E+00 0. -1.
         11    1    1    2    0    0  0.11294823196E+00  0.45350465276E-01  0.11045721864E+01  0.11112578206E+01  0.51100000000E-03 0.  1.
    9000002    1    1    2    0    0 -0.39852896665E+00 -0.18504037966E+00  0.13096572927E+00  0.10440600086E+01  0.93800000000E+00 0. -1.
         22    1    1    2    0    0  0.28558073469E+00  0.13968991438E+00  0.27644620517E+01  0.27826821708E+01  0.00000000000E+00 0.  1.
</event>
<event>
 5    1  0.7095115E+001  0.1598668E+01  0.7818608E-02  0.3354810E+00
         11   -1    0    0    0    0  0.00000000000E+00  0.00000000000E+00  0.39999999674E+01  0.40000000000E+01  0.51100000000E-03 0. -1.
    9000002   -1    0    0    0    0 -0.00000000000E+00 -0.00000000000E+00  0.00000000000E+00  0.93800000000E+00  0.93800000000E+00 0.  1.
         11    1    1    2    0    0  0.10055435128E-01  0.10989584080E+00  0.10525626048E+01  0.10583319449E+01  0.51100000000E-03 0. -1.
    9000002    1    1    2    0    0 -0.16079896975E+00 -0.41973000187E+00  0.13807616301E+00  0.10492562175E+01  0.93800000000E+00 0.  1.
         22    1    1    2    0    0  0.15074353462E+00  0.30983416107E+00  0.28093611996E+01  0.28304118376E+01  0.00000000000E+00 0.  1.
</event>
<event>
 5    1  0.7095115E+001  0.1599674E+01  0.7818608E-02  0.3353717E+00
         11   -1    0    0    0    0  0.00000000000E+00  0.00000000000E+00  0.39999999674E+01  0.40000000000E+01  0.51100000000E-03 0.  1.
    9000002   -1    0    0    0    0 -0.00000000000E+00 -0.00000000000E+00  0.00000000000E+00  0.93800000000E+00  0.93800000000E+00 0. -1.
         11    1    1    2    0    0  0.31127971954E-01  0.85560031915E-01  0.82408329013E+00  0.82909770226E+00  0.51100000000E-03 0.  1.
    9000002    1    1    2    0    0 -0.14192428399E+00 -0.39618285856E+00  0.11979206229E+00  0.10350350226E+01  0.93800000000E+00 0. -1.
         22    1    1    2    0    0  0.11079631204E+00  0.31062282665E+00  0.30561246149E+01  0.30738672751E+01  0.00000000000E+00 0. -1.
</event>
<event>
 5    1  0.7095115E+001  0.1588727E+01  0.7818608E-02  0.3365690E+00
         11   -1    0    0    0    0  0.00000000000E+00  0.00000000000E+00  0.39999999674E+01  0.40000000000E+01  0.51100000000E-03 0.  1.
    9000002   -1    0    0    0    0 -0.00000000000E+00 -0.00000000000E+00  0.00000000000E+00  0.93800000000E+00  0.93800000000E+00 0.  1.
         11    1    1    2    0    0 -0.11270881610E+00  0.11272958022E+00  0.14317406917E+01  0.14405876943E+01  0.51100000000E-03 0.  1.
    9000002    1    1    2    0    0 -0.22848304554E-01 -0.32766068146E+00  0.80927588786E-01  0.99713431484E+00  0.93800000000E+00 0.  1.
         22    1    1    2    0    0  0.13555712065E+00  0.21493110124E+00  0.24873316869E+01  0.25002779909E+01  0.00000000000E+00 0.  1.
</event>
<event>
 5    1  0.7095115E+001  0.1597490E+01  0.7818608E-02  0.3356092E+00
         11   -1    0    0    0    0  0.00000000000E+00  0.00000000000E+00  0.39999999674E+01  0.40000000000E+01  0.51100000000E-03 0.  1.
    9000002   -1    0    0    0    0 -0.00000000000E+00 -0.00000000000E+00  0.00000000000E+00  0.93800000000E+00  0.93800000000E+00 0. -1.
         11    1    1    2    0    0 -0.65652884225E-01 -0.42794554017E-01  0.13895087630E+01  0.13917171187E+01  0.51100000000E-03 0.  1.
    9000002    1    1    2    0    0  0.33664366381E+00  0.10944480286E+00  0.85823939145E-01  0.10062389725E+01  0.93800000000E+00 0. -1.
         22    1    1    2    0    0 -0.27099077958E+00 -0.66650248846E-01  0.25246672652E+01  0.25400439088E+01  0.00000000000E+00 0.  1.
</event>
<event>
 5    1  0.7095115E+001  0.1599676E+01  0.7818608E-02  0.3353715E+00
         11   -1    0    0    0    0  0.00000000000E+00  0.00000000000E+00  0.39999999674E+01  0.40000000000E+01  0.51100000000E-03 0. -1.
    9000002   -1    0    0    0    0 -0.00000000000E+00 -0.00000000000E+00  0.00000000000E+00  0.93800000000E+00  0.93800000000E+00 0.  1.
         11    1    1    2    0    0  0.12299809373E-02 -0.54972687075E-01  0.48715701045E+00  0.49025067377E+00  0.51100000000E-03 0. -1.
    9000002    1    1    2    0    0 -0.11655907752E-01  0.43130854660E+00  0.12610324914E+00  0.10401485240E+01  0.93800000000E+00 0.  1.
         22    1    1    2    0    0  0.10425926814E-01 -0.37633585953E+00  0.33867397078E+01  0.34076008022E+01  0.00000000000E+00 0. -1.
</event>
<event>
 5    1  0.7095115E+001  0.1543667E+01  0.7818608E-02  0.3416870E+00
         11   -1    0    0    0    0  0.00000000000E+00  0.00000000000E+00  0.39999999674E+01  0.40000000000E+01  0.51100000000E-03 0.  1.
    9000002   -1    0    0    0    0 -0.00000000000E+00 -0.00000000000E+00  0.00000000000E+00  0.93800000000E+00  0.93800000000E+00 0. -1.
         11    1    1    2    0    0 -0.82222921250E-01  0.10475849900E+00  0.12561660346E+01  0.12632055729E+01  0.51100000000E-03 0.  1.
    9000002    1    1    2    0    0 -0.48364694036E+00  0.32232102253E-01  0.21204193909E+00  0.10769210998E+01  0.93800000000E+00 0. -1.
         22    1    1    2    0    0  0.56586986161E+00 -0.13699060125E+00  0.25317919937E+01  0.25978733272E+01  0.00000000000E+00 0.  1.
</event>
<event>
 5    1  0.7095115E+001  0.1599513E+01  0.7818608E-02  0.3353892E+00
         11   -1    0    0    0    0  0.00000000000E+00  0.00000000000E+00  0.39999999674E+01  0.40000000000E+01  0.51100000000E-03 0. -1.
    9000002   -1    0    0    0    0 -0.00000000000E+00 -0.00000000000E+00  0.00000000000E+00  0.93800000000E+00  0.93800000000E+00 0.  1.
         11    1    1    2    0    0  0.15824402140E-01  0.12605884696E+00  0.11217524961E+01  0.11289243412E+01  0.51100000000E-03 0. -1.
    9000002    1    1    2    0    0 -0.92042418965E-01 -0.46239529942E+00  0.15160630120E+00  0.10607118791E+01  0.93800000000E+00 0.  1.
         22    1    1    2    0    0  0.76218016825E-01  0.33633645245E+00  0.27266411701E+01  0.27483637797E+01  0.00000000000E+00 0. -1.
</event>
<event>
 5    1  0.7095115E+001  0.1597376E+01  0.7818608E-02  0.3356217E+00
         11   -1    0    0    0    0  0.00000000000E+00  0.00000000000E+00  0.39999999674E+01  0.40000000000E+01  0.51100000000E-03 0.  1.
    9000002   -1    0    0    0    0 -0.00000000000E+00 -0.00000000000E+00  0.00000000000E+00  0.93800000000E+00  0.93800000000E+00 0.  1.
         11    1    1    2    0    0  0.86503526296E-01 -0.22788761650E-01  0.68346453149E+00  0.68929399725E+00  0.51100000000E-03 0.  1.
    9000002    1    1    2    0    0 -0.33110722524E+00  0.32161428561E+00  0.14697255336E+00  0.10557048237E+01  0.93800000000E+00 0.  1.
         22    1    1    2    0    0  0.24460369894E+00 -0.29882552396E+00  0.31695628825E+01  0.31930011791E+01  0.00000000000E+00 0.  1.
</event>
<event>
 5    1  0.7095115E+001  0.1562673E+01  0.7818608E-02  0.3394901E+00
         11   -1    0    0    0    0  0.00000000000E+00  0.00000000000E+00  0.39999999674E+01  0.40000000000E+01  0.51100000000E-03 0. -1.
    9000002   -1    0    0    0    0 -0.00000000000E+00 -0.00000000000E+00  0.00000000000E+00  0.93800000000E+00  0.93800000000E+00 0.  1.
         11    1    1    2    0    0  0.21504458061E-01  0.12767951502E+00  0.42558853157E+00  0.44484869292E+00  0.51100000000E-03 0. -1.
    9000002    1    1    2    0    0  0.38295314669E+00  0.29058139595E-01  0.13040101576E+00  0.10219324405E+01  0.93800000000E+00 0.  1.
         22    1    1    2    0    0 -0.40445760475E+00 -0.15673765461E+00  0.34440104200E+01  0.34712188666E+01  0.00000000000E+00 0. -1.
</event>
<event>
 5    1  0.7095115E+001  0.1514126E+01  0.7818608E-02  0.3452188E+00
         11   -1    0    0    0    0  0.00000000000E+00  0.00000000000E+00  0.39999999674E+01  0.40000000000E+01  0.51100000000E-03 0. -1.
    9000002   -1    0    0    0    0 -0.00000000000E+00 -0.00000000000E+00  0.00000000000E+00  0.93800000000E+00  0.93800000000E+00 0. -1.
         11    1    1    2    0    0  0.31327437984E-01  0.26033329060E+00  0.75747353766E+00  0.80157423358E+00  0.51100000000E-03 0. -1.
    9000002    1    1    2    0    0 -0.33899185767E-01  0.93698035623E-01  0.71812605140E-01  0.94600714951E+00  0.93800000000E+00 0. -1.
         22    1    1    2    0    0  0.25717477835E-02 -0.35403132622E+00  0.31707138246E+01  0.31904186169E+01  0.00000000000E+00 0. -1.
</event>
<event>
 5    1  0.7095115E+001  0.1599670E+01  0.7818608E-02  0.3353722E+00
         11   -1    0    0    0    0  0.00000000000E+00  0.00000000000E+00  0.39999999674E+01  0.40000000000E+01  0.51100000000E-03 0. -1.
    9000002   -1    0    0    0    0 -0.00000000000E+00 -0.00000000000E+00  0.00000000000E+00  0.93800000000E+00  0.93800000000E+00 0.  1.
         11    1    1    2    0    0 -0.49894607992E-01  0.13370924529E+00  0.73075830002E+00  0.74456402569E+00  0.51100000000E-03 0. -1.
    9000002    1    1    2    0    0  0.23623491029E+00 -0.66869773316E+00  0.36036332833E+00  0.12299062239E+01  0.93800000000E+00 0.  1.
         22    1    1    2    0    0 -0.18634030230E+00  0.53498848787E+00  0.29088783390E+01  0.29635297504E+01  0.00000000000E+00 0. -1.
</event>
<event>
 5    1  0.7095115E+001  0.1599677E+01  0.7818608E-02  0.3353714E+00
         11   -1    0    0    0    0  0.00000000000E+00  0.00000000000E+00  0.39999999674E+01  0.40000000000E+01  0.51100000000E-03 0.  1.
    9000002   -1    0    0    0    0 -0.00000000000E+00 -0.00000000000E+00  0.00000000000E+00  0.93800000000E+00  0.93800000000E+00 0.  1.
         11    1    1    2    0    0 -0.41865952728E-01 -0.94485409639E-01  0.10323696197E+01  0.10375295386E+01  0.51100000000E-03 0. -1.
    9000002    1    1    2    0    0  0.15817796802E+00  0.35635495603E+00  0.10240212508E+00  0.10209502042E+01  0.93800000000E+00 0.  1.
         22    1    1    2    0    0 -0.11631201529E+00 -0.26186954639E+00  0.28652282225E+01  0.28795202572E+01  0.00000000000E+00 0.  1.
</event>
<event>
 5    1  0.7095115E+001  0.1599217E+01  0.7818608E-02  0.3354213E+00
         11   -1    0    0    0    0  0.00000000000E+00  0.00000000000E+00  0.39999999674E+01  0.40000000000E+01  0.51100000000E-03 0. -1.
    9000002   -1    0    0    0    0 -0.00000000000E+00 -0.00000000000E+00  0.00000000000E+00  0.93800000000E+00  0.93800000000E+00 0. -1.
         11    1    1    2    0    0 -0.59484277275E-01  0.18678731119E+00  0.11873000947E+01  0.12033742788E+01  0.51100000000E-03 0. -1.
    9000002    1    1    2    0    0  0.25203594684E+00 -0.54929890202E+00  0.25553328094E+00  0.11447238357E+01  0.93800000000E+00 0. -1.
         22    1    1    2    0    0 -0.19255166957E+00  0.36251159084E+00  0.25571665917E+01  0.25899018855E+01  0.00000000000E+00 0. -1.
</event>
<event>
 5    1  0.7095115E+001  0.1535888E+01  0.7818608E-02  0.3426030E+00
         11   -1    0    0    0    0  0.00000000000E+00  0.00000000000E+00  0.39999999674E+01  0.40000000000E+01  0.51100000000E-03 0. -1.
    9000002   -1    0    0    0    0 -0.00000000000E+00 -0.00000000000E+00  0.00000000000E+00  0.93800000000E+00  0.93800000000E+00 0. -1.
         11    1    1    2    0    0  0.23655741123E+00 -0.79181227210E-03  0.99237284663E+00  0.10201784960E+01  0.51100000000E-03 0. -1.
    9000002    1    1    2    0    0  0.10499994988E+00 -0.10140131598E+00  0.62662962887E-01  0.95135580267E+00  0.93800000000E+00 0. -1.
         22    1    1    2    0    0 -0.34155736112E+00  0.10219312825E+00  0.29449641578E+01  0.29664657014E+01  0.00000000000E+00 0.  1.
</event>
<event>
 5    1  0.7095115E+001  0.1587158E+01  0.7818608E-02  0.3367421E+00
         11   -1    0    0    0    0  0.00000000000E+00  0.00000000000E+00  0.39999999674E+01  0.40000000000E+01  0.51100000000E-03 0.  1.
    9000002   -1    0    0    0    0 -0.00000000000E+00 -0.00000000000E+00  0.00000000000E+00  0.93800000000E+00  0.93800000000E+00 0. -1.
         11    1    1    2    0    0  0.65110763541E-01  0.45833746248E-01  0.64732977837E+00  0.65220874488E+00  0.51100000000E-03 0.  1.
    9000002    1    1    2    0    0 -0.12604258986E+00  0.26504522834E+00  0.67258234118E-01  0.98514129828E+00  0.93800000000E+00 0. -1.
         22    1    1    2    0    0  0.60931826316E-01 -0.31087897459E+00  0.32854119549E+01  0.33006499568E+01  0.00000000000E+00 0.  1.
</event>
<event>
 5    1  0.7095115E+001  0.1597175E+01  0.7818608E-02  0.3356435E+00
         11   -1    0    0    0    0  0.00000000000E+00  0.00000000000E+00  0.39999999674E+01  0.40000000000E+01  0.51100000000E-03 0.  1.
    9000002   -1    0    0    0    0 -0.00000000000E+00 -0.00000000000E+00  0.00000000000E+00  0.93800000000E+00  0.93800000000E+00 0. -1.
         11    1    1    2    0    0 -0.73082860475E-01  0.74344906604E-01  0.97137859227E+00  0.97695695927E+00  0.51100000000E-03 0.  1.
    9000002    1    1    2    0    0  0.43171674461E+00 -0.14336304188E+00  0.14281980470E+00  0.10522232681E+01  0.93800000000E+00 0. -1.
         22    1    1    2    0    0 -0.35863388414E+00  0.69018135277E-01  0.28858015704E+01  0.29088197726E+01  0.00000000000E+00 0.  1.
</event>
<event>
 5    1  0.7095115E+001  0.1599660E+01  0.7818608E-02  0.3353733E+00
         11   -1    0    0    0    0  0.00000000000E+00  0.00000000000E+00  0.39999999674E+01  0.40000000000E+01  0.51100000000E-03 0. -1.
    9000002   -1    0    0    0    0 -0.00000000000E+00 -0.00000000000E+00  0.00000000000E+00  0.93800000000E+00  0.93800000000E+00 0.  1.
         11    1    1    2    0    0 -0.20384395508E-02  0.13143010064E-01  0.12820293838E+00  0.12889200317E+00  0.51100000000E-03 0. -1.
    9000002    1    1    2    0    0  0.82940419943E-01 -0.35273462720E+00  0.88175031895E-01  0.10094155075E+01  0.93800000000E+00 0.  1.
         22    1    1    2    0    0 -0.80901980392E-01  0.33959161714E+00  0.37836219971E+01  0.37996924894E+01  0.00000000000E+00 0. -1.
</event>
<event>
 5    1  0.7095115E+001  0.1598949E+01  0.7818608E-02  0.3354505E+00
         11   -1    0    0    0    0  0.00000000000E+00  0.00000000000E+00  0.39999999674E+01  0.40000000000E+01  0.51100000000E-03 0. -1.
    9000002   -1    0    0    0    0 -0.00000000000E+00 -0.00000000000E+00  0.00000000000E+00  0.93800000000E+00  0.93800000000E+00 0. -1.
         11    1    1    2    0    0 -0.83598368545E-01  0.95228287871E-01  0.59817240333E+00  0.61144713529E+00  0.51100000000E-03 0. -1.
    9000002    1    1    2    0    0  0.43085099835E+00 -0.46901114488E+00  0.28608191880E+00  0.11693121487E+01  0.93800000000E+00 0. -1.
         22    1    1    2    0    0 -0.34725262981E+00  0.37378285701E+00  0.31157456452E+01  0.31572407160E+01  0.00000000000E+00 0. -1.
</event>
<event>
 5    1  0.7095115E+001  0.1599677E+01  0.7818608E-02  0.3353714E+00
         11   -1    0    0    0    0  0.00000000000E+00  0.00000000000E+00  0.39999999674E+01  0.40000000000E+01  0.51100000000E-03 0. -1.
    9000002   -1    0    0    0    0 -0.00000000000E+00 -0.00000000000E+00  0.00000000000E+00  0.93800000000E+00  0.93800000000E+00 0.  1.
         11    1    1    2    0    0  0.72581305347E-01 -0.10472903657E+00  0.13979248414E+01  0.14037201788E+01  0.51100000000E-03 0. -1.
    9000002    1    1    2    0    0 -0.20230199094E+00  0.29514607209E+00  0.85925718111E-01  0.10076033587E+01  0.93800000000E+00 0.  1.
         22    1    1    2    0    0  0.12972068559E+00 -0.19041703553E+00  0.25161494078E+01  0.25266764625E+01  0.00000000000E+00 0. -1.
</event>
<event>
 5    1  0.7095115E+001  0.1494837E+01  0.7818608E-02  0.3476060E+00
         11   -1    0    0    0    0  0.00000000000E+00  0.00000000000E+00  0.39999999674E+01  0.40000000000E+01  0.51100000000E-03 0.  1.
    9000002   -1    0    0    0    0 -0.00000000000E+00 -0.00000000000E+00  0.00000000000E+00  0.93800000000E+00  0.93800000000E+00 0.  1.
         11    1    1    2    0    0 -0.81884257574E-01 -0.19398559171E+00  0.22245745857E+00  0.30630544138E+00  0.51100000000E-03 0.  1.
    9000002    1    1    2    0    0 -0.22587147911E+00  0.32990599763E+00  0.20089502073E+00  0.10392587270E+01  0.93800000000E+00 0.  1.
         22    1    1    2    0    0  0.30775573668E+00 -0.13592040593E+00  0.35766474881E+01  0.35924358316E+01  0.00000000000E+00 0.  1.
</event>
<event>
 5    1  0.7095115E+001  0.1598992E+01  0.7818608E-02  0.3354459E+00
         11   -1    0    0    0    0  0.00000000000E+00  0.00000000000E+00  0.39999999674E+01  0.40000000000E+01  0.51100000000E-03 0.  1.
    9000002   -1    0    0    0    0 -0.00000000000E+00 -0.00000000000E+00  0.00000000000E+00  0.93800000000E+00  0.93800000000E+00 0. -1.
         11    1    1    2    0    0  0.22607075514E+00  0.14754783753E+00  0.11835671775E+01  0.12139645281E+01  0.51100000000E-03 0.  1.
    9000002    1    1    2    0    0 -0.71229528454E+00 -0.49608088875E+00  0.57008767261E+00  0.13993944315E+01  0.93800000000E+00 0. -1.
         22    1    1    2    0    0  0.48622452940E+00  0.34853305122E+00  0.22463451173E+01  0.23246410404E+01  0.00000000000E+00 0. -1.
</event>
<event>
 5    1  0.7095115E+001  0.1599484E+01  0.7818608E-02  0.3353924E+00
         11   -1    0    0    0    0  0.00000000000E+00  0.00000000000E+00  0.39999999674E+01  0.40000000000E+01  0.51100000000E-03 0.  1.
    9000002   -1    0    0    0    0 -0.00000000000E+00 -0.00000000000E+00  0.00000000000E+00  0.93800000000E+00  0.93800000000E+00 0.  1.
         11    1    1    2    0    0 -0.20594644477E+00  0.13702626667E-01  0.12646894504E+01  0.12814216196E+01  0.51100000000E-03 0.  1.
    9000002    1    1    2    0    0  0.64622140202E+00 -0.58571180748E-01  0.29722352273E+00  0.11786511384E+01  0.93800000000E+00 0.  1.
         22    1    1    2    0    0 -0.44027495724E+00  0.44868554082E-01  0.24380869943E+01  0.24779272420E+01  0.00000000000E+00 0.  1.
</event>
<event>
 5    1  0.7095115E+001  0.1590551E+01  0.7818608E-02  0.3363684E+00
         11   -1    0    0    0    0  0.00000000000E+00  0.00000000000E+00  0.39999999674E+01  0.40000000000E+01  0.51100000000E-03 0.  1.
    9000002   -1    0    0    0    0 -0.00000000000E+00 -0.00000000000E+00  0.00000000000E+00  0.93800000000E+00  0.93800000000E+00 0.  1.
         11    1    1    2    0    0  0.13233077315E+00 -0.10907578377E+00  0.12322901866E+01  0.12441657145E+01  0.51100000000E-03 0.  1.
    9000002    1    1    2    0    0 -0.99586832150E-01  0.45824183063E+00  0.15783114547E+00  0.10604988368E+01  0.93800000000E+00 0.  1.
         22    1    1    2    0    0 -0.32743941003E-01 -0.34916604686E+00  0.26098786353E+01  0.26333354486E+01  0.00000000000E+00 0.  1.
</event>
<event>
 5    1  0.7095115E+001  0.1599593E+01  0.7818608E-02  0.3353805E+00
         11   -1    0    0    0    0  0.00000000000E+00  0.00000000000E+00  0.39999999674E+01  0.40000000000E+01  0.51100000000E-03 0.  1.
    9000002   -1    0    0    0    0 -0.00000000000E+00 -0.00000000000E+00  0.00000000000E+00  0.93800000000E+00  0.93800000000E+00 0.  1.
         11    1    1    2    0    0 -0.61255859603E-01 -0.29020318057E-01  0.60654601887E+00  0.61032187681E+00  0.51100000000E-03 0.  1.
    9000002    1    1    2    0    0  0.40133126454E+00  0.23400484435E+00  0.14697988338E+00  0.10570109447E+01  0.93800000000E+00 0.  1.
         22    1    1    2    0    0 -0.34007540493E+00 -0.20498452629E+00  0.32464740651E+01  0.32706671785E+01  0.00000000000E+00 0.  1.
</event>
<event>
 5    1  0.7095115E+001  0.1599653E+01  0.7818608E-02  0.3353740E+00
         11   -1    0    0    0    0  0.00000000000E+00  0.00000000000E+00  0.39999999674E+01  0.40000000000E+01  0.51100000000E-03 0.  1.
    9000002   -1    0    0    0    0 -0.00000000000E+00 -0.00000000000E+00  0.00000000000E+00  0.93800000000E+00  0.93800000000E+00 0.  1.
         11    1    1    2    0    0  0.24812808354E-03  0.33252632547E+00  0.11952699420E+01  0.12406628527E+01  0.51100000000E-03 0.  1.
    9000002    1    1    2    0    0  0.13417473062E-01 -0.93200389047E+00  0.67476278488E+00  0.14845740454E+01  0.93800000000E+00 0.  1.
         22    1    1    2    0    0 -0.13665601145E-01  0.59947756500E+00  0.21299672405E+01  0.22127631019E+01  0.00000000000E+00 0.  1.
</event>
<event>
 5    1  0.7095115E+001  0.1593848E+01  0.7818608E-02  0.3360068E+00
         11   -1    0    0    0    0  0.00000000000E+00  0.00000000000E+00  0.39999999674E+01  0.40000000000E+01  0.51100000000E-03 0.  1.
    9000002   -1    0    0    0    0 -0.00000000000E+00 -0.00000000000E+00  0.00000000000E+00  0.93800000000E+00  0.93800000000E+00 0. -1.
         11    1    1    2    0    0  0.27836435781E-01 -0.43787427645E-02  0.10185708074E+01  0.10189606426E+01  0.51100000000E-03 0.  1.
    9000002    1    1    2    0    0 -0.21247093226E+00 -0.27501026462E+00  0.85659810453E-01  0.10039701917E+01  0.93800000000E+00 0.  1.
         22    1    1    2    0    0  0.18463449647E+00  0.27938900738E+00  0.28957693496E+01  0.29150691657E+01  0.00000000000E+00 0.  1.
</event>
<event>
 5    1  0.7095115E+001  0.1495429E+01  0.7818608E-02  0.3475316E+00
         11   -1    0    0    0    0  0.00000000000E+00  0.00000000000E+00  0.39999999674E+01  0.40000000000E+01  0.51100000000E-03 0. -1.
    9000002   -1    0    0    0    0 -0.00000000000E+00 -0.00000000000E+00  0.00000000000E+00  0.93800000000E+00  0.93800000000E+00 0.  1.
         11    1    1    2    0    0 -0.16440971778E-01  0.28038107978E+00  0.81920018195E+00  0.86600984676E+00  0.51100000000E-03 0. -1.
    9000002    1    1    2    0    0  0.11646579185E+00  0.17920524272E+00  0.11335650726E+00  0.96869628751E+00  0.93800000000E+00 0.  1.
         22    1    1    2    0    0 -0.10002482007E+00 -0.45958632250E+00  0.30674432781E+01  0.31032938657E+01  0.00000000000E+00 0. -1.
</event>
<event>
 5    1  0.7095115E+001  0.1588458E+01  0.7818608E-02  0.3365987E+00
         11   -1    0    0    0    0  0.00000000000E+00  0.00000000000E+00  0.39999999674E+01  0.40000000000E+01  0.51100000000E-03 0.  1.
    9000002   -1    0    0    0    0 -0.00000000000E+00 -0.00000000000E+00  0.00000000000E+00  0.93800000000E+00  0.93800000000E+00 0. -1.
         11    1    1    2    0    0 -0.79753954453E-02 -0.12939078125E+00  0.12195689789E+01  0.12264396995E+01  0.51100000000E-03 0.  1.
    9000002    1    1    2    0    0 -0.29396873401E+00  0.21189803330E+00  0.97332625783E-01  0.10102653281E+01  0.93800000000E+00 0. -1.
         22    1    1    2    0    0  0.30194412945E+00 -0.82507252043E-01  0.26830983627E+01  0.27012949724E+01  0.00000000000E+00 0.  1.
</event>
<event>
 5    1  0.7095115E+001  0.1599453E+01  0.7818608E-02  0.3353958E+00
         11   -1    0    0    0    0  0.00000000000E+00  0.00000000000E+00  0.39999999674E+01  0.40000000000E+01  0.51100000000E-03 0.  1.
    9000002   -1    0    0    0    0 -0.00000000000E+00 -0.00000000000E+00  0.00000000000E+00  0.93800000000E+00  0.93800000000E+00 0.  1.
         11    1    1    2    0    0 -0.78080210593E-01  0.10873649853E+00  0.11999720579E+01  0.12074159789E+01  0.51100000000E-03 0.  1.
    9000002    1    1    2    0    0  0.25097544535E+00 -0.40234713338E+00  0.15349115884E+00  0.10622031000E+01  0.93800000000E+00 0.  1.
         22    1    1    2    0    0 -0.17289523476E+00  0.29361063485E+00  0.26465367507E+01  0.26683809210E+01  0.00000000000E+00 0.  1.
</event>
<event>
 5    1  0.7095115E+001  0.1514857E+01  0.7818608E-02  0.3451297E+00
         11   -1    0    0    0    0  0.00000000000E+00  0.00000000000E+00  0.39999999674E+01  0.40000000000E+01  0.51100000000E-03 0. -1.
    9000002   -1    0    0    0    0 -0.00000000000E+00 -0.00000000000E+00  0.00000000000E+00  0.93800000000E+00  0.93800000000E+00 0. -1.
         11    1    1    2    0    0  0.21880887415E-02 -0.20877161702E+00  0.74647156902E+00  0.77511962966E+00  0.51100000000E-03 0. -1.
    9000002    1    1    2    0    0 -0.15542504952E-01 -0.35421284357E+00  0.15630939242E+00  0.10148817341E+01  0.93800000000E+00 0. -1.
         22    1    1    2    0    0  0.13354416210E-01  0.56298446058E+00  0.30972190059E+01  0.31479986363E+01  0.00000000000E+00 0. -1.
</event>
<event>
 5    1  0.7095115E+001  0.1599202E+01  0.7818608E-02  0.3354230E+00
         11   -1    0    0    0    0  0.00000000000E+00  0.00000000000E+00  0.39999999674E+01  0.40000000000E+01  0.51100000000E-03 0.  1.
    9000002   -1    0    0    0    0 -0.00000000000E+00 -0.00000000000E+00  0.00000000000E+00  0.93800000000E+00  0.93800000000E+00 0. -1.
         11    1    1    2    0    0  0.10507031096E-01  0.77541063140E-01  0.96619659619E+00  0.96936016928E+00  0.51100000000E-03 0.  1.
    9000002    1    1    2    0    0  0.45822129323E-01 -0.33891923111E+00  0.78739070316E-01  0.10015037463E+01  0.93800000000E+00 0. -1.
         22    1    1    2    0    0 -0.56329160419E-01  0.26137816797E+00  0.29550643009E+01  0.29671360844E+01  0.00000000000E+00 0.  1.
</event>
<event>
 5    1  0.7095115E+001  0.1599664E+01  0.7818608E-02  0.3353728E+00
         11   -1    0    0    0    0  0.00000000000E+00  0.00000000000E+00  0.39999999674E+01  0.40000000000E+01  0.51100000000E-03 0. -1.
    9000002   -1    0    0    0    0 -0.00000000000E+00 -0.00000000000E+00  0.00000000000E+00  0.93800000000E+00  0.93800000000E+00 0.  1.
         11    1    1    2    0    0  0.11986256968E-01  0.13441007820E+00  0.93464164335E+00  0.94433309911E+00  0.51100000000E-03 0. -1.
    9000002    1    1    2    0    0 -0.38149163248E-01 -0.55559467511E+00  0.21451029276E+00  0.11117551292E+01  0.93800000000E+00 0.  1.
         22    1    1    2    0    0  0.26162906280E-01  0.42118459691E+00  0.28508480313E+01  0.28819117717E+01  0.00000000000E+00 0. -1.
</event>
<event>
 5    1  0.7095115E+001  0.1599545E+01  0.7818608E-02  0.3353857E+00
         11   -1    0    0    0    0  0.00000000000E+00  0.00000000000E+00  0.39999999674E+01  0.40000000000E+01  0.51100000000E-03 0.  1.
    9000002   -1    0    0    0    0 -0.00000000000E+00 -0.00000000000E+00  0.00000000000E+00  0.93800000000E+00  0.93800000000E+00 0.  1.
         11    1    1    2    0    0  0.45360325567E-02  0.14073222000E-03  0.29620311473E-01  0.29970308135E-01  0.51100000000E-03 0.  1.
    9000002    1    1    2    0    0 -0.69401357356E+00 -0.27914077969E+00  0.40557288158E+00  0.12664548067E+01  0.93800000000E+00 0.  1.
         22    1    1    2    0    0  0.68947754100E+00  0.27900004747E+00  0.35648067743E+01  0.36415748852E+01  0.00000000000E+00 0.  1.
</event>
<event>
 5    1  0.7095115E+001  0.1599649E+01  0.7818608E-02  0.3353744E+00
         11   -1    0    0    0    0  0.00000000000E+00  0.00000000000E+00  0.39999999674E+01  0.40000000000E+01  0.51100000000E-03 0.  1.
    9000002   -1    0    0    0    0 -0.00000000000E+00 -0.00000000000E+00  0.00000000000E+00  0.93800000000E+00  0.93800000000E+00 0. -1.
         11    1    1    2    0    0  0.48839942225E-01  0.46367445187E-01  0.61515936992E+00  0.61883486606E+00  0.51100000000E-03 0.  1.
    9000002    1    1    2    0    0 -0.31454355229E+00 -0.26442509924E+00  0.11408377791E+00  0.10303967138E+01  0.93800000000E+00 0. -1.
         22    1    1    2    0    0  0.26570361006E+00  0.21805765406E+00  0.32707568195E+01  0.32887684202E+01  0.00000000000E+00 0.  1.
</event>
<event>
 5    1  0.7095115E+001  0.1594145E+01  0.7818608E-02  0.3359743E+00
         11   -1    0    0    0    0  0.00000000000E+00  0.00000000000E+00  0.39999999674E+01  0.40000000000E+01  0.51100000000E-03 0. -1.
    9000002   -1    0    0    0    0 -0.00000000000E+00 -0.00000000000E+00  0.00000000000E+00  0.93800000000E+00  0.93800000000E+00 0. -1.
         11    1    1    2    0    0  0.23322048385E-01 -0.58191060471E-01  0.17422584558E+00  0.18516215555E+00  0.51100000000E-03 0. -1.
    9000002    1    1    2    0    0  0.54891610905E-01  0.62707969227E+00  0.28397143015E+00  0.11647857325E+01  0.93800000000E+00 0. -1.
         22    1    1    2    0    0 -0.78213659290E-01 -0.56888863180E+00  0.35418026916E+01  0.35880521120E+01  0.00000000000E+00 0. -1.
</event>
<event>
 5    1  0.7095115E+001  0.1599137E+01  0.7818608E-02  0.3354301E+00
         11   -1    0    0    0    0  0.00000000000E+00  0.00000000000E+00  0.39999999674E+01  0.40000000000E+01  0.51100000000E-03 0. -1.
    9000002   -1    0    0    0    0 -0.00000000000E+00 -0.00000000000E+00  0.00000000000E+00  0.93800000000E+00  0.93800000000E+00 0. -1.
         11    1    1    2    0    0  0.47923392705E-01 -0.76858029436E-01  0.56078882651E+00  0.56805649130E+00  0.51100000000E-03 0. -1.
    9000002    1    1    2    0    0 -0.19543368280E+00  0.48574547110E+00  0.18893059926E+00  0.10907253359E+01  0.93800000000E+00 0. -1.
         22    1    1    2    0    0  0.14751029009E+00 -0.40888744167E+00  0.32502805416E+01  0.32792181728E+01  0.00000000000E+00 0.  1.
</event>
<event>
 5    1  0.7095115E+001  0.1599676E+01  0.7818608E-02  0.3353715E+00
         11   -1    0    0    0    0  0.00000000000E+00  0.00000000000E+00  0.39999999674E+01  0.40000000000E+01  0.51100000000E-03 0.  1.
    9000002   -1    0    0    0    0 -0.00000000000E+00 -0.00000000000E+00  0.00000000000E+00  0.93800000000E+00  0.93800000000E+00 0.  1.
         11    1    1    2    0    0  0.57199185819E-01  0.95074113969E-01  0.12022232568E+01  0.12073325367E+01  0.51100000000E-03 0.  1.
    9000002    1    1    2    0    0 -0.18353819671E+00 -0.31235339056E+00  0.88127761802E-01  0.10093866517E+01  0.93800000000E+00 0.  1.
         22    1    1    2    0    0  0.12633901089E+00  0.21727927659E+00  0.27096489488E+01  0.27212808116E+01  0.00000000000E+00 0. -1.
</event>
<event>
 5    1  0.7095115E+001  0.1599563E+01  0.7818608E-02  0.3353838E+00
         11   -1    0    0    0    0  0.00000000000E+00  0.00000000000E+00  0.39999999674E+01  0.40000000000E+01  0.51100000000E-03 0. -1.
    9000002   -1    0    0    0    0 -0.00000000000E+00 -0.00000000000E+00  0.00000000000E+00  0.93800000000E+00  0.93800000000E+00 0.  1.
         11    1    1    2    0    0 -0.89671797640E-01  0.97952428968E-01  0.12006334185E+01  0.12079555358E+01  0.51100000000E-03 0. -1.
    9000002    1    1    2    0    0  0.32370929390E+00 -0.29964472012E+00  0.13207846545E+00  0.10449226700E+01  0.93800000000E+00 0.  1.
         22    1    1    2    0    0 -0.23403749626E+00  0.20169229115E+00  0.26672880834E+01  0.26851217942E+01  0.00000000000E+00 0. -1.
</event>
<event>
 5    1  0.7095115E+001  0.1598018E+01  0.7818608E-02  0.3355518E+00
         11   -1    0    0    0    0  0.00000000000E+00  0.00000000000E+00  0.39999999674E+01  0.40000000000E+01  0.51100000000E-03 0.  1.
    9000002   -1    0    0    0    0 -0.00000000000E+00 -0.00000000000E+00  0.00000000000E+00  0.93800000000E+00  0.93800000000E+00 0. -1.
         11    1    1    2    0    0  0.92671005593E-02 -0.30414772068E-01  0.38970230814E+00  0.39099755447E+00  0.51100000000E-03 0.  1.
    9000002    1    1    2    0    0 -0.32026430613E+00  0.47127741684E+00  0.22671495179E+00  0.11206762685E+01  0.93800000000E+00 0. -1.
         22    1    1    2    0    0  0.31099720557E+00 -0.44086264477E+00  0.33835827074E+01  0.34263261770E+01  0.00000000000E+00 0.  1.
</event>
<event>
 5    1  0.7248084E+001  0.1599597E+01  0.7818608E-02  0.3353800E+00
         11   -1    0    0    0    0  0.00000000000E+00  0.00000000000E+00  0.39999999674E+01  0.40000000000E+01  0.51100000000E-03 0.  1.
    9000002   -1    0    0    0    0 -0.00000000000E+00 -0.00000000000E+00  0.00000000000E+00  0.93800000000E+00  0.93800000000E+00 0.  1.
         11    1    1    2    0    0  0.15722752420E+00  0.18328589894E-01  0.14239671658E+01  0.14327383509E+01  0.51100000000E-03 0.  1.
    9000002    1    1    2    0    0 -0.40234555659E+00 -0.41613950947E-01  0.11049118915E+00  0.10274560675E+01  0.93800000000E+00 0.  1.
         22    1    1    2    0    0  0.24511803239E+00  0.23285361053E-01  0.24655416124E+01  0.24778055816E+01  0.00000000000E+00 0.  1.
</event>
<event>
 5    1  0.7095115E+001  0.1599650E+01  0.7818608E-02  0.3353743E+00
         11   -1    0    0    0    0  0.00000000000E+00  0.00000000000E+00  0.39999999674E+01  0.40000000000E+01  0.51100000000E-03 0.  1.
    9000002   -1    0    0    0    0 -0.00000000000E+00 -0.00000000000E+00  0.00000000000E+00  0.93800000000E+00  0.93800000000E+00 0. -1.
         11    1    1    2    0    0 -0.94679253712E-01  0.12663495447E+00  0.13367532442E+01  0.13460720894E+01  0.51100000000E-03 0.  1.
    9000002    1    1    2    0    0  0.26095134867E+00 -0.35524118512E+00  0.13180579089E+00  0.10447529241E+01  0.93800000000E+00 0. -1.
         22    1    1    2    0    0 -0.16627209496E+00  0.22860623066E+00  0.25314409323E+01  0.25471749865E+01  0.00000000000E+00 0.  1.
</event>
<event>
 5    1  0.7095115E+001  0.1599629E+01  0.7818608E-02  0.3353766E+00
         11   -1    0    0    0    0  0.00000000000E+00  0.00000000000E+00  0.39999999674E+01  0.40000000000E+01  0.51100000000E-03 0. -1.
    9000002   -1    0    0    0    0 -0.00000000000E+00 -0.00000000000E+00  0.00000000000E+00  0.93800000000E+00  0.93800000000E+00 0. -1.
         11    1    1    2    0    0 -0.13956558424E+00 -0.69603006194E-01  0.13226499229E+01  0.13318131290E+01  0.51100000000E-03 0. -1.
    9000002    1    1    2    0    0  0.42792145955E+00  0.19460766222E+00  0.15059195418E+00  0.10599579494E+01  0.93800000000E+00 0. -1.
         22    1    1    2    0    0 -0.28835587531E+00 -0.12500465602E+00  0.25267580903E+01  0.25462289217E+01  0.00000000000E+00 0. -1.
</event>
<event>
 5    1  0.7095115E+001  0.1599510E+01  0.7818608E-02  0.3353896E+00
         11   -1    0    0    0    0  0.00000000000E+00  0.00000000000E+00  0.39999999674E+01  0.40000000000E+01  0.51100000000E-03 0.  1.
    9000002   -1    0    0    0    0 -0.00000000000E+00 -0.00000000000E+00  0.00000000000E+00  0.93800000000E+00  0.93800000000E+00 0.  1.
         11    1    1    2    0    0 -0.10677712338E+00  0.15031146457E+00  0.11052780740E+01  0.11205511021E+01  0.51100000000E-03 0.  1.
    9000002    1    1    2    0    0  0.34166267064E+00 -0.46863281727E+00  0.23385378908E+00  0.11273338869E+01  0.93800000000E+00 0.  1.
         22    1    1    2    0    0 -0.23488554726E+00  0.31832135269E+00  0.26608681043E+01  0.26901150110E+01  0.00000000000E+00 0.  1.
</event>
<event>
 5    1  0.7095115E+001  0.1588880E+01  0.7818608E-02  0.3365521E+00
         11   -1    0    0    0    0  0.00000000000E+00  0.00000000000E+00  0.39999999674E+01  0.40000000000E+01  0.51100000000E-03 0. -1.
    9000002   -1    0    0    0    0 -0.00000000000E+00 -0.00000000000E+00  0.00000000000E+00  0.93800000000E+00  0.93800000000E+00 0. -1.
         11    1    1    2    0    0 -0.22462155167E+00 -0.28014104128E+00  0.11835623965E+01  0.12368322651E+01  0.51100000000E-03 0. -1.
    9000002    1    1    2    0    0  0.36260277835E+00  0.66545882229E+00  0.43056859004E+00  0.12804489563E+01  0.93800000000E+00 0. -1.
         22    1    1    2    0    0 -0.13798122668E+00 -0.38531778101E+00  0.23858689808E+01  0.24207187785E+01  0.00000000000E+00 0. -1.
</event>
<event>
 5    1  0.8513753E+001  0.1599500E+01  0.7818608E-02  0.3353906E+00
         11   -1    0    0    0    0  0.00000000000E+00  0.00000000000E+00  0.39999999674E+01  0.40000000000E+01  0.51100000000E-03 0. -1.
    9000002   -1    0    0    0    0 -0.00000000000E+00 -0.00000000000E+00  0.00000000000E+00  0.93800000000E+00  0.93800000000E+00 0. -1.
         11    1    1    2    0    0  0.41177120188E-01 -0.16970608450E+00  0.14882185386E+01  0.14984293077E+01  0.51100000000E-03 0. -1.
    9000002    1    1    2    0    0 -0.14343310104E+00  0.45455875368E+00  0.15509422877E+00  0.10635294706E+01  0.93800000000E+00 0. -1.
         22    1    1    2    0    0  0.10225598085E+00 -0.28485266918E+00  0.23566872000E+01  0.23760412217E+01  0.00000000000E+00 0. -1.
</event>
<event>
 5    1  0.7095115E+001  0.1599677E+01  0.7818608E-02  0.3353714E+00
         11   -1    0    0    0    0  0.00000000000E+00  0.00000000000E+00  0.39999999674E+01  0.40000000000E+01  0.51100000000E-03 0.  1.
    9000002   -1    0    0    0    0 -0.00000000000E+00 -0.00000000000E+00  0.00000000000E+00  0.93800000000E+00  0.93800000000E+00 0.  1.
         11    1    1    2    0    0  0.54936416222E-01 -0.30549903730E+00  0.98092025372E+00  0.10288597946E+01  0.51100000000E-03 0.  1.
    9000002    1    1    2    0    0 -0.17856774973E+00  0.99180601409E+00  0.82067846638E+00  0.16027859358E+01  0.93800000000E+00 0.  1.
         22    1    1    2    0    0  0.12363133351E+00 -0.68630697680E+00  0.21984012473E+01  0.23063542696E+01  0.00000000000E+00 0.  1.
</event>
<event>
 5    1  0.7095115E+001  0.1518977E+01  0.7818608E-02  0.3446288E+00
         11   -1    0    0    0    0  0.00000000000E+00  0.00000000000E+00  0.39999999674E+01  0.40000000000E+01  0.51100000000E-03 0.  1.
    9000002   -1    0    0    0    0 -0.00000000000E+00 -0.00000000000E+00  0.00000000000E+00  0.93800000000E+00  0.93800000000E+00 0. -1.
         11    1    1    2    0    0 -0.34300318256E-01  0.17995493347E+00  0.38465646219E+00  0.42605298372E+00  0.51100000000E-03 0.  1.
    9000002    1    1    2    0    0 -0.37774345330E+00  0.15401454665E+00  0.18329797523E+00  0.10391596339E+01  0.93800000000E+00 0. -1.
         22    1    1    2    0    0  0.41204377156E+00 -0.33396948011E+00  0.34320455299E+01  0.34727873823E+01  0.00000000000E+00 0.  1.
</event>
<event>
 5    1  0.7095115E+001  0.1599593E+01  0.7818608E-02  0.3353806E+00
         11   -1    0    0    0    0  0.00000000000E+00  0.00000000000E+00  0.39999999674E+01  0.40000000000E+01  0.51100000000E-03 0. -1.
    9000002   -1    0    0    0    0 -0.00000000000E+00 -0.00000000000E+00  0.00000000000E+00  0.93800000000E+00  0.93800000000E+00 0. -1.
         11    1    1    2    0    0 -0.32535587522E-01 -0.84046032357E-01  0.96088854897E+00  0.96510588262E+00  0.51100000000E-03 0. -1.
    9000002    1    1    2    0    0  0.93864740309E-01  0.34517830905E+00  0.85939860470E-01  0.10075655384E+01  0.93800000000E+00 0. -1.
         22    1    1    2    0    0 -0.61329152786E-01 -0.26113227669E+00  0.29531715579E+01  0.29653285790E+01  0.00000000000E+00 0. -1.
</event>
<event>
 5    1  0.7095115E+001  0.1545366E+01  0.7818608E-02  0.3414884E+00
         11   -1    0    0    0    0  0.00000000000E+00  0.00000000000E+00  0.39999999674E+01  0.40000000000E+01  0.51100000000E-03 0.  1.
    9000002   -1    0    0    0    0 -0.00000000000E+00 -0.00000000000E+00  0.00000000000E+00  0.93800000000E+00  0.93800000000E+00 0. -1.
         11    1    1    2    0    0 -0.53628873815E-01 -0.23369119581E+00  0.10770755001E+01  0.11034398602E+01  0.51100000000E-03 0.  1.
    9000002    1    1    2    0    0  0.18606379413E+00 -0.61295184197E-01  0.67204594456E-01  0.96059215727E+00  0.93800000000E+00 0. -1.
         22    1    1    2    0    0 -0.13243492032E+00  0.29498638001E+00  0.28557198728E+01  0.28739679825E+01  0.00000000000E+00 0.  1.
</event>
<event>
 5    1  0.7095115E+001  0.1598634E+01  0.7818608E-02  0.3354847E+00
         11   -1    0    0    0    0  0.00000000000E+00  0.00000000000E+00  0.39999999674E+01  0.40000000000E+01  0.51100000000E-03 0.  1.
    9000002   -1    0    0    0    0 -0.00000000000E+00 -0.00000000000E+00  0.00000000000E+00  0.93800000000E+00  0.93800000000E+00 0.  1.
         11    1    1    2    0    0 -0.62157862143E-01 -0.14019638804E+00  0.12750846912E+01  0.12842740587E+01  0.51100000000E-03 0.  1.
    9000002    1    1    2    0    0  0.12732147871E+00  0.51188596647E+00  0.19234515709E+00  0.10931965336E+01  0.93800000000E+00 0.  1.
         22    1    1    2    0    0 -0.65163616564E-01 -0.37168957843E+00  0.25325701191E+01  0.25605294077E+01  0.00000000000E+00 0.  1.
</event>
<event>
 5    1  0.7095115E+001  0.1599677E+01  0.7818608E-02  0.3353714E+00
         11   -1    0    0    0    0  0.00000000000E+00  0.00000000000E+00  0.39999999674E+01  0.40000000000E+01  0.51100000000E-03 0.  1.
    9000002   -1    0    0    0    0 -0.00000000000E+00 -0.00000000000E+00  0.00000000000E+00  0.93800000000E+00  0.93800000000E+00 0.  1.
         11    1    1    2    0    0  0.42176575173E-01 -0.12614081789E+00  0.12397560364E+01  0.12468703463E+01  0.51100000000E-03 0.  1.
    9000002    1    1    2    0    0 -0.13083762629E+00  0.39487360217E+00  0.11696684607E+00  0.10327482216E+01  0.93800000000E+00 0.  1.
         22    1    1    2    0    0  0.88661051122E-01 -0.26873278428E+00  0.26432770848E+01  0.26583814321E+01  0.00000000000E+00 0.  1.
</event>
<event>
 5    1  0.7095115E+001  0.1541500E+01  0.7818608E-02  0.3419412E+00
         11   -1    0    0    0    0  0.00000000000E+00  0.00000000000E+00  0.39999999674E+01  0.40000000000E+01  0.51100000000E-03 0. -1.
    9000002   -1    0    0    0    0 -0.00000000000E+00 -0.00000000000E+00  0.00000000000E+00  0.93800000000E+00  0.93800000000E+00 0. -1.
         11    1    1    2    0    0 -0.45507159299E-01  0.22689346111E+00  0.13081330832E+01  0.13284441910E+01  0.51100000000E-03 0. -1.
    9000002    1    1    2    0    0 -0.86849472608E-01  0.10898121968E+00  0.56929736066E-01  0.95000249052E+00  0.93800000000E+00 0. -1.
         22    1    1    2    0    0  0.13235663191E+00 -0.33587468080E+00  0.26349371481E+01  0.26595533184E+01  0.00000000000E+00 0. -1.
</event>
<event>
 5    1  0.7095115E+001  0.1599352E+01  0.7818608E-02  0.3354067E+00
         11   -1    0    0    0    0  0.00000000000E+00  0.00000000000E+00  0.39999999674E+01  0.40000000000E+01  0.51100000000E-03 0.  1.
    9000002   -1    0    0    0    0 -0.00000000000E+00 -0.00000000000E+00  0.00000000000E+00  0.93800000000E+00  0.93800000000E+00 0.  1.
         11    1    1    2    0    0  0.10739854786E+00 -0.97100399327E-01  0.11868195543E+01  0.11956186061E+01  0.51100000000E-03 0.  1.
    9000002    1    1    2    0    0 -0.30466238956E+00  0.27204928470E+00  0.11292567607E+00  0.10292843112E+01  0.93800000000E+00 0.  1.
         22    1    1    2    0    0  0.19726384169E+00 -0.17494888537E+00  0.27002547369E+01  0.27130970827E+01  0.00000000000E+00 0.  1.
</event>
<event>
 5    1  0.7095115E+001  0.1599677E+01  0.7818608E-02  0.3353714E+00
         11   -1    0    0    0    0  0.00000000000E+00  0.00000000000E+00  0.39999999674E+01  0.40000000000E+01  0.51100000000E-03 0.  1.
    9000002   -1    0    0    0    0 -0.00000000000E+00 -0.00000000000E+00  0.00000000000E+00  0.93800000000E+00  0.93800000000E+00 0.  1.
         11    1    1    2    0    0  0.21567733263E-01 -0.14512427233E+00  0.12838471487E+01  0.12922035381E+01  0.51100000000E-03 0.  1.
    9000002    1    1    2    0    0 -0.63524778102E-01  0.43804686641E+00  0.13292315421E+00  0.10456734765E+01  0.93800000000E+00 0.  1.
         22    1    1    2    0    0  0.41957044839E-01 -0.29292259408E+00  0.25832296644E+01  0.26001229853E+01  0.00000000000E+00 0.  1.
</event>
<event>
 5    1  0.7095115E+001  0.1599626E+01  0.7818608E-02  0.3353770E+00
         11   -1    0    0    0    0  0.00000000000E+00  0.00000000000E+00  0.39999999674E+01  0.40000000000E+01  0.51100000000E-03 0.  1.
    9000002   -1    0    0    0    0 -0.00000000000E+00 -0.00000000000E+00  0.00000000000E+00  0.93800000000E+00  0.93800000000E+00 0.  1.
         11    1    1    2    0    0  0.17539463567E-01 -0.48189283451E-01  0.39372251784E+00  0.39704851340E+00  0.51100000000E-03 0.  1.
    9000002    1    1    2    0    0 -0.14337541734E+00  0.42976339296E+00  0.13951215169E+00  0.10509808394E+01  0.93800000000E+00 0.  1.
         22    1    1    2    0    0  0.12583595377E+00 -0.38157410951E+00  0.34667652978E+01  0.34899706472E+01  0.00000000000E+00 0.  1.
</event>
<event>
 5    1  0.7095115E+001  0.1599663E+01  0.7818608E-02  0.3353729E+00
         11   -1    0    0    0    0  0.00000000000E+00  0.00000000000E+00  0.39999999674E+01  0.40000000000E+01  0.51100000000E-03 0. -1.
    9000002   -1    0    0    0    0 -0.00000000000E+00 -0.00000000000E+00  0.00000000000E+00  0.93800000000E+00  0.93800000000E+00 0. -1.
         11    1    1    2    0    0  0.31236196772E-01  0.16593259338E-01  0.35941527647E+00  0.36115182171E+00  0.51100000000E-03 0. -1.
    9000002    1    1    2    0    0 -0.31370433734E+00 -0.19035661074E+00  0.90466322280E-01  0.10112735565E+01  0.93800000000E+00 0. -1.
         22    1    1    2    0    0  0.28246814057E+00  0.17376335140E+00  0.35501183686E+01  0.35655746218E+01  0.00000000000E+00 0. -1.
</event>
<event>
 5    1  0.7095115E+001  0.1596906E+01  0.7818608E-02  0.3356729E+00
         11   -1    0    0    0    0  0.00000000000E+00  0.00000000000E+00  0.39999999674E+01  0.40000000000E+01  0.51100000000E-03 0.  1.
    9000002   -1    0    0    0    0 -0.00000000000E+00 -0.00000000000E+00  0.00000000000E+00  0.93800000000E+00  0.93800000000E+00 0.  1.
         11    1    1    2    0    0  0.10825767525E+00 -0.29221739882E-01  0.65617653518E+00  0.66568877170E+00  0.51100000000E-03 0.  1.
    9000002    1    1    2    0    0 -0.42811433685E+00 -0.14910023900E-01  0.12660513478E+00  0.10389307265E+01  0.93800000000E+00 0.  1.
         22    1    1    2    0    0  0.31985666160E+00  0.44131763782E-01  0.32172182974E+01  0.32333805018E+01  0.00000000000E+00 0.  1.
</event>
<event>
 5    1  0.7095115E+001  0.1588429E+01  0.7818608E-02  0.3366019E+00
         11   -1    0    0    0    0  0.00000000000E+00  0.00000000000E+00  0.39999999674E+01  0.40000000000E+01  0.51100000000E-03 0. -1.
    9000002   -1    0    0    0    0 -0.00000000000E+00 -0.00000000000E+00  0.00000000000E+00  0.93800000000E+00  0.93800000000E+00 0.  1.
         11    1    1    2    0    0 -0.10726236692E-01 -0.59634697424E-01  0.13203522787E+01  0.13217419379E+01  0.51100000000E-03 0. -1.
    9000002    1    1    2    0    0  0.24303422634E+00 -0.11354673909E+00  0.56588536900E-01  0.97724344952E+00  0.93800000000E+00 0.  1.
         22    1    1    2    0    0 -0.23230798965E+00  0.17318143651E+00  0.26230591517E+01  0.26390146126E+01  0.00000000000E+00 0. -1.
</event>
<event>
 5    1  0.7518726E+001  0.1598730E+01  0.7818608E-02  0.3354743E+00
         11   -1    0    0    0    0  0.00000000000E+00  0.00000000000E+00  0.39999999674E+01  0.40000000000E+01  0.51100000000E-03 0. -1.
    9000002   -1    0    0    0    0 -0.00000000000E+00 -0.00000000000E+00  0.00000000000E+00  0.93800000000E+00  0.93800000000E+00 0.  1.
         11    1    1    2    0    0  0.10792418981E+00 -0.30776252993E-01  0.13540131133E+01  0.13586561672E+01  0.51100000000E-03 0. -1.
    9000002    1    1    2    0    0 -0.29512426549E+00  0.18951845381E+00  0.83253259153E-01  0.10048834169E+01  0.93800000000E+00 0.  1.
         22    1    1    2    0    0  0.18720007568E+00 -0.15874220082E+00  0.25627335949E+01  0.25744604159E+01  0.00000000000E+00 0. -1.
</event>
<event>
 5    1  0.7095115E+001  0.1595608E+01  0.7818608E-02  0.3358145E+00
         11   -1    0    0    0    0  0.00000000000E+00  0.00000000000E+00  0.39999999674E+01  0.40000000000E+01  0.51100000000E-03 0.  1.
    9000002   -1    0    0    0    0 -0.00000000000E+00 -0.00000000000E+00  0.00000000000E+00  0.93800000000E+00  0.93800000000E+00 0. -1.
         11    1    1    2    0    0 -0.24174241667E-01 -0.19926686254E-01  0.70552952757E+00  0.70622492322E+00  0.51100000000E-03 0.  1.
    9000002    1    1    2    0    0  0.21388203938E+00 -0.20788683977E+00  0.62527391228E-01  0.98626372719E+00  0.93800000000E+00 0. -1.
         22    1    1    2    0    0 -0.18970779771E+00  0.22781352603E+00  0.32319430486E+01  0.32455113496E+01  0.00000000000E+00 0.  1.
</event>
<event>
 5    1  0.7095115E+001  0.1598570E+01  0.7818608E-02  0.3354916E+00
         11   -1    0    0    0    0  0.00000000000E+00  0.00000000000E+00  0.39999999674E+01  0.40000000000E+01  0.51100000000E-03 0. -1.
    9000002   -1    0    0    0    0 -0.00000000000E+00 -0.00000000000E+00  0.00000000000E+00  0.93800000000E+00  0.93800000000E+00 0.  1.
         11    1    1    2    0    0 -0.92520173781E-01 -0.24209629817E-02  0.67393820022E+00  0.68026377418E+00  0.51100000000E-03 0. -1.
    9000002    1    1    2    0    0  0.46177439127E+00  0.17470483745E+00  0.16768286982E+00  0.10731816778E+01  0.93800000000E+00 0.  1.
         22    1    1    2    0    0 -0.36925421749E+00 -0.17228387447E+00  0.31583788973E+01  0.31845545481E+01  0.00000000000E+00 0. -1.
</event>
<event>
 5    1  0.7095115E+001  0.1599674E+01  0.7818608E-02  0.3353717E+00
         11   -1    0    0    0    0  0.00000000000E+00  0.00000000000E+00  0.39999999674E+01  0.40000000000E+01  0.51100000000E-03 0. -1.
    9000002   -1    0    0    0    0 -0.00000000000E+00 -0.00000000000E+00  0.00000000000E+00  0.93800000000E+00  0.93800000000E+00 0. -1.
         11    1    1    2    0    0 -0.51910248200E-01 -0.20139695067E+00  0.14091656438E+01  0.14244309314E+01  0.51100000000E-03 0. -1.
    9000002    1    1    2    0    0  0.13934576101E+00  0.54579916576E+00  0.21973530001E+00  0.11159935361E+01  0.93800000000E+00 0. -1.
         22    1    1    2    0    0 -0.87435512813E-01 -0.34440221509E+00  0.23710990236E+01  0.23975755325E+01  0.00000000000E+00 0. -1.
</event>
<event>
 5    1  0.7095115E+001  0.1556484E+01  0.7818608E-02  0.3401992E+00
         11   -1    0    0    0    0  0.00000000000E+00  0.00000000000E+00  0.39999999674E+01  0.40000000000E+01  0.51100000000E-03 0.  1.
    9000002   -1    0    0    0    0 -0.00000000000E+00 -0.00000000000E+00  0.00000000000E+00  0.93800000000E+00  0.93800000000E+00 0. -1.
         11    1    1    2    0    0  0.33448741214E-03 -0.15391120210E+00  0.48319660821E+00  0.50711733683E+00  0.51100000000E-03 0.  1.
    9000002    1    1    2    0    0 -0.46095606603E+00 -0.22095196160E-01  0.18356879537E+00  0.10613718458E+01  0.93800000000E+00 0. -1.
         22    1    1    2    0    0  0.46062157862E+00  0.17600639826E+00  0.33332345638E+01  0.33695108173E+01  0.00000000000E+00 0.  1.
</event>
<event>
 5    1  0.7095115E+001  0.1599676E+01  0.7818608E-02  0.3353715E+00
         11   -1    0    0    0    0  0.00000000000E+00  0.00000000000E+00  0.39999999674E+01  0.40000000000E+01  0.51100000000E-03 0. -1.
    9000002   -1    0    0    0    0 -0.00000000000E+00 -0.00000000000E+00  0.00000000000E+00  0.93800000000E+00  0.93800000000E+00 0.  1.
         11    1    1    2    0    0 -0.58247978125E-03  0.65309709035E-01  0.60411449002E+00  0.60763498546E+00  0.51100000000E-03 0. -1.
    9000002    1    1    2    0    0  0.39076375945E-02 -0.42363508534E+00  0.12144565210E+00  0.10363758978E+01  0.93800000000E+00 0.  1.
         22    1    1    2    0    0 -0.33251578133E-02  0.35832537631E+00  0.32744398252E+01  0.32939891167E+01  0.00000000000E+00 0. -1.
</event>
<event>
 5    1  0.7095115E+001  0.1599670E+01  0.7818608E-02  0.3353722E+00
         11   -1    0    0    0    0  0.00000000000E+00  0.00000000000E+00  0.39999999674E+01  0.40000000000E+01  0.51100000000E-03 0.  1.
    9000002   -1    0    0    0    0 -0.00000000000E+00 -0.00000000000E+00  0.00000000000E+00  0.93800000000E+00  0.93800000000E+00 0. -1.
         11    1    1    2    0    0  0.29809826995E-01  0.44960222889E-01  0.51184930701E+00  0.51468439031E+00  0.51100000000E-03 0.  1.
    9000002    1    1    2    0    0 -0.21420790239E+00 -0.35209251304E+00  0.11475771441E+00  0.10309546528E+01  0.93800000000E+00 0. -1.
         22    1    1    2    0    0  0.18439807539E+00  0.30713229015E+00  0.33733929459E+01  0.33923609569E+01  0.00000000000E+00 0.  1.
</event>
<event>
 5    1  0.7095115E+001  0.1510784E+01  0.7818608E-02  0.3456277E+00
         11   -1    0    0    0    0  0.00000000000E+00  0.00000000000E+00  0.39999999674E+01  0.40000000000E+01  0.51100000000E-03 0. -1.
    9000002   -1    0    0    0    0 -0.00000000000E+00 -0.00000000000E+00  0.00000000000E+00  0.93800000000E+00  0.93800000000E+00 0. -1.
         11    1    1    2    0    0  0.13107580963E+00  0.29272092352E+00  0.10611910322E+01  0.11085996008E+01  0.51100000000E-03 0. -1.
    9000002    1    1    2    0    0  0.24144578417E-01 -0.14602606578E-01  0.67899466984E-01  0.94087753422E+00  0.93800000000E+00 0. -1.
         22    1    1    2    0    0 -0.15522038805E+00 -0.27811831694E+00  0.28709094682E+01  0.28885228650E+01  0.00000000000E+00 0. -1.
</event>
<event>
 5    1  0.7095115E+001  0.1595431E+01  0.7818608E-02  0.3358337E+00
         11   -1    0    0    0    0  0.00000000000E+00  0.00000000000E+00  0.39999999674E+01  0.40000000000E+01  0.51100000000E-03 0. -1.
    9000002   -1    0    0    0    0 -0.00000000000E+00 -0.00000000000E+00  0.00000000000E+00  0.93800000000E+00  0.93800000000E+00 0. -1.
         11    1    1    2    0    0  0.12119456887E+00  0.65725170723E-02  0.98928876636E+00  0.99670649936E+00  0.51100000000E-03 0. -1.
    9000002    1    1    2    0    0 -0.30036676707E+00 -0.22818929811E+00  0.99193048911E-01  0.10158611182E+01  0.93800000000E+00 0. -1.
         22    1    1    2    0    0  0.17917219819E+00  0.22161678103E+00  0.29115181521E+01  0.29254323824E+01  0.00000000000E+00 0. -1.
</event>
<event>
 5    1  0.7095115E+001  0.1599677E+01  0.7818608E-02  0.3353714E+00
         11   -1    0    0    0    0  0.00000000000E+00  0.00000000000E+00  0.39999999674E+01  0.40000000000E+01  0.51100000000E-03 0.  1.
    9000002   -1    0    0    0    0 -0.00000000000E+00 -0.00000000000E+00  0.00000000000E+00  0.93800000000E+00  0.93800000000E+00 0.  1.
         11    1    1    2    0    0 -0.76316096076E-01 -0.49271908638E-01  0.97939905603E+00  0.98360288713E+00  0.51100000000E-03 0. -1.
    9000002    1    1    2    0    0  0.30440960985E+00  0.19574253778E+00  0.87941451930E-01  0.10092363701E+01  0.93800000000E+00 0.  1.
         22    1    1    2    0    0 -0.22809351378E+00 -0.14647062914E+00  0.29326594594E+01  0.29451607428E+01  0.00000000000E+00 0.  1.
</event>
<event>
 5    1  0.7095115E+001  0.1599628E+01  0.7818608E-02  0.3353767E+00
         11   -1    0    0    0    0  0.00000000000E+00  0.00000000000E+00  0.39999999674E+01  0.40000000000E+01  0.51100000000E-03 0.  1.
    9000002   -1    0    0    0    0 -0.00000000000E+00 -0.00000000000E+00  0.00000000000E+00  0.93800000000E+00  0.93800000000E+00 0.  1.
         11    1    1    2    0    0  0.11724677881E+00 -0.49083359714E-01  0.13371014966E+01  0.13431294267E+01  0.51100000000E-03 0.  1.
    9000002    1    1    2    0    0 -0.35181861382E+00  0.12209794570E+00  0.93267183434E-01  0.10135220831E+01  0.93800000000E+00 0.  1.
         22    1    1    2    0    0  0.23457183501E+00 -0.73014585991E-01  0.25696312873E+01  0.25813484903E+01  0.00000000000E+00 0.  1.
</event>
<event>
 5    1  0.7095115E+001  0.1599674E+01  0.7818608E-02  0.3353717E+00
         11   -1    0    0    0    0  0.00000000000E+00  0.00000000000E+00  0.39999999674E+01  0.40000000000E+01  0.51100000000E-03 0.  1.
    9000002   -1    0    0    0    0 -0.00000000000E+00 -0.00000000000E+00  0.00000000000E+00  0.93800000000E+00  0.93800000000E+00 0. -1.
         11    1    1    2    0    0 -0.39216552422E-01  0.20968579580E-01  0.40417130015E+00  0.40661077249E+00  0.51100000000E-03 0.  1.
    9000002    1    1    2    0    0  0.37478575986E+00 -0.19085294415E+00  0.11964258291E+00  0.10349142765E+01  0.93800000000E+00 0. -1.
         22    1    1    2    0    0 -0.33556920744E+00  0.16988436457E+00  0.34761860843E+01  0.34964749510E+01  0.00000000000E+00 0.  1.
</event>
<event>
 5    1  0.7095115E+001  0.1599665E+01  0.7818608E-02  0.3353727E+00
         11   -1    0    0    0    0  0.00000000000E+00  0.00000000000E+00  0.39999999674E+01  0.40000000000E+01  0.51100000000E-03 0. -1.
    9000002   -1    0    0    0    0 -0.00000000000E+00 -0.00000000000E+00  0.00000000000E+00  0.93800000000E+00  0.93800000000E+00 0. -1.
         11    1    1    2    0    0 -0.67340176099E-01  0.98584977839E-01  0.10909910928E+01  0.10975042245E+01  0.51100000000E-03 0. -1.
    9000002    1    1    2    0    0  0.23234791541E+00 -0.36151438461E+00  0.12507649963E+00  0.10393105093E+01  0.93800000000E+00 0. -1.
         22    1    1    2    0    0 -0.16500773931E+00  0.26292940677E+00  0.27839323749E+01  0.28011852661E+01  0.00000000000E+00 0. -1.
</event>
<event>
 5    1  0.7095115E+001  0.1588923E+01  0.7818608E-02  0.3365474E+00
         11   -1    0    0    0    0  0.00000000000E+00  0.00000000000E+00  0.39999999674E+01  0.40000000000E+01  0.51100000000E-03 0.  1.
    9000002   -1    0    0    0    0 -0.00000000000E+00 -0.00000000000E+00  0.00000000000E+00  0.93800000000E+00  0.93800000000E+00 0. -1.
         11    1    1    2    0    0  0.23459721989E-01 -0.34293937222E-01  0.20424828338E+00  0.20843237530E+00  0.51100000000E-03 0.  1.
    9000002    1    1    2    0    0  0.42322273759E+00  0.43863637187E-01  0.13170252066E+00  0.10383790533E+01  0.93800000000E+00 0. -1.
         22    1    1    2    0    0 -0.44668245958E+00 -0.95696999648E-02  0.36640491633E+01  0.36911885715E+01  0.00000000000E+00 0.  1.
</event>
<event>
 5    1  0.7095115E+001  0.1599445E+01  0.7818608E-02  0.3353967E+00
         11   -1    0    0    0    0  0.00000000000E+00  0.00000000000E+00  0.39999999674E+01  0.40000000000E+01  0.51100000000E-03 0.  1.
    9000002   -1    0    0    0    0 -0.00000000000E+00 -0.00000000000E+00  0.00000000000E+00  0.93800000000E+00  0.93800000000E+00 0. -1.
         11    1    1    2    0    0 -0.19396458078E-01 -0.16070131599E+00  0.13154074787E+01  0.13253294804E+01  0.51100000000E-03 0.  1.
    9000002    1    1    2    0    0  0.99705007341E-01  0.44360695170E+00  0.14070552406E+00  0.10518413666E+01  0.93800000000E+00 0. -1.
         22    1    1    2    0    0 -0.80308549262E-01 -0.28290563571E+00  0.25438869646E+01  0.25608291530E+01  0.00000000000E+00 0.  1.
</event>
<event>
 5    1  0.7095115E+001  0.1599669E+01  0.7818608E-02  0.3353722E+00
         11   -1    0    0    0    0  0.00000000000E+00  0.00000000000E+00  0.39999999674E+01  0.40000000000E+01  0.51100000000E-03 0.  1.
    9000002   -1    0    0    0    0 -0.00000000000E+00 -0.00000000000E+00  0.00000000000E+00  0.93800000000E+00  0.93800000000E+00 0. -1.
         11    1    1    2    0    0  0.29998435132E-01 -0.59181203811E-01  0.68872975770E+00  0.69191853658E+00  0.51100000000E-03 0.  1.
    9000002    1    1    2    0    0 -0.15794131421E+00  0.32908415045E+00  0.89497872058E-01  0.10104928035E+01  0.93800000000E+00 0. -1.
         22    1    1    2    0    0  0.12794287908E+00 -0.26990294664E+00  0.32217723376E+01  0.32355886599E+01  0.00000000000E+00 0.  1.
</event>
<event>
 5    1  0.7095115E+001  0.1599669E+01  0.7818608E-02  0.3353722E+00
         11   -1    0    0    0    0  0.00000000000E+00  0.00000000000E+00  0.39999999674E+01  0.40000000000E+01  0.51100000000E-03 0. -1.
    9000002   -1    0    0    0    0 -0.00000000000E+00 -0.00000000000E+00  0.00000000000E+00  0.93800000000E+00  0.93800000000E+00 0.  1.
         11    1    1    2    0    0 -0.16166028640E+00  0.29983295480E-01  0.13957392186E+01  0.14053900789E+01  0.51100000000E-03 0. -1.
    9000002    1    1    2    0    0  0.44764504781E+00 -0.91636684366E-01  0.14195524895E+00  0.10529855951E+01  0.93800000000E+00 0.  1.
         22    1    1    2    0    0 -0.28598476141E+00  0.61653388886E-01  0.24623054998E+01  0.24796243261E+01  0.00000000000E+00 0. -1.
</event>
<event>
 5    1  0.7095115E+001  0.1581284E+01  0.7818608E-02  0.3373931E+00
         11   -1    0    0    0    0  0.00000000000E+00  0.00000000000E+00  0.39999999674E+01  0.40000000000E+01  0.51100000000E-03 0.  1.
    9000002   -1    0    0    0    0 -0.00000000000E+00 -0.00000000000E+00  0.00000000000E+00  0.93800000000E+00  0.93800000000E+00 0. -1.
         11    1    1    2    0    0 -0.24374319009E+00 -0.10943811722E-01  0.13411160531E+01  0.13631298686E+01  0.51100000000E-03 0.  1.
    9000002    1    1    2    0    0  0.40522031195E+00 -0.30642349367E+00  0.19380610216E+00  0.10842064674E+01  0.93800000000E+00 0. -1.
         22    1    1    2    0    0 -0.16147712186E+00  0.31736730539E+00  0.24650778121E+01  0.24906636640E+01  0.00000000000E+00 0.  1.
</event>
<event>
 5    1  0.7095115E+001  0.1598883E+01  0.7818608E-02  0.3354577E+00
         11   -1    0    0    0    0  0.00000000000E+00  0.00000000000E+00  0.39999999674E+01  0.40000000000E+01  0.51100000000E-03 0. -1.
    9000002   -1    0    0    0    0 -0.00000000000E+00 -0.00000000000E+00  0.00000000000E+00  0.93800000000E+00  0.93800000000E+00 0. -1.
         11    1    1    2    0    0 -0.99389483587E-01  0.55794547638E-01  0.61504065332E+00  0.62551304331E+00  0.51100000000E-03 0. -1.
    9000002    1    1    2    0    0  0.47249799322E+00 -0.27580783448E+00  0.20737804714E+00  0.11055197735E+01  0.93800000000E+00 0. -1.
         22    1    1    2    0    0 -0.37310850963E+00  0.22001328684E+00  0.31775812669E+01  0.32069671832E+01  0.00000000000E+00 0. -1.
</event>
<event>
 5    1  0.7095115E+001  0.1599674E+01  0.7818608E-02  0.3353717E+00
         11   -1    0    0    0    0  0.00000000000E+00  0.00000000000E+00  0.39999999674E+01  0.40000000000E+01  0.51100000000E-03 0.  1.
    9000002   -1    0    0    0    0 -0.00000000000E+00 -0.00000000000E+00  0.00000000000E+00  0.93800000000E+00  0.93800000000E+00 0. -1.
         11    1    1    2    0    0  0.14619175511E+00 -0.13485843255E+00  0.12814963347E+01  0.12968392125E+01  0.51100000000E-03 0.  1.
    9000002    1    1    2    0    0 -0.43435495424E+00  0.39386244836E+00  0.23917762044E+00  0.11317428103E+01  0.93800000000E+00 0. -1.
         22    1    1    2    0    0  0.28816319914E+00 -0.25900401581E+00  0.24793260122E+01  0.25094179772E+01  0.00000000000E+00 0.  1.
</event>
<event>
 5    1  0.7095115E+001  0.1599589E+01  0.7818608E-02  0.3353810E+00
         11   -1    0    0    0    0  0.00000000000E+00  0.00000000000E+00  0.39999999674E+01  0.40000000000E+01  0.51100000000E-03 0. -1.
    9000002   -1    0    0    0    0 -0.00000000000E+00 -0.00000000000E+00  0.00000000000E+00  0.93800000000E+00  0.93800000000E+00 0.  1.
         11    1    1    2    0    0 -0.40419085471E-02 -0.55643514122E-01  0.57251546744E+00  0.57522757172E+00  0.51100000000E-03 0. -1.
    9000002    1    1    2    0    0  0.57966856362E-01  0.42187616985E+00  0.12281367755E+00  0.10374328212E+01  0.93800000000E+00 0.  1.
         22    1    1    2    0    0 -0.53924947815E-01 -0.36623265573E+00  0.33046708224E+01  0.33253396071E+01  0.00000000000E+00 0. -1.
</event>
<event>
 5    1  0.7095115E+001  0.1593526E+01  0.7818608E-02  0.3360421E+00
         11   -1    0    0    0    0  0.00000000000E+00  0.00000000000E+00  0.39999999674E+01  0.40000000000E+01  0.51100000000E-03 0.  1.
    9000002   -1    0    0    0    0 -0.00000000000E+00 -0.00000000000E+00  0.00000000000E+00  0.93800000000E+00  0.93800000000E+00 0.  1.
         11    1    1    2    0    0  0.13743757119E+00 -0.70847482349E-01  0.77950686071E+00  0.79469469530E+00  0.51100000000E-03 0.  1.
    9000002    1    1    2    0    0 -0.30329196515E+00  0.32801431420E+00  0.14080462345E+00  0.10484509280E+01  0.93800000000E+00 0.  1.
         22    1    1    2    0    0  0.16585439395E+00 -0.25716683185E+00  0.30796884832E+01  0.30948543767E+01  0.00000000000E+00 0.  1.
</event>
<event>
 5    1  0.7095115E+001  0.1599675E+01  0.7818608E-02  0.3353716E+00
         11   -1    0    0    0    0  0.00000000000E+00  0.00000000000E+00  0.39999999674E+01  0.40000000000E+01  0.51100000000E-03 0. -1.
    9000002   -1    0    0    0    0 -0.00000000000E+00 -0.00000000000E+00  0.00000000000E+00  0.93800000000E+00  0.93800000000E+00 0. -1.
         11    1    1    2    0    0  0.15000487194E+00 -0.21355718371E-01  0.13812881870E+01  0.13895736199E+01  0.51100000000E-03 0. -1.
    9000002    1    1    2    0    0 -0.41754722001E+00  0.61503884504E-01  0.12050404645E+00  0.10356126853E+01  0.93800000000E+00 0. -1.
         22    1    1    2    0    0  0.26754234807E+00 -0.40148166134E-01  0.24982077339E+01  0.25128136948E+01  0.00000000000E+00 0. -1.
</event>
<event>
 5    1  0.7095115E+001  0.1599677E+01  0.7818608E-02  0.3353714E+00
         11   -1    0    0    0    0  0.00000000000E+00  0.00000000000E+00  0.39999999674E+01  0.40000000000E+01  0.51100000000E-03 0.  1.
    9000002   -1    0    0    0    0 -0.00000000000E+00 -0.00000000000E+00  0.00000000000E+00  0.93800000000E+00  0.93800000000E+00 0. -1.
         11    1    1    2    0    0 -0.10232742504E-01 -0.10546253226E+00  0.96455523204E+00  0.97035772348E+00  0.51100000000E-03 0.  1.
    9000002    1    1    2    0    0  0.41383524370E-01  0.42287377742E+00  0.12217838262E+00  0.10369698091E+01  0.93800000000E+00 0. -1.
         22    1    1    2    0    0 -0.31150781865E-01 -0.31741124516E+00  0.29132663527E+01  0.29306724675E+01  0.00000000000E+00 0.  1.
</event>
<event>
 5    1  0.7095115E+001  0.1591358E+01  0.7818608E-02  0.3362797E+00
         11   -1    0    0    0    0  0.00000000000E+00  0.00000000000E+00  0.39999999674E+01  0.40000000000E+01  0.51100000000E-03 0.  1.
    9000002   -1    0    0    0    0 -0.00000000000E+00 -0.00000000000E+00  0.00000000000E+00  0.93800000000E+00  0.93800000000E+00 0. -1.
         11    1    1    2    0    0 -0.29993843621E-01  0.11637734895E-01  0.24947565131E+00  0.25154210233E+00  0.51100000000E-03 0.  1.
    9000002    1    1    2    0    0 -0.32321308204E+00  0.95961309504E-01  0.82791847601E-01  0.10001868622E+01  0.93800000000E+00 0. -1.
         22    1    1    2    0    0  0.35320692566E+00 -0.10759904440E+00  0.36677324684E+01  0.36862710354E+01  0.00000000000E+00 0.  1.
</event>
<event>
 5    1  0.7095115E+001  0.1599218E+01  0.7818608E-02  0.3354213E+00
         11   -1    0    0    0    0  0.00000000000E+00  0.00000000000E+00  0.39999999674E+01  0.40000000000E+01  0.51100000000E-03 0.  1.
    9000002   -1    0    0    0    0 -0.00000000000E+00 -0.00000000000E+00  0.00000000000E+00  0.93800000000E+00  0.93800000000E+00 0. -1.
         11    1    1    2    0    0  0.60928952642E-01  0.43585396973E-01  0.57799402416E+00  0.58282877175E+00  0.51100000000E-03 0.  1.
    9000002    1    1    2    0    0 -0.33272060101E+00 -0.19746519455E+00  0.10118496673E+00  0.10196950029E+01  0.93800000000E+00 0. -1.
         22    1    1    2    0    0  0.27179164837E+00  0.15387979757E+00  0.33208209765E+01  0.33354762254E+01  0.00000000000E+00 0.  1.
</event>
<event>
 5    1  0.7095115E+001  0.1599558E+01  0.7818608E-02  0.3353843E+00
         11   -1    0    0    0    0  0.00000000000E+00  0.00000000000E+00  0.39999999674E+01  0.40000000000E+01  0.51100000000E-03 0. -1.
    9000002   -1    0    0    0    0 -0.00000000000E+00 -0.00000000000E+00  0.00000000000E+00  0.93800000000E+00  0.93800000000E+00 0.  1.
         11    1    1    2    0    0 -0.59614276753E-01 -0.70084636660E-02  0.71125383121E+00  0.71378235765E+00  0.51100000000E-03 0. -1.
    9000002    1    1    2    0    0  0.35871403881E+00 -0.79451517642E-02  0.86502101641E-01  0.10080007444E+01  0.93800000000E+00 0.  1.
         22    1    1    2    0    0 -0.29909976206E+00  0.14953615430E-01  0.32022440345E+01  0.32162168980E+01  0.00000000000E+00 0. -1.
</event>
<event>
 5    1  0.7095115E+001  0.1588374E+01  0.7818608E-02  0.3366080E+00
         11   -1    0    0    0    0  0.00000000000E+00  0.00000000000E+00  0.39999999674E+01  0.40000000000E+01  0.51100000000E-03 0. -1.
    9000002   -1    0    0    0    0 -0.00000000000E+00 -0.00000000000E+00  0.00000000000E+00  0.93800000000E+00  0.93800000000E+00 0.  1.
         11    1    1    2    0    0  0.12027193828E-01  0.11799695728E+00  0.13250891239E+01  0.13303869297E+01  0.51100000000E-03 0. -1.
    9000002    1    1    2    0    0 -0.29808917939E+00 -0.10545514648E+00  0.75778460061E-01  0.99275592257E+00  0.93800000000E+00 0.  1.
         22    1    1    2    0    0  0.28606198556E+00 -0.12541810802E-01  0.25991323833E+01  0.26148571477E+01  0.00000000000E+00 0. -1.
</event>
<event>
 5    1  0.7095115E+001  0.1580987E+01  0.7818608E-02  0.3374261E+00
         11   -1    0    0    0    0  0.00000000000E+00  0.00000000000E+00  0.39999999674E+01  0.40000000000E+01  0.51100000000E-03 0. -1.
    9000002   -1    0    0    0    0 -0.00000000000E+00 -0.00000000000E+00  0.00000000000E+00  0.93800000000E+00  0.93800000000E+00 0. -1.
         11    1    1    2    0    0  0.41933264800E-01  0.23978802902E+00  0.10609711521E+01  0.10885388116E+01  0.51100000000E-03 0. -1.
    9000002    1    1    2    0    0  0.13684806731E+00 -0.41803001058E+00  0.14740520281E+00  0.10464457832E+01  0.93800000000E+00 0. -1.
         22    1    1    2    0    0 -0.17878133211E+00  0.17824198156E+00  0.27916236124E+01  0.28030154053E+01  0.00000000000E+00 0. -1.
</event>
<event>
 5    1  0.7095115E+001  0.1599671E+01  0.7818608E-02  0.3353720E+00
         11   -1    0    0    0    0  0.00000000000E+00  0.00000000000E+00  0.39999999674E+01  0.40000000000E+01  0.51100000000E-03 0. -1.
    9000002   -1    0    0    0    0 -0.00000000000E+00 -0.00000000000E+00  0.00000000000E+00  0.93800000000E+00  0.93800000000E+00 0. -1.
         11    1    1    2    0    0 -0.10887965674E+00 -0.11363535096E+00  0.87385269956E+00  0.88791135497E+00  0.51100000000E-03 0. -1.
    9000002    1    1    2    0    0  0.45825767141E+00  0.47050141580E+00  0.30490288515E+00  0.11849816222E+01  0.93800000000E+00 0. -1.
         22    1    1    2    0    0 -0.34937801467E+00 -0.35686606484E+00  0.28212443827E+01  0.28651070228E+01  0.00000000000E+00 0. -1.
</event>
<event>
 5    1  0.7095115E+001  0.1541464E+01  0.7818608E-02  0.3419454E+00
         11   -1    0    0    0    0  0.00000000000E+00  0.00000000000E+00  0.39999999674E+01  0.40000000000E+01  0.51100000000E-03 0. -1.
    9000002   -1    0    0    0    0 -0.00000000000E+00 -0.00000000000E+00  0.00000000000E+00  0.93800000000E+00  0.93800000000E+00 0.  1.
         11    1    1    2    0    0  0.54197379103E-01  0.25144496736E+00  0.13238382719E+01  0.13485955505E+01  0.51100000000E-03 0. -1.
    9000002    1    1    2    0    0  0.10573671190E+00  0.23184376598E-01  0.51560480662E-01  0.94563219633E+00  0.93800000000E+00 0.  1.
         22    1    1    2    0    0 -0.15993409100E+00 -0.27462934396E+00  0.26246012148E+01  0.26437722532E+01  0.00000000000E+00 0. -1.
</event>
<event>
 5    1  0.7095115E+001  0.1598524E+01  0.7818608E-02  0.3354967E+00
         11   -1    0    0    0    0  0.00000000000E+00  0.00000000000E+00  0.39999999674E+01  0.40000000000E+01  0.51100000000E-03 0.  1.
    9000002   -1    0    0    0    0 -0.00000000000E+00 -0.00000000000E+00  0.00000000000E+00  0.93800000000E+00  0.93800000000E+00 0.  1.
         11    1    1    2    0    0  0.67729470250E-01  0.11071499543E+00  0.11705659277E+01  0.11777393360E+01  0.51100000000E-03 0.  1.
    9000002    1    1    2    0    0 -0.27432086000E+00 -0.25408441330E+00  0.94944864694E-01  0.10142333808E+01  0.93800000000E+00 0.  1.
         22    1    1    2    0    0  0.20659138975E+00  0.14336941787E+00  0.27344891750E+01  0.27460272832E+01  0.00000000000E+00 0.  1.
</event>
<event>
 5    1  0.7095115E+001  0.1599677E+01  0.7818608E-02  0.3353714E+00
         11   -1    0    0    0    0  0.00000000000E+00  0.00000000000E+00  0.39999999674E+01  0.40000000000E+01  0.51100000000E-03 0.  1.
    9000002   -1    0    0    0    0 -0.00000000000E+00 -0.00000000000E+00  0.00000000000E+00  0.93800000000E+00  0.93800000000E+00 0.  1.
         11    1    1    2    0    0  0.12884049417E+00 -0.61636054975E-01  0.13914960968E+01  0.13988068218E+01  0.51100000000E-03 0.  1.
    9000002    1    1    2    0    0 -0.35930982400E+00  0.17283418945E+00  0.10721444964E+00  0.10248483521E+01  0.93800000000E+00 0.  1.
         22    1    1    2    0    0  0.23046932983E+00 -0.11119813448E+00  0.25012894209E+01  0.25143448260E+01  0.00000000000E+00 0.  1.
</event>
<event>
 5    1  0.7095115E+001  0.1595910E+01  0.7818608E-02  0.3357815E+00
         11   -1    0    0    0    0  0.00000000000E+00  0.00000000000E+00  0.39999999674E+01  0.40000000000E+01  0.51100000000E-03 0.  1.
    9000002   -1    0    0    0    0 -0.00000000000E+00 -0.00000000000E+00  0.00000000000E+00  0.93800000000E+00  0.93800000000E+00 0. -1.
         11    1    1    2    0    0 -0.29884821133E-01 -0.21056269512E+00  0.13664902498E+01  0.13829409296E+01  0.51100000000E-03 0.  1.
    9000002    1    1    2    0    0  0.23422294944E+00  0.45962211053E+00  0.18611484256E+00  0.10865521659E+01  0.93800000000E+00 0. -1.
         22    1    1    2    0    0 -0.20433812831E+00 -0.24905941541E+00  0.24473948750E+01  0.24685069045E+01  0.00000000000E+00 0.  1.
</event>
<event>
 5    1  0.7095115E+001  0.1579423E+01  0.7818608E-02  0.3376004E+00
         11   -1    0    0    0    0  0.00000000000E+00  0.00000000000E+00  0.39999999674E+01  0.40000000000E+01  0.51100000000E-03 0. -1.
    9000002   -1    0    0    0    0 -0.00000000000E+00 -0.00000000000E+00  0.00000000000E+00  0.93800000000E+00  0.93800000000E+00 0. -1.
         11    1    1    2    0    0 -0.17699817101E+00 -0.29150354021E-01  0.74914696895E+00  0.77032430696E+00  0.51100000000E-03 0. -1.
    9000002    1    1    2    0    0  0.27300525482E+00  0.45025944463E+00  0.20961826858E+00  0.10959239276E+01  0.93800000000E+00 0. -1.
         22    1    1    2    0    0 -0.96007083803E-01 -0.42110909061E+00  0.30412347298E+01  0.30717517654E+01  0.00000000000E+00 0. -1.
</event>
<event>
 5    1  0.7095115E+001  0.1599655E+01  0.7818608E-02  0.3353738E+00
         11   -1    0    0    0    0  0.00000000000E+00  0.00000000000E+00  0.39999999674E+01  0.40000000000E+01  0.51100000000E-03 0.  1.
    9000002   -1    0    0    0    0 -0.00000000000E+00 -0.00000000000E+00  0.00000000000E+00  0.93800000000E+00  0.93800000000E+00 0. -1.
         11    1    1    2    0    0 -0.16886630788E+00  0.57917549054E-01  0.12595180160E+01  0.12721069790E+01  0.51100000000E-03 0.  1.
    9000002    1    1    2    0    0  0.50061256938E+00 -0.16260300439E+00  0.19054781116E+00  0.10923393017E+01  0.93800000000E+00 0. -1.
         22    1    1    2    0    0 -0.33174626149E+00  0.10468545533E+00  0.25499341402E+01  0.25735537193E+01  0.00000000000E+00 0.  1.
</event>
<event>
 5    1  0.7095115E+001  0.1592509E+01  0.7818608E-02  0.3361535E+00
         11   -1    0    0    0    0  0.00000000000E+00  0.00000000000E+00  0.39999999674E+01  0.40000000000E+01  0.51100000000E-03 0.  1.
    9000002   -1    0    0    0    0 -0.00000000000E+00 -0.00000000000E+00  0.00000000000E+00  0.93800000000E+00  0.93800000000E+00 0. -1.
         11    1    1    2    0    0 -0.24576867590E-01  0.47652760972E-02  0.94724027942E+00  0.94757117851E+00  0.51100000000E-03 0.  1.
    9000002    1    1    2    0    0 -0.16829582177E+00  0.22150158787E+00  0.57094841996E-01  0.98004604894E+00  0.93800000000E+00 0. -1.
         22    1    1    2    0    0  0.19287268936E+00 -0.22626686397E+00  0.29956648459E+01  0.30103827725E+01  0.00000000000E+00 0.  1.
</event>
<event>
 5    1  0.7095115E+001  0.1593046E+01  0.7818608E-02  0.3360946E+00
         11   -1    0    0    0    0  0.00000000000E+00  0.00000000000E+00  0.39999999674E+01  0.40000000000E+01  0.51100000000E-03 0.  1.
    9000002   -1    0    0    0    0 -0.00000000000E+00 -0.00000000000E+00  0.00000000000E+00  0.93800000000E+00  0.93800000000E+00 0. -1.
         11    1    1    2    0    0  0.65503797073E-01  0.95099307184E-01  0.80370207757E+00  0.81195561225E+00  0.51100000000E-03 0.  1.
    9000002    1    1    2    0    0  0.63754229465E-01 -0.40651120253E+00  0.11996165320E+00  0.10312859728E+01  0.93800000000E+00 0. -1.
         22    1    1    2    0    0 -0.12925802654E+00  0.31141189535E+00  0.30763362366E+01  0.30947584149E+01  0.00000000000E+00 0.  1.
</event>
<event>
 5    1  0.7095115E+001  0.1589667E+01  0.7818608E-02  0.3364656E+00
         11   -1    0    0    0    0  0.00000000000E+00  0.00000000000E+00  0.39999999674E+01  0.40000000000E+01  0.51100000000E-03 0.  1.
    9000002   -1    0    0    0    0 -0.00000000000E+00 -0.00000000000E+00  0.00000000000E+00  0.93800000000E+00  0.93800000000E+00 0.  1.
         11    1    1    2    0    0  0.22000568509E-01  0.59656244843E-03  0.12811030541E+00  0.12998804704E+00  0.51100000000E-03 0.  1.
    9000002    1    1    2    0    0  0.57085531285E+00  0.38236890964E+00  0.34734821645E+00  0.12134976534E+01  0.93800000000E+00 0. -1.
         22    1    1    2    0    0 -0.59285588135E+00 -0.38296547209E+00  0.35245414455E+01  0.35945142996E+01  0.00000000000E+00 0.  1.
</event>
<event>
 5    1  0.7095115E+001  0.1599672E+01  0.7818608E-02  0.3353719E+00
         11   -1    0    0    0    0  0.00000000000E+00  0.00000000000E+00  0.39999999674E+01  0.40000000000E+01  0.51100000000E-03 0. -1.
    9000002   -1    0    0    0    0 -0.00000000000E+00 -0.00000000000E+00  0.00000000000E+00  0.93800000000E+00  0.93800000000E+00 0.  1.
         11    1    1    2    0    0 -0.41436174475E-01  0.59245769115E-01  0.53993177423E+00  0.54475095196E+00  0.51100000000E-03 0. -1.
    9000002    1    1    2    0    0  0.28172267644E+00 -0.41485388411E+00  0.17219334798E+00  0.10774813041E+01  0.93800000000E+00 0.  1.
         22    1    1    2    0    0 -0.24028650196E+00  0.35560811499E+00  0.32878748451E+01  0.33157677440E+01  0.00000000000E+00 0. -1.
</event>
<event>
 5    1  0.7095115E+001  0.1598212E+01  0.7818608E-02  0.3355306E+00
         11   -1    0    0    0    0  0.00000000000E+00  0.00000000000E+00  0.39999999674E+01  0.40000000000E+01  0.51100000000E-03 0. -1.
    9000002   -1    0    0    0    0 -0.00000000000E+00 -0.00000000000E+00  0.00000000000E+00  0.93800000000E+00  0.93800000000E+00 0. -1.
         11    1    1    2    0    0  0.13569501607E+00  0.65488316492E-01  0.11876744986E+01  0.11971937323E+01  0.51100000000E-03 0. -1.
    9000002    1    1    2    0    0 -0.33578545218E+00 -0.30244055968E+00  0.14001188146E+00  0.10505567519E+01  0.93800000000E+00 0. -1.
         22    1    1    2    0    0  0.20009043611E+00  0.23695224319E+00  0.26723135873E+01  0.26902495158E+01  0.00000000000E+00 0. -1.
</event>
<event>
 5    1  0.8918131E+001  0.1599079E+01  0.7818608E-02  0.3354363E+00
         11   -1    0    0    0    0  0.00000000000E+00  0.00000000000E+00  0.39999999674E+01  0.40000000000E+01  0.51100000000E-03 0.  1.
    9000002   -1    0    0    0    0 -0.00000000000E+00 -0.00000000000E+00  0.00000000000E+00  0.93800000000E+00  0.93800000000E+00 0.  1.
         11    1    1    2    0    0 -0.94676541790E-01 -0.59195928112E-01  0.14579617357E+01  0.14622313392E+01  0.51100000000E-03 0.  1.
    9000002    1    1    2    0    0  0.25896614169E+00  0.23545903108E+00  0.82621865984E-01  0.10045769212E+01  0.93800000000E+00 0.  1.
         22    1    1    2    0    0 -0.16428959990E+00 -0.17626310297E+00  0.24594163656E+01  0.24711917396E+01  0.00000000000E+00 0.  1.
</event>
<event>
 5    1  0.7095115E+001  0.1546564E+01  0.7818608E-02  0.3413485E+00
         11   -1    0    0    0    0  0.00000000000E+00  0.00000000000E+00  0.39999999674E+01  0.40000000000E+01  0.51100000000E-03 0. -1.
    9000002   -1    0    0    0    0 -0.00000000000E+00 -0.00000000000E+00  0.00000000000E+00  0.93800000000E+00  0.93800000000E+00 0. -1.
         11    1    1    2    0    0 -0.22417382757E+00  0.29656359156E-02  0.92849460197E+00  0.95517809176E+00  0.51100000000E-03 0. -1.
    9000002    1    1    2    0    0 -0.48138741140E-01 -0.54522522504E-01  0.43143492159E-01  0.94180433465E+00  0.93800000000E+00 0. -1.
         22    1    1    2    0    0  0.27231256871E+00  0.51556886588E-01  0.30283618732E+01  0.30410175736E+01  0.00000000000E+00 0. -1.
</event>
<event>
 5    1  0.7095115E+001  0.1599672E+01  0.7818608E-02  0.3353720E+00
         11   -1    0    0    0    0  0.00000000000E+00  0.00000000000E+00  0.39999999674E+01  0.40000000000E+01  0.51100000000E-03 0. -1.
    9000002   -1    0    0    0    0 -0.00000000000E+00 -0.00000000000E+00  0.00000000000E+00  0.93800000000E+00  0.93800000000E+00 0. -1.
         11    1    1    2    0    0  0.46053535734E-01 -0.11416852729E+00  0.66292407902E+00  0.67425809334E+00  0.51100000000E-03 0. -1.
    9000002    1    1    2    0    0 -0.25813862387E+00  0.62195513583E+00  0.32184248308E+00  0.11987036014E+01  0.93800000000E+00 0. -1.
         22    1    1    2    0    0  0.21208508813E+00 -0.50778660854E+00  0.30152334053E+01  0.30650383053E+01  0.00000000000E+00 0. -1.
</event>
<event>
 5    1  0.7095115E+001  0.1594984E+01  0.7818608E-02  0.3358826E+00
         11   -1    0    0    0    0  0.00000000000E+00  0.00000000000E+00  0.39999999674E+01  0.40000000000E+01  0.51100000000E-03 0. -1.
    9000002   -1    0    0    0    0 -0.00000000000E+00 -0.00000000000E+00  0.00000000000E+00  0.93800000000E+00  0.93800000000E+00 0.  1.
         11    1    1    2    0    0  0.18897348914E-01 -0.84127377614E-01  0.48939717147E+00  0.49693498370E+00  0.51100000000E-03 0. -1.
    9000002    1    1    2    0    0  0.18710331825E+00  0.39038270684E+00  0.13098074539E+00  0.10413482920E+01  0.93800000000E+00 0.  1.
         22    1    1    2    0    0 -0.20600066716E+00 -0.30625532922E+00  0.33796220505E+01  0.33997167243E+01  0.00000000000E+00 0. -1.
</event>
<event>
 5    1  0.7095115E+001  0.1599520E+01  0.7818608E-02  0.3353884E+00
         11   -1    0    0    0    0  0.00000000000E+00  0.00000000000E+00  0.39999999674E+01  0.40000000000E+01  0.51100000000E-03 0.  1.
    9000002   -1    0    0    0    0 -0.00000000000E+00 -0.00000000000E+00  0.00000000000E+00  0.93800000000E+00  0.93800000000E+00 0. -1.
         11    1    1    2    0    0  0.74626447230E-01  0.70747686335E-02  0.61369496095E+00  0.61825635880E+00  0.51100000000E-03 0.  1.
    9000002    1    1    2    0    0 -0.51650145084E+00 -0.88257555607E-01  0.18887976118E+00  0.10909091204E+01  0.93800000000E+00 0. -1.
         22    1    1    2    0    0  0.44187500361E+00  0.81182786974E-01  0.31974252452E+01  0.32288345208E+01  0.00000000000E+00 0.  1.
</event>
<event>
 5    1  0.7095115E+001  0.1599672E+01  0.7818608E-02  0.3353720E+00
         11   -1    0    0    0    0  0.00000000000E+00  0.00000000000E+00  0.39999999674E+01  0.40000000000E+01  0.51100000000E-03 0.  1.
    9000002   -1    0    0    0    0 -0.00000000000E+00 -0.00000000000E+00  0.00000000000E+00  0.93800000000E+00  0.93800000000E+00 0.  1.
         11    1    1    2    0    0  0.25702024631E+00  0.67835232084E-01  0.11390323495E+01  0.11696392521E+01  0.51100000000E-03 0.  1.
    9000002    1    1    2    0    0 -0.79477353862E+00 -0.20224269722E+00  0.49890363012E+00  0.13421311107E+01  0.93800000000E+00 0.  1.
         22    1    1    2    0    0  0.53775329231E+00  0.13440746513E+00  0.23620639878E+01  0.24262296372E+01  0.00000000000E+00 0.  1.
</event>
<event>
 5    1  0.7095115E+001  0.1599667E+01  0.7818608E-02  0.3353725E+00
         11   -1    0    0    0    0  0.00000000000E+00  0.00000000000E+00  0.39999999674E+01  0.40000000000E+01  0.51100000000E-03 0.  1.
    9000002   -1    0    0    0    0 -0.00000000000E+00 -0.00000000000E+00  0.00000000000E+00  0.93800000000E+00  0.93800000000E+00 0.  1.
         11    1    1    2    0    0  0.84957940414E-01  0.35639526426E-01  0.92862149153E+00  0.93318067015E+00  0.51100000000E-03 0.  1.
    9000002    1    1    2    0    0 -0.34424366052E+00 -0.15453900932E+00  0.95780715500E-01  0.10155805968E+01  0.93800000000E+00 0.  1.
         22    1    1    2    0    0  0.25928572011E+00  0.11889948289E+00  0.29755977603E+01  0.29892387330E+01  0.00000000000E+00 0.  1.
</event>
<event>
 5    1  0.7095115E+001  0.1469269E+01  0.7818608E-02  0.3508744E+00
         11   -1    0    0    0    0  0.00000000000E+00  0.00000000000E+00  0.39999999674E+01  0.40000000000E+01  0.51100000000E-03 0.  1.
    9000002   -1    0    0    0    0 -0.00000000000E+00 -0.00000000000E+00  0.00000000000E+00  0.93800000000E+00  0.93800000000E+00 0.  1.
         11    1    1    2    0    0 -0.15276242784E+00 -0.34833591867E+00  0.81460885739E+00  0.89903399449E+00  0.51100000000E-03 0.  1.
    9000002    1    1    2    0    0 -0.53333628827E-01  0.13525120620E+00  0.11711015995E+00  0.95639748761E+00  0.93800000000E+00 0.  1.
         22    1    1    2    0    0  0.20609605667E+00  0.21308471247E+00  0.30682809500E+01  0.30825685179E+01  0.00000000000E+00 0.  1.
</event>
<event>
 5    1  0.7095115E+001  0.1579120E+01  0.7818608E-02  0.3376342E+00
         11   -1    0    0    0    0  0.00000000000E+00  0.00000000000E+00  0.39999999674E+01  0.40000000000E+01  0.51100000000E-03 0.  1.
    9000002   -1    0    0    0    0 -0.00000000000E+00 -0.00000000000E+00  0.00000000000E+00  0.93800000000E+00  0.93800000000E+00 0.  1.
         11    1    1    2    0    0 -0.31686999191E-01  0.50417501803E-01  0.12500492261E+01  0.12514668670E+01  0.51100000000E-03 0.  1.
    9000002    1    1    2    0    0 -0.38690531817E+00 -0.30084457920E-01  0.11859410773E+00  0.10220124081E+01  0.93800000000E+00 0.  1.
         22    1    1    2    0    0  0.41859231736E+00 -0.20333043883E-01  0.26313566335E+01  0.26645207249E+01  0.00000000000E+00 0.  1.
</event>
<event>
 5    1  0.7095115E+001  0.1599677E+01  0.7818608E-02  0.3353715E+00
         11   -1    0    0    0    0  0.00000000000E+00  0.00000000000E+00  0.39999999674E+01  0.40000000000E+01  0.51100000000E-03 0.  1.
    9000002   -1    0    0    0    0 -0.00000000000E+00 -0.00000000000E+00  0.00000000000E+00  0.93800000000E+00  0.93800000000E+00 0.  1.
         11    1    1    2    0    0  0.10769717883E+00  0.84777726848E-01  0.12594071887E+01  0.12668435868E+01  0.51100000000E-03 0. -1.
    9000002    1    1    2    0    0 -0.33401479606E+00 -0.26148731533E+00  0.12176544040E+00  0.10366350961E+01  0.93800000000E+00 0.  1.
         22    1    1    2    0    0  0.22631761724E+00  0.17670958848E+00  0.26188273383E+01  0.26345213171E+01  0.00000000000E+00 0.  1.
</event>
<event>
 5    1  0.7095115E+001  0.1599179E+01  0.7818608E-02  0.3354255E+00
         11   -1    0    0    0    0  0.00000000000E+00  0.00000000000E+00  0.39999999674E+01  0.40000000000E+01  0.51100000000E-03 0. -1.
    9000002   -1    0    0    0    0 -0.00000000000E+00 -0.00000000000E+00  0.00000000000E+00  0.93800000000E+00  0.93800000000E+00 0.  1.
         11    1    1    2    0    0 -0.17308662389E-01  0.12634910800E-01  0.18682100485E+00  0.18804674881E+00  0.51100000000E-03 0. -1.
    9000002    1    1    2    0    0  0.53153699843E+00 -0.10322189805E+00  0.20264627617E+00  0.11018601791E+01  0.93800000000E+00 0.  1.
         22    1    1    2    0    0 -0.51422833604E+00  0.90586987255E-01  0.36105326863E+01  0.36480930721E+01  0.00000000000E+00 0. -1.
</event>
<event>
 5    1  0.7095115E+001  0.1599670E+01  0.7818608E-02  0.3353722E+00
         11   -1    0    0    0    0  0.00000000000E+00  0.00000000000E+00  0.39999999674E+01  0.40000000000E+01  0.51100000000E-03 0. -1.
    9000002   -1    0    0    0    0 -0.00000000000E+00 -0.00000000000E+00  0.00000000000E+00  0.93800000000E+00  0.93800000000E+00 0.  1.
         11    1    1    2    0    0 -0.51284018447E-01  0.87841016075E-01  0.11064578939E+01  0.11111234975E+01  0.51100000000E-03 0. -1.
    9000002    1    1    2    0    0  0.17298055342E+00 -0.31654780718E+00  0.87360920559E-01  0.10087619722E+01  0.93800000000E+00 0.  1.
         22    1    1    2    0    0 -0.12169653497E+00  0.22870679111E+00  0.28061811529E+01  0.28181145303E+01  0.00000000000E+00 0. -1.
</event>
<event>
 5    1  0.7095115E+001  0.1599613E+01  0.7818608E-02  0.3353783E+00
         11   -1    0    0    0    0  0.00000000000E+00  0.00000000000E+00  0.39999999674E+01  0.40000000000E+01  0.51100000000E-03 0.  1.
    9000002   -1    0    0    0    0 -0.00000000000E+00 -0.00000000000E+00  0.00000000000E+00  0.93800000000E+00  0.93800000000E+00 0.  1.
         11    1    1    2    0    0  0.47838908484E-04  0.68813536186E-01  0.71047161523E+00  0.71379652719E+00  0.51100000000E-03 0.  1.
    9000002    1    1    2    0    0  0.39969101391E-01 -0.37167506219E+00  0.94005228052E-01  0.10141108735E+01  0.93800000000E+00 0.  1.
         22    1    1    2    0    0 -0.40016940300E-01  0.30286152601E+00  0.31955231241E+01  0.32100925993E+01  0.00000000000E+00 0.  1.
</event>
<event>
 5    1  0.7095115E+001  0.1599572E+01  0.7818608E-02  0.3353828E+00
         11   -1    0    0    0    0  0.00000000000E+00  0.00000000000E+00  0.39999999674E+01  0.40000000000E+01  0.51100000000E-03 0. -1.
    9000002   -1    0    0    0    0 -0.00000000000E+00 -0.00000000000E+00  0.00000000000E+00  0.93800000000E+00  0.93800000000E+00 0. -1.
         11    1    1    2    0    0 -0.14674031824E-01  0.20184095431E-01  0.22363001734E+00  0.22501860078E+00  0.51100000000E-03 0. -1.
    9000002    1    1    2    0    0  0.28682522611E+00 -0.25724833552E+00  0.10003072850E+00  0.10189678911E+01  0.93800000000E+00 0. -1.
         22    1    1    2    0    0 -0.27215119428E+00  0.23706424009E+00  0.36763392215E+01  0.36940135081E+01  0.00000000000E+00 0. -1.
</event>
<event>
 5    1  0.7095115E+001  0.1599631E+01  0.7818608E-02  0.3353764E+00
         11   -1    0    0    0    0  0.00000000000E+00  0.00000000000E+00  0.39999999674E+01  0.40000000000E+01  0.51100000000E-03 0.  1.
    9000002   -1    0    0    0    0 -0.00000000000E+00 -0.00000000000E+00  0.00000000000E+00  0.93800000000E+00  0.93800000000E+00 0. -1.
         11    1    1    2    0    0 -0.79798260417E-03  0.94888128891E-03  0.65904928246E-02  0.67255385367E-02  0.51100000000E-03 0. -1.
    9000002    1    1    2    0    0  0.57649654466E+00 -0.30620666110E+00  0.30093375075E+00  0.11817427417E+01  0.93800000000E+00 0. -1.
         22    1    1    2    0    0 -0.57569856205E+00  0.30525777982E+00  0.36924757238E+01  0.37495317197E+01  0.00000000000E+00 0.  1.
</event>
<event>
 5    1  0.7095115E+001  0.1580111E+01  0.7818608E-02  0.3375238E+00
         11   -1    0    0    0    0  0.00000000000E+00  0.00000000000E+00  0.39999999674E+01  0.40000000000E+01  0.51100000000E-03 0.  1.
    9000002   -1    0    0    0    0 -0.00000000000E+00 -0.00000000000E+00  0.00000000000E+00  0.93800000000E+00  0.93800000000E+00 0. -1.
         11    1    1    2    0    0 -0.25705062647E+00  0.35700022901E+00  0.10995161010E+01  0.11842550846E+01  0.51100000000E-03 0.  1.
    9000002    1    1    2    0    0  0.34057013816E+00 -0.84992813291E+00  0.67809067680E+00  0.14758105624E+01  0.93800000000E+00 0. -1.
         22    1    1    2    0    0 -0.83519511687E-01  0.49292790391E+00  0.22223931896E+01  0.22779343530E+01  0.00000000000E+00 0.  1.
</event>
<event>
 5    1  0.7095115E+001  0.1599677E+01  0.7818608E-02  0.3353714E+00
         11   -1    0    0    0    0  0.00000000000E+00  0.00000000000E+00  0.39999999674E+01  0.40000000000E+01  0.51100000000E-03 0. -1.
    9000002   -1    0    0    0    0 -0.00000000000E+00 -0.00000000000E+00  0.00000000000E+00  0.93800000000E+00  0.93800000000E+00 0.  1.
         11    1    1    2    0    0  0.43145010313E-01 -0.19364674475E-01  0.51673807667E+00  0.51889785463E+00  0.51100000000E-03 0.  1.
    9000002    1    1    2    0    0 -0.32467017428E+00  0.14763791623E+00  0.85357719888E-01  0.10071432950E+01  0.93800000000E+00 0.  1.
         22    1    1    2    0    0  0.28152516397E+00 -0.12827324175E+00  0.33979041708E+01  0.34119588503E+01  0.00000000000E+00 0. -1.
</event>
<event>
 5    1  0.1175789E+002  0.1546533E+01  0.7818608E-02  0.3413520E+00
         11   -1    0    0    0    0  0.00000000000E+00  0.00000000000E+00  0.39999999674E+01  0.40000000000E+01  0.51100000000E-03 0.  1.
    9000002   -1    0    0    0    0 -0.00000000000E+00 -0.00000000000E+00  0.00000000000E+00  0.93800000000E+00  0.93800000000E+00 0.  1.
         11    1    1    2    0    0 -0.52637364768E-01  0.24830131885E+00  0.13698294905E+01  0.13931465577E+01  0.51100000000E-03 0.  1.
    9000002    1    1    2    0    0  0.17010848379E-03  0.30287401350E-01  0.40131518263E-01  0.93934652518E+00  0.93800000000E+00 0.  1.
         22    1    1    2    0    0  0.52467256284E-01 -0.27858872020E+00  0.25900389586E+01  0.26055069171E+01  0.00000000000E+00 0.  1.
</event>
<event>
 5    1  0.7095115E+001  0.1587279E+01  0.7818608E-02  0.3367287E+00
         11   -1    0    0    0    0  0.00000000000E+00  0.00000000000E+00  0.39999999674E+01  0.40000000000E+01  0.51100000000E-03 0. -1.
    9000002   -1    0    0    0    0 -0.00000000000E+00 -0.00000000000E+00  0.00000000000E+00  0.93800000000E+00  0.93800000000E+00 0.  1.
         11    1    1    2    0    0  0.52736460320E-01  0.25475305145E+00  0.79100579875E+00  0.83268882918E+00  0.51100000000E-03 0. -1.
    9000002    1    1    2    0    0 -0.40942895104E+00 -0.66277042163E+00  0.45967964448E+00  0.13030909689E+01  0.93800000000E+00 0.  1.
         22    1    1    2    0    0  0.35669249072E+00  0.40801737018E+00  0.27493145241E+01  0.28022202019E+01  0.00000000000E+00 0. -1.
</event>
<event>
 5    1  0.7095115E+001  0.1599671E+01  0.7818608E-02  0.3353720E+00
         11   -1    0    0    0    0  0.00000000000E+00  0.00000000000E+00  0.39999999674E+01  0.40000000000E+01  0.51100000000E-03 0.  1.
    9000002   -1    0    0    0    0 -0.00000000000E+00 -0.00000000000E+00  0.00000000000E+00  0.93800000000E+00  0.93800000000E+00 0.  1.
         11    1    1    2    0    0 -0.85623862427E-01  0.56646545872E-01  0.98223769098E+00  0.98758868952E+00  0.51100000000E-03 0.  1.
    9000002    1    1    2    0    0  0.34216291602E+00 -0.23326624732E+00  0.11589137100E+00  0.10318737389E+01  0.93800000000E+00 0.  1.
         22    1    1    2    0    0 -0.25653905359E+00  0.17661970145E+00  0.29018709054E+01  0.29185375715E+01  0.00000000000E+00 0.  1.
</event>
<event>
 5    1  0.7095115E+001  0.1597020E+01  0.7818608E-02  0.3356604E+00
         11   -1    0    0    0    0  0.00000000000E+00  0.00000000000E+00  0.39999999674E+01  0.40000000000E+01  0.51100000000E-03 0.  1.
    9000002   -1    0    0    0    0 -0.00000000000E+00 -0.00000000000E+00  0.00000000000E+00  0.93800000000E+00  0.93800000000E+00 0.  1.
         11    1    1    2    0    0 -0.10286751044E-01  0.95893992973E-01  0.90103491369E+00  0.90618190886E+00  0.51100000000E-03 0.  1.
    9000002    1    1    2    0    0 -0.16335361081E+00 -0.49052877430E+00  0.18595235777E+00  0.10870718283E+01  0.93800000000E+00 0.  1.
         22    1    1    2    0    0  0.17364036186E+00  0.39463478132E+00  0.29130126959E+01  0.29447462628E+01  0.00000000000E+00 0.  1.
</event>
<event>
 5    1  0.7095115E+001  0.1296624E+01  0.7818608E-02  0.3788415E+00
         11   -1    0    0    0    0  0.00000000000E+00  0.00000000000E+00  0.39999999674E+01  0.40000000000E+01  0.51100000000E-03 0. -1.
    9000002   -1    0    0    0    0 -0.00000000000E+00 -0.00000000000E+00  0.00000000000E+00  0.93800000000E+00  0.93800000000E+00 0. -1.
         11    1    1    2    0    0 -0.59471481021E+00 -0.54459938275E+00  0.10252466578E+01  0.13043792254E+01  0.51100000000E-03 0. -1.
    9000002    1    1    2    0    0  0.41789314036E+00  0.37359996258E+00  0.60088830608E+00  0.12470454543E+01  0.93800000000E+00 0. -1.
         22    1    1    2    0    0  0.17682166985E+00  0.17099942017E+00  0.23738650034E+01  0.23865753202E+01  0.00000000000E+00 0. -1.
</event>
<event>
 5    1  0.7095115E+001  0.1599677E+01  0.7818608E-02  0.3353714E+00
         11   -1    0    0    0    0  0.00000000000E+00  0.00000000000E+00  0.39999999674E+01  0.40000000000E+01  0.51100000000E-03 0.  1.
    9000002   -1    0    0    0    0 -0.00000000000E+00 -0.00000000000E+00  0.00000000000E+00  0.93800000000E+00  0.93800000000E+00 0.  1.
         11    1    1    2    0    0  0.88464730974E-01  0.16671751117E+00  0.14803059735E+01  0.14922891052E+01  0.51100000000E-03 0.  1.
    9000002    1    1    2    0    0 -0.23051527231E+00 -0.43214033774E+00  0.16393526164E+00  0.10707947200E+01  0.93800000000E+00 0.  1.
         22    1    1    2    0    0  0.14205054134E+00  0.26542282657E+00  0.23557587322E+01  0.23749161748E+01  0.00000000000E+00 0.  1.
</event>
<event>
 5    1  0.7095115E+001  0.1580661E+01  0.7818608E-02  0.3374624E+00
         11   -1    0    0    0    0  0.00000000000E+00  0.00000000000E+00  0.39999999674E+01  0.40000000000E+01  0.51100000000E-03 0.  1.
    9000002   -1    0    0    0    0 -0.00000000000E+00 -0.00000000000E+00  0.00000000000E+00  0.93800000000E+00  0.93800000000E+00 0.  1.
         11    1    1    2    0    0 -0.78243866992E-01 -0.47709556330E-01  0.64575861739E+00  0.65222906830E+00  0.51100000000E-03 0.  1.
    9000002    1    1    2    0    0 -0.22388110727E+00  0.26728904634E-01  0.48236481030E-01  0.96592336271E+00  0.93800000000E+00 0.  1.
         22    1    1    2    0    0  0.30212497426E+00  0.20980651696E-01  0.33060048689E+01  0.33198475690E+01  0.00000000000E+00 0.  1.
</event>
<event>
 5    1  0.7095115E+001  0.1599368E+01  0.7818608E-02  0.3354049E+00
         11   -1    0    0    0    0  0.00000000000E+00  0.00000000000E+00  0.39999999674E+01  0.40000000000E+01  0.51100000000E-03 0. -1.
    9000002   -1    0    0    0    0 -0.00000000000E+00 -0.00000000000E+00  0.00000000000E+00  0.93800000000E+00  0.93800000000E+00 0.  1.
         11    1    1    2    0    0 -0.16062390189E+00 -0.34406709279E-01  0.10485630664E+01  0.10613522624E+01  0.51100000000E-03 0. -1.
    9000002    1    1    2    0    0  0.53959536191E+00  0.69912534891E-01  0.20454508067E+00  0.11035096770E+01  0.93800000000E+00 0.  1.
         22    1    1    2    0    0 -0.37897146001E+00 -0.35505825612E-01  0.27468918202E+01  0.27731380606E+01  0.00000000000E+00 0. -1.
</event>
<event>
 5    1  0.7095115E+001  0.1599673E+01  0.7818608E-02  0.3353718E+00
         11   -1    0    0    0    0  0.00000000000E+00  0.00000000000E+00  0.39999999674E+01  0.40000000000E+01  0.51100000000E-03 0. -1.
    9000002   -1    0    0    0    0 -0.00000000000E+00 -0.00000000000E+00  0.00000000000E+00  0.93800000000E+00  0.93800000000E+00 0.  1.
         11    1    1    2    0    0 -0.16940223377E+00 -0.11719103414E+00  0.11159455539E+01  0.11347976012E+01  0.51100000000E-03 0. -1.
    9000002    1    1    2    0    0  0.55619587625E+00  0.39259465491E+00  0.32957500634E+00  0.12049680911E+01  0.93800000000E+00 0.  1.
         22    1    1    2    0    0 -0.38679364248E+00 -0.27540362077E+00  0.25544794072E+01  0.25982343077E+01  0.00000000000E+00 0.  1.
</event>
<event>
 5    1  0.8503183E+001  0.1583516E+01  0.7818608E-02  0.3371451E+00
         11   -1    0    0    0    0  0.00000000000E+00  0.00000000000E+00  0.39999999674E+01  0.40000000000E+01  0.51100000000E-03 0.  1.
    9000002   -1    0    0    0    0 -0.00000000000E+00 -0.00000000000E+00  0.00000000000E+00  0.93800000000E+00  0.93800000000E+00 0. -1.
         11    1    1    2    0    0  0.11096759079E+00 -0.79596835715E-01  0.13746000861E+01  0.13813671200E+01  0.51100000000E-03 0.  1.
    9000002    1    1    2    0    0  0.99794355595E-01  0.22113185184E+00  0.51490843158E-01  0.97023374309E+00  0.93800000000E+00 0. -1.
         22    1    1    2    0    0 -0.21076194638E+00 -0.14153501613E+00  0.25739090381E+01  0.25863991369E+01  0.00000000000E+00 0.  1.
</event>
<event>
 5    1  0.7095115E+001  0.1570341E+01  0.7818608E-02  0.3386197E+00
         11   -1    0    0    0    0  0.00000000000E+00  0.00000000000E+00  0.39999999674E+01  0.40000000000E+01  0.51100000000E-03 0. -1.
    9000002   -1    0    0    0    0 -0.00000000000E+00 -0.00000000000E+00  0.00000000000E+00  0.93800000000E+00  0.93800000000E+00 0. -1.
         11    1    1    2    0    0 -0.10620217920E+00  0.37292263015E-01  0.49531434055E+00  0.50794308030E+00  0.51100000000E-03 0. -1.
    9000002    1    1    2    0    0 -0.15431308661E+00  0.13607521916E+00  0.50393809126E-01  0.96161974292E+00  0.93800000000E+00 0. -1.
         22    1    1    2    0    0  0.26051526581E+00 -0.17336748217E+00  0.34542918177E+01  0.34684371768E+01  0.00000000000E+00 0. -1.
</event>
<event>
 5    1  0.7095115E+001  0.1599676E+01  0.7818608E-02  0.3353715E+00
         11   -1    0    0    0    0  0.00000000000E+00  0.00000000000E+00  0.39999999674E+01  0.40000000000E+01  0.51100000000E-03 0. -1.
    9000002   -1    0    0    0    0 -0.00000000000E+00 -0.00000000000E+00  0.00000000000E+00  0.93800000000E+00  0.93800000000E+00 0.  1.
         11    1    1    2    0    0 -0.60091938683E-01  0.40864572614E-01  0.79404978080E+00  0.79736834017E+00  0.51100000000E-03 0. -1.
    9000002    1    1    2    0    0  0.29309003166E+00 -0.20246175970E+00  0.85142193949E-01  0.10069685814E+01  0.93800000000E+00 0.  1.
         22    1    1    2    0    0 -0.23299809297E+00  0.16159718709E+00  0.31208079926E+01  0.31336630784E+01  0.00000000000E+00 0. -1.
</event>
<event>
 5    1  0.7095115E+001  0.1599673E+01  0.7818608E-02  0.3353718E+00
         11   -1    0    0    0    0  0.00000000000E+00  0.00000000000E+00  0.39999999674E+01  0.40000000000E+01  0.51100000000E-03 0.  1.
    9000002   -1    0    0    0    0 -0.00000000000E+00 -0.00000000000E+00  0.00000000000E+00  0.93800000000E+00  0.93800000000E+00 0.  1.
         11    1    1    2    0    0 -0.11001385476E-01 -0.18995903856E-02  0.11468911084E+00  0.11523234004E+00  0.51100000000E-03 0. -1.
    9000002    1    1    2    0    0  0.38488855394E+00  0.47771098476E-01  0.10130960507E+00  0.10200631906E+01  0.93800000000E+00 0.  1.
         22    1    1    2    0    0 -0.37388716847E+00 -0.45871508090E-01  0.37840012515E+01  0.38027044693E+01  0.00000000000E+00 0.  1.
</event>
<event>
 5    1  0.7095115E+001  0.1598731E+01  0.7818608E-02  0.3354742E+00
         11   -1    0    0    0    0  0.00000000000E+00  0.00000000000E+00  0.39999999674E+01  0.40000000000E+01  0.51100000000E-03 0. -1.
    9000002   -1    0    0    0    0 -0.00000000000E+00 -0.00000000000E+00  0.00000000000E+00  0.93800000000E+00  0.93800000000E+00 0. -1.
         11    1    1    2    0    0  0.22600245630E-01 -0.31295666510E-01  0.21054661592E+00  0.21405683461E+00  0.51100000000E-03 0. -1.
    9000002    1    1    2    0    0 -0.11257113255E+00  0.49094988722E+00  0.17463783131E+00  0.10789098312E+01  0.93800000000E+00 0. -1.
         22    1    1    2    0    0  0.89970886915E-01 -0.45965422071E+00  0.36148155201E+01  0.36450333342E+01  0.00000000000E+00 0. -1.
</event>
<event>
 5    1  0.7095115E+001  0.1588911E+01  0.7818608E-02  0.3365488E+00
         11   -1    0    0    0    0  0.00000000000E+00  0.00000000000E+00  0.39999999674E+01  0.40000000000E+01  0.51100000000E-03 0.  1.
    9000002   -1    0    0    0    0 -0.00000000000E+00 -0.00000000000E+00  0.00000000000E+00  0.93800000000E+00  0.93800000000E+00 0. -1.
         11    1    1    2    0    0 -0.11432640652E-01  0.10982662556E+00  0.14854048573E+01  0.14895034220E+01  0.51100000000E-03 0.  1.
    9000002    1    1    2    0    0 -0.25392817798E+00 -0.14227375396E+00  0.64908185272E-01  0.98426541804E+00  0.93800000000E+00 0. -1.
         22    1    1    2    0    0  0.26536081863E+00  0.32447128407E-01  0.24496869248E+01  0.24642311599E+01  0.00000000000E+00 0.  1.
</event>
<event>
 5    1  0.7095115E+001  0.1599552E+01  0.7818608E-02  0.3353850E+00
         11   -1    0    0    0    0  0.00000000000E+00  0.00000000000E+00  0.39999999674E+01  0.40000000000E+01  0.51100000000E-03 0.  1.
    9000002   -1    0    0    0    0 -0.00000000000E+00 -0.00000000000E+00  0.00000000000E+00  0.93800000000E+00  0.93800000000E+00 0.  1.
         11    1    1    2    0    0  0.99742296411E-01 -0.11140236854E+00  0.12342041268E+01  0.12432293036E+01  0.51100000000E-03 0.  1.
    9000002    1    1    2    0    0 -0.27417590769E+00  0.34108183429E+00  0.12994345357E+00  0.10431867269E+01  0.93800000000E+00 0.  1.
         22    1    1    2    0    0  0.17443361128E+00 -0.22967946574E+00  0.26358523870E+01  0.26515839695E+01  0.00000000000E+00 0.  1.
</event>
<event>
 5    1  0.7095115E+001  0.1598536E+01  0.7818608E-02  0.3354954E+00
         11   -1    0    0    0    0  0.00000000000E+00  0.00000000000E+00  0.39999999674E+01  0.40000000000E+01  0.51100000000E-03 0.  1.
    9000002   -1    0    0    0    0 -0.00000000000E+00 -0.00000000000E+00  0.00000000000E+00  0.93800000000E+00  0.93800000000E+00 0. -1.
         11    1    1    2    0    0  0.12781563968E+00 -0.54682893614E-02  0.12346249883E+01  0.12412356194E+01  0.51100000000E-03 0.  1.
    9000002    1    1    2    0    0 -0.42549966348E+00  0.13314623752E+00  0.13590778950E+00  0.10474219835E+01  0.93800000000E+00 0. -1.
         22    1    1    2    0    0  0.29768402379E+00 -0.12767794816E+00  0.26294671895E+01  0.26493423972E+01  0.00000000000E+00 0.  1.
</event>
<event>
 5    1  0.7095115E+001  0.1599432E+01  0.7818608E-02  0.3353981E+00
         11   -1    0    0    0    0  0.00000000000E+00  0.00000000000E+00  0.39999999674E+01  0.40000000000E+01  0.51100000000E-03 0. -1.
    9000002   -1    0    0    0    0 -0.00000000000E+00 -0.00000000000E+00  0.00000000000E+00  0.93800000000E+00  0.93800000000E+00 0.  1.
         11    1    1    2    0    0 -0.50987424700E-01 -0.11312827491E+00  0.94200443187E+00  0.95014227084E+00  0.51100000000E-03 0. -1.
    9000002    1    1    2    0    0  0.23774614889E+00  0.51108493986E+00  0.22027198704E+00  0.11162861619E+01  0.93800000000E+00 0.  1.
         22    1    1    2    0    0 -0.18675872419E+00 -0.39795666495E+00  0.28377235484E+01  0.28715715672E+01  0.00000000000E+00 0. -1.
</event>
<event>
 5    1  0.7095115E+001  0.1599677E+01  0.7818608E-02  0.3353714E+00
         11   -1    0    0    0    0  0.00000000000E+00  0.00000000000E+00  0.39999999674E+01  0.40000000000E+01  0.51100000000E-03 0.  1.
    9000002   -1    0    0    0    0 -0.00000000000E+00 -0.00000000000E+00  0.00000000000E+00  0.93800000000E+00  0.93800000000E+00 0. -1.
         11    1    1    2    0    0  0.10346287210E+00  0.10148085800E+00  0.14403009602E+01  0.14475738487E+01  0.51100000000E-03 0.  1.
    9000002    1    1    2    0    0 -0.28053549367E+00 -0.27261238598E+00  0.10309846731E+00  0.10215140577E+01  0.93800000000E+00 0. -1.
         22    1    1    2    0    0  0.17707262157E+00  0.17113152798E+00  0.24566005399E+01  0.24689120936E+01  0.00000000000E+00 0.  1.
</event>
<event>
 5    1  0.7095115E+001  0.1599642E+01  0.7818608E-02  0.3353752E+00
         11   -1    0    0    0    0  0.00000000000E+00  0.00000000000E+00  0.39999999674E+01  0.40000000000E+01  0.51100000000E-03 0.  1.
    9000002   -1    0    0    0    0 -0.00000000000E+00 -0.00000000000E+00  0.00000000000E+00  0.93800000000E+00  0.93800000000E+00 0.  1.
         11    1    1    2    0    0 -0.10043667909E-01  0.18973189612E-01  0.22405040148E+00  0.22507709949E+00  0.51100000000E-03 0.  1.
    9000002    1    1    2    0    0  0.11869263892E+00 -0.33937070152E+00  0.86791360108E-01  0.10082842634E+01  0.93800000000E+00 0.  1.
         22    1    1    2    0    0 -0.10864897101E+00  0.32039751191E+00  0.36891582058E+01  0.37046386371E+01  0.00000000000E+00 0.  1.
</event>
<event>
 5    1  0.7095115E+001  0.1599677E+01  0.7818608E-02  0.3353714E+00
         11   -1    0    0    0    0  0.00000000000E+00  0.00000000000E+00  0.39999999674E+01  0.40000000000E+01  0.51100000000E-03 0.  1.
    9000002   -1    0    0    0    0 -0.00000000000E+00 -0.00000000000E+00  0.00000000000E+00  0.93800000000E+00  0.93800000000E+00 0.  1.
         11    1    1    2    0    0 -0.14495202089E+00 -0.10203615270E-01  0.14691496860E+01  0.14763184829E+01  0.51100000000E-03 0.  1.
    9000002    1    1    2    0    0  0.38519587910E+00  0.25619229895E-01  0.10034913666E+00  0.10192870839E+01  0.93800000000E+00 0.  1.
         22    1    1    2    0    0 -0.24024385821E+00 -0.15415614625E-01  0.24305011447E+01  0.24423944331E+01  0.00000000000E+00 0.  1.
</event>
<event>
 5    1  0.7095115E+001  0.1462742E+01  0.7818608E-02  0.3517287E+00
         11   -1    0    0    0    0  0.00000000000E+00  0.00000000000E+00  0.39999999674E+01  0.40000000000E+01  0.51100000000E-03 0. -1.
    9000002   -1    0    0    0    0 -0.00000000000E+00 -0.00000000000E+00  0.00000000000E+00  0.93800000000E+00  0.93800000000E+00 0. -1.
         11    1    1    2    0    0  0.46963579299E+00 -0.14545253749E-01  0.11888887439E+01  0.12783685106E+01  0.51100000000E-03 0. -1.
    9000002    1    1    2    0    0 -0.45570631994E-01  0.17435920637E+00  0.15804941513E+00  0.96814329155E+00  0.93800000000E+00 0. -1.
         22    1    1    2    0    0 -0.42406516099E+00 -0.15981395262E+00  0.26530618083E+01  0.26914881978E+01  0.00000000000E+00 0. -1.
</event>
<event>
 5    1  0.7933621E+001  0.1587019E+01  0.7818608E-02  0.3367574E+00
         11   -1    0    0    0    0  0.00000000000E+00  0.00000000000E+00  0.39999999674E+01  0.40000000000E+01  0.51100000000E-03 0. -1.
    9000002   -1    0    0    0    0 -0.00000000000E+00 -0.00000000000E+00  0.00000000000E+00  0.93800000000E+00  0.93800000000E+00 0.  1.
         11    1    1    2    0    0  0.19915886041E-02  0.57135791412E-01  0.11495002684E+01  0.11509211933E+01  0.51100000000E-03 0. -1.
    9000002    1    1    2    0    0 -0.31387781553E-01  0.22583211549E+00  0.44124915350E-01  0.96632103639E+00  0.93800000000E+00 0.  1.
         22    1    1    2    0    0  0.29396192949E-01 -0.28296790691E+00  0.28063747836E+01  0.28207577703E+01  0.00000000000E+00 0. -1.
</event>
<event>
 5    1  0.7095115E+001  0.1565622E+01  0.7818608E-02  0.3391543E+00
         11   -1    0    0    0    0  0.00000000000E+00  0.00000000000E+00  0.39999999674E+01  0.40000000000E+01  0.51100000000E-03 0.  1.
    9000002   -1    0    0    0    0 -0.00000000000E+00 -0.00000000000E+00  0.00000000000E+00  0.93800000000E+00  0.93800000000E+00 0. -1.
         11    1    1    2    0    0 -0.16725609039E+00 -0.95781515517E-01  0.55314720143E+00  0.58576512875E+00  0.51100000000E-03 0.  1.
    9000002    1    1    2    0    0  0.10226312386E+00  0.39016958195E+00  0.13875760688E+00  0.10304308432E+01  0.93800000000E+00 0. -1.
         22    1    1    2    0    0  0.64992966533E-01 -0.29438806643E+00  0.33080951590E+01  0.33218040280E+01  0.00000000000E+00 0.  1.
</event>
<event>
 5    1  0.7095115E+001  0.1599616E+01  0.7818608E-02  0.3353780E+00
         11   -1    0    0    0    0  0.00000000000E+00  0.00000000000E+00  0.39999999674E+01  0.40000000000E+01  0.51100000000E-03 0.  1.
    9000002   -1    0    0    0    0 -0.00000000000E+00 -0.00000000000E+00  0.00000000000E+00  0.93800000000E+00  0.93800000000E+00 0. -1.
         11    1    1    2    0    0  0.82573503862E-01  0.83853494755E-01  0.71963285147E+00  0.72919235745E+00  0.51100000000E-03 0.  1.
    9000002    1    1    2    0    0 -0.41284449977E+00 -0.40517085053E+00  0.23246569151E+00  0.11262718574E+01  0.93800000000E+00 0. -1.
         22    1    1    2    0    0  0.33027099591E+00  0.32131735577E+00  0.30479014244E+01  0.30825357851E+01  0.00000000000E+00 0.  1.
</event>
<event>
 5    1  0.7095115E+001  0.1599675E+01  0.7818608E-02  0.3353717E+00
         11   -1    0    0    0    0  0.00000000000E+00  0.00000000000E+00  0.39999999674E+01  0.40000000000E+01  0.51100000000E-03 0.  1.
    9000002   -1    0    0    0    0 -0.00000000000E+00 -0.00000000000E+00  0.00000000000E+00  0.93800000000E+00  0.93800000000E+00 0.  1.
         11    1    1    2    0    0  0.42387992601E-01  0.10507771310E+00  0.90176556368E+00  0.90885612759E+00  0.51100000000E-03 0.  1.
    9000002    1    1    2    0    0 -0.17836384971E+00 -0.44194853851E+00  0.15489445343E+00  0.10634700115E+01  0.93800000000E+00 0.  1.
         22    1    1    2    0    0  0.13597585711E+00  0.33687082541E+00  0.29433399503E+01  0.29656738609E+01  0.00000000000E+00 0.  1.
</event>
<event>
 5    1  0.7095115E+001  0.1597748E+01  0.7818608E-02  0.3355811E+00
         11   -1    0    0    0    0  0.00000000000E+00  0.00000000000E+00  0.39999999674E+01  0.40000000000E+01  0.51100000000E-03 0.  1.
    9000002   -1    0    0    0    0 -0.00000000000E+00 -0.00000000000E+00  0.00000000000E+00  0.93800000000E+00  0.93800000000E+00 0.  1.
         11    1    1    2    0    0  0.12195305534E+00  0.14896686958E+00  0.12412684101E+01  0.12561095505E+01  0.51100000000E-03 0.  1.
    9000002    1    1    2    0    0 -0.31276967155E+00 -0.32373799719E+00  0.13929449746E+00  0.10497038226E+01  0.93800000000E+00 0.  1.
         22    1    1    2    0    0  0.19081661620E+00  0.17477112761E+00  0.26194370598E+01  0.26321866268E+01  0.00000000000E+00 0.  1.
</event>
<event>
 5    1  0.7095115E+001  0.1599381E+01  0.7818608E-02  0.3354035E+00
         11   -1    0    0    0    0  0.00000000000E+00  0.00000000000E+00  0.39999999674E+01  0.40000000000E+01  0.51100000000E-03 0. -1.
    9000002   -1    0    0    0    0 -0.00000000000E+00 -0.00000000000E+00  0.00000000000E+00  0.93800000000E+00  0.93800000000E+00 0.  1.
         11    1    1    2    0    0  0.51108500407E-02  0.40565210871E-01  0.43055077922E+00  0.43248802495E+00  0.51100000000E-03 0. -1.
    9000002    1    1    2    0    0 -0.10921523856E+00 -0.46081793814E+00  0.15313623531E+00  0.10618737434E+01  0.93800000000E+00 0.  1.
         22    1    1    2    0    0  0.10410438852E+00  0.42025272727E+00  0.34163129528E+01  0.34436382316E+01  0.00000000000E+00 0. -1.
</event>
<event>
 5    1  0.7095115E+001  0.1599670E+01  0.7818608E-02  0.3353722E+00
         11   -1    0    0    0    0  0.00000000000E+00  0.00000000000E+00  0.39999999674E+01  0.40000000000E+01  0.51100000000E-03 0. -1.
    9000002   -1    0    0    0    0 -0.00000000000E+00 -0.00000000000E+00  0.00000000000E+00  0.93800000000E+00  0.93800000000E+00 0.  1.
         11    1    1    2    0    0 -0.99547539685E-01  0.12747748582E+00  0.13566610297E+01  0.13662685068E+01  0.51100000000E-03 0. -1.
    9000002    1    1    2    0    0  0.27513838228E+00 -0.35935072940E+00  0.13917960087E+00  0.10507373780E+01  0.93800000000E+00 0.  1.
         22    1    1    2    0    0 -0.17559084259E+00  0.23187324358E+00  0.25041593368E+01  0.25209941152E+01  0.00000000000E+00 0. -1.
</event>
<event>
 5    1  0.7095115E+001  0.1599628E+01  0.7818608E-02  0.3353767E+00
         11   -1    0    0    0    0  0.00000000000E+00  0.00000000000E+00  0.39999999674E+01  0.40000000000E+01  0.51100000000E-03 0. -1.
    9000002   -1    0    0    0    0 -0.00000000000E+00 -0.00000000000E+00  0.00000000000E+00  0.93800000000E+00  0.93800000000E+00 0. -1.
         11    1    1    2    0    0 -0.62450368194E-01  0.90379297409E-01  0.78786277090E+00  0.79548505504E+00  0.51100000000E-03 0. -1.
    9000002    1    1    2    0    0  0.31541559143E+00 -0.46304236192E+00  0.21728217957E+00  0.11139796990E+01  0.93800000000E+00 0. -1.
         22    1    1    2    0    0 -0.25296522324E+00  0.37266306451E+00  0.29948550169E+01  0.30285352460E+01  0.00000000000E+00 0. -1.
</event>
<event>
 5    1  0.7095115E+001  0.1599674E+01  0.7818608E-02  0.3353717E+00
         11   -1    0    0    0    0  0.00000000000E+00  0.00000000000E+00  0.39999999674E+01  0.40000000000E+01  0.51100000000E-03 0. -1.
    9000002   -1    0    0    0    0 -0.00000000000E+00 -0.00000000000E+00  0.00000000000E+00  0.93800000000E+00  0.93800000000E+00 0. -1.
         11    1    1    2    0    0 -0.11437855565E+00 -0.27727225324E-01  0.95373758941E+00  0.96097185369E+00  0.51100000000E-03 0. -1.
    9000002    1    1    2    0    0  0.45477173261E+00  0.11265825845E+00  0.14950759595E+00  0.10591061010E+01  0.93800000000E+00 0. -1.
         22    1    1    2    0    0 -0.34039317696E+00 -0.84931033126E-01  0.28967547820E+01  0.29179220453E+01  0.00000000000E+00 0. -1.
</event>
<event>
 5    1  0.7095115E+001  0.1599449E+01  0.7818608E-02  0.3353962E+00
         11   -1    0    0    0    0  0.00000000000E+00  0.00000000000E+00  0.39999999674E+01  0.40000000000E+01  0.51100000000E-03 0. -1.
    9000002   -1    0    0    0    0 -0.00000000000E+00 -0.00000000000E+00  0.00000000000E+00  0.93800000000E+00  0.93800000000E+00 0. -1.
         11    1    1    2    0    0  0.58994726541E-01 -0.11411915044E+00  0.11107697204E+01  0.11181740433E+01  0.51100000000E-03 0. -1.
    9000002    1    1    2    0    0 -0.21203094234E+00  0.34220154391E+00  0.10953863715E+00  0.10265971606E+01  0.93800000000E+00 0. -1.
         22    1    1    2    0    0  0.15303621580E+00 -0.22808239347E+00  0.27796916098E+01  0.27932287960E+01  0.00000000000E+00 0. -1.
</event>
<event>
 5    1  0.7095115E+001  0.1599676E+01  0.7818608E-02  0.3353715E+00
         11   -1    0    0    0    0  0.00000000000E+00  0.00000000000E+00  0.39999999674E+01  0.40000000000E+01  0.51100000000E-03 0.  1.
    9000002   -1    0    0    0    0 -0.00000000000E+00 -0.00000000000E+00  0.00000000000E+00  0.93800000000E+00  0.93800000000E+00 0.  1.
         11    1    1    2    0    0 -0.10199941111E+00  0.13008939933E+00  0.14244512119E+01  0.14340113834E+01  0.51100000000E-03 0.  1.
    9000002    1    1    2    0    0  0.27914552915E+00 -0.35315822842E+00  0.13763571559E+00  0.10494906150E+01  0.93800000000E+00 0.  1.
         22    1    1    2    0    0 -0.17714611804E+00  0.22306882909E+00  0.24379130399E+01  0.24544980016E+01  0.00000000000E+00 0.  1.
</event>
<event>
 5    1  0.7095115E+001  0.1599673E+01  0.7818608E-02  0.3353718E+00
         11   -1    0    0    0    0  0.00000000000E+00  0.00000000000E+00  0.39999999674E+01  0.40000000000E+01  0.51100000000E-03 0. -1.
    9000002   -1    0    0    0    0 -0.00000000000E+00 -0.00000000000E+00  0.00000000000E+00  0.93800000000E+00  0.93800000000E+00 0.  1.
         11    1    1    2    0    0  0.71749276666E-01 -0.68706516279E-01  0.87990949181E+00  0.88549958723E+00  0.51100000000E-03 0. -1.
    9000002    1    1    2    0    0 -0.30818413714E+00  0.29944541925E+00  0.12504629986E+00  0.10392909114E+01  0.93800000000E+00 0.  1.
         22    1    1    2    0    0  0.23643486048E+00 -0.23073890297E+00  0.29950441757E+01  0.30132095013E+01  0.00000000000E+00 0. -1.
</event>
<event>
 5    1  0.7095115E+001  0.1599669E+01  0.7818608E-02  0.3353723E+00
         11   -1    0    0    0    0  0.00000000000E+00  0.00000000000E+00  0.39999999674E+01  0.40000000000E+01  0.51100000000E-03 0. -1.
    9000002   -1    0    0    0    0 -0.00000000000E+00 -0.00000000000E+00  0.00000000000E+00  0.93800000000E+00  0.93800000000E+00 0.  1.
         11    1    1    2    0    0 -0.21471205967E-01 -0.36829225941E-01  0.35953880140E+00  0.36205775147E+00  0.51100000000E-03 0. -1.
    9000002    1    1    2    0    0  0.22345921843E+00  0.41409756135E+00  0.15085473374E+00  0.10601943045E+01  0.93800000000E+00 0.  1.
         22    1    1    2    0    0 -0.20198801246E+00 -0.37726833541E+00  0.34896064322E+01  0.35157479440E+01  0.00000000000E+00 0. -1.
</event>
<event>
 5    1  0.7095115E+001  0.1598426E+01  0.7818608E-02  0.3355074E+00
         11   -1    0    0    0    0  0.00000000000E+00  0.00000000000E+00  0.39999999674E+01  0.40000000000E+01  0.51100000000E-03 0. -1.
    9000002   -1    0    0    0    0 -0.00000000000E+00 -0.00000000000E+00  0.00000000000E+00  0.93800000000E+00  0.93800000000E+00 0. -1.
         11    1    1    2    0    0  0.88192922120E-01  0.98728201736E-01  0.89326979955E+00  0.90302627051E+00  0.51100000000E-03 0. -1.
    9000002    1    1    2    0    0 -0.25095564391E+00 -0.34377111151E+00  0.12367327325E+00  0.10374470545E+01  0.93800000000E+00 0. -1.
         22    1    1    2    0    0  0.16276272179E+00  0.24504290978E+00  0.29830568946E+01  0.29975266750E+01  0.00000000000E+00 0. -1.
</event>
<event>
 5    1  0.7095115E+001  0.1553386E+01  0.7818608E-02  0.3405564E+00
         11   -1    0    0    0    0  0.00000000000E+00  0.00000000000E+00  0.39999999674E+01  0.40000000000E+01  0.51100000000E-03 0. -1.
    9000002   -1    0    0    0    0 -0.00000000000E+00 -0.00000000000E+00  0.00000000000E+00  0.93800000000E+00  0.93800000000E+00 0.  1.
         11    1    1    2    0    0  0.84856796181E-01 -0.28896489808E+00  0.74218970688E+00  0.80096642270E+00  0.51100000000E-03 0. -1.
    9000002    1    1    2    0    0  0.44952604086E+00  0.78398166477E+00  0.70240858505E+00  0.14798387522E+01  0.93800000000E+00 0.  1.
         22    1    1    2    0    0 -0.53438283704E+00 -0.49501676669E+00  0.25554016754E+01  0.26571948251E+01  0.00000000000E+00 0. -1.
</event>
<event>
 5    1  0.7095115E+001  0.1599400E+01  0.7818608E-02  0.3354015E+00
         11   -1    0    0    0    0  0.00000000000E+00  0.00000000000E+00  0.39999999674E+01  0.40000000000E+01  0.51100000000E-03 0.  1.
    9000002   -1    0    0    0    0 -0.00000000000E+00 -0.00000000000E+00  0.00000000000E+00  0.93800000000E+00  0.93800000000E+00 0.  1.
         11    1    1    2    0    0 -0.54863957952E-01  0.76893826350E-01  0.12246778972E+01  0.12283154837E+01  0.51100000000E-03 0.  1.
    9000002    1    1    2    0    0  0.19773351028E+00 -0.30088925752E+00  0.87242949546E-01  0.10085079170E+01  0.93800000000E+00 0.  1.
         22    1    1    2    0    0 -0.14286955233E+00  0.22399543117E+00  0.26880791206E+01  0.27011765993E+01  0.00000000000E+00 0.  1.
</event>
<event>
 5    1  0.7095115E+001  0.1599221E+01  0.7818608E-02  0.3354210E+00
         11   -1    0    0    0    0  0.00000000000E+00  0.00000000000E+00  0.39999999674E+01  0.40000000000E+01  0.51100000000E-03 0. -1.
    9000002   -1    0    0    0    0 -0.00000000000E+00 -0.00000000000E+00  0.00000000000E+00  0.93800000000E+00  0.93800000000E+00 0. -1.
         11    1    1    2    0    0 -0.61223032646E-01  0.36195916183E-01  0.47460156156E+00  0.47990135177E+00  0.51100000000E-03 0. -1.
    9000002    1    1    2    0    0  0.36067021523E+00 -0.27724135964E+00  0.14105268807E+00  0.10519912720E+01  0.93800000000E+00 0. -1.
         22    1    1    2    0    0 -0.29944718258E+00  0.24104544346E+00  0.33843457177E+01  0.34061073762E+01  0.00000000000E+00 0. -1.
</event>
<event>
 5    1  0.7095115E+001  0.1585256E+01  0.7818608E-02  0.3369523E+00
         11   -1    0    0    0    0  0.00000000000E+00  0.00000000000E+00  0.39999999674E+01  0.40000000000E+01  0.51100000000E-03 0. -1.
    9000002   -1    0    0    0    0 -0.00000000000E+00 -0.00000000000E+00  0.00000000000E+00  0.93800000000E+00  0.93800000000E+00 0. -1.
         11    1    1    2    0    0  0.40648520224E-01 -0.60226483122E-01  0.14888925354E+00  0.16567378310E+00  0.51100000000E-03 0. -1.
    9000002    1    1    2    0    0 -0.75474707416E-01  0.42799040513E+00  0.14040535921E+00  0.10432784304E+01  0.93800000000E+00 0. -1.
         22    1    1    2    0    0  0.34826187192E-01 -0.36776392201E+00  0.37107053546E+01  0.37290477865E+01  0.00000000000E+00 0. -1.
</event>
<event>
 5    1  0.7095115E+001  0.1589175E+01  0.7818608E-02  0.3365197E+00
         11   -1    0    0    0    0  0.00000000000E+00  0.00000000000E+00  0.39999999674E+01  0.40000000000E+01  0.51100000000E-03 0. -1.
    9000002   -1    0    0    0    0 -0.00000000000E+00 -0.00000000000E+00  0.00000000000E+00  0.93800000000E+00  0.93800000000E+00 0. -1.
         11    1    1    2    0    0  0.47170709549E-01 -0.67848887797E-01  0.71289504880E+00  0.71766855799E+00  0.51100000000E-03 0. -1.
    9000002    1    1    2    0    0 -0.24198528429E+00 -0.14948307541E+00  0.62095090461E-01  0.98214147041E+00  0.93800000000E+00 0. -1.
         22    1    1    2    0    0  0.19481457474E+00  0.21733196321E+00  0.32250098281E+01  0.32381899716E+01  0.00000000000E+00 0. -1.
</event>
<event>
 5    1  0.9674892E+001  0.1540415E+01  0.7818608E-02  0.3420688E+00
         11   -1    0    0    0    0  0.00000000000E+00  0.00000000000E+00  0.39999999674E+01  0.40000000000E+01  0.51100000000E-03 0. -1.
    9000002   -1    0    0    0    0 -0.00000000000E+00 -0.00000000000E+00  0.00000000000E+00  0.93800000000E+00  0.93800000000E+00 0. -1.
         11    1    1    2    0    0 -0.28361907504E+00  0.61983376281E-01  0.13587700904E+01  0.13894380657E+01  0.51100000000E-03 0. -1.
    9000002    1    1    2    0    0  0.37077311656E-01  0.98325199039E-02  0.45209254773E-01  0.93987194990E+00  0.93800000000E+00 0. -1.
         22    1    1    2    0    0  0.24654176338E+00 -0.71815896185E-01  0.25960206222E+01  0.26086899844E+01  0.00000000000E+00 0. -1.
</event>
<event>
 5    1  0.7095115E+001  0.1599506E+01  0.7818608E-02  0.3353900E+00
         11   -1    0    0    0    0  0.00000000000E+00  0.00000000000E+00  0.39999999674E+01  0.40000000000E+01  0.51100000000E-03 0.  1.
    9000002   -1    0    0    0    0 -0.00000000000E+00 -0.00000000000E+00  0.00000000000E+00  0.93800000000E+00  0.93800000000E+00 0. -1.
         11    1    1    2    0    0  0.62714008371E-01 -0.14217176908E+00  0.92698530414E+00  0.93991907842E+00  0.51100000000E-03 0.  1.
    9000002    1    1    2    0    0 -0.19953029585E+00  0.56482092397E+00  0.25047661843E+00  0.11407968932E+01  0.93800000000E+00 0. -1.
         22    1    1    2    0    0  0.13681628748E+00 -0.42264915490E+00  0.28225380448E+01  0.28572840284E+01  0.00000000000E+00 0. -1.
</event>
<event>
 5    1  0.7095115E+001  0.1593220E+01  0.7818608E-02  0.3360755E+00
         11   -1    0    0    0    0  0.00000000000E+00  0.00000000000E+00  0.39999999674E+01  0.40000000000E+01  0.51100000000E-03 0. -1.
    9000002   -1    0    0    0    0 -0.00000000000E+00 -0.00000000000E+00  0.00000000000E+00  0.93800000000E+00  0.93800000000E+00 0.  1.
         11    1    1    2    0    0 -0.60730440041E-01 -0.85581000059E-01  0.11967461496E+01  0.12013383793E+01  0.51100000000E-03 0. -1.
    9000002    1    1    2    0    0  0.42122159206E+00  0.94758627544E-01  0.13179129193E+00  0.10409705912E+01  0.93800000000E+00 0.  1.
         22    1    1    2    0    0 -0.36049115202E+00 -0.91776274851E-02  0.26714625259E+01  0.26956910295E+01  0.00000000000E+00 0.  1.
</event>
<event>
 5    1  0.7095115E+001  0.1599676E+01  0.7818608E-02  0.3353716E+00
         11   -1    0    0    0    0  0.00000000000E+00  0.00000000000E+00  0.39999999674E+01  0.40000000000E+01  0.51100000000E-03 0. -1.
    9000002   -1    0    0    0    0 -0.00000000000E+00 -0.00000000000E+00  0.00000000000E+00  0.93800000000E+00  0.93800000000E+00 0. -1.
         11    1    1    2    0    0 -0.25927510344E-01  0.24132928572E-01  0.24759579409E+00  0.25011711738E+00  0.51100000000E-03 0. -1.
    9000002    1    1    2    0    0  0.39194452372E+00 -0.37632150379E+00  0.20366782826E+00  0.11029791331E+01  0.93800000000E+00 0. -1.
         22    1    1    2    0    0 -0.36601701337E+00  0.35218857522E+00  0.35487363450E+01  0.35849037495E+01  0.00000000000E+00 0. -1.
</event>
<event>
 5    1  0.7095115E+001  0.1599662E+01  0.7818608E-02  0.3353730E+00
         11   -1    0    0    0    0  0.00000000000E+00  0.00000000000E+00  0.39999999674E+01  0.40000000000E+01  0.51100000000E-03 0. -1.
    9000002   -1    0    0    0    0 -0.00000000000E+00 -0.00000000000E+00  0.00000000000E+00  0.93800000000E+00  0.93800000000E+00 0.  1.
         11    1    1    2    0    0  0.11016452992E+00 -0.76031789234E-01  0.11183775813E+01  0.11263595039E+01  0.51100000000E-03 0. -1.
    9000002    1    1    2    0    0 -0.36761609942E+00  0.25565099178E+00  0.13614423307E+00  0.10482739520E+01  0.93800000000E+00 0.  1.
         22    1    1    2    0    0  0.25745156950E+00 -0.17961920254E+00  0.27454781530E+01  0.27633665441E+01  0.00000000000E+00 0. -1.
</event>
<event>
 5    1  0.7095115E+001  0.1580592E+01  0.7818608E-02  0.3374701E+00
         11   -1    0    0    0    0  0.00000000000E+00  0.00000000000E+00  0.39999999674E+01  0.40000000000E+01  0.51100000000E-03 0. -1.
    9000002   -1    0    0    0    0 -0.00000000000E+00 -0.00000000000E+00  0.00000000000E+00  0.93800000000E+00  0.93800000000E+00 0. -1.
         11    1    1    2    0    0  0.31435267813E-01 -0.87413975346E-02  0.71638358546E-01  0.78720414312E-01  0.51100000000E-03 0. -1.
    9000002    1    1    2    0    0  0.34215926269E-01 -0.12500381231E+01  0.17848036894E+01  0.23725796612E+01  0.93800000000E+00 0. -1.
         22    1    1    2    0    0 -0.65651194082E-01  0.12587795206E+01  0.21435579194E+01  0.24866999245E+01  0.00000000000E+00 0. -1.
</event>
<event>
 5    1  0.7095115E+001  0.1599677E+01  0.7818608E-02  0.3353714E+00
         11   -1    0    0    0    0  0.00000000000E+00  0.00000000000E+00  0.39999999674E+01  0.40000000000E+01  0.51100000000E-03 0. -1.
    9000002   -1    0    0    0    0 -0.00000000000E+00 -0.00000000000E+00  0.00000000000E+00  0.93800000000E+00  0.93800000000E+00 0.  1.
         11    1    1    2    0    0  0.16671616737E+00  0.25153524938E-02  0.99282019821E+00  0.10067238025E+01  0.51100000000E-03 0.  1.
    9000002    1    1    2    0    0 -0.62624449598E+00 -0.10858663513E-01  0.27530100766E+00  0.11610059105E+01  0.93800000000E+00 0.  1.
         22    1    1    2    0    0  0.45952832861E+00  0.83433110189E-02  0.27318787615E+01  0.27702702870E+01  0.00000000000E+00 0. -1.
</event>
<event>
 5    1  0.7095115E+001  0.1598458E+01  0.7818608E-02  0.3355039E+00
         11   -1    0    0    0    0  0.00000000000E+00  0.00000000000E+00  0.39999999674E+01  0.40000000000E+01  0.51100000000E-03 0.  1.
    9000002   -1    0    0    0    0 -0.00000000000E+00 -0.00000000000E+00  0.00000000000E+00  0.93800000000E+00  0.93800000000E+00 0. -1.
         11    1    1    2    0    0 -0.15049194381E+00 -0.91009524447E-01  0.12299371976E+01  0.12424477172E+01  0.51100000000E-03 0.  1.
    9000002    1    1    2    0    0  0.39757124226E+00  0.18821606636E+00  0.13226612322E+00  0.10444264013E+01  0.93800000000E+00 0. -1.
         22    1    1    2    0    0 -0.24707929845E+00 -0.97206541910E-01  0.26377966465E+01  0.26511258816E+01  0.00000000000E+00 0.  1.
</event>
<event>
 5    1  0.7095115E+001  0.1599653E+01  0.7818608E-02  0.3353740E+00
         11   -1    0    0    0    0  0.00000000000E+00  0.00000000000E+00  0.39999999674E+01  0.40000000000E+01  0.51100000000E-03 0. -1.
    9000002   -1    0    0    0    0 -0.00000000000E+00 -0.00000000000E+00  0.00000000000E+00  0.93800000000E+00  0.93800000000E+00 0.  1.
         11    1    1    2    0    0 -0.52603297426E-01 -0.71533239626E-01  0.71433858684E+00  0.71983608484E+00  0.51100000000E-03 0. -1.
    9000002    1    1    2    0    0  0.30188180804E+00  0.36931423199E+00  0.15519178482E+00  0.10636983210E+01  0.93800000000E+00 0.  1.
         22    1    1    2    0    0 -0.24927851062E+00 -0.29778099237E+00  0.31304695957E+01  0.31544655942E+01  0.00000000000E+00 0. -1.
</event>
<event>
 5    1  0.7095115E+001  0.1599677E+01  0.7818608E-02  0.3353714E+00
         11   -1    0    0    0    0  0.00000000000E+00  0.00000000000E+00  0.39999999674E+01  0.40000000000E+01  0.51100000000E-03 0.  1.
    9000002   -1    0    0    0    0 -0.00000000000E+00 -0.00000000000E+00  0.00000000000E+00  0.93800000000E+00  0.93800000000E+00 0.  1.
         11    1    1    2    0    0  0.33165320897E-01  0.17285196263E+00  0.14017838685E+01  0.14127901524E+01  0.51100000000E-03 0. -1.
    9000002    1    1    2    0    0 -0.90327057363E-01 -0.47314598076E+00  0.15835857753E+00  0.10662774196E+01  0.93800000000E+00 0.  1.
         22    1    1    2    0    0  0.57161736466E-01  0.30029401813E+00  0.24398575213E+01  0.24589324281E+01  0.00000000000E+00 0.  1.
</event>
<event>
 5    1  0.7095115E+001  0.1598946E+01  0.7818608E-02  0.3354508E+00
         11   -1    0    0    0    0  0.00000000000E+00  0.00000000000E+00  0.39999999674E+01  0.40000000000E+01  0.51100000000E-03 0.  1.
    9000002   -1    0    0    0    0 -0.00000000000E+00 -0.00000000000E+00  0.00000000000E+00  0.93800000000E+00  0.93800000000E+00 0.  1.
         11    1    1    2    0    0 -0.14166613640E-01  0.64948948937E-03  0.77084349661E-01  0.78379671231E-01  0.51100000000E-03 0.  1.
    9000002    1    1    2    0    0  0.47773062429E+00 -0.42778619554E+00  0.29034237791E+00  0.11727618151E+01  0.93800000000E+00 0.  1.
         22    1    1    2    0    0 -0.46356401065E+00  0.42713670605E+00  0.36325732398E+01  0.36868585137E+01  0.00000000000E+00 0.  1.
</event>
<event>
 5    1  0.7095115E+001  0.1599676E+01  0.7818608E-02  0.3353715E+00
         11   -1    0    0    0    0  0.00000000000E+00  0.00000000000E+00  0.39999999674E+01  0.40000000000E+01  0.51100000000E-03 0. -1.
    9000002   -1    0    0    0    0 -0.00000000000E+00 -0.00000000000E+00  0.00000000000E+00  0.93800000000E+00  0.93800000000E+00 0.  1.
         11    1    1    2    0    0 -0.25276994418E-01  0.76741133447E-01  0.76088013731E+00  0.76515813561E+00  0.51100000000E-03 0. -1.
    9000002    1    1    2    0    0  0.12831191893E+00 -0.38744131389E+00  0.11247762738E+00  0.10291112364E+01  0.93800000000E+00 0.  1.
         22    1    1    2    0    0 -0.10303492451E+00  0.31070018045E+00  0.31266422027E+01  0.31437306280E+01  0.00000000000E+00 0. -1.
</event>
<event>
 5    1  0.7095115E+001  0.1570067E+01  0.7818608E-02  0.3386506E+00
         11   -1    0    0    0    0  0.00000000000E+00  0.00000000000E+00  0.39999999674E+01  0.40000000000E+01  0.51100000000E-03 0.  1.
    9000002   -1    0    0    0    0 -0.00000000000E+00 -0.00000000000E+00  0.00000000000E+00  0.93800000000E+00  0.93800000000E+00 0.  1.
         11    1    1    2    0    0  0.30176405104E-01  0.12645902095E+00  0.48319894121E+00  0.50038382999E+00  0.51100000000E-03 0.  1.
    9000002    1    1    2    0    0  0.28018945032E+00 -0.48724674331E-01  0.77237897181E-01  0.98320390292E+00  0.93800000000E+00 0.  1.
         22    1    1    2    0    0 -0.31036585543E+00 -0.77734346623E-01  0.34395631290E+01  0.34544122671E+01  0.00000000000E+00 0.  1.
</event>
<event>
 5    1  0.7095115E+001  0.1597233E+01  0.7818608E-02  0.3356372E+00
         11   -1    0    0    0    0  0.00000000000E+00  0.00000000000E+00  0.39999999674E+01  0.40000000000E+01  0.51100000000E-03 0.  1.
    9000002   -1    0    0    0    0 -0.00000000000E+00 -0.00000000000E+00  0.00000000000E+00  0.93800000000E+00  0.93800000000E+00 0. -1.
         11    1    1    2    0    0 -0.19255213433E-01  0.22375652942E-01  0.10866574462E+00  0.11260523195E+00  0.51100000000E-03 0.  1.
    9000002    1    1    2    0    0  0.12676218771E+00 -0.36671307590E+00  0.10341304852E+00  0.10203359206E+01  0.93800000000E+00 0. -1.
         22    1    1    2    0    0 -0.10750697428E+00  0.34433742296E+00  0.37879211742E+01  0.38050588474E+01  0.00000000000E+00 0.  1.
</event>
<event>
 5    1  0.7095115E+001  0.1494581E+01  0.7818608E-02  0.3476380E+00
         11   -1    0    0    0    0  0.00000000000E+00  0.00000000000E+00  0.39999999674E+01  0.40000000000E+01  0.51100000000E-03 0. -1.
    9000002   -1    0    0    0    0 -0.00000000000E+00 -0.00000000000E+00  0.00000000000E+00  0.93800000000E+00  0.93800000000E+00 0.  1.
         11    1    1    2    0    0  0.22801704061E+00  0.26726201530E+00  0.98408879342E+00  0.10449171116E+01  0.51100000000E-03 0. -1.
    9000002    1    1    2    0    0  0.22143068226E+00 -0.29595442458E+00  0.18309343290E+00  0.10246891107E+01  0.93800000000E+00 0.  1.
         22    1    1    2    0    0 -0.44944772287E+00  0.28692409275E-01  0.28328177410E+01  0.28683937777E+01  0.00000000000E+00 0.  1.
</event>
<event>
 5    1  0.7095115E+001  0.1599677E+01  0.7818608E-02  0.3353714E+00
         11   -1    0    0    0    0  0.00000000000E+00  0.00000000000E+00  0.39999999674E+01  0.40000000000E+01  0.51100000000E-03 0.  1.
    9000002   -1    0    0    0    0 -0.00000000000E+00 -0.00000000000E+00  0.00000000000E+00  0.93800000000E+00  0.93800000000E+00 0. -1.
         11    1    1    2    0    0 -0.19010966946E+00  0.51993433948E-01  0.11304263283E+01  0.11474793891E+01  0.51100000000E-03 0.  1.
    9000002    1    1    2    0    0  0.62430107070E+00 -0.17133609828E+00  0.29555830329E+00  0.11774152182E+01  0.93800000000E+00 0. -1.
         22    1    1    2    0    0 -0.43419140123E+00  0.11934266434E+00  0.25740153358E+01  0.26131053927E+01  0.00000000000E+00 0.  1.
</event>
<event>
 5    1  0.7095115E+001  0.1490809E+01  0.7818608E-02  0.3481129E+00
         11   -1    0    0    0    0  0.00000000000E+00  0.00000000000E+00  0.39999999674E+01  0.40000000000E+01  0.51100000000E-03 0. -1.
    9000002   -1    0    0    0    0 -0.00000000000E+00 -0.00000000000E+00  0.00000000000E+00  0.93800000000E+00  0.93800000000E+00 0.  1.
         11    1    1    2    0    0  0.45713556512E+00 -0.35109555023E-01  0.63403192997E+00  0.78243361067E+00  0.51100000000E-03 0. -1.
    9000002    1    1    2    0    0 -0.70972631271E+00  0.11396947031E+00  0.50956837626E+00  0.12869360548E+01  0.93800000000E+00 0.  1.
         22    1    1    2    0    0  0.25259074759E+00 -0.78859915285E-01  0.28563996611E+01  0.28686303345E+01  0.00000000000E+00 0. -1.
</event>
<event>
 5    1  0.7095115E+001  0.1599541E+01  0.7818608E-02  0.3353861E+00
         11   -1    0    0    0    0  0.00000000000E+00  0.00000000000E+00  0.39999999674E+01  0.40000000000E+01  0.51100000000E-03 0.  1.
    9000002   -1    0    0    0    0 -0.00000000000E+00 -0.00000000000E+00  0.00000000000E+00  0.93800000000E+00  0.93800000000E+00 0.  1.
         11    1    1    2    0    0  0.72799192309E-02  0.91516888404E-01  0.50131653521E+00  0.50965367425E+00  0.51100000000E-03 0.  1.
    9000002    1    1    2    0    0  0.48473807175E-02 -0.63765900311E+00  0.28624519359E+00  0.11697917816E+01  0.93800000000E+00 0.  1.
         22    1    1    2    0    0 -0.12127299948E-01  0.54614211470E+00  0.32124382386E+01  0.32585545442E+01  0.00000000000E+00 0.  1.
</event>
<event>
 5    1  0.7095115E+001  0.1595363E+01  0.7818608E-02  0.3358412E+00
         11   -1    0    0    0    0  0.00000000000E+00  0.00000000000E+00  0.39999999674E+01  0.40000000000E+01  0.51100000000E-03 0. -1.
    9000002   -1    0    0    0    0 -0.00000000000E+00 -0.00000000000E+00  0.00000000000E+00  0.93800000000E+00  0.93800000000E+00 0. -1.
         11    1    1    2    0    0 -0.75863940690E-01 -0.10949796937E+00  0.13409146648E+01  0.13475153217E+01  0.51100000000E-03 0. -1.
    9000002    1    1    2    0    0  0.38980295184E+00  0.18182235712E+00  0.12897290449E+00  0.10399440951E+01  0.93800000000E+00 0. -1.
         22    1    1    2    0    0 -0.31393901115E+00 -0.72324387748E-01  0.25301123981E+01  0.25505405832E+01  0.00000000000E+00 0. -1.
</event>
<event>
 5    1  0.7095115E+001  0.1599670E+01  0.7818608E-02  0.3353721E+00
         11   -1    0    0    0    0  0.00000000000E+00  0.00000000000E+00  0.39999999674E+01  0.40000000000E+01  0.51100000000E-03 0. -1.
    9000002   -1    0    0    0    0 -0.00000000000E+00 -0.00000000000E+00  0.00000000000E+00  0.93800000000E+00  0.93800000000E+00 0. -1.
         11    1    1    2    0    0  0.65041896220E-01  0.48297195423E-02  0.45628364911E+00  0.46092168968E+00  0.51100000000E-03 0. -1.
    9000002    1    1    2    0    0 -0.52664517243E+00 -0.36456704626E-01  0.19170899758E+00  0.10932888771E+01  0.93800000000E+00 0. -1.
         22    1    1    2    0    0  0.46160327621E+00  0.31626985084E-01  0.33520073207E+01  0.33837894333E+01  0.00000000000E+00 0. -1.
</event>
<event>
 5    1  0.7095115E+001  0.1540798E+01  0.7818608E-02  0.3420237E+00
         11   -1    0    0    0    0  0.00000000000E+00  0.00000000000E+00  0.39999999674E+01  0.40000000000E+01  0.51100000000E-03 0.  1.
    9000002   -1    0    0    0    0 -0.00000000000E+00 -0.00000000000E+00  0.00000000000E+00  0.93800000000E+00  0.93800000000E+00 0.  1.
         11    1    1    2    0    0 -0.20278699864E+00 -0.57637536106E-01  0.98609476302E+00  0.10083787955E+01  0.51100000000E-03 0.  1.
    9000002    1    1    2    0    0 -0.15498570917E+00 -0.72817070428E-01  0.64444241027E-01  0.95567774694E+00  0.93800000000E+00 0.  1.
         22    1    1    2    0    0  0.35777270781E+00  0.13045460653E+00  0.29494609633E+01  0.29739434576E+01  0.00000000000E+00 0.  1.
</event>
<event>
 5    1  0.7095115E+001  0.1599660E+01  0.7818608E-02  0.3353732E+00
         11   -1    0    0    0    0  0.00000000000E+00  0.00000000000E+00  0.39999999674E+01  0.40000000000E+01  0.51100000000E-03 0.  1.
    9000002   -1    0    0    0    0 -0.00000000000E+00 -0.00000000000E+00  0.00000000000E+00  0.93800000000E+00  0.93800000000E+00 0. -1.
         11    1    1    2    0    0 -0.12773419543E-01 -0.12829251970E+00  0.88158284204E+00  0.89096054871E+00  0.51100000000E-03 0.  1.
    9000002    1    1    2    0    0  0.72676079520E-01  0.54930503046E+00  0.21223906534E+00  0.11099131722E+01  0.93800000000E+00 0. -1.
         22    1    1    2    0    0 -0.59902659978E-01 -0.42101251075E+00  0.29061780600E+01  0.29371262791E+01  0.00000000000E+00 0. -1.
</event>
<event>
 5    1  0.7095115E+001  0.1599244E+01  0.7818608E-02  0.3354184E+00
         11   -1    0    0    0    0  0.00000000000E+00  0.00000000000E+00  0.39999999674E+01  0.40000000000E+01  0.51100000000E-03 0. -1.
    9000002   -1    0    0    0    0 -0.00000000000E+00 -0.00000000000E+00  0.00000000000E+00  0.93800000000E+00  0.93800000000E+00 0.  1.
         11    1    1    2    0    0 -0.37709813172E-01 -0.17703187205E+00  0.14408764378E+01  0.14522009103E+01  0.51100000000E-03 0. -1.
    9000002    1    1    2    0    0  0.36078729271E-01  0.47680208987E+00  0.15634395062E+00  0.10643915344E+01  0.93800000000E+00 0.  1.
         22    1    1    2    0    0  0.16310839008E-02 -0.29977021782E+00  0.24027795789E+01  0.24214075553E+01  0.00000000000E+00 0. -1.
</event>
<event>
 5    1  0.7095115E+001  0.1587094E+01  0.7818608E-02  0.3367491E+00
         11   -1    0    0    0    0  0.00000000000E+00  0.00000000000E+00  0.39999999674E+01  0.40000000000E+01  0.51100000000E-03 0. -1.
    9000002   -1    0    0    0    0 -0.00000000000E+00 -0.00000000000E+00  0.00000000000E+00  0.93800000000E+00  0.93800000000E+00 0.  1.
         11    1    1    2    0    0 -0.15439341766E+00  0.83585889733E-01  0.52134561660E+00  0.55011402586E+00  0.51100000000E-03 0. -1.
    9000002    1    1    2    0    0  0.46488509626E+00 -0.35991646215E+00  0.25300538613E+00  0.11355675840E+01  0.93800000000E+00 0.  1.
         22    1    1    2    0    0 -0.31049167860E+00  0.27633057242E+00  0.32256489646E+01  0.32523183901E+01  0.00000000000E+00 0. -1.
</event>
<event>
 5    1  0.7095115E+001  0.1599676E+01  0.7818608E-02  0.3353715E+00
         11   -1    0    0    0    0  0.00000000000E+00  0.00000000000E+00  0.39999999674E+01  0.40000000000E+01  0.51100000000E-03 0.  1.
    9000002   -1    0    0    0    0 -0.00000000000E+00 -0.00000000000E+00  0.00000000000E+00  0.93800000000E+00  0.93800000000E+00 0. -1.
         11    1    1    2    0    0 -0.18648786961E-01  0.40809036145E-01  0.38942200388E+00  0.39199861340E+00  0.51100000000E-03 0.  1.
    9000002    1    1    2    0    0  0.17873186378E+00 -0.40536725645E+00  0.13316703350E+00  0.10458705228E+01  0.93800000000E+00 0. -1.
         22    1    1    2    0    0 -0.16008307681E+00  0.36455822030E+00  0.34774109300E+01  0.35001308638E+01  0.00000000000E+00 0.  1.
</event>
<event>
 5    1  0.7095115E+001  0.1599662E+01  0.7818608E-02  0.3353730E+00
         11   -1    0    0    0    0  0.00000000000E+00  0.00000000000E+00  0.39999999674E+01  0.40000000000E+01  0.51100000000E-03 0.  1.
    9000002   -1    0    0    0    0 -0.00000000000E+00 -0.00000000000E+00  0.00000000000E+00  0.93800000000E+00  0.93800000000E+00 0.  1.
         11    1    1    2    0    0 -0.69371731269E-01  0.10161418832E+00  0.10169597380E+01  0.10243755416E+01  0.51100000000E-03 0.  1.
    9000002    1    1    2    0    0  0.27660587058E+00 -0.37807091641E+00  0.14947521888E+00  0.10590728334E+01  0.93800000000E+00 0.  1.
         22    1    1    2    0    0 -0.20723413931E+00  0.27645672809E+00  0.28335650104E+01  0.28545516249E+01  0.00000000000E+00 0.  1.
</event>
<event>
 5    1  0.7095115E+001  0.1599323E+01  0.7818608E-02  0.3354098E+00
         11   -1    0    0    0    0  0.00000000000E+00  0.00000000000E+00  0.39999999674E+01  0.40000000000E+01  0.51100000000E-03 0. -1.
    9000002   -1    0    0    0    0 -0.00000000000E+00 -0.00000000000E+00  0.00000000000E+00  0.93800000000E+00  0.93800000000E+00 0. -1.
         11    1    1    2    0    0 -0.81716275017E-01 -0.10191702516E+00  0.12116127350E+01  0.12186346090E+01  0.51100000000E-03 0. -1.
    9000002    1    1    2    0    0  0.27144236374E+00  0.26128086603E+00  0.95761417814E-01  0.10153634310E+01  0.93800000000E+00 0. -1.
         22    1    1    2    0    0 -0.18972608872E+00 -0.15936384087E+00  0.26926258145E+01  0.27040019600E+01  0.00000000000E+00 0. -1.
</event>
<event>
 5    1  0.7095115E+001  0.1598346E+01  0.7818608E-02  0.3355161E+00
         11   -1    0    0    0    0  0.00000000000E+00  0.00000000000E+00  0.39999999674E+01  0.40000000000E+01  0.51100000000E-03 0.  1.
    9000002   -1    0    0    0    0 -0.00000000000E+00 -0.00000000000E+00  0.00000000000E+00  0.93800000000E+00  0.93800000000E+00 0.  1.
         11    1    1    2    0    0 -0.26911528236E+00  0.70211740552E-01  0.11237352311E+01  0.11576415051E+01  0.51100000000E-03 0.  1.
    9000002    1    1    2    0    0  0.78980250734E+00 -0.10370261617E+00  0.46859492836E+00  0.13168019745E+01  0.93800000000E+00 0.  1.
         22    1    1    2    0    0 -0.52068722498E+00  0.33490875615E-01  0.24076698079E+01  0.24635565204E+01  0.00000000000E+00 0. -1.
</event>
<event>
 5    1  0.7095115E+001  0.1498444E+01  0.7818608E-02  0.3471545E+00
         11   -1    0    0    0    0  0.00000000000E+00  0.00000000000E+00  0.39999999674E+01  0.40000000000E+01  0.51100000000E-03 0. -1.
    9000002   -1    0    0    0    0 -0.00000000000E+00 -0.00000000000E+00  0.00000000000E+00  0.93800000000E+00  0.93800000000E+00 0. -1.
         11    1    1    2    0    0 -0.32896766567E-01 -0.43497865073E+00  0.11418329054E+01  0.12223220806E+01  0.51100000000E-03 0. -1.
    9000002    1    1    2    0    0 -0.48130942441E+00  0.40594576614E+00  0.39123549154E+00  0.11955584205E+01  0.93800000000E+00 0. -1.
         22    1    1    2    0    0  0.51420619098E+00  0.29032884585E-01  0.24669315704E+01  0.25201194988E+01  0.00000000000E+00 0. -1.
</event>
<event>
 5    1  0.7095115E+001  0.1547324E+01  0.7818608E-02  0.3412599E+00
         11   -1    0    0    0    0  0.00000000000E+00  0.00000000000E+00  0.39999999674E+01  0.40000000000E+01  0.51100000000E-03 0. -1.
    9000002   -1    0    0    0    0 -0.00000000000E+00 -0.00000000000E+00  0.00000000000E+00  0.93800000000E+00  0.93800000000E+00 0. -1.
         11    1    1    2    0    0  0.19186823031E+00 -0.88674070745E-01  0.52716916556E+00  0.56796487468E+00  0.51100000000E-03 0. -1.
    9000002    1    1    2    0    0 -0.33168251241E+00 -0.26375134692E+00  0.16725068955E+00  0.10427822664E+01  0.93800000000E+00 0. -1.
         22    1    1    2    0    0  0.13981428211E+00  0.35242541767E+00  0.33055801122E+01  0.33272528589E+01  0.00000000000E+00 0. -1.
</event>
<event>
 5    1  0.7095115E+001  0.1598934E+01  0.7818608E-02  0.3354521E+00
         11   -1    0    0    0    0  0.00000000000E+00  0.00000000000E+00  0.39999999674E+01  0.40000000000E+01  0.51100000000E-03 0. -1.
    9000002   -1    0    0    0    0 -0.00000000000E+00 -0.00000000000E+00  0.00000000000E+00  0.93800000000E+00  0.93800000000E+00 0.  1.
         11    1    1    2    0    0 -0.20756272732E-01 -0.33417577379E-01  0.20584709294E+00  0.20957300430E+00  0.51100000000E-03 0. -1.
    9000002    1    1    2    0    0  0.13468983300E+00  0.50099639696E+00  0.18551725052E+00  0.10878416204E+01  0.93800000000E+00 0.  1.
         22    1    1    2    0    0 -0.11393356027E+00 -0.46757881958E+00  0.36086356239E+01  0.36405853753E+01  0.00000000000E+00 0. -1.
</event>
<event>
 5    1  0.7095115E+001  0.1599675E+01  0.7818608E-02  0.3353716E+00
         11   -1    0    0    0    0  0.00000000000E+00  0.00000000000E+00  0.39999999674E+01  0.40000000000E+01  0.51100000000E-03 0.  1.
    9000002   -1    0    0    0    0 -0.00000000000E+00 -0.00000000000E+00  0.00000000000E+00  0.93800000000E+00  0.93800000000E+00 0. -1.
         11    1    1    2    0    0  0.32511536157E-01  0.46057568665E-01  0.46459871726E+00  0.46800697518E+00  0.51100000000E-03 0.  1.
    9000002    1    1    2    0    0 -0.26207215469E+00 -0.38642735157E+00  0.14844757380E+00  0.10582478890E+01  0.93800000000E+00 0. -1.
         22    1    1    2    0    0  0.22956061853E+00  0.34036978291E+00  0.33869536763E+01  0.34117451359E+01  0.00000000000E+00 0.  1.
</event>
<event>
 5    1  0.7095115E+001  0.1599677E+01  0.7818608E-02  0.3353714E+00
         11   -1    0    0    0    0  0.00000000000E+00  0.00000000000E+00  0.39999999674E+01  0.40000000000E+01  0.51100000000E-03 0. -1.
    9000002   -1    0    0    0    0 -0.00000000000E+00 -0.00000000000E+00  0.00000000000E+00  0.93800000000E+00  0.93800000000E+00 0. -1.
         11    1    1    2    0    0  0.82588028991E-01 -0.43525501589E-01  0.92551702522E+00  0.93021356522E+00  0.51100000000E-03 0.  1.
    9000002    1    1    2    0    0 -0.34811670172E+00  0.18424833410E+00  0.10455862894E+00  0.10226970194E+01  0.93800000000E+00 0. -1.
         22    1    1    2    0    0  0.26552867273E+00 -0.14072283252E+00  0.29699243132E+01  0.29850894154E+01  0.00000000000E+00 0. -1.
</event>
<event>
 5    1  0.7095115E+001  0.1579609E+01  0.7818608E-02  0.3375797E+00
         11   -1    0    0    0    0  0.00000000000E+00  0.00000000000E+00  0.39999999674E+01  0.40000000000E+01  0.51100000000E-03 0. -1.
    9000002   -1    0    0    0    0 -0.00000000000E+00 -0.00000000000E+00  0.00000000000E+00  0.93800000000E+00  0.93800000000E+00 0.  1.
         11    1    1    2    0    0 -0.38889176003E-01  0.13568465679E-01  0.30924017979E-01  0.51507545855E-01  0.51100000000E-03 0. -1.
    9000002    1    1    2    0    0  0.40147669706E+00 -0.45722518017E+00  0.27921241181E+00  0.11524070351E+01  0.93800000000E+00 0.  1.
         22    1    1    2    0    0 -0.36258752106E+00  0.44365671449E+00  0.36898635376E+01  0.37340854190E+01  0.00000000000E+00 0. -1.
</event>
<event>
 5    1  0.7095115E+001  0.1599632E+01  0.7818608E-02  0.3353763E+00
         11   -1    0    0    0    0  0.00000000000E+00  0.00000000000E+00  0.39999999674E+01  0.40000000000E+01  0.51100000000E-03 0.  1.
    9000002   -1    0    0    0    0 -0.00000000000E+00 -0.00000000000E+00  0.00000000000E+00  0.93800000000E+00  0.93800000000E+00 0.  1.
         11    1    1    2    0    0  0.19208602540E+00  0.22888257628E-01  0.14401196993E+01  0.14530539987E+01  0.51100000000E-03 0.  1.
    9000002    1    1    2    0    0 -0.51088366097E+00 -0.39981023047E-01  0.18018785297E+00  0.10839336971E+01  0.93800000000E+00 0.  1.
         22    1    1    2    0    0  0.31879763557E+00  0.17092765419E-01  0.23796924150E+01  0.24010123043E+01  0.00000000000E+00 0.  1.
</event>
<event>
 5    1  0.7095115E+001  0.1599660E+01  0.7818608E-02  0.3353733E+00
         11   -1    0    0    0    0  0.00000000000E+00  0.00000000000E+00  0.39999999674E+01  0.40000000000E+01  0.51100000000E-03 0.  1.
    9000002   -1    0    0    0    0 -0.00000000000E+00 -0.00000000000E+00  0.00000000000E+00  0.93800000000E+00  0.93800000000E+00 0.  1.
         11    1    1    2    0    0 -0.27991112606E+00  0.31809443238E+00  0.13858234861E+01  0.14491519251E+01  0.51100000000E-03 0.  1.
    9000002    1    1    2    0    0  0.66100389929E+00 -0.73762678037E+00  0.78500629339E+00  0.15738800153E+01  0.93800000000E+00 0.  1.
         22    1    1    2    0    0 -0.38109277323E+00  0.41953234799E+00  0.18291701879E+01  0.19149680596E+01  0.00000000000E+00 0.  1.
</event>
<event>
 5    1  0.7095115E+001  0.1599657E+01  0.7818608E-02  0.3353736E+00
         11   -1    0    0    0    0  0.00000000000E+00  0.00000000000E+00  0.39999999674E+01  0.40000000000E+01  0.51100000000E-03 0. -1.
    9000002   -1    0    0    0    0 -0.00000000000E+00 -0.00000000000E+00  0.00000000000E+00  0.93800000000E+00  0.93800000000E+00 0. -1.
         11    1    1    2    0    0  0.53758727334E-01 -0.11931954498E+00  0.10736244347E+01  0.10815714690E+01  0.51100000000E-03 0. -1.
    9000002    1    1    2    0    0 -0.17578975025E+00  0.43146139441E+00  0.14779560308E+00  0.10577090864E+01  0.93800000000E+00 0. -1.
         22    1    1    2    0    0  0.12203102291E+00 -0.31214184943E+00  0.27785799296E+01  0.27987194446E+01  0.00000000000E+00 0. -1.
</event>
<event>
 5    1  0.7095115E+001  0.1599295E+01  0.7818608E-02  0.3354129E+00
         11   -1    0    0    0    0  0.00000000000E+00  0.00000000000E+00  0.39999999674E+01  0.40000000000E+01  0.51100000000E-03 0. -1.
    9000002   -1    0    0    0    0 -0.00000000000E+00 -0.00000000000E+00  0.00000000000E+00  0.93800000000E+00  0.93800000000E+00 0. -1.
         11    1    1    2    0    0  0.15289631967E-01 -0.13932052132E+00  0.11845343645E+01  0.11927975111E+01  0.51100000000E-03 0. -1.
    9000002    1    1    2    0    0  0.14668637018E-01  0.42674692945E+00  0.12375189926E+00  0.10380205409E+01  0.93800000000E+00 0. -1.
         22    1    1    2    0    0 -0.29958268984E-01 -0.28742640813E+00  0.26917137036E+01  0.27071819481E+01  0.00000000000E+00 0. -1.
</event>
<event>
 5    1  0.7095115E+001  0.1599636E+01  0.7818608E-02  0.3353758E+00
         11   -1    0    0    0    0  0.00000000000E+00  0.00000000000E+00  0.39999999674E+01  0.40000000000E+01  0.51100000000E-03 0. -1.
    9000002   -1    0    0    0    0 -0.00000000000E+00 -0.00000000000E+00  0.00000000000E+00  0.93800000000E+00  0.93800000000E+00 0.  1.
         11    1    1    2    0    0 -0.37879228825E-02  0.79209151229E-02  0.66901666354E-01  0.67477280162E-01  0.51100000000E-03 0. -1.
    9000002    1    1    2    0    0  0.21040756863E+00 -0.34770099703E+00  0.11153521817E+00  0.10283245758E+01  0.93800000000E+00 0.  1.
         22    1    1    2    0    0 -0.20661964575E+00  0.33978008191E+00  0.38215630828E+01  0.38421981441E+01  0.00000000000E+00 0. -1.
</event>
<event>
 5    1  0.7462932E+001  0.1534505E+01  0.7818608E-02  0.3427669E+00
         11   -1    0    0    0    0  0.00000000000E+00  0.00000000000E+00  0.39999999674E+01  0.40000000000E+01  0.51100000000E-03 0. -1.
    9000002   -1    0    0    0    0 -0.00000000000E+00 -0.00000000000E+00  0.00000000000E+00  0.93800000000E+00  0.93800000000E+00 0. -1.
         11    1    1    2    0    0  0.27512830876E+00 -0.38368566385E-02  0.14559710719E+01  0.14817430044E+01  0.51100000000E-03 0. -1.
    9000002    1    1    2    0    0  0.57753124050E-01 -0.80961498303E-02  0.51127981513E-01  0.94120085076E+00  0.93800000000E+00 0. -1.
         22    1    1    2    0    0 -0.33288143281E+00  0.11933006469E-01  0.24929009139E+01  0.25150561448E+01  0.00000000000E+00 0. -1.
</event>
<event>
 5    1  0.7095115E+001  0.1599672E+01  0.7818608E-02  0.3353720E+00
         11   -1    0    0    0    0  0.00000000000E+00  0.00000000000E+00  0.39999999674E+01  0.40000000000E+01  0.51100000000E-03 0. -1.
    9000002   -1    0    0    0    0 -0.00000000000E+00 -0.00000000000E+00  0.00000000000E+00  0.93800000000E+00  0.93800000000E+00 0.  1.
         11    1    1    2    0    0  0.61436766200E-01  0.66251300541E-01  0.84714174978E+00  0.85194666289E+00  0.51100000000E-03 0. -1.
    9000002    1    1    2    0    0 -0.27132566202E+00 -0.30429084525E+00  0.11222886693E+00  0.10289071153E+01  0.93800000000E+00 0.  1.
         22    1    1    2    0    0  0.20988889582E+00  0.23803954471E+00  0.30406293506E+01  0.30571462218E+01  0.00000000000E+00 0. -1.
</event>
<event>
 5    1  0.7095115E+001  0.1540988E+01  0.7818608E-02  0.3420013E+00
         11   -1    0    0    0    0  0.00000000000E+00  0.00000000000E+00  0.39999999674E+01  0.40000000000E+01  0.51100000000E-03 0.  1.
    9000002   -1    0    0    0    0 -0.00000000000E+00 -0.00000000000E+00  0.00000000000E+00  0.93800000000E+00  0.93800000000E+00 0. -1.
         11    1    1    2    0    0 -0.71750148151E-02  0.55567723029E+00  0.10906227123E+01  0.12240452716E+01  0.51100000000E-03 0.  1.
    9000002    1    1    2    0    0  0.48757157511E-01 -0.83951600145E+00  0.61527920213E+00  0.14019903258E+01  0.93800000000E+00 0. -1.
         22    1    1    2    0    0 -0.41582142696E-01  0.28383877116E+00  0.22940980529E+01  0.23119644026E+01  0.00000000000E+00 0.  1.
</event>
<event>
 5    1  0.7095115E+001  0.1599585E+01  0.7818608E-02  0.3353814E+00
         11   -1    0    0    0    0  0.00000000000E+00  0.00000000000E+00  0.39999999674E+01  0.40000000000E+01  0.51100000000E-03 0. -1.
    9000002   -1    0    0    0    0 -0.00000000000E+00 -0.00000000000E+00  0.00000000000E+00  0.93800000000E+00  0.93800000000E+00 0.  1.
         11    1    1    2    0    0  0.51962634506E-01  0.21479350302E-02  0.32800952040E+00  0.33210726521E+00  0.51100000000E-03 0. -1.
    9000002    1    1    2    0    0 -0.57209040398E+00 -0.95128518535E-01  0.23377087136E+00  0.11273108203E+01  0.93800000000E+00 0.  1.
         22    1    1    2    0    0  0.52012776947E+00  0.92980583505E-01  0.34382195756E+01  0.34785819145E+01  0.00000000000E+00 0. -1.
</event>
<event>
 5    1  0.7095115E+001  0.1599672E+01  0.7818608E-02  0.3353720E+00
         11   -1    0    0    0    0  0.00000000000E+00  0.00000000000E+00  0.39999999674E+01  0.40000000000E+01  0.51100000000E-03 0. -1.
    9000002   -1    0    0    0    0 -0.00000000000E+00 -0.00000000000E+00  0.00000000000E+00  0.93800000000E+00  0.93800000000E+00 0.  1.
         11    1    1    2    0    0 -0.55327467091E-02 -0.63798841263E-02  0.87565593439E-01  0.87973339615E-01  0.51100000000E-03 0.  1.
    9000002    1    1    2    0    0  0.22472433344E+00  0.30407475143E+00  0.96173263350E-01  0.10159014603E+01  0.93800000000E+00 0.  1.
         22    1    1    2    0    0 -0.21919158673E+00 -0.29769486731E+00  0.38162611106E+01  0.38341252001E+01  0.00000000000E+00 0. -1.
</event>
<event>
 5    1  0.7095115E+001  0.1599673E+01  0.7818608E-02  0.3353718E+00
         11   -1    0    0    0    0  0.00000000000E+00  0.00000000000E+00  0.39999999674E+01  0.40000000000E+01  0.51100000000E-03 0. -1.
    9000002   -1    0    0    0    0 -0.00000000000E+00 -0.00000000000E+00  0.00000000000E+00  0.93800000000E+00  0.93800000000E+00 0.  1.
         11    1    1    2    0    0 -0.26420443357E-01 -0.88065561456E-01  0.43174496486E+00  0.44142673090E+00  0.51100000000E-03 0. -1.
    9000002    1    1    2    0    0  0.23053577643E+00  0.73154249017E+00  0.42872108650E+00  0.12852808756E+01  0.93800000000E+00 0.  1.
         22    1    1    2    0    0 -0.20411533307E+00 -0.64347692871E+00  0.31395339160E+01  0.32112923935E+01  0.00000000000E+00 0. -1.
</event>
<event>
 5    1  0.7095115E+001  0.1599429E+01  0.7818608E-02  0.3353983E+00
         11   -1    0    0    0    0  0.00000000000E+00  0.00000000000E+00  0.39999999674E+01  0.40000000000E+01  0.51100000000E-03 0. -1.
    9000002   -1    0    0    0    0 -0.00000000000E+00 -0.00000000000E+00  0.00000000000E+00  0.93800000000E+00  0.93800000000E+00 0.  1.
         11    1    1    2    0    0 -0.78556775296E-01 -0.99693993436E-01  0.13340600245E+01  0.13400845008E+01  0.51100000000E-03 0. -1.
    9000002    1    1    2    0    0  0.18266437551E+00  0.31463884346E+00  0.89090794853E-01  0.10100222996E+01  0.93800000000E+00 0.  1.
         22    1    1    2    0    0 -0.10410760021E+00 -0.21494485002E+00  0.25768491480E+01  0.25878931996E+01  0.00000000000E+00 0. -1.
</event>
<event>
 5    1  0.7095115E+001  0.1403370E+01  0.7818608E-02  0.3601487E+00
         11   -1    0    0    0    0  0.00000000000E+00  0.00000000000E+00  0.39999999674E+01  0.40000000000E+01  0.51100000000E-03 0. -1.
    9000002   -1    0    0    0    0 -0.00000000000E+00 -0.00000000000E+00  0.00000000000E+00  0.93800000000E+00  0.93800000000E+00 0. -1.
         11    1    1    2    0    0 -0.27402868317E-01  0.61554503464E+00  0.13099838768E+01  0.14476548710E+01  0.51100000000E-03 0. -1.
    9000002    1    1    2    0    0  0.24679674111E+00 -0.29414628949E+00  0.28333097994E+00  0.10524025443E+01  0.93800000000E+00 0. -1.
         22    1    1    2    0    0 -0.21939387279E+00 -0.32139874515E+00  0.24066851106E+01  0.24379425847E+01  0.00000000000E+00 0. -1.
</event>
<event>
 5    1  0.7095115E+001  0.1599650E+01  0.7818608E-02  0.3353743E+00
         11   -1    0    0    0    0  0.00000000000E+00  0.00000000000E+00  0.39999999674E+01  0.40000000000E+01  0.51100000000E-03 0.  1.
    9000002   -1    0    0    0    0 -0.00000000000E+00 -0.00000000000E+00  0.00000000000E+00  0.93800000000E+00  0.93800000000E+00 0. -1.
         11    1    1    2    0    0 -0.25154762541E-03  0.87873392671E-02  0.91223645772E-01  0.91647669236E-01  0.51100000000E-03 0.  1.
    9000002    1    1    2    0    0  0.53827945320E-03 -0.44933411215E+00  0.13713799969E+00  0.10490720972E+01  0.93800000000E+00 0. -1.
         22    1    1    2    0    0 -0.28673182780E-03  0.44054677288E+00  0.37716383219E+01  0.37972802336E+01  0.00000000000E+00 0.  1.
</event>
<event>
 5    1  0.7095115E+001  0.1549228E+01  0.7818608E-02  0.3410383E+00
         11   -1    0    0    0    0  0.00000000000E+00  0.00000000000E+00  0.39999999674E+01  0.40000000000E+01  0.51100000000E-03 0. -1.
    9000002   -1    0    0    0    0 -0.00000000000E+00 -0.00000000000E+00  0.00000000000E+00  0.93800000000E+00  0.93800000000E+00 0. -1.
         11    1    1    2    0    0  0.22693984705E+00  0.33161065200E-02  0.13820959455E+01  0.14006077804E+01  0.51100000000E-03 0. -1.
    9000002    1    1    2    0    0  0.84889669725E-01  0.60401278426E-01  0.44960857235E-01  0.94483863656E+00  0.93800000000E+00 0. -1.
         22    1    1    2    0    0 -0.31182951678E+00 -0.63717384946E-01  0.25729431646E+01  0.25925535831E+01  0.00000000000E+00 0. -1.
</event>
<event>
 5    1  0.7095115E+001  0.1599673E+01  0.7818608E-02  0.3353718E+00
         11   -1    0    0    0    0  0.00000000000E+00  0.00000000000E+00  0.39999999674E+01  0.40000000000E+01  0.51100000000E-03 0. -1.
    9000002   -1    0    0    0    0 -0.00000000000E+00 -0.00000000000E+00  0.00000000000E+00  0.93800000000E+00  0.93800000000E+00 0.  1.
         11    1    1    2    0    0 -0.94553421676E-01  0.56704985993E-01  0.98244716231E+00  0.98861443082E+00  0.51100000000E-03 0.  1.
    9000002    1    1    2    0    0  0.36656867382E+00 -0.22838941531E+00  0.12636460907E+00  0.10403587516E+01  0.93800000000E+00 0.  1.
         22    1    1    2    0    0 -0.27201525214E+00  0.17168442932E+00  0.28911881960E+01  0.29090268176E+01  0.00000000000E+00 0. -1.
</event>
<event>
 5    1  0.7095115E+001  0.1513440E+01  0.7818608E-02  0.3453026E+00
         11   -1    0    0    0    0  0.00000000000E+00  0.00000000000E+00  0.39999999674E+01  0.40000000000E+01  0.51100000000E-03 0.  1.
    9000002   -1    0    0    0    0 -0.00000000000E+00 -0.00000000000E+00  0.00000000000E+00  0.93800000000E+00  0.93800000000E+00 0.  1.
         11    1    1    2    0    0  0.33612932793E+00 -0.18585674073E+00  0.13176460951E+01  0.13724857544E+01  0.51100000000E-03 0.  1.
    9000002    1    1    2    0    0 -0.19861800586E+00 -0.43654766895E-01  0.95131212427E-01  0.96449406349E+00  0.93800000000E+00 0.  1.
         22    1    1    2    0    0 -0.13751132206E+00  0.22951150763E+00  0.25872226599E+01  0.26010201821E+01  0.00000000000E+00 0.  1.
</event>
<event>
 5    1  0.7095115E+001  0.1599457E+01  0.7818608E-02  0.3353953E+00
         11   -1    0    0    0    0  0.00000000000E+00  0.00000000000E+00  0.39999999674E+01  0.40000000000E+01  0.51100000000E-03 0. -1.
    9000002   -1    0    0    0    0 -0.00000000000E+00 -0.00000000000E+00  0.00000000000E+00  0.93800000000E+00  0.93800000000E+00 0. -1.
         11    1    1    2    0    0 -0.27620502456E+00  0.29172966431E+00  0.99634703388E+00  0.10742918997E+01  0.51100000000E-03 0. -1.
    9000002    1    1    2    0    0  0.75568691621E+00 -0.86552221874E+00  0.11888611385E+01  0.19009014265E+01  0.93800000000E+00 0. -1.
         22    1    1    2    0    0 -0.47948189164E+00  0.57379255444E+00  0.18147917950E+01  0.19628066739E+01  0.00000000000E+00 0.  1.
</event>
<event>
 5    1  0.7095115E+001  0.1599677E+01  0.7818608E-02  0.3353714E+00
         11   -1    0    0    0    0  0.00000000000E+00  0.00000000000E+00  0.39999999674E+01  0.40000000000E+01  0.51100000000E-03 0.  1.
    9000002   -1    0    0    0    0 -0.00000000000E+00 -0.00000000000E+00  0.00000000000E+00  0.93800000000E+00  0.93800000000E+00 0.  1.
         11    1    1    2    0    0  0.11606730045E-01 -0.17733255626E+00  0.12988314113E+01  0.13109328159E+01  0.51100000000E-03 0. -1.
    9000002    1    1    2    0    0 -0.34861126563E-01  0.52079015079E+00  0.18720692987E+00  0.10896458663E+01  0.93800000000E+00 0.  1.
         22    1    1    2    0    0  0.23254396517E-01 -0.34345759453E+00  0.25139616262E+01  0.25374213179E+01  0.00000000000E+00 0.  1.
</event>
<event>
 5    1  0.7095115E+001  0.1598285E+01  0.7818608E-02  0.3355226E+00
         11   -1    0    0    0    0  0.00000000000E+00  0.00000000000E+00  0.39999999674E+01  0.40000000000E+01  0.51100000000E-03 0.  1.
    9000002   -1    0    0    0    0 -0.00000000000E+00 -0.00000000000E+00  0.00000000000E+00  0.93800000000E+00  0.93800000000E+00 0.  1.
         11    1    1    2    0    0  0.44500493477E-01 -0.38082168568E-01  0.11448547565E+01  0.11463521362E+01  0.51100000000E-03 0.  1.
    9000002    1    1    2    0    0 -0.25814799384E+00  0.22249001811E+00  0.78911739226E-01  0.10011060171E+01  0.93800000000E+00 0.  1.
         22    1    1    2    0    0  0.21364750037E+00 -0.18440784954E+00  0.27762334716E+01  0.27905418467E+01  0.00000000000E+00 0.  1.
</event>
<event>
 5    1  0.7095115E+001  0.1599676E+01  0.7818608E-02  0.3353715E+00
         11   -1    0    0    0    0  0.00000000000E+00  0.00000000000E+00  0.39999999674E+01  0.40000000000E+01  0.51100000000E-03 0.  1.
    9000002   -1    0    0    0    0 -0.00000000000E+00 -0.00000000000E+00  0.00000000000E+00  0.93800000000E+00  0.93800000000E+00 0.  1.
         11    1    1    2    0    0  0.65234793756E-01 -0.73754887417E-01  0.81330109620E+00  0.81924007222E+00  0.51100000000E-03 0.  1.
    9000002    1    1    2    0    0 -0.31147743053E+00  0.34693830402E+00  0.14800650907E+00  0.10578914421E+01  0.93800000000E+00 0.  1.
         22    1    1    2    0    0  0.24624263677E+00 -0.27318341660E+00  0.30386923621E+01  0.30608684857E+01  0.00000000000E+00 0.  1.
</event>
<event>
 5    1  0.7095115E+001  0.1599525E+01  0.7818608E-02  0.3353879E+00
         11   -1    0    0    0    0  0.00000000000E+00  0.00000000000E+00  0.39999999674E+01  0.40000000000E+01  0.51100000000E-03 0. -1.
    9000002   -1    0    0    0    0 -0.00000000000E+00 -0.00000000000E+00  0.00000000000E+00  0.93800000000E+00  0.93800000000E+00 0. -1.
         11    1    1    2    0    0 -0.74487141567E-02  0.58395003689E-01  0.58617546597E+00  0.58912426348E+00  0.51100000000E-03 0. -1.
    9000002    1    1    2    0    0 -0.15461979815E-01 -0.36232122965E+00  0.88431636202E-01  0.10095444025E+01  0.93800000000E+00 0. -1.
         22    1    1    2    0    0  0.22910693972E-01  0.30392622596E+00  0.33253928652E+01  0.33393313341E+01  0.00000000000E+00 0. -1.
</event>
<event>
 5    1  0.7095115E+001  0.1594349E+01  0.7818608E-02  0.3359520E+00
         11   -1    0    0    0    0  0.00000000000E+00  0.00000000000E+00  0.39999999674E+01  0.40000000000E+01  0.51100000000E-03 0. -1.
    9000002   -1    0    0    0    0 -0.00000000000E+00 -0.00000000000E+00  0.00000000000E+00  0.93800000000E+00  0.93800000000E+00 0. -1.
         11    1    1    2    0    0  0.71063795674E-01  0.41069074828E-02  0.51563315255E+00  0.52052352384E+00  0.51100000000E-03 0. -1.
    9000002    1    1    2    0    0 -0.24002627148E+00  0.30714034586E+00  0.10677454176E+00  0.10213680070E+01  0.93800000000E+00 0. -1.
         22    1    1    2    0    0  0.16896247581E+00 -0.31124725335E+00  0.33775922731E+01  0.33961084691E+01  0.00000000000E+00 0. -1.
</event>
<event>
 5    1  0.7095115E+001  0.1599650E+01  0.7818608E-02  0.3353744E+00
         11   -1    0    0    0    0  0.00000000000E+00  0.00000000000E+00  0.39999999674E+01  0.40000000000E+01  0.51100000000E-03 0.  1.
    9000002   -1    0    0    0    0 -0.00000000000E+00 -0.00000000000E+00  0.00000000000E+00  0.93800000000E+00  0.93800000000E+00 0. -1.
         11    1    1    2    0    0 -0.99991672907E-01  0.48665164945E-01  0.11235883385E+01  0.11290782295E+01  0.51100000000E-03 0.  1.
    9000002    1    1    2    0    0  0.36563153367E+00 -0.16395682305E+00  0.10833923063E+00  0.10257434607E+01  0.93800000000E+00 0. -1.
         22    1    1    2    0    0 -0.26563986076E+00  0.11529165811E+00  0.27680723983E+01  0.27831783098E+01  0.00000000000E+00 0.  1.
</event>
<event>
 5    1  0.7095115E+001  0.1483592E+01  0.7818608E-02  0.3490285E+00
         11   -1    0    0    0    0  0.00000000000E+00  0.00000000000E+00  0.39999999674E+01  0.40000000000E+01  0.51100000000E-03 0. -1.
    9000002   -1    0    0    0    0 -0.00000000000E+00 -0.00000000000E+00  0.00000000000E+00  0.93800000000E+00  0.93800000000E+00 0. -1.
         11    1    1    2    0    0 -0.12941162096E+00 -0.24587425219E+00  0.54878300452E+00  0.61511345514E+00  0.51100000000E-03 0. -1.
    9000002    1    1    2    0    0 -0.21843509686E+00  0.23060463844E-01  0.12538599215E+00  0.97149952319E+00  0.93800000000E+00 0. -1.
         22    1    1    2    0    0  0.34784671783E+00  0.22281378835E+00  0.33258309707E+01  0.33513870217E+01  0.00000000000E+00 0. -1.
</event>
<event>
 5    1  0.7095115E+001  0.1511165E+01  0.7818608E-02  0.3455810E+00
         11   -1    0    0    0    0  0.00000000000E+00  0.00000000000E+00  0.39999999674E+01  0.40000000000E+01  0.51100000000E-03 0. -1.
    9000002   -1    0    0    0    0 -0.00000000000E+00 -0.00000000000E+00  0.00000000000E+00  0.93800000000E+00  0.93800000000E+00 0. -1.
         11    1    1    2    0    0 -0.31288421079E+00 -0.47971442210E-01  0.74390595323E+00  0.80845167883E+00  0.51100000000E-03 0. -1.
    9000002    1    1    2    0    0  0.13800909588E+00  0.45904925050E+00  0.23977556181E+00  0.10803282117E+01  0.93800000000E+00 0. -1.
         22    1    1    2    0    0  0.17487511491E+00 -0.41107780830E+00  0.30163184523E+01  0.30492201095E+01  0.00000000000E+00 0. -1.
</event>
<event>
 5    1  0.7095115E+001  0.1535756E+01  0.7818608E-02  0.3426187E+00
         11   -1    0    0    0    0  0.00000000000E+00  0.00000000000E+00  0.39999999674E+01  0.40000000000E+01  0.51100000000E-03 0.  1.
    9000002   -1    0    0    0    0 -0.00000000000E+00 -0.00000000000E+00  0.00000000000E+00  0.93800000000E+00  0.93800000000E+00 0.  1.
         11    1    1    2    0    0 -0.62534433585E-01 -0.26906806687E+00  0.38273275840E+00  0.47200932773E+00  0.51100000000E-03 0.  1.
    9000002    1    1    2    0    0  0.26901032161E+00  0.64315876793E+00  0.42242471468E+00  0.12427012487E+01  0.93800000000E+00 0.  1.
         22    1    1    2    0    0 -0.20647588803E+00 -0.37409070106E+00  0.31948424943E+01  0.32232894236E+01  0.00000000000E+00 0.  1.
</event>
<event>
 5    1  0.7095115E+001  0.1599657E+01  0.7818608E-02  0.3353736E+00
         11   -1    0    0    0    0  0.00000000000E+00  0.00000000000E+00  0.39999999674E+01  0.40000000000E+01  0.51100000000E-03 0. -1.
    9000002   -1    0    0    0    0 -0.00000000000E+00 -0.00000000000E+00  0.00000000000E+00  0.93800000000E+00  0.93800000000E+00 0.  1.
         11    1    1    2    0    0 -0.23719150699E-01 -0.45439616847E-01  0.49790077890E+00  0.50053252006E+00  0.51100000000E-03 0. -1.
    9000002    1    1    2    0    0  0.20639517547E+00  0.37187709949E+00  0.12244390125E+00  0.10371731073E+01  0.93800000000E+00 0.  1.
         22    1    1    2    0    0 -0.18267602478E+00 -0.32643748264E+00  0.33796552872E+01  0.34002943726E+01  0.00000000000E+00 0. -1.
</event>
<event>
 5    1  0.7095115E+001  0.1571372E+01  0.7818608E-02  0.3385034E+00
         11   -1    0    0    0    0  0.00000000000E+00  0.00000000000E+00  0.39999999674E+01  0.40000000000E+01  0.51100000000E-03 0. -1.
    9000002   -1    0    0    0    0 -0.00000000000E+00 -0.00000000000E+00  0.00000000000E+00  0.93800000000E+00  0.93800000000E+00 0. -1.
         11    1    1    2    0    0  0.49260306670E-01 -0.10980642430E+00  0.81201767508E+00  0.82088793047E+00  0.51100000000E-03 0. -1.
    9000002    1    1    2    0    0  0.46338804426E-01 -0.20882764494E+00  0.51947929818E-01  0.96348267109E+00  0.93800000000E+00 0. -1.
         22    1    1    2    0    0 -0.95599111096E-01  0.31863406924E+00  0.31360343625E+01  0.31536293984E+01  0.00000000000E+00 0. -1.
</event>
<event>
 5    1  0.7095115E+001  0.1503977E+01  0.7818608E-02  0.3464666E+00
         11   -1    0    0    0    0  0.00000000000E+00  0.00000000000E+00  0.39999999674E+01  0.40000000000E+01  0.51100000000E-03 0.  1.
    9000002   -1    0    0    0    0 -0.00000000000E+00 -0.00000000000E+00  0.00000000000E+00  0.93800000000E+00  0.93800000000E+00 0. -1.
         11    1    1    2    0    0  0.34855535640E+00  0.10697708721E+00  0.66319933365E+00  0.75681474017E+00  0.51100000000E-03 0.  1.
    9000002    1    1    2    0    0 -0.50794121195E+00  0.20544369882E+00  0.30381599462E+00  0.11279891607E+01  0.93800000000E+00 0. -1.
         22    1    1    2    0    0  0.15938585555E+00 -0.31242078603E+00  0.30329846391E+01  0.30531960991E+01  0.00000000000E+00 0.  1.
</event>
<event>
 5    1  0.1015491E+002  0.1593095E+01  0.7818608E-02  0.3360892E+00
         11   -1    0    0    0    0  0.00000000000E+00  0.00000000000E+00  0.39999999674E+01  0.40000000000E+01  0.51100000000E-03 0. -1.
    9000002   -1    0    0    0    0 -0.00000000000E+00 -0.00000000000E+00  0.00000000000E+00  0.93800000000E+00  0.93800000000E+00 0.  1.
         11    1    1    2    0    0 -0.34929906184E-01  0.97943525137E-01  0.14708518623E+01  0.14745231414E+01  0.51100000000E-03 0. -1.
    9000002    1    1    2    0    0 -0.15548490862E+00 -0.21724706945E+00  0.52562357191E-01  0.97671830503E+00  0.93800000000E+00 0.  1.
         22    1    1    2    0    0  0.19041481480E+00  0.11930354431E+00  0.24765857479E+01  0.24867585536E+01  0.00000000000E+00 0.  1.
</event>
<event>
 5    1  0.7095115E+001  0.1548503E+01  0.7818608E-02  0.3411226E+00
         11   -1    0    0    0    0  0.00000000000E+00  0.00000000000E+00  0.39999999674E+01  0.40000000000E+01  0.51100000000E-03 0. -1.
    9000002   -1    0    0    0    0 -0.00000000000E+00 -0.00000000000E+00  0.00000000000E+00  0.93800000000E+00  0.93800000000E+00 0.  1.
         11    1    1    2    0    0  0.10974040378E+00  0.34839280594E+00  0.11203674829E+01  0.11784074259E+01  0.51100000000E-03 0. -1.
    9000002    1    1    2    0    0  0.15836164543E+00 -0.50894416746E+00  0.24479356636E+00  0.11062867921E+01  0.93800000000E+00 0.  1.
         22    1    1    2    0    0 -0.26810204920E+00  0.16055136151E+00  0.26348389181E+01  0.26533057820E+01  0.00000000000E+00 0. -1.
</event>
<event>
 5    1  0.7095115E+001  0.1599044E+01  0.7818608E-02  0.3354402E+00
         11   -1    0    0    0    0  0.00000000000E+00  0.00000000000E+00  0.39999999674E+01  0.40000000000E+01  0.51100000000E-03 0.  1.
    9000002   -1    0    0    0    0 -0.00000000000E+00 -0.00000000000E+00  0.00000000000E+00  0.93800000000E+00  0.93800000000E+00 0. -1.
         11    1    1    2    0    0 -0.23565750453E-01  0.82791732459E-01  0.54668829451E+00  0.55342403998E+00  0.51100000000E-03 0.  1.
    9000002    1    1    2    0    0  0.71579589576E-01 -0.46620161363E+00  0.15215103114E+00  0.10608777114E+01  0.93800000000E+00 0. -1.
         22    1    1    2    0    0 -0.48013839123E-01  0.38340988117E+00  0.33011606417E+01  0.33236982487E+01  0.00000000000E+00 0.  1.
</event>
<event>
 5    1  0.7095115E+001  0.1599676E+01  0.7818608E-02  0.3353715E+00
         11   -1    0    0    0    0  0.00000000000E+00  0.00000000000E+00  0.39999999674E+01  0.40000000000E+01  0.51100000000E-03 0.  1.
    9000002   -1    0    0    0    0 -0.00000000000E+00 -0.00000000000E+00  0.00000000000E+00  0.93800000000E+00  0.93800000000E+00 0. -1.
         11    1    1    2    0    0  0.15421923550E+00 -0.21504450790E-01  0.12176842502E+01  0.12275997753E+01  0.51100000000E-03 0.  1.
    9000002    1    1    2    0    0 -0.48611349546E+00  0.70983539484E-01  0.16497562605E+00  0.10716370423E+01  0.93800000000E+00 0. -1.
         22    1    1    2    0    0  0.33189425996E+00 -0.49479088694E-01  0.26173400911E+01  0.26387631824E+01  0.00000000000E+00 0.  1.
</event>
<event>
 5    1  0.7095115E+001  0.1592873E+01  0.7818608E-02  0.3361135E+00
         11   -1    0    0    0    0  0.00000000000E+00  0.00000000000E+00  0.39999999674E+01  0.40000000000E+01  0.51100000000E-03 0.  1.
    9000002   -1    0    0    0    0 -0.00000000000E+00 -0.00000000000E+00  0.00000000000E+00  0.93800000000E+00  0.93800000000E+00 0. -1.
         11    1    1    2    0    0 -0.29441201657E+00 -0.25340472517E+00  0.11687891683E+01  0.12316496138E+01  0.51100000000E-03 0.  1.
    9000002    1    1    2    0    0 -0.58869702752E+00 -0.34142225893E+00  0.78507507865E+00  0.13997572033E+01  0.93800000000E+00 0.  1.
         22    1    1    2    0    0  0.88310904409E+00  0.59482698411E+00  0.20461357205E+01  0.23065931829E+01  0.00000000000E+00 0.  1.
</event>
<event>
 5    1  0.7095115E+001  0.1594828E+01  0.7818608E-02  0.3358996E+00
         11   -1    0    0    0    0  0.00000000000E+00  0.00000000000E+00  0.39999999674E+01  0.40000000000E+01  0.51100000000E-03 0. -1.
    9000002   -1    0    0    0    0 -0.00000000000E+00 -0.00000000000E+00  0.00000000000E+00  0.93800000000E+00  0.93800000000E+00 0. -1.
         11    1    1    2    0    0  0.37963053970E-03 -0.25673476003E-01  0.91830727481E+00  0.91866630698E+00  0.51100000000E-03 0. -1.
    9000002    1    1    2    0    0  0.30206964569E+00  0.10580428492E+00  0.72318200151E-01  0.99373766137E+00  0.93800000000E+00 0. -1.
         22    1    1    2    0    0 -0.30244927623E+00 -0.80130808919E-01  0.30093744924E+01  0.30255960317E+01  0.00000000000E+00 0. -1.
</event>
<event>
 5    1  0.7095115E+001  0.1579314E+01  0.7818608E-02  0.3376126E+00
         11   -1    0    0    0    0  0.00000000000E+00  0.00000000000E+00  0.39999999674E+01  0.40000000000E+01  0.51100000000E-03 0.  1.
    9000002   -1    0    0    0    0 -0.00000000000E+00 -0.00000000000E+00  0.00000000000E+00  0.93800000000E+00  0.93800000000E+00 0.  1.
         11    1    1    2    0    0  0.27307321246E-01 -0.11336707245E+00  0.95028318183E+00  0.95741118110E+00  0.51100000000E-03 0.  1.
    9000002    1    1    2    0    0 -0.34177323400E+00 -0.94442595582E-01  0.10097413060E+00  0.10078532246E+01  0.93800000000E+00 0.  1.
         22    1    1    2    0    0  0.31446591276E+00  0.20780966804E+00  0.29487426549E+01  0.29727355943E+01  0.00000000000E+00 0.  1.
</event>
<event>
 5    1  0.7095115E+001  0.1599637E+01  0.7818608E-02  0.3353758E+00
         11   -1    0    0    0    0  0.00000000000E+00  0.00000000000E+00  0.39999999674E+01  0.40000000000E+01  0.51100000000E-03 0.  1.
    9000002   -1    0    0    0    0 -0.00000000000E+00 -0.00000000000E+00  0.00000000000E+00  0.93800000000E+00  0.93800000000E+00 0. -1.
         11    1    1    2    0    0 -0.66368405266E-01 -0.53119014206E-01  0.89932725212E+00  0.90333612925E+00  0.51100000000E-03 0.  1.
    9000002    1    1    2    0    0  0.31438883057E+00  0.22162852328E+00  0.99642867705E-01  0.10186914352E+01  0.93800000000E+00 0. -1.
         22    1    1    2    0    0 -0.24802042531E+00 -0.16850950907E+00  0.30010298475E+01  0.30159724355E+01  0.00000000000E+00 0.  1.
</event>
<event>
 5    1  0.7095115E+001  0.1599670E+01  0.7818608E-02  0.3353722E+00
         11   -1    0    0    0    0  0.00000000000E+00  0.00000000000E+00  0.39999999674E+01  0.40000000000E+01  0.51100000000E-03 0. -1.
    9000002   -1    0    0    0    0 -0.00000000000E+00 -0.00000000000E+00  0.00000000000E+00  0.93800000000E+00  0.93800000000E+00 0. -1.
         11    1    1    2    0    0 -0.23269014814E-01 -0.12713212530E+00  0.13937570159E+01  0.13997367269E+01  0.51100000000E-03 0. -1.
    9000002    1    1    2    0    0  0.57693983625E-01  0.35288897380E+00  0.85809283926E-01  0.10075050654E+01  0.93800000000E+00 0. -1.
         22    1    1    2    0    0 -0.34424968811E-01 -0.22575684850E+00  0.25204336676E+01  0.25307582077E+01  0.00000000000E+00 0. -1.
</event>
<event>
 5    1  0.7095115E+001  0.1599017E+01  0.7818608E-02  0.3354431E+00
         11   -1    0    0    0    0  0.00000000000E+00  0.00000000000E+00  0.39999999674E+01  0.40000000000E+01  0.51100000000E-03 0.  1.
    9000002   -1    0    0    0    0 -0.00000000000E+00 -0.00000000000E+00  0.00000000000E+00  0.93800000000E+00  0.93800000000E+00 0. -1.
         11    1    1    2    0    0  0.15857251050E-01 -0.82182268843E-01  0.87627308493E+00  0.88026141470E+00  0.51100000000E-03 0.  1.
    9000002    1    1    2    0    0 -0.18037228123E+00  0.39386335710E+00  0.12771151858E+00  0.10410651929E+01  0.93800000000E+00 0. -1.
         22    1    1    2    0    0  0.16451503018E+00 -0.31168108826E+00  0.29960153638E+01  0.30166733924E+01  0.00000000000E+00 0.  1.
</event>
<event>
 5    1  0.9350104E+001  0.1599334E+01  0.7818608E-02  0.3354086E+00
         11   -1    0    0    0    0  0.00000000000E+00  0.00000000000E+00  0.39999999674E+01  0.40000000000E+01  0.51100000000E-03 0. -1.
    9000002   -1    0    0    0    0 -0.00000000000E+00 -0.00000000000E+00  0.00000000000E+00  0.93800000000E+00  0.93800000000E+00 0.  1.
         11    1    1    2    0    0  0.84334334124E-01  0.36379062041E-01  0.13297146220E+01  0.13328829480E+01  0.51100000000E-03 0. -1.
    9000002    1    1    2    0    0 -0.31085032963E+00 -0.11589858025E+00  0.73925455253E-01  0.99768200408E+00  0.93800000000E+00 0.  1.
         22    1    1    2    0    0  0.22651599551E+00  0.79519518206E-01  0.25963598901E+01  0.26074350479E+01  0.00000000000E+00 0. -1.
</event>
<event>
 5    1  0.7095115E+001  0.1550110E+01  0.7818608E-02  0.3409358E+00
         11   -1    0    0    0    0  0.00000000000E+00  0.00000000000E+00  0.39999999674E+01  0.40000000000E+01  0.51100000000E-03 0.  1.
    9000002   -1    0    0    0    0 -0.00000000000E+00 -0.00000000000E+00  0.00000000000E+00  0.93800000000E+00  0.93800000000E+00 0.  1.
         11    1    1    2    0    0 -0.58567308415E-01 -0.18874601759E+00  0.11925514849E+01  0.12088153267E+01  0.51100000000E-03 0.  1.
    9000002    1    1    2    0    0  0.18900000185E-01 -0.17072214360E+00  0.57254641930E-01  0.95531426994E+00  0.93800000000E+00 0.  1.
         22    1    1    2    0    0  0.39667308230E-01  0.35946816119E+00  0.27501938406E+01  0.27738704034E+01  0.00000000000E+00 0.  1.
</event>
<event>
 5    1  0.7095115E+001  0.1599675E+01  0.7818608E-02  0.3353716E+00
         11   -1    0    0    0    0  0.00000000000E+00  0.00000000000E+00  0.39999999674E+01  0.40000000000E+01  0.51100000000E-03 0.  1.
    9000002   -1    0    0    0    0 -0.00000000000E+00 -0.00000000000E+00  0.00000000000E+00  0.93800000000E+00  0.93800000000E+00 0. -1.
         11    1    1    2    0    0  0.13268606683E+00 -0.85055955545E-01  0.66364118453E+00  0.68209969273E+00  0.51100000000E-03 0.  1.
    9000002    1    1    2    0    0 -0.69784338821E+00  0.45329906824E+00  0.51589600350E+00  0.13558975353E+01  0.93800000000E+00 0. -1.
         22    1    1    2    0    0  0.56515732139E+00 -0.36824311269E+00  0.28204627793E+01  0.29000027720E+01  0.00000000000E+00 0.  1.
</event>
<event>
 5    1  0.7095115E+001  0.1597885E+01  0.7818608E-02  0.3355662E+00
         11   -1    0    0    0    0  0.00000000000E+00  0.00000000000E+00  0.39999999674E+01  0.40000000000E+01  0.51100000000E-03 0. -1.
    9000002   -1    0    0    0    0 -0.00000000000E+00 -0.00000000000E+00  0.00000000000E+00  0.93800000000E+00  0.93800000000E+00 0. -1.
         11    1    1    2    0    0  0.52103328858E-01 -0.62673572321E-01  0.14735736586E+01  0.14758259796E+01  0.51100000000E-03 0. -1.
    9000002    1    1    2    0    0 -0.26371506308E+00  0.20824548146E+00  0.77026404821E-01  0.99934422602E+00  0.93800000000E+00 0. -1.
         22    1    1    2    0    0  0.21161173422E+00 -0.14557190914E+00  0.24493999040E+01  0.24628297944E+01  0.00000000000E+00 0. -1.
</event>
<event>
 5    1  0.7095115E+001  0.1599401E+01  0.7818608E-02  0.3354014E+00
         11   -1    0    0    0    0  0.00000000000E+00  0.00000000000E+00  0.39999999674E+01  0.40000000000E+01  0.51100000000E-03 0. -1.
    9000002   -1    0    0    0    0 -0.00000000000E+00 -0.00000000000E+00  0.00000000000E+00  0.93800000000E+00  0.93800000000E+00 0. -1.
         11    1    1    2    0    0 -0.19564678961E-02  0.11086517907E+00  0.86668090842E+00  0.87374537129E+00  0.51100000000E-03 0. -1.
    9000002    1    1    2    0    0  0.57415871911E-01 -0.54103185251E+00  0.20448650463E+00  0.11034812089E+01  0.93800000000E+00 0. -1.
         22    1    1    2    0    0 -0.55459404015E-01  0.43016667343E+00  0.29288325543E+01  0.29607734198E+01  0.00000000000E+00 0. -1.
</event>
<event>
 5    1  0.7095115E+001  0.1599661E+01  0.7818608E-02  0.3353732E+00
         11   -1    0    0    0    0  0.00000000000E+00  0.00000000000E+00  0.39999999674E+01  0.40000000000E+01  0.51100000000E-03 0. -1.
    9000002   -1    0    0    0    0 -0.00000000000E+00 -0.00000000000E+00  0.00000000000E+00  0.93800000000E+00  0.93800000000E+00 0. -1.
         11    1    1    2    0    0 -0.11290354020E+00 -0.94136095861E-01  0.14310881457E+01  0.14386182106E+01  0.51100000000E-03 0. -1.
    9000002    1    1    2    0    0  0.30317824266E+00  0.26812121003E+00  0.11057175568E+00  0.10275583406E+01  0.93800000000E+00 0. -1.
         22    1    1    2    0    0 -0.19027470246E+00 -0.17398511417E+00  0.24583400660E+01  0.24718234489E+01  0.00000000000E+00 0.  1.
</event>
<event>
 5    1  0.7095115E+001  0.1599667E+01  0.7818608E-02  0.3353725E+00
         11   -1    0    0    0    0  0.00000000000E+00  0.00000000000E+00  0.39999999674E+01  0.40000000000E+01  0.51100000000E-03 0.  1.
    9000002   -1    0    0    0    0 -0.00000000000E+00 -0.00000000000E+00  0.00000000000E+00  0.93800000000E+00  0.93800000000E+00 0. -1.
         11    1    1    2    0    0  0.39041644378E-01  0.32710913312E-01  0.52184406058E+00  0.52432407777E+00  0.51100000000E-03 0.  1.
    9000002    1    1    2    0    0 -0.30916732211E+00 -0.23610782215E+00  0.10194287283E+00  0.10205722346E+01  0.93800000000E+00 0. -1.
         22    1    1    2    0    0  0.27012567774E+00  0.20339690884E+00  0.33762130339E+01  0.33931036876E+01  0.00000000000E+00 0.  1.
</event>
<event>
 5    1  0.7095115E+001  0.1599664E+01  0.7818608E-02  0.3353728E+00
         11   -1    0    0    0    0  0.00000000000E+00  0.00000000000E+00  0.39999999674E+01  0.40000000000E+01  0.51100000000E-03 0.  1.
    9000002   -1    0    0    0    0 -0.00000000000E+00 -0.00000000000E+00  0.00000000000E+00  0.93800000000E+00  0.93800000000E+00 0.  1.
         11    1    1    2    0    0 -0.15112511084E-01 -0.67106203610E-01  0.54650195867E+00  0.55081419962E+00  0.51100000000E-03 0.  1.
    9000002    1    1    2    0    0  0.85762322139E-01  0.47718832449E+00  0.16052458264E+00  0.10680243511E+01  0.93800000000E+00 0.  1.
         22    1    1    2    0    0 -0.70649811054E-01 -0.41008212087E+00  0.32929734260E+01  0.33191614493E+01  0.00000000000E+00 0.  1.
</event>
<event>
 5    1  0.7095115E+001  0.1533617E+01  0.7818608E-02  0.3428723E+00
         11   -1    0    0    0    0  0.00000000000E+00  0.00000000000E+00  0.39999999674E+01  0.40000000000E+01  0.51100000000E-03 0.  1.
    9000002   -1    0    0    0    0 -0.00000000000E+00 -0.00000000000E+00  0.00000000000E+00  0.93800000000E+00  0.93800000000E+00 0.  1.
         11    1    1    2    0    0  0.10750400345E+00  0.10291538734E+00  0.18766598445E+00  0.23951507374E+00  0.51100000000E-03 0.  1.
    9000002    1    1    2    0    0 -0.38389109787E+00  0.16509708552E+00  0.17602639405E+00  0.10418534993E+01  0.93800000000E+00 0.  1.
         22    1    1    2    0    0  0.27638709443E+00 -0.26801247286E+00  0.36363075889E+01  0.36566314269E+01  0.00000000000E+00 0.  1.
</event>
<event>
 5    1  0.7095115E+001  0.1599646E+01  0.7818608E-02  0.3353748E+00
         11   -1    0    0    0    0  0.00000000000E+00  0.00000000000E+00  0.39999999674E+01  0.40000000000E+01  0.51100000000E-03 0.  1.
    9000002   -1    0    0    0    0 -0.00000000000E+00 -0.00000000000E+00  0.00000000000E+00  0.93800000000E+00  0.93800000000E+00 0.  1.
         11    1    1    2    0    0  0.32622509780E-01  0.31892006632E-01  0.44777401977E+00  0.45009239288E+00  0.51100000000E-03 0.  1.
    9000002    1    1    2    0    0 -0.26781067007E+00 -0.24523610179E+00  0.88572031850E-01  0.10097288277E+01  0.93800000000E+00 0.  1.
         22    1    1    2    0    0  0.23518816029E+00  0.21334409516E+00  0.34636539157E+01  0.34781787794E+01  0.00000000000E+00 0.  1.
</event>
<event>
 5    1  0.7095115E+001  0.1599677E+01  0.7818608E-02  0.3353714E+00
         11   -1    0    0    0    0  0.00000000000E+00  0.00000000000E+00  0.39999999674E+01  0.40000000000E+01  0.51100000000E-03 0. -1.
    9000002   -1    0    0    0    0 -0.00000000000E+00 -0.00000000000E+00  0.00000000000E+00  0.93800000000E+00  0.93800000000E+00 0. -1.
         11    1    1    2    0    0 -0.11730530074E+00 -0.12470655073E+00  0.14240658904E+01  0.14343208074E+01  0.51100000000E-03 0. -1.
    9000002    1    1    2    0    0  0.31587793802E+00  0.33676642635E+00  0.14505048310E+00  0.10554971058E+01  0.93800000000E+00 0. -1.
         22    1    1    2    0    0 -0.19857263728E+00 -0.21205987562E+00  0.24308835939E+01  0.24481820868E+01  0.00000000000E+00 0. -1.
</event>
<event>
 5    1  0.7095115E+001  0.1598027E+01  0.7818608E-02  0.3355507E+00
         11   -1    0    0    0    0  0.00000000000E+00  0.00000000000E+00  0.39999999674E+01  0.40000000000E+01  0.51100000000E-03 0. -1.
    9000002   -1    0    0    0    0 -0.00000000000E+00 -0.00000000000E+00  0.00000000000E+00  0.93800000000E+00  0.93800000000E+00 0. -1.
         11    1    1    2    0    0 -0.71547647785E-01 -0.10888273932E+00  0.14538100607E+01  0.14596364173E+01  0.51100000000E-03 0. -1.
    9000002    1    1    2    0    0  0.12535430771E+00  0.39882351641E+00  0.11956104865E+00  0.10338823647E+01  0.93800000000E+00 0. -1.
         22    1    1    2    0    0 -0.53806659924E-01 -0.28994077709E+00  0.24266288580E+01  0.24444812180E+01  0.00000000000E+00 0. -1.
</event>
<event>
 5    1  0.7095115E+001  0.1599676E+01  0.7818608E-02  0.3353715E+00
         11   -1    0    0    0    0  0.00000000000E+00  0.00000000000E+00  0.39999999674E+01  0.40000000000E+01  0.51100000000E-03 0. -1.
    9000002   -1    0    0    0    0 -0.00000000000E+00 -0.00000000000E+00  0.00000000000E+00  0.93800000000E+00  0.93800000000E+00 0. -1.
         11    1    1    2    0    0 -0.13420995676E+00 -0.18385144003E+00  0.14371281256E+01  0.14550433584E+01  0.51100000000E-03 0. -1.
    9000002    1    1    2    0    0  0.34983704424E+00  0.47753107779E+00  0.24407429240E+00  0.11357104155E+01  0.93800000000E+00 0. -1.
         22    1    1    2    0    0 -0.21562708748E+00 -0.29367963775E+00  0.23187975494E+01  0.23472462260E+01  0.00000000000E+00 0. -1.
</event>
<event>
 5    1  0.7095115E+001  0.1599676E+01  0.7818608E-02  0.3353715E+00
         11   -1    0    0    0    0  0.00000000000E+00  0.00000000000E+00  0.39999999674E+01  0.40000000000E+01  0.51100000000E-03 0.  1.
    9000002   -1    0    0    0    0 -0.00000000000E+00 -0.00000000000E+00  0.00000000000E+00  0.93800000000E+00  0.93800000000E+00 0.  1.
         11    1    1    2    0    0  0.12146599169E+00 -0.20931719034E+00  0.13374855291E+01  0.13592039858E+01  0.51100000000E-03 0.  1.
    9000002    1    1    2    0    0 -0.33359094360E+00  0.57926233557E+00  0.31673342547E+00  0.11945676347E+01  0.93800000000E+00 0.  1.
         22    1    1    2    0    0  0.21212495191E+00 -0.36994514523E+00  0.23457810128E+01  0.23842283795E+01  0.00000000000E+00 0.  1.
</event>
<event>
 5    1  0.7095115E+001  0.1599664E+01  0.7818608E-02  0.3353728E+00
         11   -1    0    0    0    0  0.00000000000E+00  0.00000000000E+00  0.39999999674E+01  0.40000000000E+01  0.51100000000E-03 0. -1.
    9000002   -1    0    0    0    0 -0.00000000000E+00 -0.00000000000E+00  0.00000000000E+00  0.93800000000E+00  0.93800000000E+00 0. -1.
         11    1    1    2    0    0 -0.87460802424E-01 -0.42391622498E-01  0.10581019123E+01  0.10625565206E+01  0.51100000000E-03 0. -1.
    9000002    1    1    2    0    0  0.31832372170E+00  0.17007128704E+00  0.87454358547E-01  0.10088342279E+01  0.93800000000E+00 0. -1.
         22    1    1    2    0    0 -0.23086291927E+00 -0.12767966454E+00  0.28544436965E+01  0.28666092515E+01  0.00000000000E+00 0. -1.
</event>
<event>
 5    1  0.7095115E+001  0.1598138E+01  0.7818608E-02  0.3355386E+00
         11   -1    0    0    0    0  0.00000000000E+00  0.00000000000E+00  0.39999999674E+01  0.40000000000E+01  0.51100000000E-03 0.  1.
    9000002   -1    0    0    0    0 -0.00000000000E+00 -0.00000000000E+00  0.00000000000E+00  0.93800000000E+00  0.93800000000E+00 0.  1.
         11    1    1    2    0    0 -0.39096795146E-01 -0.47339670435E-01  0.46750534755E+00  0.47152000477E+00  0.51100000000E-03 0.  1.
    9000002    1    1    2    0    0  0.12254621397E+00  0.54344869971E+00  0.21611703848E+00  0.11121621456E+01  0.93800000000E+00 0.  1.
         22    1    1    2    0    0 -0.83449418827E-01 -0.49610902928E+00  0.33163775813E+01  0.33543178496E+01  0.00000000000E+00 0.  1.
</event>
<event>
 5    1  0.7095115E+001  0.1599674E+01  0.7818608E-02  0.3353717E+00
         11   -1    0    0    0    0  0.00000000000E+00  0.00000000000E+00  0.39999999674E+01  0.40000000000E+01  0.51100000000E-03 0.  1.
    9000002   -1    0    0    0    0 -0.00000000000E+00 -0.00000000000E+00  0.00000000000E+00  0.93800000000E+00  0.93800000000E+00 0. -1.
         11    1    1    2    0    0 -0.85675161274E-01 -0.48661968968E-01  0.10795227629E+01  0.10840100909E+01  0.51100000000E-03 0.  1.
    9000002    1    1    2    0    0  0.31651603340E+00  0.17468138037E+00  0.87748580163E-01  0.10090786874E+01  0.93800000000E+00 0. -1.
         22    1    1    2    0    0 -0.23084087213E+00 -0.12601941140E+00  0.28327286243E+01  0.28449112217E+01  0.00000000000E+00 0.  1.
</event>
<event>
 5    1  0.7095115E+001  0.1518745E+01  0.7818608E-02  0.3446569E+00
         11   -1    0    0    0    0  0.00000000000E+00  0.00000000000E+00  0.39999999674E+01  0.40000000000E+01  0.51100000000E-03 0.  1.
    9000002   -1    0    0    0    0 -0.00000000000E+00 -0.00000000000E+00  0.00000000000E+00  0.93800000000E+00  0.93800000000E+00 0. -1.
         11    1    1    2    0    0  0.21417862074E+00 -0.22383025873E+00  0.36580756285E+00  0.47936197227E+00  0.51100000000E-03 0.  1.
    9000002    1    1    2    0    0  0.27914584439E+00 -0.34352258145E+00  0.35793256781E+00  0.10972191620E+01  0.93800000000E+00 0. -1.
         22    1    1    2    0    0 -0.49332446513E+00  0.56735284017E+00  0.32762598367E+01  0.33614188657E+01  0.00000000000E+00 0.  1.
</event>
<event>
 5    1  0.7095115E+001  0.1599673E+01  0.7818608E-02  0.3353718E+00
         11   -1    0    0    0    0  0.00000000000E+00  0.00000000000E+00  0.39999999674E+01  0.40000000000E+01  0.51100000000E-03 0. -1.
    9000002   -1    0    0    0    0 -0.00000000000E+00 -0.00000000000E+00  0.00000000000E+00  0.93800000000E+00  0.93800000000E+00 0.  1.
         11    1    1    2    0    0  0.15207843330E+00  0.21968850381E-01  0.12620915174E+01  0.12714109248E+01  0.51100000000E-03 0. -1.
    9000002    1    1    2    0    0 -0.46308589019E+00 -0.60610407508E-01  0.14852949255E+00  0.10583133625E+01  0.93800000000E+00 0.  1.
         22    1    1    2    0    0  0.31100745689E+00  0.38641557127E-01  0.25893789574E+01  0.26082757127E+01  0.00000000000E+00 0. -1.
</event>
<event>
 5    1  0.7786810E+001  0.1599676E+01  0.7818608E-02  0.3353715E+00
         11   -1    0    0    0    0  0.00000000000E+00  0.00000000000E+00  0.39999999674E+01  0.40000000000E+01  0.51100000000E-03 0.  1.
    9000002   -1    0    0    0    0 -0.00000000000E+00 -0.00000000000E+00  0.00000000000E+00  0.93800000000E+00  0.93800000000E+00 0.  1.
         11    1    1    2    0    0 -0.11392441557E+00  0.89152896782E-01  0.14912365976E+01  0.14982369180E+01  0.51100000000E-03 0.  1.
    9000002    1    1    2    0    0  0.29942986734E+00 -0.23515455665E+00  0.97541241905E-01  0.10170123917E+01  0.93800000000E+00 0.  1.
         22    1    1    2    0    0 -0.18550545178E+00  0.14600165987E+00  0.24112221279E+01  0.24227506903E+01  0.00000000000E+00 0.  1.
</event>
<event>
 5    1  0.7095115E+001  0.1599673E+01  0.7818608E-02  0.3353718E+00
         11   -1    0    0    0    0  0.00000000000E+00  0.00000000000E+00  0.39999999674E+01  0.40000000000E+01  0.51100000000E-03 0.  1.
    9000002   -1    0    0    0    0 -0.00000000000E+00 -0.00000000000E+00  0.00000000000E+00  0.93800000000E+00  0.93800000000E+00 0. -1.
         11    1    1    2    0    0 -0.16483439165E+00 -0.71422302760E-01  0.12081408324E+01  0.12214237815E+01  0.51100000000E-03 0.  1.
    9000002    1    1    2    0    0  0.51658354522E+00  0.23014816891E+00  0.22157295825E+00  0.11174816843E+01  0.93800000000E+00 0. -1.
         22    1    1    2    0    0 -0.35174915358E+00 -0.15872586615E+00  0.25702861767E+01  0.25990945342E+01  0.00000000000E+00 0.  1.
</event>
<event>
 5    1  0.7095115E+001  0.1599675E+01  0.7818608E-02  0.3353716E+00
         11   -1    0    0    0    0  0.00000000000E+00  0.00000000000E+00  0.39999999674E+01  0.40000000000E+01  0.51100000000E-03 0.  1.
    9000002   -1    0    0    0    0 -0.00000000000E+00 -0.00000000000E+00  0.00000000000E+00  0.93800000000E+00  0.93800000000E+00 0.  1.
         11    1    1    2    0    0 -0.47337668589E-01 -0.21940329216E-01  0.48133353292E+00  0.48415334756E+00  0.51100000000E-03 0.  1.
    9000002    1    1    2    0    0  0.37737912936E+00  0.18375603118E+00  0.11914952047E+00  0.10345152945E+01  0.93800000000E+00 0.  1.
         22    1    1    2    0    0 -0.33004146077E+00 -0.16181570196E+00  0.33995169140E+01  0.34193313580E+01  0.00000000000E+00 0.  1.
</event>
<event>
 5    1  0.7095115E+001  0.1599666E+01  0.7818608E-02  0.3353726E+00
         11   -1    0    0    0    0  0.00000000000E+00  0.00000000000E+00  0.39999999674E+01  0.40000000000E+01  0.51100000000E-03 0.  1.
    9000002   -1    0    0    0    0 -0.00000000000E+00 -0.00000000000E+00  0.00000000000E+00  0.93800000000E+00  0.93800000000E+00 0.  1.
         11    1    1    2    0    0 -0.20039395776E+00  0.46206386409E-01  0.12883089506E+01  0.13046198610E+01  0.51100000000E-03 0.  1.
    9000002    1    1    2    0    0  0.58985511396E+00 -0.14214666854E+00  0.25723120098E+00  0.11463623431E+01  0.93800000000E+00 0.  1.
         22    1    1    2    0    0 -0.38946115619E+00  0.95940282126E-01  0.24544598158E+01  0.24870177960E+01  0.00000000000E+00 0.  1.
</event>
<event>
 5    1  0.7095115E+001  0.1599315E+01  0.7818608E-02  0.3354107E+00
         11   -1    0    0    0    0  0.00000000000E+00  0.00000000000E+00  0.39999999674E+01  0.40000000000E+01  0.51100000000E-03 0. -1.
    9000002   -1    0    0    0    0 -0.00000000000E+00 -0.00000000000E+00  0.00000000000E+00  0.93800000000E+00  0.93800000000E+00 0.  1.
         11    1    1    2    0    0  0.92016356217E-01  0.10419698173E+00  0.11604786874E+01  0.11687750279E+01  0.51100000000E-03 0. -1.
    9000002    1    1    2    0    0 -0.32398206515E+00 -0.40859913650E+00  0.18716516916E+00  0.10894000337E+01  0.93800000000E+00 0.  1.
         22    1    1    2    0    0  0.23196570893E+00  0.30440215477E+00  0.26523561108E+01  0.26798249384E+01  0.00000000000E+00 0. -1.
</event>
<event>
 5    1  0.7095115E+001  0.1572867E+01  0.7818608E-02  0.3383350E+00
         11   -1    0    0    0    0  0.00000000000E+00  0.00000000000E+00  0.39999999674E+01  0.40000000000E+01  0.51100000000E-03 0. -1.
    9000002   -1    0    0    0    0 -0.00000000000E+00 -0.00000000000E+00  0.00000000000E+00  0.93800000000E+00  0.93800000000E+00 0.  1.
         11    1    1    2    0    0  0.13280830345E+00 -0.18130573665E-02  0.94689415146E+00  0.95616427868E+00  0.51100000000E-03 0. -1.
    9000002    1    1    2    0    0  0.12822424304E+00  0.17236615125E+00  0.51060344903E-01  0.96364034028E+00  0.93800000000E+00 0.  1.
         22    1    1    2    0    0 -0.26103254649E+00 -0.17055309388E+00  0.30020454710E+01  0.30181953810E+01  0.00000000000E+00 0. -1.
</event>
<event>
 5    1  0.7095115E+001  0.1599670E+01  0.7818608E-02  0.3353721E+00
         11   -1    0    0    0    0  0.00000000000E+00  0.00000000000E+00  0.39999999674E+01  0.40000000000E+01  0.51100000000E-03 0. -1.
    9000002   -1    0    0    0    0 -0.00000000000E+00 -0.00000000000E+00  0.00000000000E+00  0.93800000000E+00  0.93800000000E+00 0.  1.
         11    1    1    2    0    0  0.35272044199E-02  0.18146597004E-01  0.17546557772E+00  0.17643744002E+00  0.51100000000E-03 0. -1.
    9000002    1    1    2    0    0 -0.57001107045E-01 -0.38657638821E+00  0.10287783491E+00  0.10213316205E+01  0.93800000000E+00 0.  1.
         22    1    1    2    0    0  0.53473902625E-01  0.36842979120E+00  0.37216565547E+01  0.37402309395E+01  0.00000000000E+00 0. -1.
</event>
<event>
 5    1  0.7095115E+001  0.1599668E+01  0.7818608E-02  0.3353724E+00
         11   -1    0    0    0    0  0.00000000000E+00  0.00000000000E+00  0.39999999674E+01  0.40000000000E+01  0.51100000000E-03 0.  1.
    9000002   -1    0    0    0    0 -0.00000000000E+00 -0.00000000000E+00  0.00000000000E+00  0.93800000000E+00  0.93800000000E+00 0. -1.
         11    1    1    2    0    0 -0.17834913708E-01  0.29023125299E-02  0.10105815838E+00  0.10266216470E+00  0.51100000000E-03 0. -1.
    9000002    1    1    2    0    0  0.62545827020E+00 -0.13364421295E+00  0.28794908901E+00  0.11712461318E+01  0.93800000000E+00 0. -1.
         22    1    1    2    0    0 -0.60762335649E+00  0.13074190042E+00  0.36109927200E+01  0.36640917035E+01  0.00000000000E+00 0.  1.
</event>
<event>
 5    1  0.7095115E+001  0.1598619E+01  0.7818608E-02  0.3354864E+00
         11   -1    0    0    0    0  0.00000000000E+00  0.00000000000E+00  0.39999999674E+01  0.40000000000E+01  0.51100000000E-03 0.  1.
    9000002   -1    0    0    0    0 -0.00000000000E+00 -0.00000000000E+00  0.00000000000E+00  0.93800000000E+00  0.93800000000E+00 0.  1.
         11    1    1    2    0    0  0.21694465254E-01  0.19885413068E-02  0.12530207346E+00  0.12718284024E+00  0.51100000000E-03 0.  1.
    9000002    1    1    2    0    0 -0.31969912203E+00  0.18092077620E+00  0.91518552674E-01  0.10115134707E+01  0.93800000000E+00 0.  1.
         22    1    1    2    0    0  0.29800465678E+00 -0.18290931751E+00  0.37831793412E+01  0.37993036891E+01  0.00000000000E+00 0.  1.
</event>
<event>
 5    1  0.7095115E+001  0.1575869E+01  0.7818608E-02  0.3379978E+00
         11   -1    0    0    0    0  0.00000000000E+00  0.00000000000E+00  0.39999999674E+01  0.40000000000E+01  0.51100000000E-03 0.  1.
    9000002   -1    0    0    0    0 -0.00000000000E+00 -0.00000000000E+00  0.00000000000E+00  0.93800000000E+00  0.93800000000E+00 0.  1.
         11    1    1    2    0    0 -0.55665761431E-02 -0.72905276372E-01  0.15125583639E+00  0.16800224777E+00  0.51100000000E-03 0.  1.
    9000002    1    1    2    0    0  0.35854258298E+00  0.68697041532E-04  0.10580710397E+00  0.10097484498E+01  0.93800000000E+00 0.  1.
         22    1    1    2    0    0 -0.35297600684E+00  0.72836579330E-01  0.37429370270E+01  0.37602493025E+01  0.00000000000E+00 0.  1.
</event>
<event>
 5    1  0.7095115E+001  0.1590061E+01  0.7818608E-02  0.3364222E+00
         11   -1    0    0    0    0  0.00000000000E+00  0.00000000000E+00  0.39999999674E+01  0.40000000000E+01  0.51100000000E-03 0.  1.
    9000002   -1    0    0    0    0 -0.00000000000E+00 -0.00000000000E+00  0.00000000000E+00  0.93800000000E+00  0.93800000000E+00 0.  1.
         11    1    1    2    0    0 -0.11456647414E-01  0.13884078520E+00  0.50400178375E+00  0.52290159452E+00  0.51100000000E-03 0.  1.
    9000002    1    1    2    0    0  0.35997712362E-01 -0.44566587002E+00  0.14405456175E+00  0.10490517717E+01  0.93800000000E+00 0.  1.
         22    1    1    2    0    0 -0.24541064949E-01  0.30682508482E+00  0.33519436219E+01  0.33660466338E+01  0.00000000000E+00 0.  1.
</event>
<event>
 5    1  0.7095115E+001  0.1591783E+01  0.7818608E-02  0.3362330E+00
         11   -1    0    0    0    0  0.00000000000E+00  0.00000000000E+00  0.39999999674E+01  0.40000000000E+01  0.51100000000E-03 0. -1.
    9000002   -1    0    0    0    0 -0.00000000000E+00 -0.00000000000E+00  0.00000000000E+00  0.93800000000E+00  0.93800000000E+00 0.  1.
         11    1    1    2    0    0  0.14644295177E-01  0.37274409206E-01  0.88381293441E+00  0.88471995632E+00  0.51100000000E-03 0. -1.
    9000002    1    1    2    0    0  0.27393610552E+00  0.41661093336E-01  0.57246715767E-01  0.97974375378E+00  0.93800000000E+00 0.  1.
         22    1    1    2    0    0 -0.28858040070E+00 -0.78935502543E-01  0.30589403172E+01  0.30735362899E+01  0.00000000000E+00 0. -1.
</event>
<event>
 5    1  0.7095115E+001  0.1519932E+01  0.7818608E-02  0.3445131E+00
         11   -1    0    0    0    0  0.00000000000E+00  0.00000000000E+00  0.39999999674E+01  0.40000000000E+01  0.51100000000E-03 0.  1.
    9000002   -1    0    0    0    0 -0.00000000000E+00 -0.00000000000E+00  0.00000000000E+00  0.93800000000E+00  0.93800000000E+00 0.  1.
         11    1    1    2    0    0  0.36625244275E+00 -0.97592005489E-01  0.13336560413E+01  0.13864716907E+01  0.51100000000E-03 0.  1.
    9000002    1    1    2    0    0 -0.20801585833E+00 -0.10393741338E+00  0.99024501331E-01  0.97145428872E+00  0.93800000000E+00 0.  1.
         22    1    1    2    0    0 -0.15823658443E+00  0.20152941887E+00  0.25673194247E+01  0.25800740206E+01  0.00000000000E+00 0.  1.
</event>
<event>
 5    1  0.7095115E+001  0.1587005E+01  0.7818608E-02  0.3367590E+00
         11   -1    0    0    0    0  0.00000000000E+00  0.00000000000E+00  0.39999999674E+01  0.40000000000E+01  0.51100000000E-03 0.  1.
    9000002   -1    0    0    0    0 -0.00000000000E+00 -0.00000000000E+00  0.00000000000E+00  0.93800000000E+00  0.93800000000E+00 0. -1.
         11    1    1    2    0    0 -0.17183756716E+00 -0.56426637477E-02  0.80865151142E+00  0.82672699072E+00  0.51100000000E-03 0.  1.
    9000002    1    1    2    0    0  0.35742991214E+00 -0.22756373042E+00  0.13229170718E+00  0.10377314148E+01  0.93800000000E+00 0.  1.
         22    1    1    2    0    0 -0.18559234498E+00  0.23320639417E+00  0.30590567488E+01  0.30735415945E+01  0.00000000000E+00 0.  1.
</event>
<event>
 5    1  0.8779475E+001  0.1594183E+01  0.7818608E-02  0.3359702E+00
         11   -1    0    0    0    0  0.00000000000E+00  0.00000000000E+00  0.39999999674E+01  0.40000000000E+01  0.51100000000E-03 0. -1.
    9000002   -1    0    0    0    0 -0.00000000000E+00 -0.00000000000E+00  0.00000000000E+00  0.93800000000E+00  0.93800000000E+00 0. -1.
         11    1    1    2    0    0 -0.53521204063E-02 -0.97994310008E-02  0.12945073402E+01  0.12945555952E+01  0.51100000000E-03 0. -1.
    9000002    1    1    2    0    0  0.19446850184E+00 -0.15391053579E+00  0.45058848137E-01  0.97127789588E+00  0.93800000000E+00 0. -1.
         22    1    1    2    0    0 -0.18911638144E+00  0.16370996679E+00  0.26604337790E+01  0.26721665089E+01  0.00000000000E+00 0. -1.
</event>
<event>
 5    1  0.7095115E+001  0.1599677E+01  0.7818608E-02  0.3353715E+00
         11   -1    0    0    0    0  0.00000000000E+00  0.00000000000E+00  0.39999999674E+01  0.40000000000E+01  0.51100000000E-03 0. -1.
    9000002   -1    0    0    0    0 -0.00000000000E+00 -0.00000000000E+00  0.00000000000E+00  0.93800000000E+00  0.93800000000E+00 0.  1.
         11    1    1    2    0    0 -0.11341043297E+00  0.75340704433E-01  0.10460723335E+01  0.10548960783E+01  0.51100000000E-03 0. -1.
    9000002    1    1    2    0    0  0.41762872630E+00 -0.27505412690E+00  0.17118834426E+00  0.10766698542E+01  0.93800000000E+00 0.  1.
         22    1    1    2    0    0 -0.30421829332E+00  0.19971342246E+00  0.27827392896E+01  0.28064340675E+01  0.00000000000E+00 0. -1.
</event>
<event>
 5    1  0.7095115E+001  0.1599631E+01  0.7818608E-02  0.3353764E+00
         11   -1    0    0    0    0  0.00000000000E+00  0.00000000000E+00  0.39999999674E+01  0.40000000000E+01  0.51100000000E-03 0.  1.
    9000002   -1    0    0    0    0 -0.00000000000E+00 -0.00000000000E+00  0.00000000000E+00  0.93800000000E+00  0.93800000000E+00 0.  1.
         11    1    1    2    0    0 -0.29803487487E-01 -0.52238813630E-01  0.63669619627E+00  0.63953064742E+00  0.51100000000E-03 0.  1.
    9000002    1    1    2    0    0  0.17255950435E+00  0.35520474975E+00  0.10515933369E+00  0.10231567242E+01  0.93800000000E+00 0.  1.
         22    1    1    2    0    0 -0.14275601686E+00 -0.30296593612E+00  0.32581444374E+01  0.32753126284E+01  0.00000000000E+00 0.  1.
</event>
<event>
 5    1  0.8756896E+001  0.1592847E+01  0.7818608E-02  0.3361164E+00
         11   -1    0    0    0    0  0.00000000000E+00  0.00000000000E+00  0.39999999674E+01  0.40000000000E+01  0.51100000000E-03 0. -1.
    9000002   -1    0    0    0    0 -0.00000000000E+00 -0.00000000000E+00  0.00000000000E+00  0.93800000000E+00  0.93800000000E+00 0. -1.
         11    1    1    2    0    0 -0.66933875112E-02 -0.50388138361E-01  0.10595531241E+01  0.10607718180E+01  0.51100000000E-03 0. -1.
    9000002    1    1    2    0    0  0.25051864456E+00 -0.51156110545E-01  0.48699319211E-01  0.97344345630E+00  0.93800000000E+00 0. -1.
         22    1    1    2    0    0 -0.24382525704E+00  0.10154424891E+00  0.28917475241E+01  0.29037847258E+01  0.00000000000E+00 0. -1.
</event>
<event>
 5    1  0.7473640E+001  0.1599670E+01  0.7818608E-02  0.3353721E+00
         11   -1    0    0    0    0  0.00000000000E+00  0.00000000000E+00  0.39999999674E+01  0.40000000000E+01  0.51100000000E-03 0. -1.
    9000002   -1    0    0    0    0 -0.00000000000E+00 -0.00000000000E+00  0.00000000000E+00  0.93800000000E+00  0.93800000000E+00 0.  1.
         11    1    1    2    0    0  0.12619725937E+00 -0.64592539925E-01  0.14431541653E+01  0.14501007380E+01  0.51100000000E-03 0. -1.
    9000002    1    1    2    0    0 -0.34539999973E+00  0.18130382901E+00  0.10252030139E+00  0.10210419435E+01  0.93800000000E+00 0.  1.
         22    1    1    2    0    0  0.21920274036E+00 -0.11671128909E+00  0.24543255007E+01  0.24668573185E+01  0.00000000000E+00 0. -1.
</event>
<event>
 5    1  0.7095115E+001  0.1599674E+01  0.7818608E-02  0.3353718E+00
         11   -1    0    0    0    0  0.00000000000E+00  0.00000000000E+00  0.39999999674E+01  0.40000000000E+01  0.51100000000E-03 0.  1.
    9000002   -1    0    0    0    0 -0.00000000000E+00 -0.00000000000E+00  0.00000000000E+00  0.93800000000E+00  0.93800000000E+00 0.  1.
         11    1    1    2    0    0  0.73210124959E-01  0.11125860999E+00  0.14292173697E+01  0.14354096111E+01  0.51100000000E-03 0.  1.
    9000002    1    1    2    0    0 -0.20569909031E+00 -0.30592497100E+00  0.91319721592E-01  0.10119710940E+01  0.93800000000E+00 0.  1.
         22    1    1    2    0    0  0.13248896535E+00  0.19466636101E+00  0.24794628761E+01  0.24906192948E+01  0.00000000000E+00 0.  1.
</event>
<event>
 5    1  0.7095115E+001  0.1450917E+01  0.7818608E-02  0.3532976E+00
         11   -1    0    0    0    0  0.00000000000E+00  0.00000000000E+00  0.39999999674E+01  0.40000000000E+01  0.51100000000E-03 0.  1.
    9000002   -1    0    0    0    0 -0.00000000000E+00 -0.00000000000E+00  0.00000000000E+00  0.93800000000E+00  0.93800000000E+00 0.  1.
         11    1    1    2    0    0 -0.23055962490E+00 -0.17502339196E+00  0.36304688257E+00  0.46432125563E+00  0.51100000000E-03 0.  1.
    9000002    1    1    2    0    0 -0.17757692043E+00  0.21015876077E+00  0.18174446961E+00  0.99427125053E+00  0.93800000000E+00 0.  1.
         22    1    1    2    0    0  0.40813654533E+00 -0.35135368805E-01  0.34552086152E+01  0.34794074938E+01  0.00000000000E+00 0.  1.
</event>
<event>
 5    1  0.7300439E+001  0.1599665E+01  0.7818608E-02  0.3353727E+00
         11   -1    0    0    0    0  0.00000000000E+00  0.00000000000E+00  0.39999999674E+01  0.40000000000E+01  0.51100000000E-03 0. -1.
    9000002   -1    0    0    0    0 -0.00000000000E+00 -0.00000000000E+00  0.00000000000E+00  0.93800000000E+00  0.93800000000E+00 0. -1.
         11    1    1    2    0    0  0.13401683869E+00 -0.90228741040E-02  0.14463335036E+01  0.14525573277E+01  0.51100000000E-03 0. -1.
    9000002    1    1    2    0    0 -0.36042072678E+00  0.35270859214E-01  0.88065696573E-01  0.10093298275E+01  0.93800000000E+00 0. -1.
         22    1    1    2    0    0  0.22640388809E+00 -0.26247985110E-01  0.24656007672E+01  0.24761128448E+01  0.00000000000E+00 0. -1.
</event>
<event>
 5    1  0.7095115E+001  0.1599664E+01  0.7818608E-02  0.3353728E+00
         11   -1    0    0    0    0  0.00000000000E+00  0.00000000000E+00  0.39999999674E+01  0.40000000000E+01  0.51100000000E-03 0.  1.
    9000002   -1    0    0    0    0 -0.00000000000E+00 -0.00000000000E+00  0.00000000000E+00  0.93800000000E+00  0.93800000000E+00 0.  1.
         11    1    1    2    0    0  0.21977759084E-01 -0.18968217539E+00  0.75489689437E+00  0.77867318678E+00  0.51100000000E-03 0.  1.
    9000002    1    1    2    0    0 -0.88836069034E-01  0.87148856305E+00  0.58149616073E+00  0.14090301443E+01  0.93800000000E+00 0.  1.
         22    1    1    2    0    0  0.66858309951E-01 -0.68180638766E+00  0.26636069123E+01  0.27502966689E+01  0.00000000000E+00 0.  1.
</event>
<event>
 5    1  0.7095115E+001  0.1598942E+01  0.7818608E-02  0.3354512E+00
         11   -1    0    0    0    0  0.00000000000E+00  0.00000000000E+00  0.39999999674E+01  0.40000000000E+01  0.51100000000E-03 0. -1.
    9000002   -1    0    0    0    0 -0.00000000000E+00 -0.00000000000E+00  0.00000000000E+00  0.93800000000E+00  0.93800000000E+00 0. -1.
         11    1    1    2    0    0  0.51372074783E-01  0.57217891946E-01  0.11064091495E+01  0.11090781958E+01  0.51100000000E-03 0. -1.
    9000002    1    1    2    0    0 -0.22834221596E+00 -0.29491992938E+00  0.94125962242E-01  0.10138153822E+01  0.93800000000E+00 0. -1.
         22    1    1    2    0    0  0.17697014117E+00  0.23770203743E+00  0.27994648556E+01  0.28151064220E+01  0.00000000000E+00 0. -1.
</event>
<event>
 5    1  0.7095115E+001  0.1599340E+01  0.7818608E-02  0.3354080E+00
         11   -1    0    0    0    0  0.00000000000E+00  0.00000000000E+00  0.39999999674E+01  0.40000000000E+01  0.51100000000E-03 0. -1.
    9000002   -1    0    0    0    0 -0.00000000000E+00 -0.00000000000E+00  0.00000000000E+00  0.93800000000E+00  0.93800000000E+00 0. -1.
         11    1    1    2    0    0 -0.24881139484E+00 -0.50235104441E-01  0.10021943926E+01  0.10338397059E+01  0.51100000000E-03 0. -1.
    9000002    1    1    2    0    0  0.84905059960E+00  0.10418040780E+00  0.55043013611E+00  0.13836754724E+01  0.93800000000E+00 0. -1.
         22    1    1    2    0    0 -0.60023920477E+00 -0.53945303358E-01  0.24473754387E+01  0.25204848217E+01  0.00000000000E+00 0. -1.
</event>
<event>
 5    1  0.7095115E+001  0.1599342E+01  0.7818608E-02  0.3354078E+00
         11   -1    0    0    0    0  0.00000000000E+00  0.00000000000E+00  0.39999999674E+01  0.40000000000E+01  0.51100000000E-03 0.  1.
    9000002   -1    0    0    0    0 -0.00000000000E+00 -0.00000000000E+00  0.00000000000E+00  0.93800000000E+00  0.93800000000E+00 0. -1.
         11    1    1    2    0    0 -0.41853096750E-01  0.19249595187E-01  0.47581227968E+00  0.47803746217E+00  0.51100000000E-03 0.  1.
    9000002    1    1    2    0    0  0.30306736628E+00 -0.26875103362E+00  0.11102584340E+00  0.10277391130E+01  0.93800000000E+00 0. -1.
         22    1    1    2    0    0 -0.26121426953E+00  0.24950143843E+00  0.34131618443E+01  0.34322234248E+01  0.00000000000E+00 0.  1.
</event>
<event>
 5    1  0.7095115E+001  0.1599509E+01  0.7818608E-02  0.3353896E+00
         11   -1    0    0    0    0  0.00000000000E+00  0.00000000000E+00  0.39999999674E+01  0.40000000000E+01  0.51100000000E-03 0. -1.
    9000002   -1    0    0    0    0 -0.00000000000E+00 -0.00000000000E+00  0.00000000000E+00  0.93800000000E+00  0.93800000000E+00 0. -1.
         11    1    1    2    0    0 -0.52506703070E-02 -0.52454035858E-01  0.43419762167E+00  0.43738636376E+00  0.51100000000E-03 0. -1.
    9000002    1    1    2    0    0  0.65383371678E-01  0.38427990237E+00  0.10249730064E+00  0.10209288542E+01  0.93800000000E+00 0. -1.
         22    1    1    2    0    0 -0.60132701371E-01 -0.33182586651E+00  0.34633050450E+01  0.34796847821E+01  0.00000000000E+00 0. -1.
</event>
<event>
 5    1  0.7095115E+001  0.1599587E+01  0.7818608E-02  0.3353812E+00
         11   -1    0    0    0    0  0.00000000000E+00  0.00000000000E+00  0.39999999674E+01  0.40000000000E+01  0.51100000000E-03 0.  1.
    9000002   -1    0    0    0    0 -0.00000000000E+00 -0.00000000000E+00  0.00000000000E+00  0.93800000000E+00  0.93800000000E+00 0. -1.
         11    1    1    2    0    0  0.10669006613E-01  0.24299704207E-01  0.25584436101E+00  0.25721761508E+00  0.51100000000E-03 0.  1.
    9000002    1    1    2    0    0 -0.10565876077E+00 -0.43246914530E+00  0.13459259011E+00  0.10469730181E+01  0.93800000000E+00 0. -1.
         22    1    1    2    0    0  0.94989754161E-01  0.40816944109E+00  0.36095630162E+01  0.36338093668E+01  0.00000000000E+00 0.  1.
</event>
<event>
 5    1  0.7095115E+001  0.1599244E+01  0.7818608E-02  0.3354184E+00
         11   -1    0    0    0    0  0.00000000000E+00  0.00000000000E+00  0.39999999674E+01  0.40000000000E+01  0.51100000000E-03 0. -1.
    9000002   -1    0    0    0    0 -0.00000000000E+00 -0.00000000000E+00  0.00000000000E+00  0.93800000000E+00  0.93800000000E+00 0.  1.
         11    1    1    2    0    0 -0.99626316937E-01 -0.56943457602E-01  0.71226465131E+00  0.72144934335E+00  0.51100000000E-03 0. -1.
    9000002    1    1    2    0    0  0.53662439124E+00  0.39539345024E+00  0.31525778829E+00  0.11931191017E+01  0.93800000000E+00 0.  1.
         22    1    1    2    0    0 -0.43699807430E+00 -0.33844999264E+00  0.29724775278E+01  0.30234315550E+01  0.00000000000E+00 0. -1.
</event>
<event>
 5    1  0.7095115E+001  0.1534363E+01  0.7818608E-02  0.3427837E+00
         11   -1    0    0    0    0  0.00000000000E+00  0.00000000000E+00  0.39999999674E+01  0.40000000000E+01  0.51100000000E-03 0. -1.
    9000002   -1    0    0    0    0 -0.00000000000E+00 -0.00000000000E+00  0.00000000000E+00  0.93800000000E+00  0.93800000000E+00 0.  1.
         11    1    1    2    0    0 -0.20187191983E+00  0.12099889222E+00  0.12555736425E+01  0.12774421461E+01  0.51100000000E-03 0. -1.
    9000002    1    1    2    0    0 -0.21503717125E+00 -0.80334141652E-01  0.86189497527E-01  0.96951905026E+00  0.93800000000E+00 0.  1.
         22    1    1    2    0    0  0.41690909108E+00 -0.40664750573E-01  0.26582368273E+01  0.26910388036E+01  0.00000000000E+00 0. -1.
</event>
<event>
 5    1  0.7095115E+001  0.1568428E+01  0.7818608E-02  0.3388360E+00
         11   -1    0    0    0    0  0.00000000000E+00  0.00000000000E+00  0.39999999674E+01  0.40000000000E+01  0.51100000000E-03 0. -1.
    9000002   -1    0    0    0    0 -0.00000000000E+00 -0.00000000000E+00  0.00000000000E+00  0.93800000000E+00  0.93800000000E+00 0. -1.
         11    1    1    2    0    0  0.10018777414E+00 -0.79159964597E-01  0.11073112642E+01  0.11146489973E+01  0.51100000000E-03 0. -1.
    9000002    1    1    2    0    0  0.59958977652E-01 -0.25631038912E+00  0.70497139067E-01  0.97678244312E+00  0.93800000000E+00 0. -1.
         22    1    1    2    0    0 -0.16014675180E+00  0.33547035372E+00  0.28221915640E+01  0.28465685596E+01  0.00000000000E+00 0. -1.
</event>
<event>
 5    1  0.7095115E+001  0.1599676E+01  0.7818608E-02  0.3353715E+00
         11   -1    0    0    0    0  0.00000000000E+00  0.00000000000E+00  0.39999999674E+01  0.40000000000E+01  0.51100000000E-03 0.  1.
    9000002   -1    0    0    0    0 -0.00000000000E+00 -0.00000000000E+00  0.00000000000E+00  0.93800000000E+00  0.93800000000E+00 0. -1.
         11    1    1    2    0    0 -0.20687273737E+00 -0.28729672567E-02  0.14136928534E+01  0.14287520178E+01  0.51100000000E-03 0.  1.
    9000002    1    1    2    0    0  0.55428922726E+00  0.10211872405E-01  0.21245885973E+00  0.11101007147E+01  0.93800000000E+00 0. -1.
         22    1    1    2    0    0 -0.34741648989E+00 -0.73389051480E-02  0.23738482542E+01  0.23991472674E+01  0.00000000000E+00 0.  1.
</event>
<event>
 5    1  0.7095115E+001  0.1599673E+01  0.7818608E-02  0.3353718E+00
         11   -1    0    0    0    0  0.00000000000E+00  0.00000000000E+00  0.39999999674E+01  0.40000000000E+01  0.51100000000E-03 0. -1.
    9000002   -1    0    0    0    0 -0.00000000000E+00 -0.00000000000E+00  0.00000000000E+00  0.93800000000E+00  0.93800000000E+00 0. -1.
         11    1    1    2    0    0 -0.15737881025E+00 -0.32185178803E-01  0.94943217965E+00  0.96292559449E+00  0.51100000000E-03 0. -1.
    9000002    1    1    2    0    0  0.62303068017E+00  0.12995371981E+00  0.28491672777E+00  0.11687928557E+01  0.93800000000E+00 0. -1.
         22    1    1    2    0    0 -0.46565186992E+00 -0.97768541010E-01  0.27656510599E+01  0.28062815498E+01  0.00000000000E+00 0. -1.
</event>
<event>
 5    1  0.7095115E+001  0.1599677E+01  0.7818608E-02  0.3353714E+00
         11   -1    0    0    0    0  0.00000000000E+00  0.00000000000E+00  0.39999999674E+01  0.40000000000E+01  0.51100000000E-03 0. -1.
    9000002   -1    0    0    0    0 -0.00000000000E+00 -0.00000000000E+00  0.00000000000E+00  0.93800000000E+00  0.93800000000E+00 0.  1.
         11    1    1    2    0    0  0.12976743893E+00 -0.11829807527E-01  0.10430814014E+01  0.10511891379E+01  0.51100000000E-03 0. -1.
    9000002    1    1    2    0    0 -0.47738747046E+00  0.44602289700E-01  0.15684374543E+00  0.10650502907E+01  0.93800000000E+00 0.  1.
         22    1    1    2    0    0  0.34762003153E+00 -0.32772482173E-01  0.28000748205E+01  0.28217605714E+01  0.00000000000E+00 0. -1.
</event>
<event>
 5    1  0.7095115E+001  0.1599670E+01  0.7818608E-02  0.3353721E+00
         11   -1    0    0    0    0  0.00000000000E+00  0.00000000000E+00  0.39999999674E+01  0.40000000000E+01  0.51100000000E-03 0. -1.
    9000002   -1    0    0    0    0 -0.00000000000E+00 -0.00000000000E+00  0.00000000000E+00  0.93800000000E+00  0.93800000000E+00 0.  1.
         11    1    1    2    0    0 -0.13941797353E-01  0.85731729353E-02  0.12039122233E+00  0.12149971416E+00  0.51100000000E-03 0. -1.
    9000002    1    1    2    0    0  0.44363908329E+00 -0.24084106590E+00  0.17458624149E+00  0.10794185523E+01  0.93800000000E+00 0.  1.
         22    1    1    2    0    0 -0.42969728594E+00  0.23226789297E+00  0.37050225035E+01  0.37370817336E+01  0.00000000000E+00 0. -1.
</event>
<event>
 5    1  0.7095115E+001  0.1599654E+01  0.7818608E-02  0.3353739E+00
         11   -1    0    0    0    0  0.00000000000E+00  0.00000000000E+00  0.39999999674E+01  0.40000000000E+01  0.51100000000E-03 0.  1.
    9000002   -1    0    0    0    0 -0.00000000000E+00 -0.00000000000E+00  0.00000000000E+00  0.93800000000E+00  0.93800000000E+00 0. -1.
         11    1    1    2    0    0 -0.28160975719E-01  0.30670032669E-01  0.40876733323E+00  0.41088281212E+00  0.51100000000E-03 0.  1.
    9000002    1    1    2    0    0  0.28968087686E+00 -0.26672306153E+00  0.10452450664E+00  0.10226561370E+01  0.93800000000E+00 0. -1.
         22    1    1    2    0    0 -0.26151990114E+00  0.23605302886E+00  0.34867081275E+01  0.35044610509E+01  0.00000000000E+00 0.  1.
</event>
<event>
 5    1  0.7095115E+001  0.1599672E+01  0.7818608E-02  0.3353720E+00
         11   -1    0    0    0    0  0.00000000000E+00  0.00000000000E+00  0.39999999674E+01  0.40000000000E+01  0.51100000000E-03 0.  1.
    9000002   -1    0    0    0    0 -0.00000000000E+00 -0.00000000000E+00  0.00000000000E+00  0.93800000000E+00  0.93800000000E+00 0. -1.
         11    1    1    2    0    0 -0.20144165973E-01 -0.57091060945E-01  0.38761331348E+00  0.39231303645E+00  0.51100000000E-03 0.  1.
    9000002    1    1    2    0    0  0.20801800426E+00  0.54412192864E+00  0.23589791579E+00  0.11290845805E+01  0.93800000000E+00 0. -1.
         22    1    1    2    0    0 -0.18787383829E+00 -0.48703086769E+00  0.33764887381E+01  0.34166023830E+01  0.00000000000E+00 0.  1.
</event>
<event>
 5    1  0.7095115E+001  0.1586680E+01  0.7818608E-02  0.3367949E+00
         11   -1    0    0    0    0  0.00000000000E+00  0.00000000000E+00  0.39999999674E+01  0.40000000000E+01  0.51100000000E-03 0. -1.
    9000002   -1    0    0    0    0 -0.00000000000E+00 -0.00000000000E+00  0.00000000000E+00  0.93800000000E+00  0.93800000000E+00 0.  1.
         11    1    1    2    0    0 -0.13686242748E+00  0.15878693541E+00  0.72458678253E+00  0.75430158521E+00  0.51100000000E-03 0. -1.
    9000002    1    1    2    0    0  0.35838514687E+00 -0.38258372541E+00  0.20098116755E+00  0.10931823499E+01  0.93800000000E+00 0.  1.
         22    1    1    2    0    0 -0.22152271940E+00  0.22379679000E+00  0.30744320173E+01  0.30905160649E+01  0.00000000000E+00 0. -1.
</event>
<event>
 5    1  0.7095115E+001  0.1599669E+01  0.7818608E-02  0.3353722E+00
         11   -1    0    0    0    0  0.00000000000E+00  0.00000000000E+00  0.39999999674E+01  0.40000000000E+01  0.51100000000E-03 0. -1.
    9000002   -1    0    0    0    0 -0.00000000000E+00 -0.00000000000E+00  0.00000000000E+00  0.93800000000E+00  0.93800000000E+00 0.  1.
         11    1    1    2    0    0 -0.20394993831E-01  0.15380274613E+00  0.14800223571E+01  0.14881322788E+01  0.51100000000E-03 0. -1.
    9000002    1    1    2    0    0  0.57250350653E-01 -0.41125786655E+00  0.11653340169E+00  0.10323926914E+01  0.93800000000E+00 0.  1.
         22    1    1    2    0    0 -0.36855356822E-01  0.25745512042E+00  0.24034442085E+01  0.24174750298E+01  0.00000000000E+00 0. -1.
</event>
<event>
 5    1  0.7095115E+001  0.1599677E+01  0.7818608E-02  0.3353715E+00
         11   -1    0    0    0    0  0.00000000000E+00  0.00000000000E+00  0.39999999674E+01  0.40000000000E+01  0.51100000000E-03 0.  1.
    9000002   -1    0    0    0    0 -0.00000000000E+00 -0.00000000000E+00  0.00000000000E+00  0.93800000000E+00  0.93800000000E+00 0. -1.
         11    1    1    2    0    0 -0.15037417844E+00  0.65786447660E-01  0.13885162309E+01  0.13981837629E+01  0.51100000000E-03 0.  1.
    9000002    1    1    2    0    0  0.41710292534E+00 -0.18085621520E+00  0.14047316636E+00  0.10517892048E+01  0.93800000000E+00 0. -1.
         22    1    1    2    0    0 -0.26672874690E+00  0.11506976754E+00  0.24710105701E+01  0.24880270323E+01  0.00000000000E+00 0.  1.
</event>
<event>
 5    1  0.7095115E+001  0.1549370E+01  0.7818608E-02  0.3410218E+00
         11   -1    0    0    0    0  0.00000000000E+00  0.00000000000E+00  0.39999999674E+01  0.40000000000E+01  0.51100000000E-03 0.  1.
    9000002   -1    0    0    0    0 -0.00000000000E+00 -0.00000000000E+00  0.00000000000E+00  0.93800000000E+00  0.93800000000E+00 0.  1.
         11    1    1    2    0    0 -0.32322290125E+00  0.38514455459E-01  0.10092057351E+01  0.10604022275E+01  0.51100000000E-03 0.  1.
    9000002    1    1    2    0    0  0.49167366780E+00  0.41865443303E+00  0.34874418407E+00  0.11910000150E+01  0.93800000000E+00 0.  1.
         22    1    1    2    0    0 -0.16845076654E+00 -0.45716888848E+00  0.26420500482E+01  0.26865977575E+01  0.00000000000E+00 0.  1.
</event>
<event>
 5    1  0.7095115E+001  0.1599676E+01  0.7818608E-02  0.3353715E+00
         11   -1    0    0    0    0  0.00000000000E+00  0.00000000000E+00  0.39999999674E+01  0.40000000000E+01  0.51100000000E-03 0.  1.
    9000002   -1    0    0    0    0 -0.00000000000E+00 -0.00000000000E+00  0.00000000000E+00  0.93800000000E+00  0.93800000000E+00 0.  1.
         11    1    1    2    0    0 -0.50308493529E-01 -0.56790478033E-01  0.70233272998E+00  0.70641887548E+00  0.51100000000E-03 0.  1.
    9000002    1    1    2    0    0  0.27554159646E+00  0.31774510363E+00  0.11963838167E+00  0.10349118149E+01  0.93800000000E+00 0.  1.
         22    1    1    2    0    0 -0.22523310293E+00 -0.26095462560E+00  0.31780288557E+01  0.31966693096E+01  0.00000000000E+00 0.  1.
</event>
<event>
 5    1  0.7697045E+001  0.1558769E+01  0.7818608E-02  0.3399367E+00
         11   -1    0    0    0    0  0.00000000000E+00  0.00000000000E+00  0.39999999674E+01  0.40000000000E+01  0.51100000000E-03 0.  1.
    9000002   -1    0    0    0    0 -0.00000000000E+00 -0.00000000000E+00  0.00000000000E+00  0.93800000000E+00  0.93800000000E+00 0.  1.
         11    1    1    2    0    0  0.20529729088E+00 -0.83063244488E-01  0.12975577986E+01  0.13163217624E+01  0.51100000000E-03 0.  1.
    9000002    1    1    2    0    0 -0.23925893968E-01 -0.97886966891E-01  0.37178859949E-01  0.94412953259E+00  0.93800000000E+00 0.  1.
         22    1    1    2    0    0 -0.18137139691E+00  0.18095021138E+00  0.26652633088E+01  0.26775487050E+01  0.00000000000E+00 0.  1.
</event>
<event>
 5    1  0.7095115E+001  0.1599380E+01  0.7818608E-02  0.3354036E+00
         11   -1    0    0    0    0  0.00000000000E+00  0.00000000000E+00  0.39999999674E+01  0.40000000000E+01  0.51100000000E-03 0. -1.
    9000002   -1    0    0    0    0 -0.00000000000E+00 -0.00000000000E+00  0.00000000000E+00  0.93800000000E+00  0.93800000000E+00 0.  1.
         11    1    1    2    0    0  0.19717339143E-01  0.14207681449E+00  0.12319621683E+01  0.12402844996E+01  0.51100000000E-03 0. -1.
    9000002    1    1    2    0    0 -0.58553573003E-02 -0.42401521834E+00  0.12193390446E+00  0.10365978331E+01  0.93800000000E+00 0.  1.
         22    1    1    2    0    0 -0.13861981842E-01  0.28193840385E+00  0.26461038946E+01  0.26611176672E+01  0.00000000000E+00 0. -1.
</event>
<event>
 5    1  0.7095115E+001  0.1599644E+01  0.7818608E-02  0.3353750E+00
         11   -1    0    0    0    0  0.00000000000E+00  0.00000000000E+00  0.39999999674E+01  0.40000000000E+01  0.51100000000E-03 0.  1.
    9000002   -1    0    0    0    0 -0.00000000000E+00 -0.00000000000E+00  0.00000000000E+00  0.93800000000E+00  0.93800000000E+00 0. -1.
         11    1    1    2    0    0 -0.69531845530E-01 -0.25799114896E-01  0.88241987497E+00  0.88553112240E+00  0.51100000000E-03 0.  1.
    9000002    1    1    2    0    0  0.33370669923E+00  0.10907631185E+00  0.82681973007E-01  0.10049567710E+01  0.93800000000E+00 0. -1.
         22    1    1    2    0    0 -0.26417485370E+00 -0.83277196957E-01  0.30348981194E+01  0.30475121066E+01  0.00000000000E+00 0.  1.
</event>
<event>
 5    1  0.7095115E+001  0.1599673E+01  0.7818608E-02  0.3353718E+00
         11   -1    0    0    0    0  0.00000000000E+00  0.00000000000E+00  0.39999999674E+01  0.40000000000E+01  0.51100000000E-03 0. -1.
    9000002   -1    0    0    0    0 -0.00000000000E+00 -0.00000000000E+00  0.00000000000E+00  0.93800000000E+00  0.93800000000E+00 0. -1.
         11    1    1    2    0    0 -0.13492224586E-01 -0.18399589029E-01  0.19976243661E+00  0.20106187407E+00  0.51100000000E-03 0. -1.
    9000002    1    1    2    0    0  0.25075695414E+00  0.34390451207E+00  0.12260935920E+00  0.10373169325E+01  0.93800000000E+00 0. -1.
         22    1    1    2    0    0 -0.23726472955E+00 -0.32550492304E+00  0.36776281715E+01  0.36996211934E+01  0.00000000000E+00 0. -1.
</event>
<event>
 5    1  0.7095115E+001  0.1599674E+01  0.7818608E-02  0.3353718E+00
         11   -1    0    0    0    0  0.00000000000E+00  0.00000000000E+00  0.39999999674E+01  0.40000000000E+01  0.51100000000E-03 0. -1.
    9000002   -1    0    0    0    0 -0.00000000000E+00 -0.00000000000E+00  0.00000000000E+00  0.93800000000E+00  0.93800000000E+00 0. -1.
         11    1    1    2    0    0 -0.76610527589E-01  0.10535660885E+00  0.13976392454E+01  0.14036968723E+01  0.51100000000E-03 0. -1.
    9000002    1    1    2    0    0  0.21077656843E+00 -0.29051092843E+00  0.86466266823E-01  0.10080395710E+01  0.93800000000E+00 0. -1.
         22    1    1    2    0    0 -0.13416604084E+00  0.18515431958E+00  0.25158944552E+01  0.25262635567E+01  0.00000000000E+00 0.  1.
</event>
<event>
 5    1  0.7095115E+001  0.1599675E+01  0.7818608E-02  0.3353717E+00
         11   -1    0    0    0    0  0.00000000000E+00  0.00000000000E+00  0.39999999674E+01  0.40000000000E+01  0.51100000000E-03 0.  1.
    9000002   -1    0    0    0    0 -0.00000000000E+00 -0.00000000000E+00  0.00000000000E+00  0.93800000000E+00  0.93800000000E+00 0.  1.
         11    1    1    2    0    0 -0.55204677247E-01 -0.76485483510E-01  0.96257093521E+00  0.96718180918E+00  0.51100000000E-03 0.  1.
    9000002    1    1    2    0    0  0.22902389524E+00  0.31328641014E+00  0.10143218226E+00  0.10201631276E+01  0.93800000000E+00 0.  1.
         22    1    1    2    0    0 -0.17381921799E+00 -0.23680092663E+00  0.29359968499E+01  0.29506550632E+01  0.00000000000E+00 0.  1.
</event>
<event>
 5    1  0.7095115E+001  0.1588971E+01  0.7818608E-02  0.3365422E+00
         11   -1    0    0    0    0  0.00000000000E+00  0.00000000000E+00  0.39999999674E+01  0.40000000000E+01  0.51100000000E-03 0. -1.
    9000002   -1    0    0    0    0 -0.00000000000E+00 -0.00000000000E+00  0.00000000000E+00  0.93800000000E+00  0.93800000000E+00 0.  1.
         11    1    1    2    0    0  0.16676098751E+00 -0.21060271210E-01  0.70500309790E+00  0.72476367952E+00  0.51100000000E-03 0. -1.
    9000002    1    1    2    0    0 -0.46949984268E+00 -0.18661301990E+00  0.18464349929E+00  0.10812917013E+01  0.93800000000E+00 0.  1.
         22    1    1    2    0    0  0.30273885517E+00  0.20767329111E+00  0.31103533702E+01  0.31319446192E+01  0.00000000000E+00 0. -1.
</event>
<event>
 5    1  0.7095115E+001  0.1599553E+01  0.7818608E-02  0.3353849E+00
         11   -1    0    0    0    0  0.00000000000E+00  0.00000000000E+00  0.39999999674E+01  0.40000000000E+01  0.51100000000E-03 0.  1.
    9000002   -1    0    0    0    0 -0.00000000000E+00 -0.00000000000E+00  0.00000000000E+00  0.93800000000E+00  0.93800000000E+00 0.  1.
         11    1    1    2    0    0  0.88666786830E-01 -0.56362652033E-01  0.10325883251E+01  0.10379197743E+01  0.51100000000E-03 0.  1.
    9000002    1    1    2    0    0 -0.35067380078E+00  0.25225017252E+00  0.12651454226E+00  0.10404096277E+01  0.93800000000E+00 0.  1.
         22    1    1    2    0    0  0.26200701395E+00 -0.19588752049E+00  0.28408971000E+01  0.28596705980E+01  0.00000000000E+00 0.  1.
</event>
<event>
 5    1  0.7095115E+001  0.1599289E+01  0.7818608E-02  0.3354136E+00
         11   -1    0    0    0    0  0.00000000000E+00  0.00000000000E+00  0.39999999674E+01  0.40000000000E+01  0.51100000000E-03 0. -1.
    9000002   -1    0    0    0    0 -0.00000000000E+00 -0.00000000000E+00  0.00000000000E+00  0.93800000000E+00  0.93800000000E+00 0. -1.
         11    1    1    2    0    0  0.41548267817E-01  0.42990830188E-01  0.55221784383E+00  0.55544511718E+00  0.51100000000E-03 0. -1.
    9000002    1    1    2    0    0 -0.26911496107E+00 -0.41278722749E+00  0.16636891116E+00  0.10725384711E+01  0.93800000000E+00 0. -1.
         22    1    1    2    0    0  0.22756669326E+00  0.36979639730E+00  0.32814132124E+01  0.33100164117E+01  0.00000000000E+00 0. -1.
</event>
<event>
 5    1  0.7095115E+001  0.1592422E+01  0.7818608E-02  0.3361629E+00
         11   -1    0    0    0    0  0.00000000000E+00  0.00000000000E+00  0.39999999674E+01  0.40000000000E+01  0.51100000000E-03 0. -1.
    9000002   -1    0    0    0    0 -0.00000000000E+00 -0.00000000000E+00  0.00000000000E+00  0.93800000000E+00  0.93800000000E+00 0.  1.
         11    1    1    2    0    0  0.26697459716E-02  0.27545742764E-01  0.70767745103E+00  0.70821856182E+00  0.51100000000E-03 0. -1.
    9000002    1    1    2    0    0  0.89546601658E-01  0.27223601915E+00  0.60384637699E-01  0.98266034237E+00  0.93800000000E+00 0.  1.
         22    1    1    2    0    0 -0.92216347630E-01 -0.29978176192E+00  0.32319378786E+01  0.32471210958E+01  0.00000000000E+00 0. -1.
</event>
<event>
 5    1  0.7095115E+001  0.1599667E+01  0.7818608E-02  0.3353725E+00
         11   -1    0    0    0    0  0.00000000000E+00  0.00000000000E+00  0.39999999674E+01  0.40000000000E+01  0.51100000000E-03 0. -1.
    9000002   -1    0    0    0    0 -0.00000000000E+00 -0.00000000000E+00  0.00000000000E+00  0.93800000000E+00  0.93800000000E+00 0. -1.
         11    1    1    2    0    0  0.33294296819E-01 -0.46905752072E-01  0.37149112211E+00  0.37591830855E+00  0.51100000000E-03 0. -1.
    9000002    1    1    2    0    0 -0.34712015511E+00  0.45496223849E+00  0.22718694385E+00  0.11220253776E+01  0.93800000000E+00 0. -1.
         22    1    1    2    0    0  0.31382585829E+00 -0.40805648642E+00  0.34013219014E+01  0.34400563138E+01  0.00000000000E+00 0. -1.
</event>
<event>
 5    1  0.7095115E+001  0.1556432E+01  0.7818608E-02  0.3402052E+00
         11   -1    0    0    0    0  0.00000000000E+00  0.00000000000E+00  0.39999999674E+01  0.40000000000E+01  0.51100000000E-03 0. -1.
    9000002   -1    0    0    0    0 -0.00000000000E+00 -0.00000000000E+00  0.00000000000E+00  0.93800000000E+00  0.93800000000E+00 0. -1.
         11    1    1    2    0    0 -0.16156098615E-01  0.27441792171E+00  0.12897132483E+01  0.13186837146E+01  0.51100000000E-03 0. -1.
    9000002    1    1    2    0    0 -0.21776116371E+00 -0.16913993485E+00  0.84832677196E-01  0.98136070081E+00  0.93800000000E+00 0. -1.
         22    1    1    2    0    0  0.23391726233E+00 -0.10527798686E+00  0.26254540419E+01  0.26379555846E+01  0.00000000000E+00 0.  1.
</event>
<event>
 5    1  0.7095115E+001  0.1593634E+01  0.7818608E-02  0.3360302E+00
         11   -1    0    0    0    0  0.00000000000E+00  0.00000000000E+00  0.39999999674E+01  0.40000000000E+01  0.51100000000E-03 0.  1.
    9000002   -1    0    0    0    0 -0.00000000000E+00 -0.00000000000E+00  0.00000000000E+00  0.93800000000E+00  0.93800000000E+00 0. -1.
         11    1    1    2    0    0  0.10609327373E+00 -0.10422490764E+00  0.89272301658E+00  0.90502666234E+00  0.51100000000E-03 0.  1.
    9000002    1    1    2    0    0 -0.12600838263E+00  0.38057178434E+00  0.11346474392E+00  0.10263679865E+01  0.93800000000E+00 0. -1.
         22    1    1    2    0    0  0.19915108896E-01 -0.27634687670E+00  0.29938122069E+01  0.30066053512E+01  0.00000000000E+00 0.  1.
</event>
<event>
 5    1  0.7095115E+001  0.1599653E+01  0.7818608E-02  0.3353740E+00
         11   -1    0    0    0    0  0.00000000000E+00  0.00000000000E+00  0.39999999674E+01  0.40000000000E+01  0.51100000000E-03 0. -1.
    9000002   -1    0    0    0    0 -0.00000000000E+00 -0.00000000000E+00  0.00000000000E+00  0.93800000000E+00  0.93800000000E+00 0.  1.
         11    1    1    2    0    0  0.57991492700E-01 -0.10330034400E+00  0.12243688035E+01  0.12300866646E+01  0.51100000000E-03 0. -1.
    9000002    1    1    2    0    0 -0.17456800429E+00  0.34338306849E+00  0.99923522157E-01  0.10189281771E+01  0.93800000000E+00 0.  1.
         22    1    1    2    0    0  0.11657651159E+00 -0.24008272449E+00  0.26757076417E+01  0.26889851583E+01  0.00000000000E+00 0. -1.
</event>
<event>
 5    1  0.7095115E+001  0.1598780E+01  0.7818608E-02  0.3354689E+00
         11   -1    0    0    0    0  0.00000000000E+00  0.00000000000E+00  0.39999999674E+01  0.40000000000E+01  0.51100000000E-03 0.  1.
    9000002   -1    0    0    0    0 -0.00000000000E+00 -0.00000000000E+00  0.00000000000E+00  0.93800000000E+00  0.93800000000E+00 0.  1.
         11    1    1    2    0    0  0.10968346289E-01  0.15010472498E-01  0.98981524087E-01  0.10071356481E+00  0.51100000000E-03 0.  1.
    9000002    1    1    2    0    0 -0.39931152527E+00 -0.14198711851E+00  0.12229384459E+00  0.10365374187E+01  0.93800000000E+00 0.  1.
         22    1    1    2    0    0  0.38834317898E+00  0.12697664601E+00  0.37787245987E+01  0.38007490164E+01  0.00000000000E+00 0.  1.
</event>
<event>
 5    1  0.7095115E+001  0.1599677E+01  0.7818608E-02  0.3353714E+00
         11   -1    0    0    0    0  0.00000000000E+00  0.00000000000E+00  0.39999999674E+01  0.40000000000E+01  0.51100000000E-03 0. -1.
    9000002   -1    0    0    0    0 -0.00000000000E+00 -0.00000000000E+00  0.00000000000E+00  0.93800000000E+00  0.93800000000E+00 0.  1.
         11    1    1    2    0    0  0.17615056464E+00 -0.33303415414E-01  0.12052795096E+01  0.12185389187E+01  0.51100000000E-03 0. -1.
    9000002    1    1    2    0    0 -0.55154959968E+00  0.10450155346E+00  0.21813548959E+00  0.11146993440E+01  0.93800000000E+00 0.  1.
         22    1    1    2    0    0  0.37539903504E+00 -0.71198138049E-01  0.25765849682E+01  0.26047617374E+01  0.00000000000E+00 0. -1.
</event>
<event>
 5    1  0.7095115E+001  0.1599478E+01  0.7818608E-02  0.3353930E+00
         11   -1    0    0    0    0  0.00000000000E+00  0.00000000000E+00  0.39999999674E+01  0.40000000000E+01  0.51100000000E-03 0.  1.
    9000002   -1    0    0    0    0 -0.00000000000E+00 -0.00000000000E+00  0.00000000000E+00  0.93800000000E+00  0.93800000000E+00 0. -1.
         11    1    1    2    0    0 -0.44738025122E-01  0.80077826260E-02  0.45509652501E+00  0.45736060573E+00  0.51100000000E-03 0.  1.
    9000002    1    1    2    0    0  0.37733388321E+00  0.24470072942E-01  0.96343796156E-01  0.10159260657E+01  0.93800000000E+00 0. -1.
         22    1    1    2    0    0 -0.33259585808E+00 -0.32477855568E-01  0.34485596462E+01  0.34647133286E+01  0.00000000000E+00 0.  1.
</event>
<event>
 5    1  0.7095115E+001  0.1599351E+01  0.7818608E-02  0.3354068E+00
         11   -1    0    0    0    0  0.00000000000E+00  0.00000000000E+00  0.39999999674E+01  0.40000000000E+01  0.51100000000E-03 0.  1.
    9000002   -1    0    0    0    0 -0.00000000000E+00 -0.00000000000E+00  0.00000000000E+00  0.93800000000E+00  0.93800000000E+00 0. -1.
         11    1    1    2    0    0  0.70807088470E-01  0.25090075032E-01  0.10100992803E+01  0.10128889243E+01  0.51100000000E-03 0.  1.
    9000002    1    1    2    0    0 -0.30209612165E+00 -0.16602005135E+00  0.79888772872E-01  0.10025222891E+01  0.93800000000E+00 0. -1.
         22    1    1    2    0    0  0.23128903318E+00  0.14092997631E+00  0.29100119141E+01  0.29225887866E+01  0.00000000000E+00 0.  1.
</event>
<event>
 5    1  0.7095115E+001  0.1599586E+01  0.7818608E-02  0.3353813E+00
         11   -1    0    0    0    0  0.00000000000E+00  0.00000000000E+00  0.39999999674E+01  0.40000000000E+01  0.51100000000E-03 0.  1.
    9000002   -1    0    0    0    0 -0.00000000000E+00 -0.00000000000E+00  0.00000000000E+00  0.93800000000E+00  0.93800000000E+00 0.  1.
         11    1    1    2    0    0 -0.10646573082E-01 -0.56611812847E-01  0.51459848647E+00  0.51781281393E+00  0.51100000000E-03 0.  1.
    9000002    1    1    2    0    0  0.13532226816E+00  0.44231805963E+00  0.14566970776E+00  0.10559455696E+01  0.93800000000E+00 0.  1.
         22    1    1    2    0    0 -0.12467569508E+00 -0.38570624678E+00  0.33397317731E+01  0.33642416165E+01  0.00000000000E+00 0.  1.
</event>
<event>
 5    1  0.7095115E+001  0.1599675E+01  0.7818608E-02  0.3353716E+00
         11   -1    0    0    0    0  0.00000000000E+00  0.00000000000E+00  0.39999999674E+01  0.40000000000E+01  0.51100000000E-03 0.  1.
    9000002   -1    0    0    0    0 -0.00000000000E+00 -0.00000000000E+00  0.00000000000E+00  0.93800000000E+00  0.93800000000E+00 0. -1.
         11    1    1    2    0    0 -0.67615566935E-01  0.21734947643E+00  0.11813066433E+01  0.12030371176E+01  0.51100000000E-03 0.  1.
    9000002    1    1    2    0    0  0.21280665887E+00 -0.67151600471E+00  0.35506283079E+00  0.12256157768E+01  0.93800000000E+00 0. -1.
         22    1    1    2    0    0 -0.14519109193E+00  0.45416652828E+00  0.24636304933E+01  0.25093471055E+01  0.00000000000E+00 0.  1.
</event>
<event>
 5    1  0.7095115E+001  0.1486304E+01  0.7818608E-02  0.3486833E+00
         11   -1    0    0    0    0  0.00000000000E+00  0.00000000000E+00  0.39999999674E+01  0.40000000000E+01  0.51100000000E-03 0. -1.
    9000002   -1    0    0    0    0 -0.00000000000E+00 -0.00000000000E+00  0.00000000000E+00  0.93800000000E+00  0.93800000000E+00 0.  1.
         11    1    1    2    0    0  0.44232661697E+00 -0.10822944656E+00  0.93519639413E+00  0.10401725847E+01  0.51100000000E-03 0. -1.
    9000002    1    1    2    0    0 -0.74963022850E-01 -0.26480182735E+00  0.21574623437E+00  0.10010643836E+01  0.93800000000E+00 0.  1.
         22    1    1    2    0    0 -0.36736359412E+00  0.37303127392E+00  0.28490573389E+01  0.28967630317E+01  0.00000000000E+00 0. -1.
</event>
<event>
 5    1  0.7095115E+001  0.1599269E+01  0.7818608E-02  0.3354157E+00
         11   -1    0    0    0    0  0.00000000000E+00  0.00000000000E+00  0.39999999674E+01  0.40000000000E+01  0.51100000000E-03 0. -1.
    9000002   -1    0    0    0    0 -0.00000000000E+00 -0.00000000000E+00  0.00000000000E+00  0.93800000000E+00  0.93800000000E+00 0. -1.
         11    1    1    2    0    0 -0.11069944961E+00 -0.22879468863E-01  0.14521649818E+01  0.14565580091E+01  0.51100000000E-03 0. -1.
    9000002    1    1    2    0    0  0.34173744976E+00  0.14945610028E-01  0.78714073017E-01  0.10015227212E+01  0.93800000000E+00 0. -1.
         22    1    1    2    0    0 -0.23103800015E+00  0.79338588351E-02  0.24691209125E+01  0.24799192697E+01  0.00000000000E+00 0.  1.
</event>
<event>
 5    1  0.7095115E+001  0.1599601E+01  0.7818608E-02  0.3353797E+00
         11   -1    0    0    0    0  0.00000000000E+00  0.00000000000E+00  0.39999999674E+01  0.40000000000E+01  0.51100000000E-03 0.  1.
    9000002   -1    0    0    0    0 -0.00000000000E+00 -0.00000000000E+00  0.00000000000E+00  0.93800000000E+00  0.93800000000E+00 0.  1.
         11    1    1    2    0    0 -0.12635663348E+00 -0.13623344261E-02  0.11497315030E+01  0.11566549377E+01  0.51100000000E-03 0.  1.
    9000002    1    1    2    0    0  0.43626593136E+00  0.35055319505E-01  0.12993525843E+00  0.10432085169E+01  0.93800000000E+00 0.  1.
         22    1    1    2    0    0 -0.30990929788E+00 -0.33692985079E-01  0.27203332059E+01  0.27381365454E+01  0.00000000000E+00 0.  1.
</event>
<event>
 5    1  0.7095115E+001  0.1537690E+01  0.7818608E-02  0.3423899E+00
         11   -1    0    0    0    0  0.00000000000E+00  0.00000000000E+00  0.39999999674E+01  0.40000000000E+01  0.51100000000E-03 0. -1.
    9000002   -1    0    0    0    0 -0.00000000000E+00 -0.00000000000E+00  0.00000000000E+00  0.93800000000E+00  0.93800000000E+00 0. -1.
         11    1    1    2    0    0  0.70512995569E-01 -0.42946775654E+00  0.57616306835E+00  0.72206563337E+00  0.51100000000E-03 0. -1.
    9000002    1    1    2    0    0 -0.44623871910E+00 -0.11474579804E+00  0.39736250509E+00  0.11180503357E+01  0.93800000000E+00 0. -1.
         22    1    1    2    0    0  0.37572572353E+00  0.54421355458E+00  0.30264743939E+01  0.30978840310E+01  0.00000000000E+00 0. -1.
</event>
<event>
 5    1  0.7095115E+001  0.1599676E+01  0.7818608E-02  0.3353715E+00
         11   -1    0    0    0    0  0.00000000000E+00  0.00000000000E+00  0.39999999674E+01  0.40000000000E+01  0.51100000000E-03 0. -1.
    9000002   -1    0    0    0    0 -0.00000000000E+00 -0.00000000000E+00  0.00000000000E+00  0.93800000000E+00  0.93800000000E+00 0. -1.
         11    1    1    2    0    0  0.11631703352E-03 -0.39555479294E-01  0.26919958061E+00  0.27209065547E+00  0.51100000000E-03 0.  1.
    9000002    1    1    2    0    0 -0.51466854536E-03  0.55358928375E+00  0.21181866914E+00  0.11095821324E+01  0.93800000000E+00 0. -1.
         22    1    1    2    0    0  0.39835151185E-03 -0.51403380446E+00  0.35189817176E+01  0.35563272121E+01  0.00000000000E+00 0. -1.
</event>
<event>
 5    1  0.7095115E+001  0.1599591E+01  0.7818608E-02  0.3353807E+00
         11   -1    0    0    0    0  0.00000000000E+00  0.00000000000E+00  0.39999999674E+01  0.40000000000E+01  0.51100000000E-03 0. -1.
    9000002   -1    0    0    0    0 -0.00000000000E+00 -0.00000000000E+00  0.00000000000E+00  0.93800000000E+00  0.93800000000E+00 0. -1.
         11    1    1    2    0    0  0.79644938580E-02 -0.26504511630E-01  0.25113749148E+00  0.25265831284E+00  0.51100000000E-03 0. -1.
    9000002    1    1    2    0    0 -0.39276921351E-01  0.41894913939E+00  0.11983219734E+00  0.10350192334E+01  0.93800000000E+00 0. -1.
         22    1    1    2    0    0  0.31312427493E-01 -0.39244462776E+00  0.36290302785E+01  0.36503224538E+01  0.00000000000E+00 0. -1.
</event>
<event>
 5    1  0.7095115E+001  0.1584615E+01  0.7818608E-02  0.3370233E+00
         11   -1    0    0    0    0  0.00000000000E+00  0.00000000000E+00  0.39999999674E+01  0.40000000000E+01  0.51100000000E-03 0.  1.
    9000002   -1    0    0    0    0 -0.00000000000E+00 -0.00000000000E+00  0.00000000000E+00  0.93800000000E+00  0.93800000000E+00 0. -1.
         11    1    1    2    0    0 -0.64264693291E-03  0.31075613524E-01  0.61948145703E-01  0.69310465502E-01  0.51100000000E-03 0.  1.
    9000002    1    1    2    0    0 -0.97182292751E-01  0.40928091582E+00  0.13251774178E+00  0.10365134915E+01  0.93800000000E+00 0. -1.
         22    1    1    2    0    0  0.97824939684E-01 -0.44035652935E+00  0.38055340799E+01  0.38321760430E+01  0.00000000000E+00 0.  1.
</event>
<event>
 5    1  0.7095115E+001  0.1599672E+01  0.7818608E-02  0.3353720E+00
         11   -1    0    0    0    0  0.00000000000E+00  0.00000000000E+00  0.39999999674E+01  0.40000000000E+01  0.51100000000E-03 0. -1.
    9000002   -1    0    0    0    0 -0.00000000000E+00 -0.00000000000E+00  0.00000000000E+00  0.93800000000E+00  0.93800000000E+00 0. -1.
         11    1    1    2    0    0  0.16567266699E-01 -0.26543641270E-01  0.32411514801E+00  0.32562237256E+00  0.51100000000E-03 0. -1.
    9000002    1    1    2    0    0 -0.18995754686E+00  0.30557808129E+00  0.86905311127E-01  0.10083939540E+01  0.93800000000E+00 0. -1.
         22    1    1    2    0    0  0.17339028016E+00 -0.27903444002E+00  0.35889795082E+01  0.36039836734E+01  0.00000000000E+00 0. -1.
</event>
<event>
 5    1  0.7095115E+001  0.1454302E+01  0.7818608E-02  0.3528457E+00
         11   -1    0    0    0    0  0.00000000000E+00  0.00000000000E+00  0.39999999674E+01  0.40000000000E+01  0.51100000000E-03 0. -1.
    9000002   -1    0    0    0    0 -0.00000000000E+00 -0.00000000000E+00  0.00000000000E+00  0.93800000000E+00  0.93800000000E+00 0.  1.
         11    1    1    2    0    0  0.36739568910E+00 -0.97776293093E-01  0.10562768040E+01  0.11226133545E+01  0.51100000000E-03 0. -1.
    9000002    1    1    2    0    0  0.15937185438E+00  0.27833774654E+00  0.19435462243E+00  0.10101925600E+01  0.93800000000E+00 0.  1.
         22    1    1    2    0    0 -0.52676754347E+00 -0.18056145345E+00  0.27493685409E+01  0.28051940854E+01  0.00000000000E+00 0. -1.
</event>
<event>
 5    1  0.7095115E+001  0.1598668E+01  0.7818608E-02  0.3354811E+00
         11   -1    0    0    0    0  0.00000000000E+00  0.00000000000E+00  0.39999999674E+01  0.40000000000E+01  0.51100000000E-03 0. -1.
    9000002   -1    0    0    0    0 -0.00000000000E+00 -0.00000000000E+00  0.00000000000E+00  0.93800000000E+00  0.93800000000E+00 0. -1.
         11    1    1    2    0    0  0.16985855963E-01 -0.74949522835E-01  0.47359349151E+00  0.47978850194E+00  0.51100000000E-03 0. -1.
    9000002    1    1    2    0    0 -0.15514857918E+00  0.40688284379E+00  0.12938197310E+00  0.10422132340E+01  0.93800000000E+00 0. -1.
         22    1    1    2    0    0  0.13816272322E+00 -0.33193332096E+00  0.33970245027E+01  0.34159982640E+01  0.00000000000E+00 0. -1.
</event>
<event>
 5    1  0.7095115E+001  0.1593285E+01  0.7818608E-02  0.3360684E+00
         11   -1    0    0    0    0  0.00000000000E+00  0.00000000000E+00  0.39999999674E+01  0.40000000000E+01  0.51100000000E-03 0.  1.
    9000002   -1    0    0    0    0 -0.00000000000E+00 -0.00000000000E+00  0.00000000000E+00  0.93800000000E+00  0.93800000000E+00 0.  1.
         11    1    1    2    0    0 -0.19868614646E+00  0.97721756180E-01  0.13738275564E+01  0.13915560148E+01  0.51100000000E-03 0.  1.
    9000002    1    1    2    0    0  0.53219763178E+00 -0.15085809093E-01  0.20110350401E+00  0.10971547385E+01  0.93800000000E+00 0.  1.
         22    1    1    2    0    0 -0.33351148533E+00 -0.82635947086E-01  0.24250689070E+01  0.24492892467E+01  0.00000000000E+00 0.  1.
</event>
<event>
 5    1  0.7095115E+001  0.1531951E+01  0.7818608E-02  0.3430704E+00
         11   -1    0    0    0    0  0.00000000000E+00  0.00000000000E+00  0.39999999674E+01  0.40000000000E+01  0.51100000000E-03 0. -1.
    9000002   -1    0    0    0    0 -0.00000000000E+00 -0.00000000000E+00  0.00000000000E+00  0.93800000000E+00  0.93800000000E+00 0. -1.
         11    1    1    2    0    0  0.14998760801E+00  0.22568309316E+00  0.65141805163E+00  0.70553162948E+00  0.51100000000E-03 0. -1.
    9000002    1    1    2    0    0  0.12358555694E+00 -0.34952676253E+00  0.14985689412E+00  0.10196781043E+01  0.93800000000E+00 0. -1.
         22    1    1    2    0    0 -0.27357316495E+00  0.12384366937E+00  0.31987250216E+01  0.32127902662E+01  0.00000000000E+00 0. -1.
</event>
<event>
 5    1  0.7095115E+001  0.1599194E+01  0.7818608E-02  0.3354238E+00
         11   -1    0    0    0    0  0.00000000000E+00  0.00000000000E+00  0.39999999674E+01  0.40000000000E+01  0.51100000000E-03 0.  1.
    9000002   -1    0    0    0    0 -0.00000000000E+00 -0.00000000000E+00  0.00000000000E+00  0.93800000000E+00  0.93800000000E+00 0.  1.
         11    1    1    2    0    0 -0.19545014232E-02 -0.27542996292E-02  0.53098415755E-01  0.53208167785E-01  0.51100000000E-03 0.  1.
    9000002    1    1    2    0    0  0.43037792679E+00 -0.14095689355E+00  0.13977391987E+00  0.10509399385E+01  0.93800000000E+00 0.  1.
         22    1    1    2    0    0 -0.42842342537E+00  0.14371119318E+00  0.38071276317E+01  0.38338518937E+01  0.00000000000E+00 0.  1.
</event>
<event>
 5    1  0.7095115E+001  0.1599618E+01  0.7818608E-02  0.3353778E+00
         11   -1    0    0    0    0  0.00000000000E+00  0.00000000000E+00  0.39999999674E+01  0.40000000000E+01  0.51100000000E-03 0. -1.
    9000002   -1    0    0    0    0 -0.00000000000E+00 -0.00000000000E+00  0.00000000000E+00  0.93800000000E+00  0.93800000000E+00 0.  1.
         11    1    1    2    0    0  0.60578450027E-01 -0.10193259352E+00  0.76580505325E+00  0.77493073428E+00  0.51100000000E-03 0. -1.
    9000002    1    1    2    0    0 -0.26256377080E+00  0.50986705307E+00  0.22827652437E+00  0.11228794758E+01  0.93800000000E+00 0.  1.
         22    1    1    2    0    0  0.20198532077E+00 -0.40793445955E+00  0.30059183897E+01  0.30401897899E+01  0.00000000000E+00 0. -1.
</event>
<event>
 5    1  0.7095115E+001  0.1599178E+01  0.7818608E-02  0.3354256E+00
         11   -1    0    0    0    0  0.00000000000E+00  0.00000000000E+00  0.39999999674E+01  0.40000000000E+01  0.51100000000E-03 0.  1.
    9000002   -1    0    0    0    0 -0.00000000000E+00 -0.00000000000E+00  0.00000000000E+00  0.93800000000E+00  0.93800000000E+00 0. -1.
         11    1    1    2    0    0 -0.32106451001E-02 -0.16045848179E-01  0.25501229151E+00  0.25553729165E+00  0.51100000000E-03 0.  1.
    9000002    1    1    2    0    0  0.25086964179E+00  0.27357625791E+00  0.93013480372E-01  0.10130523449E+01  0.93800000000E+00 0. -1.
         22    1    1    2    0    0 -0.24765899669E+00 -0.25753040973E+00  0.36519741955E+01  0.36694103634E+01  0.00000000000E+00 0.  1.
</event>
<event>
 5    1  0.7095115E+001  0.1599639E+01  0.7818608E-02  0.3353755E+00
         11   -1    0    0    0    0  0.00000000000E+00  0.00000000000E+00  0.39999999674E+01  0.40000000000E+01  0.51100000000E-03 0.  1.
    9000002   -1    0    0    0    0 -0.00000000000E+00 -0.00000000000E+00  0.00000000000E+00  0.93800000000E+00  0.93800000000E+00 0.  1.
         11    1    1    2    0    0  0.41926686098E-01 -0.24424152981E-01  0.25271523030E+00  0.25733176058E+00  0.51100000000E-03 0.  1.
    9000002    1    1    2    0    0 -0.60271810493E+00  0.40397175709E+00  0.37896873530E+00  0.12449592752E+01  0.93800000000E+00 0.  1.
         22    1    1    2    0    0  0.56079141884E+00 -0.37954760410E+00  0.33683160018E+01  0.34357089642E+01  0.00000000000E+00 0.  1.
</event>
<event>
 5    1  0.7095115E+001  0.1599676E+01  0.7818608E-02  0.3353716E+00
         11   -1    0    0    0    0  0.00000000000E+00  0.00000000000E+00  0.39999999674E+01  0.40000000000E+01  0.51100000000E-03 0. -1.
    9000002   -1    0    0    0    0 -0.00000000000E+00 -0.00000000000E+00  0.00000000000E+00  0.93800000000E+00  0.93800000000E+00 0.  1.
         11    1    1    2    0    0  0.34458227962E-01  0.11918450394E+00  0.12440077548E+01  0.12501791354E+01  0.51100000000E-03 0. -1.
    9000002    1    1    2    0    0 -0.11175531030E+00 -0.37194171447E+00  0.10158966144E+00  0.10202913053E+01  0.93800000000E+00 0.  1.
         22    1    1    2    0    0  0.77297082335E-01  0.25275721053E+00  0.26544025511E+01  0.26675295593E+01  0.00000000000E+00 0. -1.
</event>
<event>
 5    1  0.7095115E+001  0.1599345E+01  0.7818608E-02  0.3354075E+00
         11   -1    0    0    0    0  0.00000000000E+00  0.00000000000E+00  0.39999999674E+01  0.40000000000E+01  0.51100000000E-03 0. -1.
    9000002   -1    0    0    0    0 -0.00000000000E+00 -0.00000000000E+00  0.00000000000E+00  0.93800000000E+00  0.93800000000E+00 0.  1.
         11    1    1    2    0    0  0.13377432922E-01 -0.21028191888E-01  0.19130704823E+00  0.19292430741E+00  0.51100000000E-03 0. -1.
    9000002    1    1    2    0    0 -0.17579027830E+00  0.58042787458E+00  0.25730293923E+00  0.11462318884E+01  0.93800000000E+00 0.  1.
         22    1    1    2    0    0  0.16241284537E+00 -0.55939968269E+00  0.35513899799E+01  0.35988438042E+01  0.00000000000E+00 0. -1.
</event>
<event>
 5    1  0.7095115E+001  0.1591266E+01  0.7818608E-02  0.3362898E+00
         11   -1    0    0    0    0  0.00000000000E+00  0.00000000000E+00  0.39999999674E+01  0.40000000000E+01  0.51100000000E-03 0. -1.
    9000002   -1    0    0    0    0 -0.00000000000E+00 -0.00000000000E+00  0.00000000000E+00  0.93800000000E+00  0.93800000000E+00 0. -1.
         11    1    1    2    0    0  0.21183941101E-01  0.16787139656E-01  0.11435110414E+00  0.11750320658E+00  0.51100000000E-03 0. -1.
    9000002    1    1    2    0    0  0.42777128080E+00 -0.24738505693E-01  0.13149420626E+00  0.10395840460E+01  0.93800000000E+00 0. -1.
         22    1    1    2    0    0 -0.44895522190E+00  0.79513660368E-02  0.37541546570E+01  0.37809127475E+01  0.00000000000E+00 0. -1.
</event>
<event>
 5    1  0.7095115E+001  0.1575580E+01  0.7818608E-02  0.3380302E+00
         11   -1    0    0    0    0  0.00000000000E+00  0.00000000000E+00  0.39999999674E+01  0.40000000000E+01  0.51100000000E-03 0. -1.
    9000002   -1    0    0    0    0 -0.00000000000E+00 -0.00000000000E+00  0.00000000000E+00  0.93800000000E+00  0.93800000000E+00 0.  1.
         11    1    1    2    0    0 -0.89026429801E-01 -0.62360363146E-01  0.10773188375E+01  0.10827883722E+01  0.51100000000E-03 0. -1.
    9000002    1    1    2    0    0 -0.26052631078E+00  0.63053067693E-01  0.66599316302E-01  0.97781855008E+00  0.93800000000E+00 0.  1.
         22    1    1    2    0    0  0.34955274058E+00 -0.69270454633E-03  0.28560818135E+01  0.28773930778E+01  0.00000000000E+00 0. -1.
</event>
<event>
 5    1  0.7095115E+001  0.1599668E+01  0.7818608E-02  0.3353724E+00
         11   -1    0    0    0    0  0.00000000000E+00  0.00000000000E+00  0.39999999674E+01  0.40000000000E+01  0.51100000000E-03 0. -1.
    9000002   -1    0    0    0    0 -0.00000000000E+00 -0.00000000000E+00  0.00000000000E+00  0.93800000000E+00  0.93800000000E+00 0. -1.
         11    1    1    2    0    0  0.10563017349E+00 -0.34817941240E-01  0.11934883523E+01  0.11986595558E+01  0.51100000000E-03 0. -1.
    9000002    1    1    2    0    0 -0.34516905861E+00  0.12513714742E+00  0.90568971155E-01  0.10113593443E+01  0.93800000000E+00 0. -1.
         22    1    1    2    0    0  0.23953888512E+00 -0.90319206181E-01  0.27159426439E+01  0.27279810999E+01  0.00000000000E+00 0.  1.
</event>
<event>
 5    1  0.7095115E+001  0.1599618E+01  0.7818608E-02  0.3353778E+00
         11   -1    0    0    0    0  0.00000000000E+00  0.00000000000E+00  0.39999999674E+01  0.40000000000E+01  0.51100000000E-03 0. -1.
    9000002   -1    0    0    0    0 -0.00000000000E+00 -0.00000000000E+00  0.00000000000E+00  0.93800000000E+00  0.93800000000E+00 0. -1.
         11    1    1    2    0    0 -0.37084519206E-01  0.10049109122E+00  0.11806157935E+01  0.11854651551E+01  0.51100000000E-03 0. -1.
    9000002    1    1    2    0    0  0.15070862854E+00 -0.32877507515E+00  0.87869891429E-01  0.10091438245E+01  0.93800000000E+00 0. -1.
         22    1    1    2    0    0 -0.11362410933E+00  0.22828398393E+00  0.27315142824E+01  0.27433910203E+01  0.00000000000E+00 0. -1.
</event>
<event>
 5    1  0.7095115E+001  0.1599432E+01  0.7818608E-02  0.3353980E+00
         11   -1    0    0    0    0  0.00000000000E+00  0.00000000000E+00  0.39999999674E+01  0.40000000000E+01  0.51100000000E-03 0. -1.
    9000002   -1    0    0    0    0 -0.00000000000E+00 -0.00000000000E+00  0.00000000000E+00  0.93800000000E+00  0.93800000000E+00 0. -1.
         11    1    1    2    0    0  0.58012846947E-01 -0.69442043563E-01  0.69468948100E+00  0.70055793762E+00  0.51100000000E-03 0. -1.
    9000002    1    1    2    0    0 -0.29178846235E+00  0.31291324882E+00  0.12414247104E+00  0.10384173348E+01  0.93800000000E+00 0. -1.
         22    1    1    2    0    0  0.23377561541E+00 -0.24347120526E+00  0.31811680153E+01  0.31990247276E+01  0.00000000000E+00 0. -1.
</event>
<event>
 5    1  0.7095115E+001  0.1597214E+01  0.7818608E-02  0.3356392E+00
         11   -1    0    0    0    0  0.00000000000E+00  0.00000000000E+00  0.39999999674E+01  0.40000000000E+01  0.51100000000E-03 0.  1.
    9000002   -1    0    0    0    0 -0.00000000000E+00 -0.00000000000E+00  0.00000000000E+00  0.93800000000E+00  0.93800000000E+00 0. -1.
         11    1    1    2    0    0 -0.80806402956E-01 -0.45619617748E-01  0.37590664400E+00  0.38719102573E+00  0.51100000000E-03 0.  1.
    9000002    1    1    2    0    0  0.45163747758E+00  0.37898930847E+00  0.24441802359E+00  0.11345454937E+01  0.93800000000E+00 0. -1.
         22    1    1    2    0    0 -0.37083107462E+00 -0.33336969072E+00  0.33796752998E+01  0.34162634805E+01  0.00000000000E+00 0.  1.
</event>
<event>
 5    1  0.7095115E+001  0.1599676E+01  0.7818608E-02  0.3353715E+00
         11   -1    0    0    0    0  0.00000000000E+00  0.00000000000E+00  0.39999999674E+01  0.40000000000E+01  0.51100000000E-03 0. -1.
    9000002   -1    0    0    0    0 -0.00000000000E+00 -0.00000000000E+00  0.00000000000E+00  0.93800000000E+00  0.93800000000E+00 0.  1.
         11    1    1    2    0    0 -0.43940185198E-01  0.84461663681E-01  0.74464807113E+00  0.75071001290E+00  0.51100000000E-03 0.  1.
    9000002    1    1    2    0    0  0.22938684733E+00 -0.43340573921E+00  0.16434531642E+00  0.10711266235E+01  0.93800000000E+00 0.  1.
         22    1    1    2    0    0 -0.18544666213E+00  0.34894407553E+00  0.30910065798E+01  0.31161633636E+01  0.00000000000E+00 0. -1.
</event>
<event>
 5    1  0.7095115E+001  0.1599529E+01  0.7818608E-02  0.3353875E+00
         11   -1    0    0    0    0  0.00000000000E+00  0.00000000000E+00  0.39999999674E+01  0.40000000000E+01  0.51100000000E-03 0.  1.
    9000002   -1    0    0    0    0 -0.00000000000E+00 -0.00000000000E+00  0.00000000000E+00  0.93800000000E+00  0.93800000000E+00 0. -1.
         11    1    1    2    0    0 -0.37859975524E-01 -0.36515424504E-01  0.22435844086E+00  0.23044245503E+00  0.51100000000E-03 0.  1.
    9000002    1    1    2    0    0  0.51167153082E+00  0.52537788067E+00  0.38814902047E+00  0.12523311603E+01  0.93800000000E+00 0. -1.
         22    1    1    2    0    0 -0.47381155530E+00 -0.48886245616E+00  0.33874925060E+01  0.34552263847E+01  0.00000000000E+00 0.  1.
</event>
<event>
 5    1  0.7095115E+001  0.1599675E+01  0.7818608E-02  0.3353716E+00
         11   -1    0    0    0    0  0.00000000000E+00  0.00000000000E+00  0.39999999674E+01  0.40000000000E+01  0.51100000000E-03 0.  1.
    9000002   -1    0    0    0    0 -0.00000000000E+00 -0.00000000000E+00  0.00000000000E+00  0.93800000000E+00  0.93800000000E+00 0. -1.
         11    1    1    2    0    0 -0.38046427570E-01 -0.17589365297E+00  0.12017442335E+01  0.12151442596E+01  0.51100000000E-03 0.  1.
    9000002    1    1    2    0    0  0.11788810688E+00  0.55661624215E+00  0.22441969031E+00  0.11197890177E+01  0.93800000000E+00 0. -1.
         22    1    1    2    0    0 -0.79841679310E-01 -0.38072258918E+00  0.25738360436E+01  0.26030667227E+01  0.00000000000E+00 0.  1.
</event>
<event>
 5    1  0.7095115E+001  0.1599625E+01  0.7818608E-02  0.3353771E+00
         11   -1    0    0    0    0  0.00000000000E+00  0.00000000000E+00  0.39999999674E+01  0.40000000000E+01  0.51100000000E-03 0. -1.
    9000002   -1    0    0    0    0 -0.00000000000E+00 -0.00000000000E+00  0.00000000000E+00  0.93800000000E+00  0.93800000000E+00 0.  1.
         11    1    1    2    0    0 -0.17987789449E+00  0.81026270992E-01  0.13755921690E+01  0.13896673667E+01  0.51100000000E-03 0. -1.
    9000002    1    1    2    0    0  0.51740589013E+00 -0.21952041500E+00  0.21874790280E+00  0.11151648814E+01  0.93800000000E+00 0.  1.
         22    1    1    2    0    0 -0.33752799564E+00  0.13849414401E+00  0.24056598955E+01  0.24331677519E+01  0.00000000000E+00 0. -1.
</event>
<event>
 5    1  0.7095115E+001  0.1599673E+01  0.7818608E-02  0.3353718E+00
         11   -1    0    0    0    0  0.00000000000E+00  0.00000000000E+00  0.39999999674E+01  0.40000000000E+01  0.51100000000E-03 0.  1.
    9000002   -1    0    0    0    0 -0.00000000000E+00 -0.00000000000E+00  0.00000000000E+00  0.93800000000E+00  0.93800000000E+00 0. -1.
         11    1    1    2    0    0 -0.62312537521E-01  0.12319180016E+00  0.14351167316E+01  0.14417417821E+01  0.51100000000E-03 0.  1.
    9000002    1    1    2    0    0  0.16461210829E+00 -0.33193746272E+00  0.92265846802E-01  0.10127371879E+01  0.93800000000E+00 0. -1.
         22    1    1    2    0    0 -0.10229957077E+00  0.20874566256E+00  0.24726173890E+01  0.24835210299E+01  0.00000000000E+00 0. -1.
</event>
<event>
 5    1  0.7095115E+001  0.1597410E+01  0.7818608E-02  0.3356179E+00
         11   -1    0    0    0    0  0.00000000000E+00  0.00000000000E+00  0.39999999674E+01  0.40000000000E+01  0.51100000000E-03 0. -1.
    9000002   -1    0    0    0    0 -0.00000000000E+00 -0.00000000000E+00  0.00000000000E+00  0.93800000000E+00  0.93800000000E+00 0.  1.
         11    1    1    2    0    0 -0.18412310651E-02 -0.74004312678E-02  0.15995732760E+00  0.16013982730E+00  0.51100000000E-03 0. -1.
    9000002    1    1    2    0    0 -0.40473213943E+00 -0.14201839599E+00  0.12650616532E+00  0.10391463513E+01  0.93800000000E+00 0.  1.
         22    1    1    2    0    0  0.40657337049E+00  0.14941882726E+00  0.37135364744E+01  0.37387138214E+01  0.00000000000E+00 0. -1.
</event>
<event>
 5    1  0.7095115E+001  0.1599677E+01  0.7818608E-02  0.3353715E+00
         11   -1    0    0    0    0  0.00000000000E+00  0.00000000000E+00  0.39999999674E+01  0.40000000000E+01  0.51100000000E-03 0. -1.
    9000002   -1    0    0    0    0 -0.00000000000E+00 -0.00000000000E+00  0.00000000000E+00  0.93800000000E+00  0.93800000000E+00 0.  1.
         11    1    1    2    0    0  0.28413066342E-01  0.56432080961E-01  0.67579797200E+00  0.67874519680E+00  0.51100000000E-03 0.  1.
    9000002    1    1    2    0    0 -0.16634207384E+00 -0.32409652901E+00  0.89126236079E-01  0.10101958877E+01  0.93800000000E+00 0.  1.
         22    1    1    2    0    0  0.13792900750E+00  0.26766444805E+00  0.32350757593E+01  0.32490589155E+01  0.00000000000E+00 0. -1.
</event>
<event>
 5    1  0.7095115E+001  0.1595201E+01  0.7818608E-02  0.3358589E+00
         11   -1    0    0    0    0  0.00000000000E+00  0.00000000000E+00  0.39999999674E+01  0.40000000000E+01  0.51100000000E-03 0. -1.
    9000002   -1    0    0    0    0 -0.00000000000E+00 -0.00000000000E+00  0.00000000000E+00  0.93800000000E+00  0.93800000000E+00 0. -1.
         11    1    1    2    0    0 -0.17530712742E-01  0.53920256711E-01  0.33584179094E+00  0.34059461187E+00  0.51100000000E-03 0. -1.
    9000002    1    1    2    0    0 -0.22729845429E+00 -0.32445343077E+00  0.10952698142E+00  0.10240970539E+01  0.93800000000E+00 0. -1.
         22    1    1    2    0    0  0.24482916703E+00  0.27053317406E+00  0.35546311950E+01  0.35733083343E+01  0.00000000000E+00 0. -1.
</event>
<event>
 5    1  0.7095115E+001  0.1599432E+01  0.7818608E-02  0.3353981E+00
         11   -1    0    0    0    0  0.00000000000E+00  0.00000000000E+00  0.39999999674E+01  0.40000000000E+01  0.51100000000E-03 0. -1.
    9000002   -1    0    0    0    0 -0.00000000000E+00 -0.00000000000E+00  0.00000000000E+00  0.93800000000E+00  0.93800000000E+00 0. -1.
         11    1    1    2    0    0  0.72773273281E-01 -0.11495244107E+00  0.89040402652E+00  0.90073836633E+00  0.51100000000E-03 0. -1.
    9000002    1    1    2    0    0 -0.24571565756E+00  0.51299528412E+00  0.22452328328E+00  0.11197299008E+01  0.93800000000E+00 0. -1.
         22    1    1    2    0    0  0.17294238428E+00 -0.39804284305E+00  0.28850726576E+01  0.29175317329E+01  0.00000000000E+00 0.  1.
</event>
<event>
 5    1  0.7095115E+001  0.1597657E+01  0.7818608E-02  0.3355911E+00
         11   -1    0    0    0    0  0.00000000000E+00  0.00000000000E+00  0.39999999674E+01  0.40000000000E+01  0.51100000000E-03 0.  1.
    9000002   -1    0    0    0    0 -0.00000000000E+00 -0.00000000000E+00  0.00000000000E+00  0.93800000000E+00  0.93800000000E+00 0.  1.
         11    1    1    2    0    0 -0.40457298619E-01  0.21653134944E-01  0.21855717437E+00  0.22332297431E+00  0.51100000000E-03 0.  1.
    9000002    1    1    2    0    0  0.27042275937E+00 -0.35717909139E+00  0.13801996702E+00  0.10486176059E+01  0.93800000000E+00 0.  1.
         22    1    1    2    0    0 -0.22996546075E+00  0.33552595645E+00  0.36434228260E+01  0.36660594198E+01  0.00000000000E+00 0.  1.
</event>
<event>
 5    1  0.7095115E+001  0.1599674E+01  0.7818608E-02  0.3353717E+00
         11   -1    0    0    0    0  0.00000000000E+00  0.00000000000E+00  0.39999999674E+01  0.40000000000E+01  0.51100000000E-03 0.  1.
    9000002   -1    0    0    0    0 -0.00000000000E+00 -0.00000000000E+00  0.00000000000E+00  0.93800000000E+00  0.93800000000E+00 0. -1.
         11    1    1    2    0    0 -0.81586140588E-01  0.20035489582E+00  0.12806021681E+01  0.12987457629E+01  0.51100000000E-03 0.  1.
    9000002    1    1    2    0    0  0.24217814407E+00 -0.58322101972E+00  0.28019330978E+00  0.11649675112E+01  0.93800000000E+00 0. -1.
         22    1    1    2    0    0 -0.16059200348E+00  0.38286612390E+00  0.24392044895E+01  0.24742867259E+01  0.00000000000E+00 0.  1.
</event>
<event>
 5    1  0.7095115E+001  0.1599651E+01  0.7818608E-02  0.3353743E+00
         11   -1    0    0    0    0  0.00000000000E+00  0.00000000000E+00  0.39999999674E+01  0.40000000000E+01  0.51100000000E-03 0.  1.
    9000002   -1    0    0    0    0 -0.00000000000E+00 -0.00000000000E+00  0.00000000000E+00  0.93800000000E+00  0.93800000000E+00 0. -1.
         11    1    1    2    0    0  0.91212639145E-01 -0.58715049003E-01  0.11865277602E+01  0.11914762228E+01  0.51100000000E-03 0.  1.
    9000002    1    1    2    0    0 -0.30870818138E+00  0.17671185100E+00  0.84913363070E-01  0.10067681455E+01  0.93800000000E+00 0. -1.
         22    1    1    2    0    0  0.21749554223E+00 -0.11799680199E+00  0.27285588441E+01  0.27397556318E+01  0.00000000000E+00 0.  1.
</event>
<event>
 5    1  0.7095115E+001  0.1599659E+01  0.7818608E-02  0.3353733E+00
         11   -1    0    0    0    0  0.00000000000E+00  0.00000000000E+00  0.39999999674E+01  0.40000000000E+01  0.51100000000E-03 0.  1.
    9000002   -1    0    0    0    0 -0.00000000000E+00 -0.00000000000E+00  0.00000000000E+00  0.93800000000E+00  0.93800000000E+00 0.  1.
         11    1    1    2    0    0 -0.74190003859E-01 -0.12205408899E+00  0.13170946839E+01  0.13248169779E+01  0.51100000000E-03 0.  1.
    9000002    1    1    2    0    0  0.21160990123E+00  0.34817237232E+00  0.11209497933E+00  0.10287915413E+01  0.93800000000E+00 0.  1.
         22    1    1    2    0    0 -0.13741989737E+00 -0.22611828333E+00  0.25708103041E+01  0.25843914808E+01  0.00000000000E+00 0.  1.
</event>
<event>
 5    1  0.7095115E+001  0.1599669E+01  0.7818608E-02  0.3353722E+00
         11   -1    0    0    0    0  0.00000000000E+00  0.00000000000E+00  0.39999999674E+01  0.40000000000E+01  0.51100000000E-03 0. -1.
    9000002   -1    0    0    0    0 -0.00000000000E+00 -0.00000000000E+00  0.00000000000E+00  0.93800000000E+00  0.93800000000E+00 0. -1.
         11    1    1    2    0    0 -0.12799840092E-02  0.73372652266E-01  0.75287267714E+00  0.75644081960E+00  0.51100000000E-03 0. -1.
    9000002    1    1    2    0    0  0.14955129435E-02 -0.36841513882E+00  0.91206413084E-01  0.10118767518E+01  0.93800000000E+00 0. -1.
         22    1    1    2    0    0 -0.21552893430E-03  0.29504248655E+00  0.31559208771E+01  0.31696824286E+01  0.00000000000E+00 0. -1.
</event>
<event>
 5    1  0.7095115E+001  0.1565662E+01  0.7818608E-02  0.3391498E+00
         11   -1    0    0    0    0  0.00000000000E+00  0.00000000000E+00  0.39999999674E+01  0.40000000000E+01  0.51100000000E-03 0. -1.
    9000002   -1    0    0    0    0 -0.00000000000E+00 -0.00000000000E+00  0.00000000000E+00  0.93800000000E+00  0.93800000000E+00 0.  1.
         11    1    1    2    0    0 -0.29659362228E-01 -0.12042664775E+00  0.18293304647E+00  0.22101361014E+00  0.51100000000E-03 0. -1.
    9000002    1    1    2    0    0  0.30483670782E+00  0.41545990123E+00  0.21400740658E+00  0.10914098763E+01  0.93800000000E+00 0.  1.
         22    1    1    2    0    0 -0.27517734559E+00 -0.29503325347E+00  0.36030595143E+01  0.36255765136E+01  0.00000000000E+00 0. -1.
</event>
<event>
 5    1  0.7095115E+001  0.1599668E+01  0.7818608E-02  0.3353724E+00
         11   -1    0    0    0    0  0.00000000000E+00  0.00000000000E+00  0.39999999674E+01  0.40000000000E+01  0.51100000000E-03 0. -1.
    9000002   -1    0    0    0    0 -0.00000000000E+00 -0.00000000000E+00  0.00000000000E+00  0.93800000000E+00  0.93800000000E+00 0.  1.
         11    1    1    2    0    0  0.29172276633E-01 -0.32894564836E-01  0.46310959373E+00  0.46519225170E+00  0.51100000000E-03 0. -1.
    9000002    1    1    2    0    0 -0.23703889350E+00  0.29424569861E+00  0.96042256785E-01  0.10157933270E+01  0.93800000000E+00 0.  1.
         22    1    1    2    0    0  0.20786661687E+00 -0.26135113377E+00  0.34408481168E+01  0.34570144212E+01  0.00000000000E+00 0. -1.
</event>
<event>
 5    1  0.7095115E+001  0.1599137E+01  0.7818608E-02  0.3354300E+00
         11   -1    0    0    0    0  0.00000000000E+00  0.00000000000E+00  0.39999999674E+01  0.40000000000E+01  0.51100000000E-03 0.  1.
    9000002   -1    0    0    0    0 -0.00000000000E+00 -0.00000000000E+00  0.00000000000E+00  0.93800000000E+00  0.93800000000E+00 0. -1.
         11    1    1    2    0    0  0.33169918309E-01  0.22382752816E-01  0.36282021734E+00  0.36502055056E+00  0.51100000000E-03 0.  1.
    9000002    1    1    2    0    0 -0.35536972870E+00 -0.66415568589E-01  0.88186137293E-01  0.10091181629E+01  0.93800000000E+00 0. -1.
         22    1    1    2    0    0  0.32219981039E+00  0.44032815773E-01  0.35489936127E+01  0.35638612866E+01  0.00000000000E+00 0.  1.
</event>
<event>
 5    1  0.7095115E+001  0.1594134E+01  0.7818608E-02  0.3359755E+00
         11   -1    0    0    0    0  0.00000000000E+00  0.00000000000E+00  0.39999999674E+01  0.40000000000E+01  0.51100000000E-03 0. -1.
    9000002   -1    0    0    0    0 -0.00000000000E+00 -0.00000000000E+00  0.00000000000E+00  0.93800000000E+00  0.93800000000E+00 0. -1.
         11    1    1    2    0    0  0.13700495199E-01 -0.72386358857E-02  0.61649988543E-01  0.63569518061E-01  0.51100000000E-03 0. -1.
    9000002    1    1    2    0    0  0.52167232648E+00  0.15231950856E+00  0.20895957838E+00  0.11040160118E+01  0.93800000000E+00 0. -1.
         22    1    1    2    0    0 -0.53537282168E+00 -0.14508087267E+00  0.37293904004E+01  0.37704144701E+01  0.00000000000E+00 0. -1.
</event>
<event>
 5    1  0.7095115E+001  0.1599670E+01  0.7818608E-02  0.3353722E+00
         11   -1    0    0    0    0  0.00000000000E+00  0.00000000000E+00  0.39999999674E+01  0.40000000000E+01  0.51100000000E-03 0.  1.
    9000002   -1    0    0    0    0 -0.00000000000E+00 -0.00000000000E+00  0.00000000000E+00  0.93800000000E+00  0.93800000000E+00 0.  1.
         11    1    1    2    0    0 -0.94779799061E-01  0.19934927730E+00  0.14699951619E+01  0.14864754898E+01  0.51100000000E-03 0.  1.
    9000002    1    1    2    0    0  0.25132406030E+00 -0.50997760592E+00  0.22407494527E+00  0.11195063747E+01  0.93800000000E+00 0.  1.
         22    1    1    2    0    0 -0.15654426124E+00  0.31062832862E+00  0.23059298602E+01  0.23320181355E+01  0.00000000000E+00 0.  1.
</event>
<event>
 5    1  0.7095115E+001  0.1599676E+01  0.7818608E-02  0.3353716E+00
         11   -1    0    0    0    0  0.00000000000E+00  0.00000000000E+00  0.39999999674E+01  0.40000000000E+01  0.51100000000E-03 0.  1.
    9000002   -1    0    0    0    0 -0.00000000000E+00 -0.00000000000E+00  0.00000000000E+00  0.93800000000E+00  0.93800000000E+00 0. -1.
         11    1    1    2    0    0  0.25414017323E-01  0.16683988654E+00  0.12265729759E+01  0.12381288085E+01  0.51100000000E-03 0.  1.
    9000002    1    1    2    0    0 -0.82202895066E-01 -0.52060144751E+00  0.19105498977E+00  0.10927621847E+01  0.93800000000E+00 0. -1.
         22    1    1    2    0    0  0.56788877744E-01  0.35376156097E+00  0.25823720017E+01  0.26071090069E+01  0.00000000000E+00 0.  1.
</event>
<event>
 5    1  0.7095115E+001  0.1478344E+01  0.7818608E-02  0.3497003E+00
         11   -1    0    0    0    0  0.00000000000E+00  0.00000000000E+00  0.39999999674E+01  0.40000000000E+01  0.51100000000E-03 0. -1.
    9000002   -1    0    0    0    0 -0.00000000000E+00 -0.00000000000E+00  0.00000000000E+00  0.93800000000E+00  0.93800000000E+00 0. -1.
         11    1    1    2    0    0 -0.11254768322E+00 -0.10437953853E+00  0.10866392060E+00  0.18806960898E+00  0.51100000000E-03 0. -1.
    9000002    1    1    2    0    0 -0.29205730591E+00  0.53120380180E-01  0.16048544479E+00  0.99685446416E+00  0.93800000000E+00 0. -1.
         22    1    1    2    0    0  0.40460498913E+00  0.51259158351E-01  0.37308506020E+01  0.37530759269E+01  0.00000000000E+00 0. -1.
</event>
<event>
 5    1  0.7095115E+001  0.1599673E+01  0.7818608E-02  0.3353718E+00
         11   -1    0    0    0    0  0.00000000000E+00  0.00000000000E+00  0.39999999674E+01  0.40000000000E+01  0.51100000000E-03 0.  1.
    9000002   -1    0    0    0    0 -0.00000000000E+00 -0.00000000000E+00  0.00000000000E+00  0.93800000000E+00  0.93800000000E+00 0.  1.
         11    1    1    2    0    0 -0.18484105898E+00 -0.31802437783E+00  0.98170410636E+00  0.10483553479E+01  0.51100000000E-03 0.  1.
    9000002    1    1    2    0    0  0.54887837357E+00  0.95599073845E+00  0.10482944709E+01  0.17871628518E+01  0.93800000000E+00 0.  1.
         22    1    1    2    0    0 -0.36403731459E+00 -0.63796636062E+00  0.19700013901E+01  0.21024818003E+01  0.00000000000E+00 0.  1.
</event>
<event>
 5    1  0.7095115E+001  0.1598475E+01  0.7818608E-02  0.3355020E+00
         11   -1    0    0    0    0  0.00000000000E+00  0.00000000000E+00  0.39999999674E+01  0.40000000000E+01  0.51100000000E-03 0. -1.
    9000002   -1    0    0    0    0 -0.00000000000E+00 -0.00000000000E+00  0.00000000000E+00  0.93800000000E+00  0.93800000000E+00 0. -1.
         11    1    1    2    0    0  0.54531384347E-01 -0.26691410801E+00  0.12229989566E+01  0.12529738712E+01  0.51100000000E-03 0. -1.
    9000002    1    1    2    0    0 -0.67942604134E-01  0.71892387731E+00  0.37635077783E+00  0.12421560477E+01  0.93800000000E+00 0. -1.
         22    1    1    2    0    0  0.13411219787E-01 -0.45200976930E+00  0.24006502329E+01  0.24428700811E+01  0.00000000000E+00 0. -1.
</event>
<event>
 5    1  0.7095115E+001  0.1599251E+01  0.7818608E-02  0.3354176E+00
         11   -1    0    0    0    0  0.00000000000E+00  0.00000000000E+00  0.39999999674E+01  0.40000000000E+01  0.51100000000E-03 0.  1.
    9000002   -1    0    0    0    0 -0.00000000000E+00 -0.00000000000E+00  0.00000000000E+00  0.93800000000E+00  0.93800000000E+00 0. -1.
         11    1    1    2    0    0  0.16504031102E+00  0.37495145046E-01  0.13256706436E+01  0.13364307339E+01  0.51100000000E-03 0.  1.
    9000002    1    1    2    0    0 -0.46359345558E+00 -0.17530878238E+00  0.16842201977E+00  0.10741797047E+01  0.93800000000E+00 0. -1.
         22    1    1    2    0    0  0.29855314456E+00  0.13781363734E+00  0.25059073040E+01  0.25273895614E+01  0.00000000000E+00 0.  1.
</event>
<event>
 5    1  0.7095115E+001  0.1598750E+01  0.7818608E-02  0.3354722E+00
         11   -1    0    0    0    0  0.00000000000E+00  0.00000000000E+00  0.39999999674E+01  0.40000000000E+01  0.51100000000E-03 0.  1.
    9000002   -1    0    0    0    0 -0.00000000000E+00 -0.00000000000E+00  0.00000000000E+00  0.93800000000E+00  0.93800000000E+00 0. -1.
         11    1    1    2    0    0 -0.10210413210E+00 -0.13759296189E+00  0.13998802370E+01  0.14103269181E+01  0.51100000000E-03 0.  1.
    9000002    1    1    2    0    0  0.33193893469E+00  0.45041900660E+00  0.21751097431E+00  0.11136497483E+01  0.93800000000E+00 0. -1.
         22    1    1    2    0    0 -0.22983480259E+00 -0.31282604471E+00  0.23826087561E+01  0.24140233336E+01  0.00000000000E+00 0.  1.
</event>
<event>
 5    1  0.7095115E+001  0.1458994E+01  0.7818608E-02  0.3522229E+00
         11   -1    0    0    0    0  0.00000000000E+00  0.00000000000E+00  0.39999999674E+01  0.40000000000E+01  0.51100000000E-03 0. -1.
    9000002   -1    0    0    0    0 -0.00000000000E+00 -0.00000000000E+00  0.00000000000E+00  0.93800000000E+00  0.93800000000E+00 0.  1.
         11    1    1    2    0    0 -0.24003980378E+00  0.26803350067E+00  0.10284867233E+01  0.10896083085E+01  0.51100000000E-03 0. -1.
    9000002    1    1    2    0    0 -0.28203824731E+00 -0.76094013055E-01  0.17600032720E+00  0.99807614286E+00  0.93800000000E+00 0.  1.
         22    1    1    2    0    0  0.52207805109E+00 -0.19193948761E+00  0.27955129169E+01  0.28503155486E+01  0.00000000000E+00 0. -1.
</event>
<event>
 5    1  0.7095115E+001  0.1599668E+01  0.7818608E-02  0.3353724E+00
         11   -1    0    0    0    0  0.00000000000E+00  0.00000000000E+00  0.39999999674E+01  0.40000000000E+01  0.51100000000E-03 0.  1.
    9000002   -1    0    0    0    0 -0.00000000000E+00 -0.00000000000E+00  0.00000000000E+00  0.93800000000E+00  0.93800000000E+00 0. -1.
         11    1    1    2    0    0 -0.12015637815E+00 -0.11890209219E+00  0.14331313613E+01  0.14430665344E+01  0.51100000000E-03 0.  1.
    9000002    1    1    2    0    0  0.31906625007E+00  0.31250474508E+00  0.13541224873E+00  0.10476845731E+01  0.93800000000E+00 0. -1.
         22    1    1    2    0    0 -0.19890987192E+00 -0.19360265289E+00  0.24314563573E+01  0.24472488925E+01  0.00000000000E+00 0.  1.
</event>
<event>
 5    1  0.7095115E+001  0.1589291E+01  0.7818608E-02  0.3365069E+00
         11   -1    0    0    0    0  0.00000000000E+00  0.00000000000E+00  0.39999999674E+01  0.40000000000E+01  0.51100000000E-03 0. -1.
    9000002   -1    0    0    0    0 -0.00000000000E+00 -0.00000000000E+00  0.00000000000E+00  0.93800000000E+00  0.93800000000E+00 0.  1.
         11    1    1    2    0    0  0.10112803409E+00  0.27009329044E+00  0.11573493700E+01  0.11927426756E+01  0.51100000000E-03 0. -1.
    9000002    1    1    2    0    0 -0.22075023472E+00 -0.52136579141E+00  0.23213262556E+00  0.11199475481E+01  0.93800000000E+00 0.  1.
         22    1    1    2    0    0  0.11962220063E+00  0.25127250097E+00  0.26105179718E+01  0.26253097763E+01  0.00000000000E+00 0. -1.
</event>
<event>
 5    1  0.7095115E+001  0.1456191E+01  0.7818608E-02  0.3525944E+00
         11   -1    0    0    0    0  0.00000000000E+00  0.00000000000E+00  0.39999999674E+01  0.40000000000E+01  0.51100000000E-03 0.  1.
    9000002   -1    0    0    0    0 -0.00000000000E+00 -0.00000000000E+00  0.00000000000E+00  0.93800000000E+00  0.93800000000E+00 0. -1.
         11    1    1    2    0    0  0.26622161589E+00  0.32766400496E+00  0.10152063607E+01  0.10994916393E+01  0.51100000000E-03 0.  1.
    9000002    1    1    2    0    0 -0.10689297137E+00  0.10479875104E+00  0.14418056406E+00  0.96075018637E+00  0.93800000000E+00 0. -1.
         22    1    1    2    0    0 -0.15932864452E+00 -0.43246275600E+00  0.28406130426E+01  0.28777581743E+01  0.00000000000E+00 0. -1.
</event>
<event>
 5    1  0.7095115E+001  0.1564305E+01  0.7818608E-02  0.3393040E+00
         11   -1    0    0    0    0  0.00000000000E+00  0.00000000000E+00  0.39999999674E+01  0.40000000000E+01  0.51100000000E-03 0. -1.
    9000002   -1    0    0    0    0 -0.00000000000E+00 -0.00000000000E+00  0.00000000000E+00  0.93800000000E+00  0.93800000000E+00 0. -1.
         11    1    1    2    0    0 -0.67044857593E-01 -0.12032604814E+00  0.10142180090E+01  0.10235290918E+01  0.51100000000E-03 0. -1.
    9000002    1    1    2    0    0  0.19410316570E+00 -0.29798308424E+00  0.11400671722E+00  0.10096095726E+01  0.93800000000E+00 0. -1.
         22    1    1    2    0    0 -0.12705830811E+00  0.41830913238E+00  0.28717752411E+01  0.29048613357E+01  0.00000000000E+00 0.  1.
</event>
<event>
 5    1  0.7095115E+001  0.1599504E+01  0.7818608E-02  0.3353902E+00
         11   -1    0    0    0    0  0.00000000000E+00  0.00000000000E+00  0.39999999674E+01  0.40000000000E+01  0.51100000000E-03 0.  1.
    9000002   -1    0    0    0    0 -0.00000000000E+00 -0.00000000000E+00  0.00000000000E+00  0.93800000000E+00  0.93800000000E+00 0.  1.
         11    1    1    2    0    0  0.15552681563E-01  0.22909865972E-01  0.23963390676E+00  0.24122897474E+00  0.51100000000E-03 0.  1.
    9000002    1    1    2    0    0 -0.29333059835E+00 -0.25569024328E+00  0.10213895632E+00  0.10206354427E+01  0.93800000000E+00 0.  1.
         22    1    1    2    0    0  0.27777791678E+00  0.23278037730E+00  0.36582271043E+01  0.36761355826E+01  0.00000000000E+00 0.  1.
</event>
<event>
 5    1  0.7095115E+001  0.1599677E+01  0.7818608E-02  0.3353715E+00
         11   -1    0    0    0    0  0.00000000000E+00  0.00000000000E+00  0.39999999674E+01  0.40000000000E+01  0.51100000000E-03 0.  1.
    9000002   -1    0    0    0    0 -0.00000000000E+00 -0.00000000000E+00  0.00000000000E+00  0.93800000000E+00  0.93800000000E+00 0. -1.
         11    1    1    2    0    0  0.14029461735E-01 -0.15381699337E+00  0.11695210276E+01  0.11796763066E+01  0.51100000000E-03 0.  1.
    9000002    1    1    2    0    0 -0.43493046811E-01  0.50309838380E+00  0.17470874285E+00  0.10795215485E+01  0.93800000000E+00 0. -1.
         22    1    1    2    0    0  0.29463585076E-01 -0.34928139043E+00  0.26557701969E+01  0.26788021449E+01  0.00000000000E+00 0.  1.
</event>
<event>
 5    1  0.7095115E+001  0.1598944E+01  0.7818608E-02  0.3354510E+00
         11   -1    0    0    0    0  0.00000000000E+00  0.00000000000E+00  0.39999999674E+01  0.40000000000E+01  0.51100000000E-03 0. -1.
    9000002   -1    0    0    0    0 -0.00000000000E+00 -0.00000000000E+00  0.00000000000E+00  0.93800000000E+00  0.93800000000E+00 0.  1.
         11    1    1    2    0    0  0.34791761973E-01  0.16865769578E-01  0.59324743344E+00  0.59450626514E+00  0.51100000000E-03 0. -1.
    9000002    1    1    2    0    0 -0.33756103450E+00 -0.64379807233E-03  0.76886184157E-01  0.99985166490E+00  0.93800000000E+00 0.  1.
         22    1    1    2    0    0  0.30276927252E+00 -0.16221971505E-01  0.33298663498E+01  0.33436420700E+01  0.00000000000E+00 0. -1.
</event>
<event>
 5    1  0.7095115E+001  0.1599644E+01  0.7818608E-02  0.3353750E+00
         11   -1    0    0    0    0  0.00000000000E+00  0.00000000000E+00  0.39999999674E+01  0.40000000000E+01  0.51100000000E-03 0.  1.
    9000002   -1    0    0    0    0 -0.00000000000E+00 -0.00000000000E+00  0.00000000000E+00  0.93800000000E+00  0.93800000000E+00 0. -1.
         11    1    1    2    0    0 -0.94917991829E-01 -0.64536029605E-01  0.70101724710E+00  0.71035186081E+00  0.51100000000E-03 0.  1.
    9000002    1    1    2    0    0  0.48732443606E+00  0.36559939413E+00  0.25949856584E+00  0.11481861908E+01  0.93800000000E+00 0. -1.
         22    1    1    2    0    0 -0.39240644423E+00 -0.30106336453E+00  0.30394841544E+01  0.30794619484E+01  0.00000000000E+00 0.  1.
</event>
<event>
 5    1  0.8001639E+001  0.1598846E+01  0.7818608E-02  0.3354617E+00
         11   -1    0    0    0    0  0.00000000000E+00  0.00000000000E+00  0.39999999674E+01  0.40000000000E+01  0.51100000000E-03 0. -1.
    9000002   -1    0    0    0    0 -0.00000000000E+00 -0.00000000000E+00  0.00000000000E+00  0.93800000000E+00  0.93800000000E+00 0. -1.
         11    1    1    2    0    0 -0.10056576009E+00 -0.72444376591E-01  0.14144731884E+01  0.14198930669E+01  0.51100000000E-03 0. -1.
    9000002    1    1    2    0    0  0.33331267848E+00  0.12642225329E+00  0.85942317189E-01  0.10071295893E+01  0.93800000000E+00 0. -1.
         22    1    1    2    0    0 -0.23274691839E+00 -0.53977876701E-01  0.24995844618E+01  0.25109773438E+01  0.00000000000E+00 0. -1.
</event>
<event>
 5    1  0.7095115E+001  0.1599676E+01  0.7818608E-02  0.3353715E+00
         11   -1    0    0    0    0  0.00000000000E+00  0.00000000000E+00  0.39999999674E+01  0.40000000000E+01  0.51100000000E-03 0.  1.
    9000002   -1    0    0    0    0 -0.00000000000E+00 -0.00000000000E+00  0.00000000000E+00  0.93800000000E+00  0.93800000000E+00 0.  1.
         11    1    1    2    0    0 -0.79001616290E-01  0.30839629869E-02  0.70274284977E+00  0.70717645622E+00  0.51100000000E-03 0.  1.
    9000002    1    1    2    0    0  0.43835539635E+00 -0.13926294067E-01  0.13042488278E+00  0.10436493881E+01  0.93800000000E+00 0.  1.
         22    1    1    2    0    0 -0.35935378006E+00  0.10842331080E-01  0.31668322348E+01  0.31871741557E+01  0.00000000000E+00 0. -1.
</event>
<event>
 5    1  0.7095115E+001  0.1599676E+01  0.7818608E-02  0.3353715E+00
         11   -1    0    0    0    0  0.00000000000E+00  0.00000000000E+00  0.39999999674E+01  0.40000000000E+01  0.51100000000E-03 0.  1.
    9000002   -1    0    0    0    0 -0.00000000000E+00 -0.00000000000E+00  0.00000000000E+00  0.93800000000E+00  0.93800000000E+00 0.  1.
         11    1    1    2    0    0 -0.11582750670E+00  0.15759246728E+00  0.12613503039E+01  0.12764232242E+01  0.51100000000E-03 0.  1.
    9000002    1    1    2    0    0  0.34891169319E+00 -0.46835249154E+00  0.23718587839E+00  0.11301303318E+01  0.93800000000E+00 0.  1.
         22    1    1    2    0    0 -0.23308418649E+00  0.31076002426E+00  0.25014637851E+01  0.25314464440E+01  0.00000000000E+00 0.  1.
</event>
<event>
 5    1  0.7095115E+001  0.1480518E+01  0.7818608E-02  0.3494213E+00
         11   -1    0    0    0    0  0.00000000000E+00  0.00000000000E+00  0.39999999674E+01  0.40000000000E+01  0.51100000000E-03 0.  1.
    9000002   -1    0    0    0    0 -0.00000000000E+00 -0.00000000000E+00  0.00000000000E+00  0.93800000000E+00  0.93800000000E+00 0. -1.
         11    1    1    2    0    0 -0.76878633605E-01  0.13173322747E+00  0.11655295504E+00  0.19196046462E+00  0.51100000000E-03 0.  1.
    9000002    1    1    2    0    0 -0.14444695917E+00  0.18246045161E+00  0.13252633386E+00  0.97548140402E+00  0.93800000000E+00 0. -1.
         22    1    1    2    0    0  0.22132559277E+00 -0.31419367908E+00  0.37509206785E+01  0.37705581314E+01  0.00000000000E+00 0.  1.
</event>
<event>
 5    1  0.7095115E+001  0.1598081E+01  0.7818608E-02  0.3355448E+00
         11   -1    0    0    0    0  0.00000000000E+00  0.00000000000E+00  0.39999999674E+01  0.40000000000E+01  0.51100000000E-03 0.  1.
    9000002   -1    0    0    0    0 -0.00000000000E+00 -0.00000000000E+00  0.00000000000E+00  0.93800000000E+00  0.93800000000E+00 0.  1.
         11    1    1    2    0    0  0.58046729702E-02 -0.13533180986E-01  0.10697446536E+00  0.10798443673E+00  0.51100000000E-03 0.  1.
    9000002    1    1    2    0    0  0.29986151794E+00  0.23652764985E+00  0.99477215774E-01  0.10176453093E+01  0.93800000000E+00 0.  1.
         22    1    1    2    0    0 -0.30566619091E+00 -0.22299446887E+00  0.37935482862E+01  0.38123702540E+01  0.00000000000E+00 0.  1.
</event>
<event>
 5    1  0.7095115E+001  0.1599636E+01  0.7818608E-02  0.3353759E+00
         11   -1    0    0    0    0  0.00000000000E+00  0.00000000000E+00  0.39999999674E+01  0.40000000000E+01  0.51100000000E-03 0. -1.
    9000002   -1    0    0    0    0 -0.00000000000E+00 -0.00000000000E+00  0.00000000000E+00  0.93800000000E+00  0.93800000000E+00 0. -1.
         11    1    1    2    0    0 -0.10160929788E-01  0.35431512814E-01  0.29384526366E+00  0.29614850446E+00  0.51100000000E-03 0.  1.
    9000002    1    1    2    0    0  0.95613910100E-01 -0.49993353793E+00  0.17766040691E+00  0.10818885258E+01  0.93800000000E+00 0. -1.
         22    1    1    2    0    0 -0.85452980312E-01  0.46450202512E+00  0.35284942968E+01  0.35599629697E+01  0.00000000000E+00 0. -1.
</event>
<event>
 5    1  0.7095115E+001  0.1599677E+01  0.7818608E-02  0.3353714E+00
         11   -1    0    0    0    0  0.00000000000E+00  0.00000000000E+00  0.39999999674E+01  0.40000000000E+01  0.51100000000E-03 0.  1.
    9000002   -1    0    0    0    0 -0.00000000000E+00 -0.00000000000E+00  0.00000000000E+00  0.93800000000E+00  0.93800000000E+00 0.  1.
         11    1    1    2    0    0 -0.41774958634E-01 -0.46476915111E-02  0.42816277188E+00  0.43022130183E+00  0.51100000000E-03 0. -1.
    9000002    1    1    2    0    0  0.38227096195E+00  0.42913127867E-01  0.99618931447E-01  0.10186955170E+01  0.93800000000E+00 0.  1.
         22    1    1    2    0    0 -0.34049600331E+00 -0.38265436356E-01  0.34722182640E+01  0.34890831811E+01  0.00000000000E+00 0.  1.
</event>
<event>
 5    1  0.7095115E+001  0.1598952E+01  0.7818608E-02  0.3354502E+00
         11   -1    0    0    0    0  0.00000000000E+00  0.00000000000E+00  0.39999999674E+01  0.40000000000E+01  0.51100000000E-03 0. -1.
    9000002   -1    0    0    0    0 -0.00000000000E+00 -0.00000000000E+00  0.00000000000E+00  0.93800000000E+00  0.93800000000E+00 0.  1.
         11    1    1    2    0    0  0.94308531023E-01  0.19334478791E-01  0.99665315447E+00  0.10012920116E+01  0.51100000000E-03 0. -1.
    9000002    1    1    2    0    0 -0.38108768552E+00  0.34313443304E-01  0.99135389527E-01  0.10178787069E+01  0.93800000000E+00 0.  1.
         22    1    1    2    0    0  0.28677915450E+00 -0.53647922095E-01  0.29042114234E+01  0.29188292815E+01  0.00000000000E+00 0. -1.
</event>
<event>
 5    1  0.7095115E+001  0.1599675E+01  0.7818608E-02  0.3353716E+00
         11   -1    0    0    0    0  0.00000000000E+00  0.00000000000E+00  0.39999999674E+01  0.40000000000E+01  0.51100000000E-03 0. -1.
    9000002   -1    0    0    0    0 -0.00000000000E+00 -0.00000000000E+00  0.00000000000E+00  0.93800000000E+00  0.93800000000E+00 0. -1.
         11    1    1    2    0    0  0.14340202766E+00  0.77414800057E-01  0.14234185926E+01  0.14327169797E+01  0.51100000000E-03 0. -1.
    9000002    1    1    2    0    0 -0.38520522499E+00 -0.21004439318E+00  0.13053246157E+00  0.10437358076E+01  0.93800000000E+00 0. -1.
         22    1    1    2    0    0  0.24180319733E+00  0.13262959312E+00  0.24460489131E+01  0.24615472128E+01  0.00000000000E+00 0. -1.
</event>
<event>
 5    1  0.7095115E+001  0.1593652E+01  0.7818608E-02  0.3360282E+00
         11   -1    0    0    0    0  0.00000000000E+00  0.00000000000E+00  0.39999999674E+01  0.40000000000E+01  0.51100000000E-03 0. -1.
    9000002   -1    0    0    0    0 -0.00000000000E+00 -0.00000000000E+00  0.00000000000E+00  0.93800000000E+00  0.93800000000E+00 0.  1.
         11    1    1    2    0    0  0.73097087080E-01 -0.45535071813E-01  0.93005443696E+00  0.93403326693E+00  0.51100000000E-03 0. -1.
    9000002    1    1    2    0    0 -0.59177299885E+00  0.29917542977E+00  0.31773675585E+00  0.11918480885E+01  0.93800000000E+00 0.  1.
         22    1    1    2    0    0  0.51867591177E+00 -0.25364035796E+00  0.27522087746E+01  0.28121186446E+01  0.00000000000E+00 0. -1.
</event>
<event>
 5    1  0.7095115E+001  0.1586353E+01  0.7818608E-02  0.3368310E+00
         11   -1    0    0    0    0  0.00000000000E+00  0.00000000000E+00  0.39999999674E+01  0.40000000000E+01  0.51100000000E-03 0.  1.
    9000002   -1    0    0    0    0 -0.00000000000E+00 -0.00000000000E+00  0.00000000000E+00  0.93800000000E+00  0.93800000000E+00 0.  1.
         11    1    1    2    0    0  0.58177951511E-02 -0.49343174770E-01  0.23557160436E+00  0.24075472486E+00  0.51100000000E-03 0.  1.
    9000002    1    1    2    0    0  0.25426822706E+00 -0.22205832133E+00  0.87036143454E-01  0.10006905214E+01  0.93800000000E+00 0.  1.
         22    1    1    2    0    0 -0.26008602221E+00  0.27140149610E+00  0.36773922195E+01  0.36965547537E+01  0.00000000000E+00 0.  1.
</event>
<event>
 5    1  0.7095115E+001  0.1574790E+01  0.7818608E-02  0.3381188E+00
         11   -1    0    0    0    0  0.00000000000E+00  0.00000000000E+00  0.39999999674E+01  0.40000000000E+01  0.51100000000E-03 0.  1.
    9000002   -1    0    0    0    0 -0.00000000000E+00 -0.00000000000E+00  0.00000000000E+00  0.93800000000E+00  0.93800000000E+00 0.  1.
         11    1    1    2    0    0 -0.70588897993E-01 -0.63695172902E-01  0.48386293041E+00  0.49311607571E+00  0.51100000000E-03 0.  1.
    9000002    1    1    2    0    0 -0.35126618825E+00  0.97485805746E-01  0.10975704413E+00  0.10123151812E+01  0.93800000000E+00 0.  1.
         22    1    1    2    0    0  0.42185508624E+00 -0.33790632844E-01  0.34063799928E+01  0.34325687431E+01  0.00000000000E+00 0.  1.
</event>
<event>
 5    1  0.7095115E+001  0.1599605E+01  0.7818608E-02  0.3353793E+00
         11   -1    0    0    0    0  0.00000000000E+00  0.00000000000E+00  0.39999999674E+01  0.40000000000E+01  0.51100000000E-03 0.  1.
    9000002   -1    0    0    0    0 -0.00000000000E+00 -0.00000000000E+00  0.00000000000E+00  0.93800000000E+00  0.93800000000E+00 0. -1.
         11    1    1    2    0    0  0.17724623007E-01 -0.17641586859E-01  0.26316274713E+00  0.26434878560E+00  0.51100000000E-03 0.  1.
    9000002    1    1    2    0    0 -0.33479031480E+00  0.27619021419E+00  0.12770170962E+00  0.10414016113E+01  0.93800000000E+00 0. -1.
         22    1    1    2    0    0  0.31706569180E+00 -0.25854862733E+00  0.36091355106E+01  0.36322496031E+01  0.00000000000E+00 0.  1.
</event>
<event>
 5    1  0.7095115E+001  0.1599674E+01  0.7818608E-02  0.3353718E+00
         11   -1    0    0    0    0  0.00000000000E+00  0.00000000000E+00  0.39999999674E+01  0.40000000000E+01  0.51100000000E-03 0. -1.
    9000002   -1    0    0    0    0 -0.00000000000E+00 -0.00000000000E+00  0.00000000000E+00  0.93800000000E+00  0.93800000000E+00 0. -1.
         11    1    1    2    0    0  0.13593803737E+00  0.23049150646E-01  0.12604956090E+01  0.12680141382E+01  0.51100000000E-03 0. -1.
    9000002    1    1    2    0    0 -0.41255092213E+00 -0.73377759659E-01  0.11873450001E+00  0.10341781473E+01  0.93800000000E+00 0. -1.
         22    1    1    2    0    0  0.27661288476E+00  0.50328609012E-01  0.26207698584E+01  0.26358077144E+01  0.00000000000E+00 0. -1.
</event>
<event>
 5    1  0.7095115E+001  0.1599583E+01  0.7818608E-02  0.3353816E+00
         11   -1    0    0    0    0  0.00000000000E+00  0.00000000000E+00  0.39999999674E+01  0.40000000000E+01  0.51100000000E-03 0. -1.
    9000002   -1    0    0    0    0 -0.00000000000E+00 -0.00000000000E+00  0.00000000000E+00  0.93800000000E+00  0.93800000000E+00 0.  1.
         11    1    1    2    0    0  0.37448337527E-01  0.14410326067E-01  0.28420963408E+00  0.28702859214E+00  0.51100000000E-03 0. -1.
    9000002    1    1    2    0    0 -0.43010204157E+00 -0.16663920019E+00  0.14482611443E+00  0.10552606278E+01  0.93800000000E+00 0.  1.
         22    1    1    2    0    0  0.39265370404E+00  0.15222887412E+00  0.35709642188E+01  0.35957107800E+01  0.00000000000E+00 0. -1.
</event>
<event>
 5    1  0.7095115E+001  0.1489873E+01  0.7818608E-02  0.3482311E+00
         11   -1    0    0    0    0  0.00000000000E+00  0.00000000000E+00  0.39999999674E+01  0.40000000000E+01  0.51100000000E-03 0. -1.
    9000002   -1    0    0    0    0 -0.00000000000E+00 -0.00000000000E+00  0.00000000000E+00  0.93800000000E+00  0.93800000000E+00 0. -1.
         11    1    1    2    0    0  0.14484017598E+00  0.16983258182E+00  0.31660972100E+00  0.38738063836E+00  0.51100000000E-03 0. -1.
    9000002    1    1    2    0    0  0.24901499940E+00 -0.15647330037E+00  0.14891123675E+00  0.99423886470E+00  0.93800000000E+00 0. -1.
         22    1    1    2    0    0 -0.39385517538E+00 -0.13359281447E-01  0.35344790096E+01  0.35563804969E+01  0.00000000000E+00 0. -1.
</event>
<event>
 5    1  0.7095115E+001  0.1599677E+01  0.7818608E-02  0.3353714E+00
         11   -1    0    0    0    0  0.00000000000E+00  0.00000000000E+00  0.39999999674E+01  0.40000000000E+01  0.51100000000E-03 0. -1.
    9000002   -1    0    0    0    0 -0.00000000000E+00 -0.00000000000E+00  0.00000000000E+00  0.93800000000E+00  0.93800000000E+00 0. -1.
         11    1    1    2    0    0 -0.13286169742E+00  0.11667093919E+00  0.14115425871E+01  0.14225741018E+01  0.51100000000E-03 0.  1.
    9000002    1    1    2    0    0  0.36305058771E+00 -0.31641337599E+00  0.15828585122E+00  0.10662183474E+01  0.93800000000E+00 0. -1.
         22    1    1    2    0    0 -0.23018889028E+00  0.19974243680E+00  0.24301715290E+01  0.24492075508E+01  0.00000000000E+00 0. -1.
</event>
<event>
 5    1  0.7095115E+001  0.1599598E+01  0.7818608E-02  0.3353800E+00
         11   -1    0    0    0    0  0.00000000000E+00  0.00000000000E+00  0.39999999674E+01  0.40000000000E+01  0.51100000000E-03 0. -1.
    9000002   -1    0    0    0    0 -0.00000000000E+00 -0.00000000000E+00  0.00000000000E+00  0.93800000000E+00  0.93800000000E+00 0. -1.
         11    1    1    2    0    0 -0.65846712217E-01 -0.15382522568E-01  0.38189262305E+00  0.38783327368E+00  0.51100000000E-03 0. -1.
    9000002    1    1    2    0    0  0.65333608159E+00  0.20692900241E+00  0.33444585790E+00  0.12088695874E+01  0.93800000000E+00 0. -1.
         22    1    1    2    0    0 -0.58748936937E+00 -0.19154647984E+00  0.32836614864E+01  0.33412971389E+01  0.00000000000E+00 0. -1.
</event>
<event>
 5    1  0.7095115E+001  0.1599676E+01  0.7818608E-02  0.3353715E+00
         11   -1    0    0    0    0  0.00000000000E+00  0.00000000000E+00  0.39999999674E+01  0.40000000000E+01  0.51100000000E-03 0. -1.
    9000002   -1    0    0    0    0 -0.00000000000E+00 -0.00000000000E+00  0.00000000000E+00  0.93800000000E+00  0.93800000000E+00 0.  1.
         11    1    1    2    0    0 -0.10999610700E+00  0.14461129701E+00  0.12944691589E+01  0.13071580758E+01  0.51100000000E-03 0. -1.
    9000002    1    1    2    0    0  0.32244298123E+00 -0.42737224245E+00  0.19742720038E+00  0.10979244096E+01  0.93800000000E+00 0.  1.
         22    1    1    2    0    0 -0.21244687423E+00  0.28276094544E+00  0.25081036081E+01  0.25329175146E+01  0.00000000000E+00 0. -1.
</event>
<event>
 5    1  0.7095115E+001  0.1599674E+01  0.7818608E-02  0.3353717E+00
         11   -1    0    0    0    0  0.00000000000E+00  0.00000000000E+00  0.39999999674E+01  0.40000000000E+01  0.51100000000E-03 0. -1.
    9000002   -1    0    0    0    0 -0.00000000000E+00 -0.00000000000E+00  0.00000000000E+00  0.93800000000E+00  0.93800000000E+00 0.  1.
         11    1    1    2    0    0  0.76898880690E-01 -0.33632448604E-01  0.32189786678E+00  0.33266060363E+00  0.51100000000E-03 0.  1.
    9000002    1    1    2    0    0 -0.80599270807E+00  0.35049955835E+00  0.58603269874E+00  0.14127110497E+01  0.93800000000E+00 0.  1.
         22    1    1    2    0    0  0.72909382737E+00 -0.31686710974E+00  0.30920694018E+01  0.31926283467E+01  0.00000000000E+00 0. -1.
</event>
<event>
 5    1  0.7095115E+001  0.1597996E+01  0.7818608E-02  0.3355541E+00
         11   -1    0    0    0    0  0.00000000000E+00  0.00000000000E+00  0.39999999674E+01  0.40000000000E+01  0.51100000000E-03 0. -1.
    9000002   -1    0    0    0    0 -0.00000000000E+00 -0.00000000000E+00  0.00000000000E+00  0.93800000000E+00  0.93800000000E+00 0. -1.
         11    1    1    2    0    0  0.94128294161E-02  0.47656389940E-01  0.36993141234E+00  0.37310754994E+00  0.51100000000E-03 0. -1.
    9000002    1    1    2    0    0  0.15590021363E+00 -0.33572958071E+00  0.93455667736E-01  0.10127177246E+01  0.93800000000E+00 0. -1.
         22    1    1    2    0    0 -0.16531304304E+00  0.28807319077E+00  0.35366128873E+01  0.35521747254E+01  0.00000000000E+00 0. -1.
</event>
<event>
 5    1  0.8719007E+001  0.1598976E+01  0.7818608E-02  0.3354475E+00
         11   -1    0    0    0    0  0.00000000000E+00  0.00000000000E+00  0.39999999674E+01  0.40000000000E+01  0.51100000000E-03 0.  1.
    9000002   -1    0    0    0    0 -0.00000000000E+00 -0.00000000000E+00  0.00000000000E+00  0.93800000000E+00  0.93800000000E+00 0. -1.
         11    1    1    2    0    0  0.78606927090E-01  0.28331445556E-01  0.12958259367E+01  0.12985171694E+01  0.51100000000E-03 0.  1.
    9000002    1    1    2    0    0 -0.32337310727E+00 -0.11657565222E+00  0.79735734417E-01  0.10021785452E+01  0.93800000000E+00 0. -1.
         22    1    1    2    0    0  0.24476618018E+00  0.88244206666E-01  0.26244382962E+01  0.26373042854E+01  0.00000000000E+00 0.  1.
</event>
<event>
 5    1  0.7095115E+001  0.1599299E+01  0.7818608E-02  0.3354125E+00
         11   -1    0    0    0    0  0.00000000000E+00  0.00000000000E+00  0.39999999674E+01  0.40000000000E+01  0.51100000000E-03 0. -1.
    9000002   -1    0    0    0    0 -0.00000000000E+00 -0.00000000000E+00  0.00000000000E+00  0.93800000000E+00  0.93800000000E+00 0.  1.
         11    1    1    2    0    0 -0.16036040232E+00 -0.10344375041E+00  0.10021209581E+01  0.10201287879E+01  0.51100000000E-03 0. -1.
    9000002    1    1    2    0    0  0.51603140115E+00  0.37978637344E+00  0.28944390514E+00  0.11722405345E+01  0.93800000000E+00 0.  1.
         22    1    1    2    0    0 -0.35567099883E+00 -0.27634262303E+00  0.27084351042E+01  0.27456306777E+01  0.00000000000E+00 0. -1.
</event>
<event>
 5    1  0.7095115E+001  0.1584200E+01  0.7818608E-02  0.3370692E+00
         11   -1    0    0    0    0  0.00000000000E+00  0.00000000000E+00  0.39999999674E+01  0.40000000000E+01  0.51100000000E-03 0. -1.
    9000002   -1    0    0    0    0 -0.00000000000E+00 -0.00000000000E+00  0.00000000000E+00  0.93800000000E+00  0.93800000000E+00 0.  1.
         11    1    1    2    0    0  0.45091138941E-01  0.91617854551E-01  0.40904199563E+00  0.42159537164E+00  0.51100000000E-03 0. -1.
    9000002    1    1    2    0    0  0.31116218224E+00 -0.38964649969E+00  0.18423234945E+00  0.10781613316E+01  0.93800000000E+00 0.  1.
         22    1    1    2    0    0 -0.35625332118E+00  0.29802864514E+00  0.34067256223E+01  0.34382432968E+01  0.00000000000E+00 0. -1.
</event>
<event>
 5    1  0.7095115E+001  0.1599675E+01  0.7818608E-02  0.3353717E+00
         11   -1    0    0    0    0  0.00000000000E+00  0.00000000000E+00  0.39999999674E+01  0.40000000000E+01  0.51100000000E-03 0.  1.
    9000002   -1    0    0    0    0 -0.00000000000E+00 -0.00000000000E+00  0.00000000000E+00  0.93800000000E+00  0.93800000000E+00 0.  1.
         11    1    1    2    0    0  0.34393023970E-01  0.94393897384E-01  0.98842548509E+00  0.99351813705E+00  0.51100000000E-03 0.  1.
    9000002    1    1    2    0    0 -0.12964263142E+00 -0.37024246316E+00  0.10369995802E+00  0.10220001833E+01  0.93800000000E+00 0.  1.
         22    1    1    2    0    0  0.95249607455E-01  0.27584856577E+00  0.29078745243E+01  0.29224816796E+01  0.00000000000E+00 0.  1.
</event>
<event>
 5    1  0.7095115E+001  0.1599614E+01  0.7818608E-02  0.3353783E+00
         11   -1    0    0    0    0  0.00000000000E+00  0.00000000000E+00  0.39999999674E+01  0.40000000000E+01  0.51100000000E-03 0. -1.
    9000002   -1    0    0    0    0 -0.00000000000E+00 -0.00000000000E+00  0.00000000000E+00  0.93800000000E+00  0.93800000000E+00 0. -1.
         11    1    1    2    0    0 -0.14528906428E+00  0.84251437665E-01  0.11817629970E+01  0.11936378258E+01  0.51100000000E-03 0. -1.
    9000002    1    1    2    0    0  0.44787280040E+00 -0.25311769994E+00  0.18167937971E+00  0.10851313342E+01  0.93800000000E+00 0. -1.
         22    1    1    2    0    0 -0.30258373611E+00  0.16886626228E+00  0.26365575906E+01  0.26592308400E+01  0.00000000000E+00 0. -1.
</event>
<event>
 5    1  0.7095115E+001  0.1588589E+01  0.7818608E-02  0.3365842E+00
         11   -1    0    0    0    0  0.00000000000E+00  0.00000000000E+00  0.39999999674E+01  0.40000000000E+01  0.51100000000E-03 0. -1.
    9000002   -1    0    0    0    0 -0.00000000000E+00 -0.00000000000E+00  0.00000000000E+00  0.93800000000E+00  0.93800000000E+00 0.  1.
         11    1    1    2    0    0  0.32857920924E+00  0.35312692075E+00  0.13349420527E+01  0.14194130703E+01  0.51100000000E-03 0. -1.
    9000002    1    1    2    0    0 -0.52408397315E+00 -0.75806679537E+00  0.67451250495E+00  0.14778837561E+01  0.93800000000E+00 0.  1.
         22    1    1    2    0    0  0.19550476391E+00  0.40493987462E+00  0.19905454097E+01  0.20407031736E+01  0.00000000000E+00 0. -1.
</event>
<event>
 5    1  0.7095115E+001  0.1559284E+01  0.7818608E-02  0.3398776E+00
         11   -1    0    0    0    0  0.00000000000E+00  0.00000000000E+00  0.39999999674E+01  0.40000000000E+01  0.51100000000E-03 0. -1.
    9000002   -1    0    0    0    0 -0.00000000000E+00 -0.00000000000E+00  0.00000000000E+00  0.93800000000E+00  0.93800000000E+00 0. -1.
         11    1    1    2    0    0 -0.90888801786E-01 -0.13470187455E+00  0.31585723279E+00  0.35520616819E+00  0.51100000000E-03 0. -1.
    9000002    1    1    2    0    0 -0.63259482751E-01  0.44089584623E+00  0.17028143268E+00  0.10522502914E+01  0.93800000000E+00 0. -1.
         22    1    1    2    0    0  0.15414828454E+00 -0.30619397168E+00  0.35138613019E+01  0.35305435404E+01  0.00000000000E+00 0. -1.
</event>
<event>
 5    1  0.7095115E+001  0.1599590E+01  0.7818608E-02  0.3353808E+00
         11   -1    0    0    0    0  0.00000000000E+00  0.00000000000E+00  0.39999999674E+01  0.40000000000E+01  0.51100000000E-03 0. -1.
    9000002   -1    0    0    0    0 -0.00000000000E+00 -0.00000000000E+00  0.00000000000E+00  0.93800000000E+00  0.93800000000E+00 0.  1.
         11    1    1    2    0    0  0.14409395823E-01  0.19158965761E+00  0.12355634405E+01  0.12504125336E+01  0.51100000000E-03 0. -1.
    9000002    1    1    2    0    0 -0.29083895237E-01 -0.60873012116E+00  0.25973945965E+00  0.11483496072E+01  0.93800000000E+00 0.  1.
         22    1    1    2    0    0  0.14674499415E-01  0.41714046355E+00  0.25046970672E+01  0.25392378593E+01  0.00000000000E+00 0. -1.
</event>
<event>
 5    1  0.7095115E+001  0.1593146E+01  0.7818608E-02  0.3360837E+00
         11   -1    0    0    0    0  0.00000000000E+00  0.00000000000E+00  0.39999999674E+01  0.40000000000E+01  0.51100000000E-03 0. -1.
    9000002   -1    0    0    0    0 -0.00000000000E+00 -0.00000000000E+00  0.00000000000E+00  0.93800000000E+00  0.93800000000E+00 0.  1.
         11    1    1    2    0    0 -0.35446626790E-01  0.20293357018E-01  0.93028597625E+00  0.93118233575E+00  0.51100000000E-03 0. -1.
    9000002    1    1    2    0    0  0.21229889753E+00  0.25775238717E+00  0.79864751904E-01  0.99886410166E+00  0.93800000000E+00 0.  1.
         22    1    1    2    0    0 -0.17685227074E+00 -0.27804574418E+00  0.29898492392E+01  0.30079535626E+01  0.00000000000E+00 0. -1.
</event>
<event>
 5    1  0.7095115E+001  0.1599521E+01  0.7818608E-02  0.3353883E+00
         11   -1    0    0    0    0  0.00000000000E+00  0.00000000000E+00  0.39999999674E+01  0.40000000000E+01  0.51100000000E-03 0.  1.
    9000002   -1    0    0    0    0 -0.00000000000E+00 -0.00000000000E+00  0.00000000000E+00  0.93800000000E+00  0.93800000000E+00 0. -1.
         11    1    1    2    0    0  0.23468620082E+00  0.10738067188E+00  0.12548050183E+01  0.12810714721E+01  0.51100000000E-03 0.  1.
    9000002    1    1    2    0    0 -0.66460776553E+00 -0.27143032666E+00  0.37032101835E+00  0.12378851162E+01  0.93800000000E+00 0. -1.
         22    1    1    2    0    0  0.42992156471E+00  0.16404965477E+00  0.23748739307E+01  0.24190434117E+01  0.00000000000E+00 0.  1.
</event>
<event>
 5    1  0.7095115E+001  0.1570389E+01  0.7818608E-02  0.3386143E+00
         11   -1    0    0    0    0  0.00000000000E+00  0.00000000000E+00  0.39999999674E+01  0.40000000000E+01  0.51100000000E-03 0.  1.
    9000002   -1    0    0    0    0 -0.00000000000E+00 -0.00000000000E+00  0.00000000000E+00  0.93800000000E+00  0.93800000000E+00 0.  1.
         11    1    1    2    0    0 -0.14300421910E+00 -0.41918084186E-01  0.99718280130E+00  0.10082564816E+01  0.51100000000E-03 0.  1.
    9000002    1    1    2    0    0 -0.12289853148E+00  0.27028691541E-02  0.31760305654E-01  0.94655378693E+00  0.93800000000E+00 0.  1.
         22    1    1    2    0    0  0.26590275058E+00  0.39215215032E-01  0.29710568604E+01  0.29831897314E+01  0.00000000000E+00 0.  1.
</event>
<event>
 5    1  0.7095115E+001  0.1599676E+01  0.7818608E-02  0.3353715E+00
         11   -1    0    0    0    0  0.00000000000E+00  0.00000000000E+00  0.39999999674E+01  0.40000000000E+01  0.51100000000E-03 0.  1.
    9000002   -1    0    0    0    0 -0.00000000000E+00 -0.00000000000E+00  0.00000000000E+00  0.93800000000E+00  0.93800000000E+00 0.  1.
         11    1    1    2    0    0  0.22456070912E-01 -0.14407816136E+00  0.12815136224E+01  0.12897830117E+01  0.51100000000E-03 0. -1.
    9000002    1    1    2    0    0 -0.69205955546E-01  0.43222100311E+00  0.12990397844E+00  0.10432274457E+01  0.93800000000E+00 0.  1.
         22    1    1    2    0    0  0.46749884634E-01 -0.28814284175E+00  0.25885823665E+01  0.26049895427E+01  0.00000000000E+00 0.  1.
</event>
<event>
 5    1  0.7095115E+001  0.1599580E+01  0.7818608E-02  0.3353819E+00
         11   -1    0    0    0    0  0.00000000000E+00  0.00000000000E+00  0.39999999674E+01  0.40000000000E+01  0.51100000000E-03 0. -1.
    9000002   -1    0    0    0    0 -0.00000000000E+00 -0.00000000000E+00  0.00000000000E+00  0.93800000000E+00  0.93800000000E+00 0.  1.
         11    1    1    2    0    0 -0.73814567817E-01  0.27788287786E-01  0.61008168027E+00  0.61515908274E+00  0.51100000000E-03 0. -1.
    9000002    1    1    2    0    0  0.42817253874E+00 -0.13745046728E+00  0.13742484564E+00  0.10492635237E+01  0.93800000000E+00 0.  1.
         22    1    1    2    0    0 -0.35435797092E+00  0.10966217949E+00  0.32524934415E+01  0.32735773936E+01  0.00000000000E+00 0. -1.
</event>
<event>
 5    1  0.7095115E+001  0.1594051E+01  0.7818608E-02  0.3359845E+00
         11   -1    0    0    0    0  0.00000000000E+00  0.00000000000E+00  0.39999999674E+01  0.40000000000E+01  0.51100000000E-03 0.  1.
    9000002   -1    0    0    0    0 -0.00000000000E+00 -0.00000000000E+00  0.00000000000E+00  0.93800000000E+00  0.93800000000E+00 0.  1.
         11    1    1    2    0    0 -0.67421924166E-01  0.36917940936E-02  0.14960168741E+01  0.14975400141E+01  0.51100000000E-03 0.  1.
    9000002    1    1    2    0    0  0.36326724048E+00  0.12236237378E+00  0.10354614690E+00  0.10185781477E+01  0.93800000000E+00 0.  1.
         22    1    1    2    0    0 -0.29584531632E+00 -0.12605416787E+00  0.24004369464E+01  0.24218818382E+01  0.00000000000E+00 0.  1.
</event>
<event>
 5    1  0.7095115E+001  0.1599618E+01  0.7818608E-02  0.3353778E+00
         11   -1    0    0    0    0  0.00000000000E+00  0.00000000000E+00  0.39999999674E+01  0.40000000000E+01  0.51100000000E-03 0. -1.
    9000002   -1    0    0    0    0 -0.00000000000E+00 -0.00000000000E+00  0.00000000000E+00  0.93800000000E+00  0.93800000000E+00 0.  1.
         11    1    1    2    0    0  0.21602508667E-01  0.11916381968E+00  0.10054391317E+01  0.10127066668E+01  0.51100000000E-03 0. -1.
    9000002    1    1    2    0    0 -0.66588210315E-01 -0.43215373551E+00  0.12966430620E+00  0.10429993639E+01  0.93800000000E+00 0.  1.
         22    1    1    2    0    0  0.44985701648E-01  0.31298991584E+00  0.28648965294E+01  0.28822939692E+01  0.00000000000E+00 0.  1.
</event>
<event>
 5    1  0.7095115E+001  0.1599577E+01  0.7818608E-02  0.3353823E+00
         11   -1    0    0    0    0  0.00000000000E+00  0.00000000000E+00  0.39999999674E+01  0.40000000000E+01  0.51100000000E-03 0. -1.
    9000002   -1    0    0    0    0 -0.00000000000E+00 -0.00000000000E+00  0.00000000000E+00  0.93800000000E+00  0.93800000000E+00 0.  1.
         11    1    1    2    0    0  0.14108517348E-01 -0.18140562078E+00  0.91588405359E+00  0.93378311735E+00  0.51100000000E-03 0. -1.
    9000002    1    1    2    0    0 -0.51606356000E-01  0.68371862906E+00  0.33483112417E+00  0.12091692443E+01  0.93800000000E+00 0.  1.
         22    1    1    2    0    0  0.37497838651E-01 -0.50231300828E+00  0.27492847896E+01  0.27950476383E+01  0.00000000000E+00 0. -1.
</event>
<event>
 5    1  0.7095874E+001  0.1599103E+01  0.7818608E-02  0.3354338E+00
         11   -1    0    0    0    0  0.00000000000E+00  0.00000000000E+00  0.39999999674E+01  0.40000000000E+01  0.51100000000E-03 0. -1.
    9000002   -1    0    0    0    0 -0.00000000000E+00 -0.00000000000E+00  0.00000000000E+00  0.93800000000E+00  0.93800000000E+00 0. -1.
         11    1    1    2    0    0 -0.87757495641E-01 -0.40786584118E-01  0.14856940404E+01  0.14888424921E+01  0.51100000000E-03 0. -1.
    9000002    1    1    2    0    0  0.30402414089E+00  0.89134728042E-01  0.67523689892E-01  0.99236038146E+00  0.93800000000E+00 0. -1.
         22    1    1    2    0    0 -0.21626664525E+00 -0.48348143924E-01  0.24467822371E+01  0.24567971265E+01  0.00000000000E+00 0. -1.
</event>
<event>
 5    1  0.7095115E+001  0.1599671E+01  0.7818608E-02  0.3353720E+00
         11   -1    0    0    0    0  0.00000000000E+00  0.00000000000E+00  0.39999999674E+01  0.40000000000E+01  0.51100000000E-03 0.  1.
    9000002   -1    0    0    0    0 -0.00000000000E+00 -0.00000000000E+00  0.00000000000E+00  0.93800000000E+00  0.93800000000E+00 0.  1.
         11    1    1    2    0    0  0.67137526509E-01 -0.99649716292E-01  0.87614525915E+00  0.88434624987E+00  0.51100000000E-03 0.  1.
    9000002    1    1    2    0    0 -0.29435767097E+00  0.42362515041E+00  0.18266426617E+00  0.10859626792E+01  0.93800000000E+00 0.  1.
         22    1    1    2    0    0  0.22722014446E+00 -0.32397543412E+00  0.29411904420E+01  0.29676910709E+01  0.00000000000E+00 0.  1.
</event>
<event>
 5    1  0.7095115E+001  0.1598068E+01  0.7818608E-02  0.3355463E+00
         11   -1    0    0    0    0  0.00000000000E+00  0.00000000000E+00  0.39999999674E+01  0.40000000000E+01  0.51100000000E-03 0.  1.
    9000002   -1    0    0    0    0 -0.00000000000E+00 -0.00000000000E+00  0.00000000000E+00  0.93800000000E+00  0.93800000000E+00 0. -1.
         11    1    1    2    0    0 -0.24205666947E+00  0.22614009092E+00  0.66609073081E+00  0.74391390278E+00  0.51100000000E-03 0.  1.
    9000002    1    1    2    0    0  0.78437178329E+00 -0.90364645260E+00  0.13684366058E+01  0.20455509649E+01  0.93800000000E+00 0. -1.
         22    1    1    2    0    0 -0.54231511382E+00  0.67750636168E+00  0.19654726307E+01  0.21485351324E+01  0.00000000000E+00 0.  1.
</event>
<event>
 5    1  0.7095115E+001  0.1599270E+01  0.7818608E-02  0.3354156E+00
         11   -1    0    0    0    0  0.00000000000E+00  0.00000000000E+00  0.39999999674E+01  0.40000000000E+01  0.51100000000E-03 0.  1.
    9000002   -1    0    0    0    0 -0.00000000000E+00 -0.00000000000E+00  0.00000000000E+00  0.93800000000E+00  0.93800000000E+00 0. -1.
         11    1    1    2    0    0 -0.32211265685E-01 -0.10496756643E+00  0.91742409699E+00  0.92397131476E+00  0.51100000000E-03 0.  1.
    9000002    1    1    2    0    0  0.13480732265E+00  0.35842386100E+00  0.99035353253E-01  0.10179846166E+01  0.93800000000E+00 0. -1.
         22    1    1    2    0    0 -0.10259605697E+00 -0.25345629457E+00  0.29835405171E+01  0.29960440687E+01  0.00000000000E+00 0.  1.
</event>
<event>
 5    1  0.7095115E+001  0.1598188E+01  0.7818608E-02  0.3355332E+00
         11   -1    0    0    0    0  0.00000000000E+00  0.00000000000E+00  0.39999999674E+01  0.40000000000E+01  0.51100000000E-03 0.  1.
    9000002   -1    0    0    0    0 -0.00000000000E+00 -0.00000000000E+00  0.00000000000E+00  0.93800000000E+00  0.93800000000E+00 0. -1.
         11    1    1    2    0    0 -0.44103279767E-01 -0.14784917951E+00  0.99327087122E+00  0.10051824530E+01  0.51100000000E-03 0.  1.
    9000002    1    1    2    0    0  0.20126555285E+00  0.41784106274E+00  0.14769614368E+00  0.10567673005E+01  0.93800000000E+00 0. -1.
         22    1    1    2    0    0 -0.15716227308E+00 -0.26999188323E+00  0.28590329525E+01  0.28760502465E+01  0.00000000000E+00 0.  1.
</event>
<event>
 5    1  0.7095115E+001  0.1599444E+01  0.7818608E-02  0.3353967E+00
         11   -1    0    0    0    0  0.00000000000E+00  0.00000000000E+00  0.39999999674E+01  0.40000000000E+01  0.51100000000E-03 0. -1.
    9000002   -1    0    0    0    0 -0.00000000000E+00 -0.00000000000E+00  0.00000000000E+00  0.93800000000E+00  0.93800000000E+00 0. -1.
         11    1    1    2    0    0 -0.46011920030E-01  0.26620277918E+00  0.13522535406E+01  0.13789745885E+01  0.51100000000E-03 0. -1.
    9000002    1    1    2    0    0  0.15364727060E+00 -0.74130225209E+00  0.41666023405E+00  0.12753769103E+01  0.93800000000E+00 0. -1.
         22    1    1    2    0    0 -0.10763535057E+00  0.47509947291E+00  0.22310861927E+01  0.22836485012E+01  0.00000000000E+00 0.  1.
</event>
<event>
 5    1  0.7095115E+001  0.1599421E+01  0.7818608E-02  0.3353992E+00
         11   -1    0    0    0    0  0.00000000000E+00  0.00000000000E+00  0.39999999674E+01  0.40000000000E+01  0.51100000000E-03 0. -1.
    9000002   -1    0    0    0    0 -0.00000000000E+00 -0.00000000000E+00  0.00000000000E+00  0.93800000000E+00  0.93800000000E+00 0. -1.
         11    1    1    2    0    0  0.10813513747E+00  0.74505198592E-02  0.49343514987E+00  0.50520018453E+00  0.51100000000E-03 0. -1.
    9000002    1    1    2    0    0 -0.70169724821E+00 -0.76364266247E-01  0.35691082809E+00  0.12269636786E+01  0.93800000000E+00 0. -1.
         22    1    1    2    0    0  0.59356211075E+00  0.68913746388E-01  0.31496539894E+01  0.32058361369E+01  0.00000000000E+00 0. -1.
</event>
<event>
 5    1  0.7095115E+001  0.1531872E+01  0.7818608E-02  0.3430797E+00
         11   -1    0    0    0    0  0.00000000000E+00  0.00000000000E+00  0.39999999674E+01  0.40000000000E+01  0.51100000000E-03 0. -1.
    9000002   -1    0    0    0    0 -0.00000000000E+00 -0.00000000000E+00  0.00000000000E+00  0.93800000000E+00  0.93800000000E+00 0.  1.
         11    1    1    2    0    0  0.13558426733E+00  0.93448617551E-02  0.21670853605E+00  0.25579927816E+00  0.51100000000E-03 0. -1.
    9000002    1    1    2    0    0  0.21952255014E+00 -0.88806448129E-01  0.90644109750E-01  0.97166717032E+00  0.93800000000E+00 0.  1.
         22    1    1    2    0    0 -0.35510681747E+00  0.79461586374E-01  0.36926473216E+01  0.37105335515E+01  0.00000000000E+00 0. -1.
</event>
<event>
 5    1  0.7095115E+001  0.1599329E+01  0.7818608E-02  0.3354092E+00
         11   -1    0    0    0    0  0.00000000000E+00  0.00000000000E+00  0.39999999674E+01  0.40000000000E+01  0.51100000000E-03 0.  1.
    9000002   -1    0    0    0    0 -0.00000000000E+00 -0.00000000000E+00  0.00000000000E+00  0.93800000000E+00  0.93800000000E+00 0.  1.
         11    1    1    2    0    0  0.16642638865E-01 -0.90799266110E-02  0.11503595277E+00  0.11658882470E+00  0.51100000000E-03 0.  1.
    9000002    1    1    2    0    0 -0.30724683526E+00  0.26575640944E+00  0.11169514566E+00  0.10282737440E+01  0.93800000000E+00 0.  1.
         22    1    1    2    0    0  0.29060419640E+00 -0.25667648283E+00  0.37732688689E+01  0.37931374313E+01  0.00000000000E+00 0.  1.
</event>
<event>
 5    1  0.7095115E+001  0.1530830E+01  0.7818608E-02  0.3432039E+00
         11   -1    0    0    0    0  0.00000000000E+00  0.00000000000E+00  0.39999999674E+01  0.40000000000E+01  0.51100000000E-03 0. -1.
    9000002   -1    0    0    0    0 -0.00000000000E+00 -0.00000000000E+00  0.00000000000E+00  0.93800000000E+00  0.93800000000E+00 0.  1.
         11    1    1    2    0    0 -0.26116102295E+00  0.10335793641E+00  0.11071006665E+01  0.11421734061E+01  0.51100000000E-03 0. -1.
    9000002    1    1    2    0    0  0.34945439385E-01  0.10701692188E+00  0.60538754201E-01  0.94666929076E+00  0.93800000000E+00 0.  1.
         22    1    1    2    0    0  0.22621558356E+00 -0.21037485830E+00  0.28323605467E+01  0.28491573031E+01  0.00000000000E+00 0. -1.
</event>
<event>
 5    1  0.7095115E+001  0.1596819E+01  0.7818608E-02  0.3356823E+00
         11   -1    0    0    0    0  0.00000000000E+00  0.00000000000E+00  0.39999999674E+01  0.40000000000E+01  0.51100000000E-03 0. -1.
    9000002   -1    0    0    0    0 -0.00000000000E+00 -0.00000000000E+00  0.00000000000E+00  0.93800000000E+00  0.93800000000E+00 0.  1.
         11    1    1    2    0    0  0.87015340303E-01 -0.34540507991E-01  0.61495239912E+00  0.62203812619E+00  0.51100000000E-03 0. -1.
    9000002    1    1    2    0    0 -0.40657988738E+00 -0.42517179732E-01  0.11524807147E+00  0.10296800636E+01  0.93800000000E+00 0.  1.
         22    1    1    2    0    0  0.31956454708E+00  0.77057687723E-01  0.32697994968E+01  0.32862818102E+01  0.00000000000E+00 0. -1.
</event>
<event>
 5    1  0.7095115E+001  0.1594286E+01  0.7818608E-02  0.3359588E+00
         11   -1    0    0    0    0  0.00000000000E+00  0.00000000000E+00  0.39999999674E+01  0.40000000000E+01  0.51100000000E-03 0.  1.
    9000002   -1    0    0    0    0 -0.00000000000E+00 -0.00000000000E+00  0.00000000000E+00  0.93800000000E+00  0.93800000000E+00 0.  1.
         11    1    1    2    0    0 -0.69014972440E-01 -0.36790224657E-01  0.65600572065E+00  0.66065146158E+00  0.51100000000E-03 0.  1.
    9000002    1    1    2    0    0  0.61959339368E+00 -0.98822211248E-01  0.28187064609E+00  0.11631667396E+01  0.93800000000E+00 0.  1.
         22    1    1    2    0    0 -0.55057842124E+00  0.13561243590E+00  0.30621236006E+01  0.31141817988E+01  0.00000000000E+00 0.  1.
</event>
<event>
 5    1  0.7095115E+001  0.1598453E+01  0.7818608E-02  0.3355044E+00
         11   -1    0    0    0    0  0.00000000000E+00  0.00000000000E+00  0.39999999674E+01  0.40000000000E+01  0.51100000000E-03 0. -1.
    9000002   -1    0    0    0    0 -0.00000000000E+00 -0.00000000000E+00  0.00000000000E+00  0.93800000000E+00  0.93800000000E+00 0. -1.
         11    1    1    2    0    0 -0.14841171202E+00  0.22393237974E-01  0.13545261599E+01  0.13628165219E+01  0.51100000000E-03 0. -1.
    9000002    1    1    2    0    0  0.40519190733E+00  0.48996692120E-01  0.11350612130E+00  0.10292272816E+01  0.93800000000E+00 0. -1.
         22    1    1    2    0    0 -0.25678019531E+00 -0.71389930094E-01  0.25319676861E+01  0.25459561965E+01  0.00000000000E+00 0.  1.
</event>
<event>
 5    1  0.1070140E+002  0.1599523E+01  0.7818608E-02  0.3353881E+00
         11   -1    0    0    0    0  0.00000000000E+00  0.00000000000E+00  0.39999999674E+01  0.40000000000E+01  0.51100000000E-03 0.  1.
    9000002   -1    0    0    0    0 -0.00000000000E+00 -0.00000000000E+00  0.00000000000E+00  0.93800000000E+00  0.93800000000E+00 0. -1.
         11    1    1    2    0    0 -0.11672047439E+00 -0.29545909721E-01  0.14669772803E+01  0.14719100624E+01  0.51100000000E-03 0.  1.
    9000002    1    1    2    0    0  0.34942206977E+00  0.85718893344E-01  0.87013060598E-01  0.10083941611E+01  0.93800000000E+00 0. -1.
         22    1    1    2    0    0 -0.23270159538E+00 -0.56172983623E-01  0.24460096265E+01  0.24576957764E+01  0.00000000000E+00 0.  1.
</event>
<event>
 5    1  0.7095115E+001  0.1599676E+01  0.7818608E-02  0.3353715E+00
         11   -1    0    0    0    0  0.00000000000E+00  0.00000000000E+00  0.39999999674E+01  0.40000000000E+01  0.51100000000E-03 0.  1.
    9000002   -1    0    0    0    0 -0.00000000000E+00 -0.00000000000E+00  0.00000000000E+00  0.93800000000E+00  0.93800000000E+00 0.  1.
         11    1    1    2    0    0 -0.63932434378E-01  0.36592434977E-01  0.60677973223E+00  0.61123503420E+00  0.51100000000E-03 0.  1.
    9000002    1    1    2    0    0  0.40154212611E+00 -0.22999052146E+00  0.14571405470E+00  0.10560342346E+01  0.93800000000E+00 0.  1.
         22    1    1    2    0    0 -0.33760969173E+00  0.19339808649E+00  0.32475061804E+01  0.32707307312E+01  0.00000000000E+00 0.  1.
</event>
<event>
 5    1  0.7095115E+001  0.1569302E+01  0.7818608E-02  0.3387371E+00
         11   -1    0    0    0    0  0.00000000000E+00  0.00000000000E+00  0.39999999674E+01  0.40000000000E+01  0.51100000000E-03 0. -1.
    9000002   -1    0    0    0    0 -0.00000000000E+00 -0.00000000000E+00  0.00000000000E+00  0.93800000000E+00  0.93800000000E+00 0. -1.
         11    1    1    2    0    0  0.29302669513E+00 -0.22869096973E+00  0.10676447706E+01  0.11304998103E+01  0.51100000000E-03 0. -1.
    9000002    1    1    2    0    0 -0.32607023056E+00  0.69942262244E+00  0.47333616479E+00  0.13036122602E+01  0.93800000000E+00 0. -1.
         22    1    1    2    0    0  0.33043535432E-01 -0.47073165271E+00  0.24590190320E+01  0.25038879295E+01  0.00000000000E+00 0. -1.
</event>
<event>
 5    1  0.7095115E+001  0.1599677E+01  0.7818608E-02  0.3353714E+00
         11   -1    0    0    0    0  0.00000000000E+00  0.00000000000E+00  0.39999999674E+01  0.40000000000E+01  0.51100000000E-03 0.  1.
    9000002   -1    0    0    0    0 -0.00000000000E+00 -0.00000000000E+00  0.00000000000E+00  0.93800000000E+00  0.93800000000E+00 0. -1.
         11    1    1    2    0    0 -0.82070213832E-01 -0.86083249985E-01  0.12543390400E+01  0.12599652909E+01  0.51100000000E-03 0.  1.
    9000002    1    1    2    0    0  0.25579946395E+00  0.26934634049E+00  0.92744457094E-01  0.10131270163E+01  0.93800000000E+00 0. -1.
         22    1    1    2    0    0 -0.17372925012E+00 -0.18326309051E+00  0.26529164703E+01  0.26649076928E+01  0.00000000000E+00 0.  1.
</event>
<event>
 5    1  0.7095115E+001  0.1599572E+01  0.7818608E-02  0.3353828E+00
         11   -1    0    0    0    0  0.00000000000E+00  0.00000000000E+00  0.39999999674E+01  0.40000000000E+01  0.51100000000E-03 0. -1.
    9000002   -1    0    0    0    0 -0.00000000000E+00 -0.00000000000E+00  0.00000000000E+00  0.93800000000E+00  0.93800000000E+00 0.  1.
         11    1    1    2    0    0 -0.25002689891E-01 -0.18892165213E+00  0.11166796081E+01  0.11328239640E+01  0.51100000000E-03 0. -1.
    9000002    1    1    2    0    0  0.45770287603E-01  0.63294188636E+00  0.28325081675E+00  0.11673839882E+01  0.93800000000E+00 0.  1.
         22    1    1    2    0    0 -0.20767597712E-01 -0.44402023423E+00  0.26000695425E+01  0.26377920478E+01  0.00000000000E+00 0. -1.
</event>
<event>
 5    1  0.7095115E+001  0.1574078E+01  0.7818608E-02  0.3381988E+00
         11   -1    0    0    0    0  0.00000000000E+00  0.00000000000E+00  0.39999999674E+01  0.40000000000E+01  0.51100000000E-03 0. -1.
    9000002   -1    0    0    0    0 -0.00000000000E+00 -0.00000000000E+00  0.00000000000E+00  0.93800000000E+00  0.93800000000E+00 0. -1.
         11    1    1    2    0    0  0.32473566523E+00  0.11853254955E-01  0.10738296438E+01  0.11219198354E+01  0.51100000000E-03 0. -1.
    9000002    1    1    2    0    0 -0.54629795474E+00  0.14424556734E+00  0.24610537293E+00  0.11223457995E+01  0.93800000000E+00 0. -1.
         22    1    1    2    0    0  0.22156228951E+00 -0.15609882230E+00  0.26800649506E+01  0.26937343651E+01  0.00000000000E+00 0. -1.
</event>
<event>
 5    1  0.7095115E+001  0.1598620E+01  0.7818608E-02  0.3354863E+00
         11   -1    0    0    0    0  0.00000000000E+00  0.00000000000E+00  0.39999999674E+01  0.40000000000E+01  0.51100000000E-03 0. -1.
    9000002   -1    0    0    0    0 -0.00000000000E+00 -0.00000000000E+00  0.00000000000E+00  0.93800000000E+00  0.93800000000E+00 0.  1.
         11    1    1    2    0    0 -0.32768840057E+00  0.63455773479E-02  0.14390668748E+01  0.14759179128E+01  0.51100000000E-03 0. -1.
    9000002    1    1    2    0    0  0.73003655578E+00 -0.47573473083E-01  0.38712819015E+00  0.12509711602E+01  0.93800000000E+00 0.  1.
         22    1    1    2    0    0 -0.40234815520E+00  0.41227895735E-01  0.21738049024E+01  0.22111109269E+01  0.00000000000E+00 0. -1.
</event>
<event>
 5    1  0.7095115E+001  0.1528586E+01  0.7818608E-02  0.3434719E+00
         11   -1    0    0    0    0  0.00000000000E+00  0.00000000000E+00  0.39999999674E+01  0.40000000000E+01  0.51100000000E-03 0.  1.
    9000002   -1    0    0    0    0 -0.00000000000E+00 -0.00000000000E+00  0.00000000000E+00  0.93800000000E+00  0.93800000000E+00 0.  1.
         11    1    1    2    0    0 -0.23446626752E+00 -0.22160188152E+00  0.12851368200E+01  0.13250127289E+01  0.51100000000E-03 0.  1.
    9000002    1    1    2    0    0  0.77826129107E-01  0.12971433707E-01  0.57734064857E-01  0.94308132561E+00  0.93800000000E+00 0.  1.
         22    1    1    2    0    0  0.15664013841E+00  0.20863044781E+00  0.26571290825E+01  0.26699059455E+01  0.00000000000E+00 0.  1.
</event>
<event>
 5    1  0.7095115E+001  0.1494097E+01  0.7818608E-02  0.3476988E+00
         11   -1    0    0    0    0  0.00000000000E+00  0.00000000000E+00  0.39999999674E+01  0.40000000000E+01  0.51100000000E-03 0.  1.
    9000002   -1    0    0    0    0 -0.00000000000E+00 -0.00000000000E+00  0.00000000000E+00  0.93800000000E+00  0.93800000000E+00 0.  1.
         11    1    1    2    0    0  0.29614790171E+00  0.68257172563E-01  0.67949416406E+00  0.74436227833E+00  0.51100000000E-03 0.  1.
    9000002    1    1    2    0    0  0.10678993743E-01 -0.15438389116E+00  0.98342330610E-01  0.95575291825E+00  0.93800000000E+00 0.  1.
         22    1    1    2    0    0 -0.30682689546E+00  0.86126718600E-01  0.32221634727E+01  0.32378848034E+01  0.00000000000E+00 0.  1.
</event>
<event>
 5    1  0.7095115E+001  0.1596859E+01  0.7818608E-02  0.3356780E+00
         11   -1    0    0    0    0  0.00000000000E+00  0.00000000000E+00  0.39999999674E+01  0.40000000000E+01  0.51100000000E-03 0. -1.
    9000002   -1    0    0    0    0 -0.00000000000E+00 -0.00000000000E+00  0.00000000000E+00  0.93800000000E+00  0.93800000000E+00 0.  1.
         11    1    1    2    0    0  0.14272697992E-01 -0.57297230421E-01  0.68041494833E+00  0.68297250717E+00  0.51100000000E-03 0. -1.
    9000002    1    1    2    0    0  0.17875337763E+00  0.41939109300E+00  0.14373580297E+00  0.10527799580E+01  0.93800000000E+00 0.  1.
         22    1    1    2    0    0 -0.19302607562E+00 -0.36209386258E+00  0.31758492161E+01  0.32022475348E+01  0.00000000000E+00 0. -1.
</event>
<event>
 5    1  0.7095115E+001  0.1588003E+01  0.7818608E-02  0.3366489E+00
         11   -1    0    0    0    0  0.00000000000E+00  0.00000000000E+00  0.39999999674E+01  0.40000000000E+01  0.51100000000E-03 0.  1.
    9000002   -1    0    0    0    0 -0.00000000000E+00 -0.00000000000E+00  0.00000000000E+00  0.93800000000E+00  0.93800000000E+00 0. -1.
         11    1    1    2    0    0  0.21906915439E-01  0.32380671887E-01  0.39837639770E+00  0.40029043983E+00  0.51100000000E-03 0.  1.
    9000002    1    1    2    0    0  0.53480215673E+00 -0.41815672494E+00  0.34039383393E+00  0.12068887089E+01  0.93800000000E+00 0. -1.
         22    1    1    2    0    0 -0.55670907217E+00  0.38577605305E+00  0.32612297357E+01  0.33308208513E+01  0.00000000000E+00 0.  1.
</event>
<event>
 5    1  0.7095115E+001  0.1596540E+01  0.7818608E-02  0.3357127E+00
         11   -1    0    0    0    0  0.00000000000E+00  0.00000000000E+00  0.39999999674E+01  0.40000000000E+01  0.51100000000E-03 0.  1.
    9000002   -1    0    0    0    0 -0.00000000000E+00 -0.00000000000E+00  0.00000000000E+00  0.93800000000E+00  0.93800000000E+00 0.  1.
         11    1    1    2    0    0 -0.23669077236E-01  0.12531924284E-01  0.24786273379E+00  0.24930597720E+00  0.51100000000E-03 0.  1.
    9000002    1    1    2    0    0  0.26389280202E+00  0.30860597025E+00  0.11392582509E+00  0.10284455015E+01  0.93800000000E+00 0.  1.
         22    1    1    2    0    0 -0.24022372479E+00 -0.32113789453E+00  0.36382114085E+01  0.36602485213E+01  0.00000000000E+00 0.  1.
</event>
<event>
 5    1  0.7095115E+001  0.1589732E+01  0.7818608E-02  0.3364584E+00
         11   -1    0    0    0    0  0.00000000000E+00  0.00000000000E+00  0.39999999674E+01  0.40000000000E+01  0.51100000000E-03 0.  1.
    9000002   -1    0    0    0    0 -0.00000000000E+00 -0.00000000000E+00  0.00000000000E+00  0.93800000000E+00  0.93800000000E+00 0.  1.
         11    1    1    2    0    0  0.17853896521E-01 -0.22803201983E-01  0.36530043201E-01  0.46620304792E-01  0.51100000000E-03 0.  1.
    9000002    1    1    2    0    0 -0.28357429132E+00  0.29056385298E+00  0.11963255184E+00  0.10290761288E+01  0.93800000000E+00 0.  1.
         22    1    1    2    0    0  0.26572039480E+00 -0.26776065100E+00  0.38438373723E+01  0.38623035664E+01  0.00000000000E+00 0.  1.
</event>
<event>
 5    1  0.7095115E+001  0.1580985E+01  0.7818608E-02  0.3374263E+00
         11   -1    0    0    0    0  0.00000000000E+00  0.00000000000E+00  0.39999999674E+01  0.40000000000E+01  0.51100000000E-03 0. -1.
    9000002   -1    0    0    0    0 -0.00000000000E+00 -0.00000000000E+00  0.00000000000E+00  0.93800000000E+00  0.93800000000E+00 0.  1.
         11    1    1    2    0    0 -0.17447508579E-01 -0.17666482977E+00  0.13848682389E+01  0.13962002642E+01  0.51100000000E-03 0. -1.
    9000002    1    1    2    0    0  0.30010130267E+00  0.13213293984E+00  0.86930206374E-01  0.99745715018E+00  0.93800000000E+00 0.  1.
         22    1    1    2    0    0 -0.28265379409E+00  0.44531889921E-01  0.25282015221E+01  0.25443425856E+01  0.00000000000E+00 0. -1.
</event>
<event>
 5    1  0.7095115E+001  0.1591121E+01  0.7818608E-02  0.3363057E+00
         11   -1    0    0    0    0  0.00000000000E+00  0.00000000000E+00  0.39999999674E+01  0.40000000000E+01  0.51100000000E-03 0.  1.
    9000002   -1    0    0    0    0 -0.00000000000E+00 -0.00000000000E+00  0.00000000000E+00  0.93800000000E+00  0.93800000000E+00 0.  1.
         11    1    1    2    0    0 -0.16365177315E-01 -0.58634630095E-01  0.38963089221E+00  0.39435812678E+00  0.51100000000E-03 0.  1.
    9000002    1    1    2    0    0  0.63788377476E+00  0.12292105240E+00  0.30681717488E+00  0.11815185458E+01  0.93800000000E+00 0.  1.
         22    1    1    2    0    0 -0.62151859745E+00 -0.64286422306E-01  0.33035519003E+01  0.33621233274E+01  0.00000000000E+00 0.  1.
</event>
<event>
 5    1  0.7095115E+001  0.1586618E+01  0.7818608E-02  0.3368017E+00
         11   -1    0    0    0    0  0.00000000000E+00  0.00000000000E+00  0.39999999674E+01  0.40000000000E+01  0.51100000000E-03 0. -1.
    9000002   -1    0    0    0    0 -0.00000000000E+00 -0.00000000000E+00  0.00000000000E+00  0.93800000000E+00  0.93800000000E+00 0. -1.
         11    1    1    2    0    0 -0.14247684588E+00 -0.93489552282E-01  0.70789773849E+00  0.72812046894E+00  0.51100000000E-03 0. -1.
    9000002    1    1    2    0    0  0.45273014403E+00  0.21169689811E-01  0.15097569631E+00  0.10526397294E+01  0.93800000000E+00 0. -1.
         22    1    1    2    0    0 -0.31025329815E+00  0.72319862471E-01  0.31411265326E+01  0.31572398016E+01  0.00000000000E+00 0. -1.
</event>
<event>
 5    1  0.7095115E+001  0.1599677E+01  0.7818608E-02  0.3353714E+00
         11   -1    0    0    0    0  0.00000000000E+00  0.00000000000E+00  0.39999999674E+01  0.40000000000E+01  0.51100000000E-03 0. -1.
    9000002   -1    0    0    0    0 -0.00000000000E+00 -0.00000000000E+00  0.00000000000E+00  0.93800000000E+00  0.93800000000E+00 0.  1.
         11    1    1    2    0    0  0.10666241857E+00  0.10054309179E-01  0.10498911162E+01  0.10553433459E+01  0.51100000000E-03 0.  1.
    9000002    1    1    2    0    0 -0.39665625529E+00 -0.36817777208E-01  0.10701840926E+00  0.10246895498E+01  0.93800000000E+00 0.  1.
         22    1    1    2    0    0  0.28999383672E+00  0.26763468029E-01  0.28430904419E+01  0.28579671043E+01  0.00000000000E+00 0. -1.
</event>
<event>
 5    1  0.7095115E+001  0.1599670E+01  0.7818608E-02  0.3353721E+00
         11   -1    0    0    0    0  0.00000000000E+00  0.00000000000E+00  0.39999999674E+01  0.40000000000E+01  0.51100000000E-03 0.  1.
    9000002   -1    0    0    0    0 -0.00000000000E+00 -0.00000000000E+00  0.00000000000E+00  0.93800000000E+00  0.93800000000E+00 0. -1.
         11    1    1    2    0    0  0.99466883605E-01 -0.18823500523E+00  0.11954829194E+01  0.12142922835E+01  0.51100000000E-03 0.  1.
    9000002    1    1    2    0    0 -0.30580973440E+00  0.58960888308E+00  0.31238957407E+00  0.11910455384E+01  0.93800000000E+00 0. -1.
         22    1    1    2    0    0  0.20634285079E+00 -0.40137387785E+00  0.24921274739E+01  0.25326621781E+01  0.00000000000E+00 0.  1.
</event>
<event>
 5    1  0.7095115E+001  0.1599526E+01  0.7818608E-02  0.3353878E+00
         11   -1    0    0    0    0  0.00000000000E+00  0.00000000000E+00  0.39999999674E+01  0.40000000000E+01  0.51100000000E-03 0.  1.
    9000002   -1    0    0    0    0 -0.00000000000E+00 -0.00000000000E+00  0.00000000000E+00  0.93800000000E+00  0.93800000000E+00 0.  1.
         11    1    1    2    0    0 -0.89578866373E-01 -0.46144991992E-01  0.67144239320E+00  0.67896162048E+00  0.51100000000E-03 0.  1.
    9000002    1    1    2    0    0  0.56177444777E+00  0.25694949625E+00  0.26743769890E+00  0.11545477455E+01  0.93800000000E+00 0.  1.
         22    1    1    2    0    0 -0.47219558140E+00 -0.21080450425E+00  0.30611198753E+01  0.31044906340E+01  0.00000000000E+00 0.  1.
</event>
<event>
 5    1  0.7095115E+001  0.1599677E+01  0.7818608E-02  0.3353714E+00
         11   -1    0    0    0    0  0.00000000000E+00  0.00000000000E+00  0.39999999674E+01  0.40000000000E+01  0.51100000000E-03 0. -1.
    9000002   -1    0    0    0    0 -0.00000000000E+00 -0.00000000000E+00  0.00000000000E+00  0.93800000000E+00  0.93800000000E+00 0. -1.
         11    1    1    2    0    0 -0.10909311212E+00 -0.78575761281E-01  0.12430520307E+01  0.12503015914E+01  0.51100000000E-03 0. -1.
    9000002    1    1    2    0    0  0.34052076546E+00  0.24631895569E+00  0.11945838549E+00  0.10347665077E+01  0.93800000000E+00 0. -1.
         22    1    1    2    0    0 -0.23142765334E+00 -0.16774319441E+00  0.26374895512E+01  0.26529319009E+01  0.00000000000E+00 0. -1.
</event>
<event>
 5    1  0.7095115E+001  0.1581125E+01  0.7818608E-02  0.3374108E+00
         11   -1    0    0    0    0  0.00000000000E+00  0.00000000000E+00  0.39999999674E+01  0.40000000000E+01  0.51100000000E-03 0. -1.
    9000002   -1    0    0    0    0 -0.00000000000E+00 -0.00000000000E+00  0.00000000000E+00  0.93800000000E+00  0.93800000000E+00 0.  1.
         11    1    1    2    0    0 -0.63394741733E-01  0.42435736694E-01  0.10020930844E+01  0.10049927841E+01  0.51100000000E-03 0. -1.
    9000002    1    1    2    0    0 -0.17731943489E+00  0.19799206921E+00  0.61403603054E-01  0.97686101567E+00  0.93800000000E+00 0.  1.
         22    1    1    2    0    0  0.24071417662E+00 -0.24042780590E+00  0.29365032799E+01  0.29561462003E+01  0.00000000000E+00 0. -1.
</event>
<event>
 5    1  0.7095115E+001  0.1558217E+01  0.7818608E-02  0.3400001E+00
         11   -1    0    0    0    0  0.00000000000E+00  0.00000000000E+00  0.39999999674E+01  0.40000000000E+01  0.51100000000E-03 0. -1.
    9000002   -1    0    0    0    0 -0.00000000000E+00 -0.00000000000E+00  0.00000000000E+00  0.93800000000E+00  0.93800000000E+00 0.  1.
         11    1    1    2    0    0 -0.19592854781E+00  0.13922880780E+00  0.94028479265E+00  0.97051965934E+00  0.51100000000E-03 0. -1.
    9000002    1    1    2    0    0 -0.23127199002E-01 -0.32353338914E+00  0.10399806677E+00  0.99793202129E+00  0.93800000000E+00 0.  1.
         22    1    1    2    0    0  0.21905574681E+00  0.18430458134E+00  0.29557171079E+01  0.29695483194E+01  0.00000000000E+00 0. -1.
</event>
<event>
 5    1  0.7095115E+001  0.1599666E+01  0.7818608E-02  0.3353726E+00
         11   -1    0    0    0    0  0.00000000000E+00  0.00000000000E+00  0.39999999674E+01  0.40000000000E+01  0.51100000000E-03 0. -1.
    9000002   -1    0    0    0    0 -0.00000000000E+00 -0.00000000000E+00  0.00000000000E+00  0.93800000000E+00  0.93800000000E+00 0. -1.
         11    1    1    2    0    0 -0.23729806783E+00 -0.15502299660E-01  0.14457038229E+01  0.14651315637E+01  0.51100000000E-03 0. -1.
    9000002    1    1    2    0    0  0.61636091773E+00  0.49344500841E-01  0.26783618850E+00  0.11549527629E+01  0.93800000000E+00 0. -1.
         22    1    1    2    0    0 -0.37906284991E+00 -0.33842201181E-01  0.22864599560E+01  0.23179156734E+01  0.00000000000E+00 0. -1.
</event>
<event>
 5    1  0.7095115E+001  0.1599486E+01  0.7818608E-02  0.3353921E+00
         11   -1    0    0    0    0  0.00000000000E+00  0.00000000000E+00  0.39999999674E+01  0.40000000000E+01  0.51100000000E-03 0. -1.
    9000002   -1    0    0    0    0 -0.00000000000E+00 -0.00000000000E+00  0.00000000000E+00  0.93800000000E+00  0.93800000000E+00 0. -1.
         11    1    1    2    0    0  0.46455155217E-01 -0.93905515316E-01  0.96429794378E+00  0.96997273815E+00  0.51100000000E-03 0. -1.
    9000002    1    1    2    0    0 -0.22627814437E+00  0.41544866059E+00  0.15270299793E+00  0.10615844732E+01  0.93800000000E+00 0. -1.
         22    1    1    2    0    0  0.17982298915E+00 -0.32154314527E+00  0.28829990257E+01  0.29064427886E+01  0.00000000000E+00 0. -1.
</event>
<event>
 5    1  0.7095115E+001  0.1599677E+01  0.7818608E-02  0.3353714E+00
         11   -1    0    0    0    0  0.00000000000E+00  0.00000000000E+00  0.39999999674E+01  0.40000000000E+01  0.51100000000E-03 0. -1.
    9000002   -1    0    0    0    0 -0.00000000000E+00 -0.00000000000E+00  0.00000000000E+00  0.93800000000E+00  0.93800000000E+00 0. -1.
         11    1    1    2    0    0  0.75147180564E-01 -0.11727046929E+00  0.14316807592E+01  0.14384399602E+01  0.51100000000E-03 0. -1.
    9000002    1    1    2    0    0 -0.20321251104E+00  0.32080061562E+00  0.97026547974E-01  0.10165955492E+01  0.93800000000E+00 0. -1.
         22    1    1    2    0    0  0.12806533048E+00 -0.20353014633E+00  0.24712926602E+01  0.24829644906E+01  0.00000000000E+00 0.  1.
</event>
<event>
 5    1  0.7095115E+001  0.1589837E+01  0.7818608E-02  0.3364468E+00
         11   -1    0    0    0    0  0.00000000000E+00  0.00000000000E+00  0.39999999674E+01  0.40000000000E+01  0.51100000000E-03 0.  1.
    9000002   -1    0    0    0    0 -0.00000000000E+00 -0.00000000000E+00  0.00000000000E+00  0.93800000000E+00  0.93800000000E+00 0.  1.
         11    1    1    2    0    0  0.30595350683E-01 -0.14991704662E-01  0.71757959777E-01  0.79437350185E-01  0.51100000000E-03 0.  1.
    9000002    1    1    2    0    0  0.17700982239E+00  0.77868614930E+00  0.48233294624E+00  0.13229412940E+01  0.93800000000E+00 0.  1.
         22    1    1    2    0    0 -0.20760517307E+00 -0.76369444464E+00  0.34459090613E+01  0.35356213558E+01  0.00000000000E+00 0.  1.
</event>
<event>
 5    1  0.7095115E+001  0.1599531E+01  0.7818608E-02  0.3353872E+00
         11   -1    0    0    0    0  0.00000000000E+00  0.00000000000E+00  0.39999999674E+01  0.40000000000E+01  0.51100000000E-03 0.  1.
    9000002   -1    0    0    0    0 -0.00000000000E+00 -0.00000000000E+00  0.00000000000E+00  0.93800000000E+00  0.93800000000E+00 0. -1.
         11    1    1    2    0    0  0.70357456921E-02 -0.12671773342E+00  0.11932474872E+01  0.11999777966E+01  0.51100000000E-03 0.  1.
    9000002    1    1    2    0    0 -0.65598578119E-01  0.40352624631E+00  0.11298853260E+00  0.10294401456E+01  0.93800000000E+00 0. -1.
         22    1    1    2    0    0  0.58562832427E-01 -0.27680851288E+00  0.26937639476E+01  0.27085820577E+01  0.00000000000E+00 0.  1.
</event>
<event>
 5    1  0.7095115E+001  0.1595748E+01  0.7818608E-02  0.3357991E+00
         11   -1    0    0    0    0  0.00000000000E+00  0.00000000000E+00  0.39999999674E+01  0.40000000000E+01  0.51100000000E-03 0. -1.
    9000002   -1    0    0    0    0 -0.00000000000E+00 -0.00000000000E+00  0.00000000000E+00  0.93800000000E+00  0.93800000000E+00 0. -1.
         11    1    1    2    0    0 -0.47305813465E-01 -0.25980805251E+00  0.10925822436E+01  0.11240437199E+01  0.51100000000E-03 0. -1.
    9000002    1    1    2    0    0 -0.23425912523E-01  0.71676435564E+00  0.37380883219E+00  0.12384978635E+01  0.93800000000E+00 0. -1.
         22    1    1    2    0    0  0.70731725987E-01 -0.45695630314E+00  0.25336088915E+01  0.25754584165E+01  0.00000000000E+00 0. -1.
</event>
<event>
 5    1  0.1385346E+002  0.1595539E+01  0.7818608E-02  0.3358219E+00
         11   -1    0    0    0    0  0.00000000000E+00  0.00000000000E+00  0.39999999674E+01  0.40000000000E+01  0.51100000000E-03 0.  1.
    9000002   -1    0    0    0    0 -0.00000000000E+00 -0.00000000000E+00  0.00000000000E+00  0.93800000000E+00  0.93800000000E+00 0. -1.
         11    1    1    2    0    0  0.83811701230E-02 -0.17393380850E-01  0.13463843524E+01  0.13465228774E+01  0.51100000000E-03 0.  1.
    9000002    1    1    2    0    0  0.75338809643E-01  0.24221616862E+00  0.45929305773E-01  0.97277855122E+00  0.93800000000E+00 0. -1.
         22    1    1    2    0    0 -0.83719979766E-01 -0.22482278777E+00  0.26076863092E+01  0.26186985714E+01  0.00000000000E+00 0. -1.
</event>
<event>
 5    1  0.7095115E+001  0.1479743E+01  0.7818608E-02  0.3495207E+00
         11   -1    0    0    0    0  0.00000000000E+00  0.00000000000E+00  0.39999999674E+01  0.40000000000E+01  0.51100000000E-03 0. -1.
    9000002   -1    0    0    0    0 -0.00000000000E+00 -0.00000000000E+00  0.00000000000E+00  0.93800000000E+00  0.93800000000E+00 0.  1.
         11    1    1    2    0    0 -0.17189140733E+00 -0.59094612450E-01  0.71973485148E+00  0.74233236943E+00  0.51100000000E-03 0. -1.
    9000002    1    1    2    0    0 -0.52197637490E+00 -0.61733209061E+00  0.66267814134E+00  0.14044730560E+01  0.93800000000E+00 0.  1.
         22    1    1    2    0    0  0.69386778223E+00  0.67642670306E+00  0.26175869745E+01  0.27911945746E+01  0.00000000000E+00 0. -1.
</event>
<event>
 5    1  0.7095115E+001  0.1599544E+01  0.7818608E-02  0.3353858E+00
         11   -1    0    0    0    0  0.00000000000E+00  0.00000000000E+00  0.39999999674E+01  0.40000000000E+01  0.51100000000E-03 0. -1.
    9000002   -1    0    0    0    0 -0.00000000000E+00 -0.00000000000E+00  0.00000000000E+00  0.93800000000E+00  0.93800000000E+00 0. -1.
         11    1    1    2    0    0 -0.17113199559E+00  0.56076710113E-01  0.13027212577E+01  0.13151097649E+01  0.51100000000E-03 0. -1.
    9000002    1    1    2    0    0  0.51932916825E+00 -0.19481986851E+00  0.21281483255E+00  0.11103115415E+01  0.93800000000E+00 0. -1.
         22    1    1    2    0    0 -0.34819717266E+00  0.13874315840E+00  0.24844638772E+01  0.25125786937E+01  0.00000000000E+00 0. -1.
</event>
<event>
 5    1  0.7095115E+001  0.1488450E+01  0.7818608E-02  0.3484111E+00
         11   -1    0    0    0    0  0.00000000000E+00  0.00000000000E+00  0.39999999674E+01  0.40000000000E+01  0.51100000000E-03 0. -1.
    9000002   -1    0    0    0    0 -0.00000000000E+00 -0.00000000000E+00  0.00000000000E+00  0.93800000000E+00  0.93800000000E+00 0. -1.
         11    1    1    2    0    0 -0.45783862816E+00 -0.11699138301E+00  0.14060484356E+01  0.14833326186E+01  0.51100000000E-03 0. -1.
    9000002    1    1    2    0    0  0.22525709599E+00  0.53924196999E-01  0.12528069794E+00  0.97426271179E+00  0.93800000000E+00 0. -1.
         22    1    1    2    0    0  0.23258153217E+00  0.63067186014E-01  0.24686708338E+01  0.24804046696E+01  0.00000000000E+00 0. -1.
</event>
<event>
 5    1  0.7095115E+001  0.1511365E+01  0.7818608E-02  0.3455565E+00
         11   -1    0    0    0    0  0.00000000000E+00  0.00000000000E+00  0.39999999674E+01  0.40000000000E+01  0.51100000000E-03 0. -1.
    9000002   -1    0    0    0    0 -0.00000000000E+00 -0.00000000000E+00  0.00000000000E+00  0.93800000000E+00  0.93800000000E+00 0. -1.
         11    1    1    2    0    0  0.40363212868E+00 -0.45305766225E-01  0.12976932918E+01  0.13597719104E+01  0.51100000000E-03 0. -1.
    9000002    1    1    2    0    0 -0.22667571778E+00 -0.12637359636E+00  0.11592296635E+00  0.98011953404E+00  0.93800000000E+00 0. -1.
         22    1    1    2    0    0 -0.17695641090E+00  0.17167936258E+00  0.25863837092E+01  0.25981085555E+01  0.00000000000E+00 0.  1.
</event>
<event>
 5    1  0.7095115E+001  0.1596927E+01  0.7818608E-02  0.3356705E+00
         11   -1    0    0    0    0  0.00000000000E+00  0.00000000000E+00  0.39999999674E+01  0.40000000000E+01  0.51100000000E-03 0.  1.
    9000002   -1    0    0    0    0 -0.00000000000E+00 -0.00000000000E+00  0.00000000000E+00  0.93800000000E+00  0.93800000000E+00 0.  1.
         11    1    1    2    0    0  0.25657335334E-01  0.85549292507E-02  0.36375199094E+00  0.36475643614E+00  0.51100000000E-03 0.  1.
    9000002    1    1    2    0    0 -0.20933854474E+00  0.29643269657E+00  0.90666149660E-01  0.10098313327E+01  0.93800000000E+00 0.  1.
         22    1    1    2    0    0  0.18368120940E+00 -0.30498762582E+00  0.35455818268E+01  0.35634122311E+01  0.00000000000E+00 0.  1.
</event>
<event>
 5    1  0.7095115E+001  0.1599531E+01  0.7818608E-02  0.3353873E+00
         11   -1    0    0    0    0  0.00000000000E+00  0.00000000000E+00  0.39999999674E+01  0.40000000000E+01  0.51100000000E-03 0.  1.
    9000002   -1    0    0    0    0 -0.00000000000E+00 -0.00000000000E+00  0.00000000000E+00  0.93800000000E+00  0.93800000000E+00 0. -1.
         11    1    1    2    0    0  0.84190943799E-01  0.16358709348E-01  0.46341387692E+00  0.47128378375E+00  0.51100000000E-03 0.  1.
    9000002    1    1    2    0    0 -0.63646689037E+00 -0.63575603131E-01  0.28814662229E+00  0.11713259306E+01  0.93800000000E+00 0. -1.
         22    1    1    2    0    0  0.55227594657E+00  0.47216893783E-01  0.32484394682E+01  0.32953902856E+01  0.00000000000E+00 0.  1.
</event>
<event>
 5    1  0.7095115E+001  0.1447968E+01  0.7818608E-02  0.3536932E+00
         11   -1    0    0    0    0  0.00000000000E+00  0.00000000000E+00  0.39999999674E+01  0.40000000000E+01  0.51100000000E-03 0.  1.
    9000002   -1    0    0    0    0 -0.00000000000E+00 -0.00000000000E+00  0.00000000000E+00  0.93800000000E+00  0.93800000000E+00 0. -1.
         11    1    1    2    0    0 -0.11729418780E+00 -0.19282697769E+00  0.18669860694E+00  0.29291090927E+00  0.51100000000E-03 0.  1.
    9000002    1    1    2    0    0 -0.36702735187E+00  0.20834441563E+00  0.26272011182E+00  0.10615942397E+01  0.93800000000E+00 0. -1.
         22    1    1    2    0    0  0.48432153967E+00 -0.15517437941E-01  0.35505812486E+01  0.35834948511E+01  0.00000000000E+00 0.  1.
</event>
<event>
 5    1  0.7095115E+001  0.1545404E+01  0.7818608E-02  0.3414839E+00
         11   -1    0    0    0    0  0.00000000000E+00  0.00000000000E+00  0.39999999674E+01  0.40000000000E+01  0.51100000000E-03 0. -1.
    9000002   -1    0    0    0    0 -0.00000000000E+00 -0.00000000000E+00  0.00000000000E+00  0.93800000000E+00  0.93800000000E+00 0. -1.
         11    1    1    2    0    0 -0.96295398819E-02 -0.41987052172E-01  0.56998761829E-02  0.43455612962E-01  0.51100000000E-03 0. -1.
    9000002    1    1    2    0    0  0.30027433443E+00 -0.30122376038E+00  0.16996429621E+00  0.10438545357E+01  0.93800000000E+00 0. -1.
         22    1    1    2    0    0 -0.29064479455E+00  0.34321081255E+00  0.38243357950E+01  0.38506898513E+01  0.00000000000E+00 0. -1.
</event>
<event>
 5    1  0.7095115E+001  0.1599675E+01  0.7818608E-02  0.3353716E+00
         11   -1    0    0    0    0  0.00000000000E+00  0.00000000000E+00  0.39999999674E+01  0.40000000000E+01  0.51100000000E-03 0.  1.
    9000002   -1    0    0    0    0 -0.00000000000E+00 -0.00000000000E+00  0.00000000000E+00  0.93800000000E+00  0.93800000000E+00 0.  1.
         11    1    1    2    0    0  0.19820391444E-01  0.12802809536E-01  0.25391087290E+00  0.25500539671E+00  0.51100000000E-03 0.  1.
    9000002    1    1    2    0    0 -0.30421769932E+00 -0.18756038257E+00  0.85714541899E-01  0.10074315304E+01  0.93800000000E+00 0.  1.
         22    1    1    2    0    0  0.28439730787E+00  0.17475757303E+00  0.36603745526E+01  0.36755630729E+01  0.00000000000E+00 0.  1.
</event>
<event>
 5    1  0.7095115E+001  0.1599668E+01  0.7818608E-02  0.3353724E+00
         11   -1    0    0    0    0  0.00000000000E+00  0.00000000000E+00  0.39999999674E+01  0.40000000000E+01  0.51100000000E-03 0. -1.
    9000002   -1    0    0    0    0 -0.00000000000E+00 -0.00000000000E+00  0.00000000000E+00  0.93800000000E+00  0.93800000000E+00 0. -1.
         11    1    1    2    0    0 -0.17368156777E-01 -0.51246085164E-01  0.57687827770E+00  0.57941058198E+00  0.51100000000E-03 0. -1.
    9000002    1    1    2    0    0  0.10148390280E+00  0.35226805840E+00  0.90287696749E-01  0.10111318587E+01  0.93800000000E+00 0. -1.
         22    1    1    2    0    0 -0.84115746023E-01 -0.30102197323E+00  0.33328339929E+01  0.33474575593E+01  0.00000000000E+00 0. -1.
</event>
<event>
 5    1  0.7095115E+001  0.1501233E+01  0.7818608E-02  0.3468070E+00
         11   -1    0    0    0    0  0.00000000000E+00  0.00000000000E+00  0.39999999674E+01  0.40000000000E+01  0.51100000000E-03 0. -1.
    9000002   -1    0    0    0    0 -0.00000000000E+00 -0.00000000000E+00  0.00000000000E+00  0.93800000000E+00  0.93800000000E+00 0. -1.
         11    1    1    2    0    0  0.69932829588E-02 -0.25616071989E+00  0.98017464491E+00  0.10131188558E+01  0.51100000000E-03 0. -1.
    9000002    1    1    2    0    0 -0.84186022859E-01 -0.28498264956E+00  0.14025755134E+00  0.99389062663E+00  0.93800000000E+00 0. -1.
         22    1    1    2    0    0  0.77192739900E-01  0.54114336946E+00  0.28795677711E+01  0.29309905175E+01  0.00000000000E+00 0. -1.
</event>
<event>
 5    1  0.7694786E+001  0.1558532E+01  0.7818608E-02  0.3399639E+00
         11   -1    0    0    0    0  0.00000000000E+00  0.00000000000E+00  0.39999999674E+01  0.40000000000E+01  0.51100000000E-03 0.  1.
    9000002   -1    0    0    0    0 -0.00000000000E+00 -0.00000000000E+00  0.00000000000E+00  0.93800000000E+00  0.93800000000E+00 0.  1.
         11    1    1    2    0    0  0.70152651339E-01  0.22271434262E+00  0.14120476425E+01  0.14312239094E+01  0.51100000000E-03 0.  1.
    9000002    1    1    2    0    0  0.91931909918E-01 -0.35526084175E-01  0.37056876485E-01  0.94389130244E+00  0.93800000000E+00 0.  1.
         22    1    1    2    0    0 -0.16208456126E+00 -0.18718825844E+00  0.25508954484E+01  0.25628847882E+01  0.00000000000E+00 0.  1.
</event>
<event>
 5    1  0.7095115E+001  0.1599660E+01  0.7818608E-02  0.3353733E+00
         11   -1    0    0    0    0  0.00000000000E+00  0.00000000000E+00  0.39999999674E+01  0.40000000000E+01  0.51100000000E-03 0. -1.
    9000002   -1    0    0    0    0 -0.00000000000E+00 -0.00000000000E+00  0.00000000000E+00  0.93800000000E+00  0.93800000000E+00 0.  1.
         11    1    1    2    0    0 -0.65518757834E-01  0.72011364681E-01  0.93569025646E+00  0.94074165499E+00  0.51100000000E-03 0. -1.
    9000002    1    1    2    0    0  0.27836813986E+00 -0.31509681462E+00  0.11957534880E+00  0.10348512395E+01  0.93800000000E+00 0.  1.
         22    1    1    2    0    0 -0.21284938202E+00  0.24308544994E+00  0.29447343621E+01  0.29624071055E+01  0.00000000000E+00 0. -1.
</event>
<event>
 5    1  0.1915464E+002  0.1563325E+01  0.7818608E-02  0.3394157E+00
         11   -1    0    0    0    0  0.00000000000E+00  0.00000000000E+00  0.39999999674E+01  0.40000000000E+01  0.51100000000E-03 0. -1.
    9000002   -1    0    0    0    0 -0.00000000000E+00 -0.00000000000E+00  0.00000000000E+00  0.93800000000E+00  0.93800000000E+00 0. -1.
         11    1    1    2    0    0  0.20124284013E+00 -0.13439825733E-01  0.14702115768E+01  0.14839816883E+01  0.51100000000E-03 0. -1.
    9000002    1    1    2    0    0  0.50315668120E-01 -0.37956066201E-01  0.29496283611E-01  0.94057767365E+00  0.93800000000E+00 0. -1.
         22    1    1    2    0    0 -0.25155850825E+00  0.51395891934E-01  0.25002921070E+01  0.25134406380E+01  0.00000000000E+00 0.  1.
</event>
<event>
 5    1  0.7713500E+001  0.1579278E+01  0.7818608E-02  0.3376166E+00
         11   -1    0    0    0    0  0.00000000000E+00  0.00000000000E+00  0.39999999674E+01  0.40000000000E+01  0.51100000000E-03 0.  1.
    9000002   -1    0    0    0    0 -0.00000000000E+00 -0.00000000000E+00  0.00000000000E+00  0.93800000000E+00  0.93800000000E+00 0.  1.
         11    1    1    2    0    0 -0.65906219495E-01 -0.86743174860E-01  0.98863478021E+00  0.99461902149E+00  0.51100000000E-03 0.  1.
    9000002    1    1    2    0    0 -0.13248886694E+00 -0.97293964567E-01  0.33122779313E-01  0.95286963112E+00  0.93800000000E+00 0.  1.
         22    1    1    2    0    0  0.19839508643E+00  0.18403713943E+00  0.29782424078E+01  0.29905113474E+01  0.00000000000E+00 0.  1.
</event>
<event>
 5    1  0.7095115E+001  0.1579934E+01  0.7818608E-02  0.3375435E+00
         11   -1    0    0    0    0  0.00000000000E+00  0.00000000000E+00  0.39999999674E+01  0.40000000000E+01  0.51100000000E-03 0. -1.
    9000002   -1    0    0    0    0 -0.00000000000E+00 -0.00000000000E+00  0.00000000000E+00  0.93800000000E+00  0.93800000000E+00 0.  1.
         11    1    1    2    0    0  0.39514602363E-01  0.65673821236E-01  0.19675212662E+00  0.21115424468E+00  0.51100000000E-03 0. -1.
    9000002    1    1    2    0    0  0.28082726613E+00 -0.25757360158E+00  0.11411229221E+00  0.10188590329E+01  0.93800000000E+00 0.  1.
         22    1    1    2    0    0 -0.32034186849E+00  0.19189978034E+00  0.36891355485E+01  0.37079867225E+01  0.00000000000E+00 0. -1.
</event>
<event>
 5    1  0.7095115E+001  0.1599645E+01  0.7818608E-02  0.3353749E+00
         11   -1    0    0    0    0  0.00000000000E+00  0.00000000000E+00  0.39999999674E+01  0.40000000000E+01  0.51100000000E-03 0.  1.
    9000002   -1    0    0    0    0 -0.00000000000E+00 -0.00000000000E+00  0.00000000000E+00  0.93800000000E+00  0.93800000000E+00 0.  1.
         11    1    1    2    0    0 -0.21886949582E-01 -0.74196321186E-01  0.76964260298E+00  0.77352060741E+00  0.51100000000E-03 0.  1.
    9000002    1    1    2    0    0  0.99833928222E-01  0.35188992089E+00  0.89895915333E-01  0.10108009721E+01  0.93800000000E+00 0.  1.
         22    1    1    2    0    0 -0.77946978640E-01 -0.27769359971E+00  0.31404614490E+01  0.31536784205E+01  0.00000000000E+00 0.  1.
</event>
<event>
 5    1  0.7095115E+001  0.1599670E+01  0.7818608E-02  0.3353722E+00
         11   -1    0    0    0    0  0.00000000000E+00  0.00000000000E+00  0.39999999674E+01  0.40000000000E+01  0.51100000000E-03 0.  1.
    9000002   -1    0    0    0    0 -0.00000000000E+00 -0.00000000000E+00  0.00000000000E+00  0.93800000000E+00  0.93800000000E+00 0.  1.
         11    1    1    2    0    0 -0.16856264755E+00 -0.35446270392E+00  0.14104637137E+01  0.14640578279E+01  0.51100000000E-03 0.  1.
    9000002    1    1    2    0    0  0.39619200790E+00  0.83293846060E+00  0.65772484454E+00  0.14707822944E+01  0.93800000000E+00 0.  1.
         22    1    1    2    0    0 -0.22762936035E+00 -0.47847575668E+00  0.19318114091E+01  0.20031598778E+01  0.00000000000E+00 0.  1.
</event>
<event>
 5    1  0.7095115E+001  0.1599627E+01  0.7818608E-02  0.3353769E+00
         11   -1    0    0    0    0  0.00000000000E+00  0.00000000000E+00  0.39999999674E+01  0.40000000000E+01  0.51100000000E-03 0. -1.
    9000002   -1    0    0    0    0 -0.00000000000E+00 -0.00000000000E+00  0.00000000000E+00  0.93800000000E+00  0.93800000000E+00 0.  1.
         11    1    1    2    0    0 -0.22435396501E-02  0.16330409599E-01  0.14331996488E+00  0.14426568962E+00  0.51100000000E-03 0. -1.
    9000002    1    1    2    0    0  0.53646953258E-01 -0.35904828772E+00  0.88539595975E-01  0.10096915017E+01  0.93800000000E+00 0.  1.
         22    1    1    2    0    0 -0.51403413608E-01  0.34271787813E+00  0.37681404065E+01  0.37840428087E+01  0.00000000000E+00 0. -1.
</event>
<event>
 5    1  0.7095115E+001  0.1598661E+01  0.7818608E-02  0.3354818E+00
         11   -1    0    0    0    0  0.00000000000E+00  0.00000000000E+00  0.39999999674E+01  0.40000000000E+01  0.51100000000E-03 0. -1.
    9000002   -1    0    0    0    0 -0.00000000000E+00 -0.00000000000E+00  0.00000000000E+00  0.93800000000E+00  0.93800000000E+00 0.  1.
         11    1    1    2    0    0  0.11758163843E+00  0.43003105181E-01  0.11022712676E+01  0.11093587865E+01  0.51100000000E-03 0. -1.
    9000002    1    1    2    0    0 -0.47130221471E+00 -0.24984522872E+00  0.19687711411E+00  0.10968833183E+01  0.93800000000E+00 0.  1.
         22    1    1    2    0    0  0.35372057628E+00  0.20684212354E+00  0.27008515856E+01  0.27317578952E+01  0.00000000000E+00 0. -1.
</event>
<event>
 5    1  0.7095115E+001  0.1599672E+01  0.7818608E-02  0.3353720E+00
         11   -1    0    0    0    0  0.00000000000E+00  0.00000000000E+00  0.39999999674E+01  0.40000000000E+01  0.51100000000E-03 0.  1.
    9000002   -1    0    0    0    0 -0.00000000000E+00 -0.00000000000E+00  0.00000000000E+00  0.93800000000E+00  0.93800000000E+00 0. -1.
         11    1    1    2    0    0 -0.32984525576E-02  0.10318442856E+00  0.82201264353E+00  0.82847024891E+00  0.51100000000E-03 0.  1.
    9000002    1    1    2    0    0  0.71258014633E-02 -0.47639892459E+00  0.15480818049E+00  0.10633984602E+01  0.93800000000E+00 0. -1.
         22    1    1    2    0    0 -0.38273489057E-02  0.37321449604E+00  0.30231791433E+01  0.30461312909E+01  0.00000000000E+00 0.  1.
</event>
<event>
 5    1  0.7095115E+001  0.1598242E+01  0.7818608E-02  0.3355273E+00
         11   -1    0    0    0    0  0.00000000000E+00  0.00000000000E+00  0.39999999674E+01  0.40000000000E+01  0.51100000000E-03 0. -1.
    9000002   -1    0    0    0    0 -0.00000000000E+00 -0.00000000000E+00  0.00000000000E+00  0.93800000000E+00  0.93800000000E+00 0. -1.
         11    1    1    2    0    0 -0.16916849682E+00 -0.83027413844E-01  0.11243206559E+01  0.11400038290E+01  0.51100000000E-03 0. -1.
    9000002    1    1    2    0    0  0.43501496180E+00  0.31658626050E+00  0.20082549703E+00  0.10998362413E+01  0.93800000000E+00 0. -1.
         22    1    1    2    0    0 -0.26584646499E+00 -0.23355884666E+00  0.26748538145E+01  0.26981599297E+01  0.00000000000E+00 0. -1.
</event>
<event>
 5    1  0.7095115E+001  0.1599671E+01  0.7818608E-02  0.3353720E+00
         11   -1    0    0    0    0  0.00000000000E+00  0.00000000000E+00  0.39999999674E+01  0.40000000000E+01  0.51100000000E-03 0.  1.
    9000002   -1    0    0    0    0 -0.00000000000E+00 -0.00000000000E+00  0.00000000000E+00  0.93800000000E+00  0.93800000000E+00 0.  1.
         11    1    1    2    0    0 -0.42109222759E+00  0.81275135435E-01  0.13616531366E+01  0.14275937228E+01  0.51100000000E-03 0.  1.
    9000002    1    1    2    0    0  0.98190815872E+00 -0.18787540816E+00  0.80391138385E+00  0.15892005268E+01  0.93800000000E+00 0.  1.
         22    1    1    2    0    0 -0.56081593113E+00  0.10660027272E+00  0.18344354469E+01  0.19212057505E+01  0.00000000000E+00 0.  1.
</event>
<event>
 5    1  0.7095115E+001  0.1599365E+01  0.7818608E-02  0.3354053E+00
         11   -1    0    0    0    0  0.00000000000E+00  0.00000000000E+00  0.39999999674E+01  0.40000000000E+01  0.51100000000E-03 0.  1.
    9000002   -1    0    0    0    0 -0.00000000000E+00 -0.00000000000E+00  0.00000000000E+00  0.93800000000E+00  0.93800000000E+00 0.  1.
         11    1    1    2    0    0  0.10332550393E+00 -0.10233638423E+00  0.77692076204E+00  0.79041446527E+00  0.51100000000E-03 0.  1.
    9000002    1    1    2    0    0 -0.41949611994E+00  0.45691549885E+00  0.26995025465E+00  0.11564886112E+01  0.93800000000E+00 0.  1.
         22    1    1    2    0    0  0.31617061601E+00 -0.35457911462E+00  0.29531289507E+01  0.29910969236E+01  0.00000000000E+00 0. -1.
</event>
<event>
 5    1  0.7095115E+001  0.1599645E+01  0.7818608E-02  0.3353749E+00
         11   -1    0    0    0    0  0.00000000000E+00  0.00000000000E+00  0.39999999674E+01  0.40000000000E+01  0.51100000000E-03 0.  1.
    9000002   -1    0    0    0    0 -0.00000000000E+00 -0.00000000000E+00  0.00000000000E+00  0.93800000000E+00  0.93800000000E+00 0.  1.
         11    1    1    2    0    0  0.11168305919E+00 -0.39011557098E-01  0.13364583244E+01  0.13416840617E+01  0.51100000000E-03 0.  1.
    9000002    1    1    2    0    0 -0.34087003175E+00  0.10103921929E+00  0.84831743593E-01  0.10066984291E+01  0.93800000000E+00 0.  1.
         22    1    1    2    0    0  0.22918697256E+00 -0.62027662194E-01  0.25787098993E+01  0.25896175092E+01  0.00000000000E+00 0.  1.
</event>
<event>
 5    1  0.7095115E+001  0.1541006E+01  0.7818608E-02  0.3419993E+00
         11   -1    0    0    0    0  0.00000000000E+00  0.00000000000E+00  0.39999999674E+01  0.40000000000E+01  0.51100000000E-03 0.  1.
    9000002   -1    0    0    0    0 -0.00000000000E+00 -0.00000000000E+00  0.00000000000E+00  0.93800000000E+00  0.93800000000E+00 0. -1.
         11    1    1    2    0    0  0.14461334425E+00  0.15673325891E+00  0.11893124252E+01  0.12082808613E+01  0.51100000000E-03 0.  1.
    9000002    1    1    2    0    0  0.22596969161E+00  0.18753590282E-01  0.79899643549E-01  0.96831913733E+00  0.93800000000E+00 0. -1.
         22    1    1    2    0    0 -0.37058303587E+00 -0.17548684919E+00  0.27307878986E+01  0.27614000014E+01  0.00000000000E+00 0.  1.
</event>
<event>
 5    1  0.7095115E+001  0.1599620E+01  0.7818608E-02  0.3353776E+00
         11   -1    0    0    0    0  0.00000000000E+00  0.00000000000E+00  0.39999999674E+01  0.40000000000E+01  0.51100000000E-03 0.  1.
    9000002   -1    0    0    0    0 -0.00000000000E+00 -0.00000000000E+00  0.00000000000E+00  0.93800000000E+00  0.93800000000E+00 0. -1.
         11    1    1    2    0    0  0.78182509971E-01  0.13028716848E+00  0.12668452225E+01  0.12759248920E+01  0.51100000000E-03 0.  1.
    9000002    1    1    2    0    0 -0.22199615846E+00 -0.37793545056E+00  0.13031055762E+00  0.10435240010E+01  0.93800000000E+00 0. -1.
         22    1    1    2    0    0  0.14381364849E+00  0.24764828208E+00  0.26028441872E+01  0.26185511070E+01  0.00000000000E+00 0.  1.
</event>
<event>
 5    1  0.7095115E+001  0.1583739E+01  0.7818608E-02  0.3371204E+00
         11   -1    0    0    0    0  0.00000000000E+00  0.00000000000E+00  0.39999999674E+01  0.40000000000E+01  0.51100000000E-03 0. -1.
    9000002   -1    0    0    0    0 -0.00000000000E+00 -0.00000000000E+00  0.00000000000E+00  0.93800000000E+00  0.93800000000E+00 0.  1.
         11    1    1    2    0    0  0.18858330558E+00  0.55903107363E-01  0.13374794256E+01  0.13518654872E+01  0.51100000000E-03 0. -1.
    9000002    1    1    2    0    0 -0.29568636849E+00  0.17192672642E+00  0.91258151220E-01  0.10025773177E+01  0.93800000000E+00 0.  1.
         22    1    1    2    0    0  0.10710306291E+00 -0.22782983378E+00  0.25712623906E+01  0.25835571951E+01  0.00000000000E+00 0. -1.
</event>
<event>
 5    1  0.7095115E+001  0.1599551E+01  0.7818608E-02  0.3353851E+00
         11   -1    0    0    0    0  0.00000000000E+00  0.00000000000E+00  0.39999999674E+01  0.40000000000E+01  0.51100000000E-03 0.  1.
    9000002   -1    0    0    0    0 -0.00000000000E+00 -0.00000000000E+00  0.00000000000E+00  0.93800000000E+00  0.93800000000E+00 0. -1.
         11    1    1    2    0    0  0.23892936593E-01  0.17905973145E-01  0.23190730068E+00  0.23382205526E+00  0.51100000000E-03 0.  1.
    9000002    1    1    2    0    0 -0.31138864236E+00 -0.24102746012E+00  0.10461107826E+00  0.10226654393E+01  0.93800000000E+00 0. -1.
         22    1    1    2    0    0  0.28749570576E+00  0.22312148697E+00  0.36634815884E+01  0.36815125054E+01  0.00000000000E+00 0.  1.
</event>
<event>
 5    1  0.7095115E+001  0.1597412E+01  0.7818608E-02  0.3356177E+00
         11   -1    0    0    0    0  0.00000000000E+00  0.00000000000E+00  0.39999999674E+01  0.40000000000E+01  0.51100000000E-03 0.  1.
    9000002   -1    0    0    0    0 -0.00000000000E+00 -0.00000000000E+00  0.00000000000E+00  0.93800000000E+00  0.93800000000E+00 0.  1.
         11    1    1    2    0    0 -0.11354100595E+00 -0.15757582101E+00  0.12626212861E+01  0.12774719068E+01  0.51100000000E-03 0.  1.
    9000002    1    1    2    0    0  0.22786160855E+00  0.36892131007E+00  0.12933517019E+00  0.10414391158E+01  0.93800000000E+00 0.  1.
         22    1    1    2    0    0 -0.11432060261E+00 -0.21134548906E+00  0.26080435111E+01  0.26190889774E+01  0.00000000000E+00 0. -1.
</event>
<event>
 5    1  0.7095115E+001  0.1599606E+01  0.7818608E-02  0.3353791E+00
         11   -1    0    0    0    0  0.00000000000E+00  0.00000000000E+00  0.39999999674E+01  0.40000000000E+01  0.51100000000E-03 0. -1.
    9000002   -1    0    0    0    0 -0.00000000000E+00 -0.00000000000E+00  0.00000000000E+00  0.93800000000E+00  0.93800000000E+00 0. -1.
         11    1    1    2    0    0  0.68680358840E-02 -0.21311762041E-01  0.20209498933E+00  0.20333225752E+00  0.51100000000E-03 0. -1.
    9000002    1    1    2    0    0 -0.20244589451E+00  0.36058349248E+00  0.11560980214E+00  0.10316076878E+01  0.93800000000E+00 0. -1.
         22    1    1    2    0    0  0.19557785863E+00 -0.33927173044E+00  0.36822951759E+01  0.37030600546E+01  0.00000000000E+00 0. -1.
</event>
<event>
 5    1  0.7095115E+001  0.1597841E+01  0.7818608E-02  0.3355710E+00
         11   -1    0    0    0    0  0.00000000000E+00  0.00000000000E+00  0.39999999674E+01  0.40000000000E+01  0.51100000000E-03 0.  1.
    9000002   -1    0    0    0    0 -0.00000000000E+00 -0.00000000000E+00  0.00000000000E+00  0.93800000000E+00  0.93800000000E+00 0.  1.
         11    1    1    2    0    0  0.21423719929E-01 -0.13137254676E-01  0.20922428930E+00  0.21072880104E+00  0.51100000000E-03 0.  1.
    9000002    1    1    2    0    0  0.11292472656E-01  0.38236172169E+00  0.99996315983E-01  0.10179249822E+01  0.93800000000E+00 0.  1.
         22    1    1    2    0    0 -0.32716192585E-01 -0.36922446702E+00  0.36907793621E+01  0.37093462168E+01  0.00000000000E+00 0.  1.
</event>
<event>
 5    1  0.7095115E+001  0.1599677E+01  0.7818608E-02  0.3353714E+00
         11   -1    0    0    0    0  0.00000000000E+00  0.00000000000E+00  0.39999999674E+01  0.40000000000E+01  0.51100000000E-03 0. -1.
    9000002   -1    0    0    0    0 -0.00000000000E+00 -0.00000000000E+00  0.00000000000E+00  0.93800000000E+00  0.93800000000E+00 0.  1.
         11    1    1    2    0    0 -0.10611872326E+00  0.12053894001E+00  0.14641678265E+01  0.14729489145E+01  0.51100000000E-03 0.  1.
    9000002    1    1    2    0    0  0.27994902948E+00 -0.31809742824E+00  0.12149780792E+00  0.10364184243E+01  0.93800000000E+00 0.  1.
         22    1    1    2    0    0 -0.17383030622E+00  0.19755848824E+00  0.24143343329E+01  0.24286326611E+01  0.00000000000E+00 0. -1.
</event>
<event>
 5    1  0.7095115E+001  0.1496331E+01  0.7818608E-02  0.3474187E+00
         11   -1    0    0    0    0  0.00000000000E+00  0.00000000000E+00  0.39999999674E+01  0.40000000000E+01  0.51100000000E-03 0.  1.
    9000002   -1    0    0    0    0 -0.00000000000E+00 -0.00000000000E+00  0.00000000000E+00  0.93800000000E+00  0.93800000000E+00 0. -1.
         11    1    1    2    0    0  0.11805298654E+00 -0.10924892913E+00  0.11109336951E+00  0.19548359015E+00  0.51100000000E-03 0.  1.
    9000002    1    1    2    0    0 -0.58212662511E+00 -0.37087699592E+00  0.46481296249E+00  0.12539203499E+01  0.93800000000E+00 0. -1.
         22    1    1    2    0    0  0.46407363856E+00  0.48012592505E+00  0.34240936354E+01  0.34885960600E+01  0.00000000000E+00 0.  1.
</event>
<event>
 5    1  0.7095115E+001  0.1570361E+01  0.7818608E-02  0.3386175E+00
         11   -1    0    0    0    0  0.00000000000E+00  0.00000000000E+00  0.39999999674E+01  0.40000000000E+01  0.51100000000E-03 0. -1.
    9000002   -1    0    0    0    0 -0.00000000000E+00 -0.00000000000E+00  0.00000000000E+00  0.93800000000E+00  0.93800000000E+00 0.  1.
         11    1    1    2    0    0 -0.39460359363E-01  0.56055076371E-01  0.17148150480E+00  0.18467663404E+00  0.51100000000E-03 0. -1.
    9000002    1    1    2    0    0 -0.45807897272E+00  0.12346747719E+00  0.17974502131E+00  0.10664111945E+01  0.93800000000E+00 0.  1.
         22    1    1    2    0    0  0.49753933208E+00 -0.17952255356E+00  0.36487734412E+01  0.36869121714E+01  0.00000000000E+00 0. -1.
</event>
<event>
 5    1  0.7095115E+001  0.1599651E+01  0.7818608E-02  0.3353742E+00
         11   -1    0    0    0    0  0.00000000000E+00  0.00000000000E+00  0.39999999674E+01  0.40000000000E+01  0.51100000000E-03 0.  1.
    9000002   -1    0    0    0    0 -0.00000000000E+00 -0.00000000000E+00  0.00000000000E+00  0.93800000000E+00  0.93800000000E+00 0.  1.
         11    1    1    2    0    0 -0.73849578819E-02  0.67002609799E-01  0.41495208429E+00  0.42039193701E+00  0.51100000000E-03 0.  1.
    9000002    1    1    2    0    0  0.32221561909E-01 -0.60202097513E+00  0.25377350610E+00  0.11435525681E+01  0.93800000000E+00 0.  1.
         22    1    1    2    0    0 -0.24836604028E-01  0.53501836534E+00  0.33312743770E+01  0.33740554949E+01  0.00000000000E+00 0.  1.
</event>
<event>
 5    1  0.7095115E+001  0.1552344E+01  0.7818608E-02  0.3406769E+00
         11   -1    0    0    0    0  0.00000000000E+00  0.00000000000E+00  0.39999999674E+01  0.40000000000E+01  0.51100000000E-03 0.  1.
    9000002   -1    0    0    0    0 -0.00000000000E+00 -0.00000000000E+00  0.00000000000E+00  0.93800000000E+00  0.93800000000E+00 0.  1.
         11    1    1    2    0    0 -0.30131483562E-01  0.20488260869E+00  0.11220967129E+01  0.11410460481E+01  0.51100000000E-03 0.  1.
    9000002    1    1    2    0    0  0.25675275358E+00  0.97468056403E-01  0.87724020172E-01  0.98130601863E+00  0.93800000000E+00 0.  1.
         22    1    1    2    0    0 -0.22662127002E+00 -0.30235066509E+00  0.27901792343E+01  0.28156479332E+01  0.00000000000E+00 0.  1.
</event>
<event>
 5    1  0.7095115E+001  0.1591403E+01  0.7818608E-02  0.3362747E+00
         11   -1    0    0    0    0  0.00000000000E+00  0.00000000000E+00  0.39999999674E+01  0.40000000000E+01  0.51100000000E-03 0.  1.
    9000002   -1    0    0    0    0 -0.00000000000E+00 -0.00000000000E+00  0.00000000000E+00  0.93800000000E+00  0.93800000000E+00 0. -1.
         11    1    1    2    0    0 -0.79399255431E-01 -0.92349468418E-01  0.70264321024E+00  0.71312019190E+00  0.51100000000E-03 0.  1.
    9000002    1    1    2    0    0 -0.20723249007E-01  0.42520419766E+00  0.12970813839E+00  0.10382178307E+01  0.93800000000E+00 0. -1.
         22    1    1    2    0    0  0.10012250444E+00 -0.33285472924E+00  0.31676486187E+01  0.31866619774E+01  0.00000000000E+00 0.  1.
</event>
<event>
 5    1  0.7095115E+001  0.1599659E+01  0.7818608E-02  0.3353734E+00
         11   -1    0    0    0    0  0.00000000000E+00  0.00000000000E+00  0.39999999674E+01  0.40000000000E+01  0.51100000000E-03 0. -1.
    9000002   -1    0    0    0    0 -0.00000000000E+00 -0.00000000000E+00  0.00000000000E+00  0.93800000000E+00  0.93800000000E+00 0.  1.
         11    1    1    2    0    0 -0.62188449161E-02  0.72459542094E-01  0.67534395340E+00  0.67924868479E+00  0.51100000000E-03 0. -1.
    9000002    1    1    2    0    0  0.47699751889E-01 -0.43421765808E+00  0.12937068644E+00  0.10427852202E+01  0.93800000000E+00 0.  1.
         22    1    1    2    0    0 -0.41480906973E-01  0.36175811598E+00  0.31952853275E+01  0.32159660950E+01  0.00000000000E+00 0. -1.
</event>
<event>
 5    1  0.7095115E+001  0.1593230E+01  0.7818608E-02  0.3360744E+00
         11   -1    0    0    0    0  0.00000000000E+00  0.00000000000E+00  0.39999999674E+01  0.40000000000E+01  0.51100000000E-03 0. -1.
    9000002   -1    0    0    0    0 -0.00000000000E+00 -0.00000000000E+00  0.00000000000E+00  0.93800000000E+00  0.93800000000E+00 0. -1.
         11    1    1    2    0    0 -0.67594051449E-02 -0.27089116854E-01  0.72285156749E+00  0.72339073781E+00  0.51100000000E-03 0. -1.
    9000002    1    1    2    0    0 -0.26964409222E+00 -0.12123972661E+00  0.63338480139E-01  0.98552664644E+00  0.93800000000E+00 0. -1.
         22    1    1    2    0    0  0.27640349736E+00  0.14832884347E+00  0.32138099197E+01  0.32290826157E+01  0.00000000000E+00 0. -1.
</event>
<event>
 5    1  0.7095115E+001  0.1599665E+01  0.7818608E-02  0.3353727E+00
         11   -1    0    0    0    0  0.00000000000E+00  0.00000000000E+00  0.39999999674E+01  0.40000000000E+01  0.51100000000E-03 0.  1.
    9000002   -1    0    0    0    0 -0.00000000000E+00 -0.00000000000E+00  0.00000000000E+00  0.93800000000E+00  0.93800000000E+00 0. -1.
         11    1    1    2    0    0  0.93370878649E-01  0.60406802406E-01  0.12320805842E+01  0.12370892974E+01  0.51100000000E-03 0.  1.
    9000002    1    1    2    0    0 -0.29847584343E+00 -0.20396248534E+00  0.87751097848E-01  0.10090752101E+01  0.93800000000E+00 0. -1.
         22    1    1    2    0    0  0.20510496478E+00  0.14355568293E+00  0.26801682853E+01  0.26918354924E+01  0.00000000000E+00 0. -1.
</event>
<event>
 5    1  0.7095115E+001  0.1593978E+01  0.7818608E-02  0.3359926E+00
         11   -1    0    0    0    0  0.00000000000E+00  0.00000000000E+00  0.39999999674E+01  0.40000000000E+01  0.51100000000E-03 0.  1.
    9000002   -1    0    0    0    0 -0.00000000000E+00 -0.00000000000E+00  0.00000000000E+00  0.93800000000E+00  0.93800000000E+00 0. -1.
         11    1    1    2    0    0  0.17403703144E+00  0.19642416814E+00  0.10376580673E+01  0.10703297940E+01  0.51100000000E-03 0.  1.
    9000002    1    1    2    0    0 -0.44310570548E+00 -0.46385414800E+00  0.29575185411E+00  0.11742301717E+01  0.93800000000E+00 0. -1.
         22    1    1    2    0    0  0.26906867404E+00  0.26742997986E+00  0.26665900459E+01  0.26934400343E+01  0.00000000000E+00 0.  1.
</event>
<event>
 5    1  0.7095115E+001  0.1599518E+01  0.7818608E-02  0.3353887E+00
         11   -1    0    0    0    0  0.00000000000E+00  0.00000000000E+00  0.39999999674E+01  0.40000000000E+01  0.51100000000E-03 0.  1.
    9000002   -1    0    0    0    0 -0.00000000000E+00 -0.00000000000E+00  0.00000000000E+00  0.93800000000E+00  0.93800000000E+00 0. -1.
         11    1    1    2    0    0  0.14641346540E+00  0.17637443853E-01  0.13235227859E+01  0.13317134857E+01  0.51100000000E-03 0.  1.
    9000002    1    1    2    0    0 -0.38918823295E+00 -0.44145558620E-01  0.10350510183E+00  0.10217502714E+01  0.93800000000E+00 0. -1.
         22    1    1    2    0    0  0.24277476755E+00  0.26508114768E-01  0.25729720797E+01  0.25845362429E+01  0.00000000000E+00 0.  1.
</event>
<event>
 5    1  0.7095115E+001  0.1597480E+01  0.7818608E-02  0.3356103E+00
         11   -1    0    0    0    0  0.00000000000E+00  0.00000000000E+00  0.39999999674E+01  0.40000000000E+01  0.51100000000E-03 0. -1.
    9000002   -1    0    0    0    0 -0.00000000000E+00 -0.00000000000E+00  0.00000000000E+00  0.93800000000E+00  0.93800000000E+00 0.  1.
         11    1    1    2    0    0  0.54297821493E-02  0.52731535957E-01  0.84670082460E+00  0.84835879492E+00  0.51100000000E-03 0. -1.
    9000002    1    1    2    0    0 -0.23967422217E+00 -0.25642359861E+00  0.84385512974E-01  0.10050680124E+01  0.93800000000E+00 0.  1.
         22    1    1    2    0    0  0.23424444002E+00  0.20369206266E+00  0.30689136298E+01  0.30845731927E+01  0.00000000000E+00 0. -1.
</event>
<event>
 5    1  0.7095115E+001  0.1598337E+01  0.7818608E-02  0.3355170E+00
         11   -1    0    0    0    0  0.00000000000E+00  0.00000000000E+00  0.39999999674E+01  0.40000000000E+01  0.51100000000E-03 0.  1.
    9000002   -1    0    0    0    0 -0.00000000000E+00 -0.00000000000E+00  0.00000000000E+00  0.93800000000E+00  0.93800000000E+00 0.  1.
         11    1    1    2    0    0 -0.79433034079E-01  0.10019668024E+00  0.10597978984E+01  0.10674834088E+01  0.51100000000E-03 0.  1.
    9000002    1    1    2    0    0  0.32468971234E+00 -0.22766820917E+00  0.10713856302E+00  0.10240014133E+01  0.93800000000E+00 0.  1.
         22    1    1    2    0    0 -0.24525667827E+00  0.12747152892E+00  0.28330635060E+01  0.28465151778E+01  0.00000000000E+00 0.  1.
</event>
<event>
 5    1  0.7095115E+001  0.1599673E+01  0.7818608E-02  0.3353718E+00
         11   -1    0    0    0    0  0.00000000000E+00  0.00000000000E+00  0.39999999674E+01  0.40000000000E+01  0.51100000000E-03 0.  1.
    9000002   -1    0    0    0    0 -0.00000000000E+00 -0.00000000000E+00  0.00000000000E+00  0.93800000000E+00  0.93800000000E+00 0. -1.
         11    1    1    2    0    0 -0.84312627509E-01  0.89062938105E-02  0.72452386567E+00  0.72946763758E+00  0.51100000000E-03 0.  1.
    9000002    1    1    2    0    0  0.44411161135E+00 -0.39355955763E-01  0.13493232108E+00  0.10472987854E+01  0.93800000000E+00 0. -1.
         22    1    1    2    0    0 -0.35979898384E+00  0.30449661952E-01  0.31405437806E+01  0.31612335770E+01  0.00000000000E+00 0.  1.
</event>
<event>
 5    1  0.7095115E+001  0.1599562E+01  0.7818608E-02  0.3353839E+00
         11   -1    0    0    0    0  0.00000000000E+00  0.00000000000E+00  0.39999999674E+01  0.40000000000E+01  0.51100000000E-03 0. -1.
    9000002   -1    0    0    0    0 -0.00000000000E+00 -0.00000000000E+00  0.00000000000E+00  0.93800000000E+00  0.93800000000E+00 0. -1.
         11    1    1    2    0    0  0.10707769426E+00  0.55735412199E-01  0.12700090335E+01  0.12757332304E+01  0.51100000000E-03 0. -1.
    9000002    1    1    2    0    0 -0.35300662370E+00 -0.19817311748E+00  0.11070952563E+00  0.10276122128E+01  0.93800000000E+00 0. -1.
         22    1    1    2    0    0  0.24592892945E+00  0.14243770528E+00  0.26192814082E+01  0.26346545568E+01  0.00000000000E+00 0. -1.
</event>
<event>
 5    1  0.7095115E+001  0.1575772E+01  0.7818608E-02  0.3380087E+00
         11   -1    0    0    0    0  0.00000000000E+00  0.00000000000E+00  0.39999999674E+01  0.40000000000E+01  0.51100000000E-03 0.  1.
    9000002   -1    0    0    0    0 -0.00000000000E+00 -0.00000000000E+00  0.00000000000E+00  0.93800000000E+00  0.93800000000E+00 0. -1.
         11    1    1    2    0    0  0.10515639680E+00  0.14928522116E-02  0.90755330052E+00  0.91362648320E+00  0.51100000000E-03 0.  1.
    9000002    1    1    2    0    0  0.16520296670E+00 -0.28167985713E+00  0.90554713583E-01  0.99733631152E+00  0.93800000000E+00 0. -1.
         22    1    1    2    0    0 -0.27035936350E+00  0.28018700492E+00  0.30018919533E+01  0.30270372053E+01  0.00000000000E+00 0.  1.
</event>
<event>
 5    1  0.7095115E+001  0.1599494E+01  0.7818608E-02  0.3353912E+00
         11   -1    0    0    0    0  0.00000000000E+00  0.00000000000E+00  0.39999999674E+01  0.40000000000E+01  0.51100000000E-03 0.  1.
    9000002   -1    0    0    0    0 -0.00000000000E+00 -0.00000000000E+00  0.00000000000E+00  0.93800000000E+00  0.93800000000E+00 0. -1.
         11    1    1    2    0    0  0.21018279523E+00 -0.23909797834E-01  0.79507573073E+00  0.82273578052E+00  0.51100000000E-03 0.  1.
    9000002    1    1    2    0    0 -0.85062573238E+00  0.11391358075E+00  0.55442286781E+00  0.13870000565E+01  0.93800000000E+00 0. -1.
         22    1    1    2    0    0  0.64044293715E+00 -0.90003782913E-01  0.26505013688E+01  0.27282641629E+01  0.00000000000E+00 0.  1.
</event>
<event>
 5    1  0.7095115E+001  0.1599650E+01  0.7818608E-02  0.3353743E+00
         11   -1    0    0    0    0  0.00000000000E+00  0.00000000000E+00  0.39999999674E+01  0.40000000000E+01  0.51100000000E-03 0. -1.
    9000002   -1    0    0    0    0 -0.00000000000E+00 -0.00000000000E+00  0.00000000000E+00  0.93800000000E+00  0.93800000000E+00 0. -1.
         11    1    1    2    0    0 -0.30867563805E-01 -0.13485506136E-01  0.33519678869E+00  0.33688546072E+00  0.51100000000E-03 0. -1.
    9000002    1    1    2    0    0  0.37931992332E+00  0.18990243138E+00  0.12179136858E+00  0.10366405718E+01  0.93800000000E+00 0. -1.
         22    1    1    2    0    0 -0.34845235951E+00 -0.17641692525E+00  0.35430118101E+01  0.35644739675E+01  0.00000000000E+00 0. -1.
</event>
<event>
 5    1  0.7095115E+001  0.1573500E+01  0.7818608E-02  0.3382637E+00
         11   -1    0    0    0    0  0.00000000000E+00  0.00000000000E+00  0.39999999674E+01  0.40000000000E+01  0.51100000000E-03 0.  1.
    9000002   -1    0    0    0    0 -0.00000000000E+00 -0.00000000000E+00  0.00000000000E+00  0.93800000000E+00  0.93800000000E+00 0.  1.
         11    1    1    2    0    0  0.24041800901E-01 -0.35508558281E-01  0.50677604904E-01  0.66387850256E-01  0.51100000000E-03 0.  1.
    9000002    1    1    2    0    0  0.43214136490E-01 -0.31458329198E+00  0.88357168674E-01  0.99422386737E+00  0.93800000000E+00 0.  1.
         22    1    1    2    0    0 -0.67255937392E-01  0.35009185026E+00  0.38609651938E+01  0.38773882824E+01  0.00000000000E+00 0.  1.
</event>
<event>
 5    1  0.7095115E+001  0.1599126E+01  0.7818608E-02  0.3354313E+00
         11   -1    0    0    0    0  0.00000000000E+00  0.00000000000E+00  0.39999999674E+01  0.40000000000E+01  0.51100000000E-03 0. -1.
    9000002   -1    0    0    0    0 -0.00000000000E+00 -0.00000000000E+00  0.00000000000E+00  0.93800000000E+00  0.93800000000E+00 0. -1.
         11    1    1    2    0    0  0.64256588988E-02 -0.70013434789E-02  0.47929861176E-01  0.48865536077E-01  0.51100000000E-03 0. -1.
    9000002    1    1    2    0    0 -0.44519252529E+00  0.64498708572E-01  0.13791045978E+00  0.10493901862E+01  0.93800000000E+00 0. -1.
         22    1    1    2    0    0  0.43876686639E+00 -0.57497365093E-01  0.38141596464E+01  0.38397442777E+01  0.00000000000E+00 0. -1.
</event>
<event>
 5    1  0.7095115E+001  0.1566624E+01  0.7818608E-02  0.3390405E+00
         11   -1    0    0    0    0  0.00000000000E+00  0.00000000000E+00  0.39999999674E+01  0.40000000000E+01  0.51100000000E-03 0. -1.
    9000002   -1    0    0    0    0 -0.00000000000E+00 -0.00000000000E+00  0.00000000000E+00  0.93800000000E+00  0.93800000000E+00 0. -1.
         11    1    1    2    0    0 -0.28318192718E-01 -0.77506237480E-01  0.20909230972E+00  0.22478654762E+00  0.51100000000E-03 0. -1.
    9000002    1    1    2    0    0 -0.10466388961E+00 -0.29793922144E+00  0.93192078773E-01  0.99410817973E+00  0.93800000000E+00 0. -1.
         22    1    1    2    0    0  0.13298208232E+00  0.37544545892E+00  0.36977155789E+01  0.37191052726E+01  0.00000000000E+00 0. -1.
</event>
<event>
 5    1  0.7095115E+001  0.1599559E+01  0.7818608E-02  0.3353842E+00
         11   -1    0    0    0    0  0.00000000000E+00  0.00000000000E+00  0.39999999674E+01  0.40000000000E+01  0.51100000000E-03 0.  1.
    9000002   -1    0    0    0    0 -0.00000000000E+00 -0.00000000000E+00  0.00000000000E+00  0.93800000000E+00  0.93800000000E+00 0.  1.
         11    1    1    2    0    0 -0.12135770450E+00 -0.56648360131E-01  0.86391727491E+00  0.87423683756E+00  0.51100000000E-03 0.  1.
    9000002    1    1    2    0    0  0.54847476308E+00  0.20319078173E+00  0.23805038352E+00  0.11307621521E+01  0.93800000000E+00 0.  1.
         22    1    1    2    0    0 -0.42711705858E+00 -0.14654242160E+00  0.28980323089E+01  0.29330010103E+01  0.00000000000E+00 0.  1.
</event>
<event>
 5    1  0.7095115E+001  0.1599501E+01  0.7818608E-02  0.3353905E+00
         11   -1    0    0    0    0  0.00000000000E+00  0.00000000000E+00  0.39999999674E+01  0.40000000000E+01  0.51100000000E-03 0.  1.
    9000002   -1    0    0    0    0 -0.00000000000E+00 -0.00000000000E+00  0.00000000000E+00  0.93800000000E+00  0.93800000000E+00 0.  1.
         11    1    1    2    0    0  0.10310680878E+00  0.14565639098E-02  0.94746307610E+00  0.95305806606E+00  0.51100000000E-03 0.  1.
    9000002    1    1    2    0    0 -0.41225641882E+00  0.49263351260E-01  0.11665525072E+00  0.10323926967E+01  0.93800000000E+00 0.  1.
         22    1    1    2    0    0  0.30914961003E+00 -0.50719915170E-01  0.29358816405E+01  0.29525492373E+01  0.00000000000E+00 0.  1.
</event>
<event>
 5    1  0.7095115E+001  0.1599674E+01  0.7818608E-02  0.3353717E+00
         11   -1    0    0    0    0  0.00000000000E+00  0.00000000000E+00  0.39999999674E+01  0.40000000000E+01  0.51100000000E-03 0. -1.
    9000002   -1    0    0    0    0 -0.00000000000E+00 -0.00000000000E+00  0.00000000000E+00  0.93800000000E+00  0.93800000000E+00 0.  1.
         11    1    1    2    0    0  0.41888958180E-01  0.43252810455E-01  0.56612311295E+00  0.56931637125E+00  0.51100000000E-03 0. -1.
    9000002    1    1    2    0    0 -0.27854222248E+00 -0.29964221258E+00  0.11303143437E+00  0.10295588038E+01  0.93800000000E+00 0.  1.
         22    1    1    2    0    0  0.23665326430E+00  0.25638940212E+00  0.33208454200E+01  0.33391248250E+01  0.00000000000E+00 0. -1.
</event>
<event>
 5    1  0.7540370E+001  0.1583801E+01  0.7818608E-02  0.3371135E+00
         11   -1    0    0    0    0  0.00000000000E+00  0.00000000000E+00  0.39999999674E+01  0.40000000000E+01  0.51100000000E-03 0. -1.
    9000002   -1    0    0    0    0 -0.00000000000E+00 -0.00000000000E+00  0.00000000000E+00  0.93800000000E+00  0.93800000000E+00 0.  1.
         11    1    1    2    0    0  0.60610337811E-01 -0.40151008171E-01  0.11870078572E+01  0.11892323704E+01  0.51100000000E-03 0. -1.
    9000002    1    1    2    0    0  0.12667618754E+00 -0.19249863923E+00  0.47356419780E-01  0.96705181510E+00  0.93800000000E+00 0.  1.
         22    1    1    2    0    0 -0.18728652536E+00  0.23264964741E+00  0.27656356903E+01  0.27817158145E+01  0.00000000000E+00 0. -1.
</event>
<event>
 5    1  0.7095115E+001  0.1598132E+01  0.7818608E-02  0.3355393E+00
         11   -1    0    0    0    0  0.00000000000E+00  0.00000000000E+00  0.39999999674E+01  0.40000000000E+01  0.51100000000E-03 0.  1.
    9000002   -1    0    0    0    0 -0.00000000000E+00 -0.00000000000E+00  0.00000000000E+00  0.93800000000E+00  0.93800000000E+00 0. -1.
         11    1    1    2    0    0  0.31304505029E-01  0.80331396239E-01  0.48094974349E+00  0.48861643662E+00  0.51100000000E-03 0.  1.
    9000002    1    1    2    0    0 -0.20415040855E+00 -0.39655703678E+00  0.13636588946E+00  0.10475564560E+01  0.93800000000E+00 0. -1.
         22    1    1    2    0    0  0.17284590352E+00  0.31622564054E+00  0.33826843344E+01  0.34018271074E+01  0.00000000000E+00 0.  1.
</event>
<event>
 5    1  0.7095115E+001  0.1592712E+01  0.7818608E-02  0.3361312E+00
         11   -1    0    0    0    0  0.00000000000E+00  0.00000000000E+00  0.39999999674E+01  0.40000000000E+01  0.51100000000E-03 0. -1.
    9000002   -1    0    0    0    0 -0.00000000000E+00 -0.00000000000E+00  0.00000000000E+00  0.93800000000E+00  0.93800000000E+00 0.  1.
         11    1    1    2    0    0  0.92412596901E-01  0.14289311849E+00  0.10748264564E+01  0.10882144568E+01  0.51100000000E-03 0. -1.
    9000002    1    1    2    0    0 -0.11666068580E-01 -0.46246635982E+00  0.15173051932E+00  0.10568241962E+01  0.93800000000E+00 0.  1.
         22    1    1    2    0    0 -0.80746528321E-01  0.31957324133E+00  0.27734429916E+01  0.27929613470E+01  0.00000000000E+00 0. -1.
</event>
<event>
 5    1  0.7095115E+001  0.1599666E+01  0.7818608E-02  0.3353726E+00
         11   -1    0    0    0    0  0.00000000000E+00  0.00000000000E+00  0.39999999674E+01  0.40000000000E+01  0.51100000000E-03 0. -1.
    9000002   -1    0    0    0    0 -0.00000000000E+00 -0.00000000000E+00  0.00000000000E+00  0.93800000000E+00  0.93800000000E+00 0.  1.
         11    1    1    2    0    0  0.11136931481E+00  0.16152827120E+00  0.14476080228E+01  0.14608435082E+01  0.51100000000E-03 0. -1.
    9000002    1    1    2    0    0 -0.28795648731E+00 -0.41855419662E+00  0.17693917091E+00  0.10813223499E+01  0.93800000000E+00 0.  1.
         22    1    1    2    0    0  0.17658717250E+00  0.25702592542E+00  0.23754527736E+01  0.23958341419E+01  0.00000000000E+00 0. -1.
</event>
<event>
 5    1  0.7095115E+001  0.1599674E+01  0.7818608E-02  0.3353717E+00
         11   -1    0    0    0    0  0.00000000000E+00  0.00000000000E+00  0.39999999674E+01  0.40000000000E+01  0.51100000000E-03 0.  1.
    9000002   -1    0    0    0    0 -0.00000000000E+00 -0.00000000000E+00  0.00000000000E+00  0.93800000000E+00  0.93800000000E+00 0. -1.
         11    1    1    2    0    0 -0.70294060700E-01  0.93301661700E-01  0.89970245852E+00  0.90725477680E+00  0.51100000000E-03 0.  1.
    9000002    1    1    2    0    0  0.29386532766E+00 -0.39396997098E+00  0.16513651216E+00  0.10717664095E+01  0.93800000000E+00 0. -1.
         22    1    1    2    0    0 -0.22357126696E+00  0.30066830928E+00  0.29351609967E+01  0.29589788137E+01  0.00000000000E+00 0.  1.
</event>
<event>
 5    1  0.7095115E+001  0.1599461E+01  0.7818608E-02  0.3353948E+00
         11   -1    0    0    0    0  0.00000000000E+00  0.00000000000E+00  0.39999999674E+01  0.40000000000E+01  0.51100000000E-03 0. -1.
    9000002   -1    0    0    0    0 -0.00000000000E+00 -0.00000000000E+00  0.00000000000E+00  0.93800000000E+00  0.93800000000E+00 0. -1.
         11    1    1    2    0    0  0.97559016004E-01  0.17754364052E+00  0.12674292058E+01  0.12835172608E+01  0.51100000000E-03 0. -1.
    9000002    1    1    2    0    0 -0.24023091587E+00 -0.53180580482E+00  0.23697860043E+00  0.11298367865E+01  0.93800000000E+00 0. -1.
         22    1    1    2    0    0  0.14267189986E+00  0.35426216430E+00  0.24955921611E+01  0.25246459527E+01  0.00000000000E+00 0. -1.
</event>
<event>
 5    1  0.7095115E+001  0.1599674E+01  0.7818608E-02  0.3353717E+00
         11   -1    0    0    0    0  0.00000000000E+00  0.00000000000E+00  0.39999999674E+01  0.40000000000E+01  0.51100000000E-03 0.  1.
    9000002   -1    0    0    0    0 -0.00000000000E+00 -0.00000000000E+00  0.00000000000E+00  0.93800000000E+00  0.93800000000E+00 0. -1.
         11    1    1    2    0    0 -0.68264603779E-02  0.41700791549E-01  0.42096042157E+00  0.42307622744E+00  0.51100000000E-03 0.  1.
    9000002    1    1    2    0    0  0.57416175737E-01 -0.39453730549E+00  0.10720344221E+00  0.10248379778E+01  0.93800000000E+00 0. -1.
         22    1    1    2    0    0 -0.50589715359E-01  0.35283651394E+00  0.34718361036E+01  0.34900857948E+01  0.00000000000E+00 0.  1.
</event>
<event>
 5    1  0.7095115E+001  0.1533246E+01  0.7818608E-02  0.3429163E+00
         11   -1    0    0    0    0  0.00000000000E+00  0.00000000000E+00  0.39999999674E+01  0.40000000000E+01  0.51100000000E-03 0.  1.
    9000002   -1    0    0    0    0 -0.00000000000E+00 -0.00000000000E+00  0.00000000000E+00  0.93800000000E+00  0.93800000000E+00 0.  1.
         11    1    1    2    0    0 -0.89691971827E-01 -0.93641047105E-01  0.23475022869E+00  0.26818133139E+00  0.51100000000E-03 0.  1.
    9000002    1    1    2    0    0 -0.17510242724E+00 -0.31963026696E+00  0.14530553421E+00  0.10167507393E+01  0.93800000000E+00 0.  1.
         22    1    1    2    0    0  0.26479439907E+00  0.41327131406E+00  0.36199442045E+01  0.36530679293E+01  0.00000000000E+00 0.  1.
</event>
<event>
 5    1  0.7095115E+001  0.1596269E+01  0.7818608E-02  0.3357423E+00
         11   -1    0    0    0    0  0.00000000000E+00  0.00000000000E+00  0.39999999674E+01  0.40000000000E+01  0.51100000000E-03 0.  1.
    9000002   -1    0    0    0    0 -0.00000000000E+00 -0.00000000000E+00  0.00000000000E+00  0.93800000000E+00  0.93800000000E+00 0.  1.
         11    1    1    2    0    0  0.61578591291E-01 -0.12865167674E+00  0.13809068559E+01  0.13882532847E+01  0.51100000000E-03 0.  1.
    9000002    1    1    2    0    0 -0.32448740101E+00  0.24827723913E+00  0.11558387052E+00  0.10296296868E+01  0.93800000000E+00 0.  1.
         22    1    1    2    0    0  0.26290880972E+00 -0.11962556240E+00  0.25035092410E+01  0.25201170284E+01  0.00000000000E+00 0.  1.
</event>
<event>
 5    1  0.8355826E+001  0.1544767E+01  0.7818608E-02  0.3415583E+00
         11   -1    0    0    0    0  0.00000000000E+00  0.00000000000E+00  0.39999999674E+01  0.40000000000E+01  0.51100000000E-03 0. -1.
    9000002   -1    0    0    0    0 -0.00000000000E+00 -0.00000000000E+00  0.00000000000E+00  0.93800000000E+00  0.93800000000E+00 0. -1.
         11    1    1    2    0    0  0.20903624638E-01 -0.22907155335E+00  0.99047308725E+00  0.10168323046E+01  0.51100000000E-03 0. -1.
    9000002    1    1    2    0    0  0.10297867270E-01 -0.58406760320E-01  0.43290215899E-01  0.94086951195E+00  0.93800000000E+00 0. -1.
         22    1    1    2    0    0 -0.31201491908E-01  0.28747831367E+00  0.29662366642E+01  0.29802981834E+01  0.00000000000E+00 0. -1.
</event>
<event>
 5    1  0.9937445E+001  0.1587846E+01  0.7818608E-02  0.3366661E+00
         11   -1    0    0    0    0  0.00000000000E+00  0.00000000000E+00  0.39999999674E+01  0.40000000000E+01  0.51100000000E-03 0.  1.
    9000002   -1    0    0    0    0 -0.00000000000E+00 -0.00000000000E+00  0.00000000000E+00  0.93800000000E+00  0.93800000000E+00 0.  1.
         11    1    1    2    0    0  0.40172070587E-01 -0.59073645631E-01  0.12886640791E+01  0.12906428092E+01  0.51100000000E-03 0.  1.
    9000002    1    1    2    0    0 -0.31098012326E-01 -0.18405410504E+00  0.31927487718E-01  0.95692547485E+00  0.93800000000E+00 0.  1.
         22    1    1    2    0    0 -0.90740582606E-02  0.24312775067E+00  0.26794084005E+01  0.26904317160E+01  0.00000000000E+00 0.  1.
</event>
<event>
 5    1  0.7095115E+001  0.1453473E+01  0.7818608E-02  0.3529561E+00
         11   -1    0    0    0    0  0.00000000000E+00  0.00000000000E+00  0.39999999674E+01  0.40000000000E+01  0.51100000000E-03 0. -1.
    9000002   -1    0    0    0    0 -0.00000000000E+00 -0.00000000000E+00  0.00000000000E+00  0.93800000000E+00  0.93800000000E+00 0.  1.
         11    1    1    2    0    0 -0.34012632533E+00 -0.10747849509E+00  0.13692533352E+01  0.14149531799E+01  0.51100000000E-03 0. -1.
    9000002    1    1    2    0    0 -0.15757035979E+00 -0.23974364235E+00  0.17871829332E+00  0.99704045088E+00  0.93800000000E+00 0.  1.
         22    1    1    2    0    0  0.49769668512E+00  0.34722213744E+00  0.24520283388E+01  0.25260063692E+01  0.00000000000E+00 0.  1.
</event>
<event>
 5    1  0.7095115E+001  0.1599256E+01  0.7818608E-02  0.3354171E+00
         11   -1    0    0    0    0  0.00000000000E+00  0.00000000000E+00  0.39999999674E+01  0.40000000000E+01  0.51100000000E-03 0. -1.
    9000002   -1    0    0    0    0 -0.00000000000E+00 -0.00000000000E+00  0.00000000000E+00  0.93800000000E+00  0.93800000000E+00 0. -1.
         11    1    1    2    0    0 -0.67618745285E-01 -0.41429138510E-01  0.51729820194E+00  0.52334153196E+00  0.51100000000E-03 0. -1.
    9000002    1    1    2    0    0  0.38038002616E+00  0.27818792232E+00  0.15168860287E+00  0.10606276051E+01  0.93800000000E+00 0. -1.
         22    1    1    2    0    0 -0.31276128088E+00 -0.23675878381E+00  0.33310131626E+01  0.33540308630E+01  0.00000000000E+00 0. -1.
</event>
<event>
 5    1  0.7095115E+001  0.1573946E+01  0.7818608E-02  0.3382136E+00
         11   -1    0    0    0    0  0.00000000000E+00  0.00000000000E+00  0.39999999674E+01  0.40000000000E+01  0.51100000000E-03 0. -1.
    9000002   -1    0    0    0    0 -0.00000000000E+00 -0.00000000000E+00  0.00000000000E+00  0.93800000000E+00  0.93800000000E+00 0. -1.
         11    1    1    2    0    0  0.13470797239E+00  0.12636852990E+00  0.82694093204E+00  0.84731741949E+00  0.51100000000E-03 0. -1.
    9000002    1    1    2    0    0 -0.42530015605E+00  0.12374651916E+00  0.15555832106E+00  0.10489212625E+01  0.93800000000E+00 0. -1.
         22    1    1    2    0    0  0.29059218367E+00 -0.25011504906E+00  0.30175007143E+01  0.30417613180E+01  0.00000000000E+00 0. -1.
</event>
<event>
 5    1  0.7095115E+001  0.1546491E+01  0.7818608E-02  0.3413570E+00
         11   -1    0    0    0    0  0.00000000000E+00  0.00000000000E+00  0.39999999674E+01  0.40000000000E+01  0.51100000000E-03 0.  1.
    9000002   -1    0    0    0    0 -0.00000000000E+00 -0.00000000000E+00  0.00000000000E+00  0.93800000000E+00  0.93800000000E+00 0.  1.
         11    1    1    2    0    0  0.60240241038E-01 -0.11554827428E+00  0.34375512984E+00  0.36762500016E+00  0.51100000000E-03 0.  1.
    9000002    1    1    2    0    0  0.24358510566E+00 -0.23261682962E+00  0.11973661708E+00  0.10038053350E+01  0.93800000000E+00 0.  1.
         22    1    1    2    0    0 -0.30382534669E+00  0.34816510389E+00  0.35365082204E+01  0.35665696648E+01  0.00000000000E+00 0.  1.
</event>
<event>
 5    1  0.7095115E+001  0.1599630E+01  0.7818608E-02  0.3353765E+00
         11   -1    0    0    0    0  0.00000000000E+00  0.00000000000E+00  0.39999999674E+01  0.40000000000E+01  0.51100000000E-03 0.  1.
    9000002   -1    0    0    0    0 -0.00000000000E+00 -0.00000000000E+00  0.00000000000E+00  0.93800000000E+00  0.93800000000E+00 0. -1.
         11    1    1    2    0    0 -0.46442877136E-04 -0.96195124620E-01  0.68082142270E+00  0.68758386753E+00  0.51100000000E-03 0.  1.
    9000002    1    1    2    0    0  0.15334968045E-01  0.50776054855E+00  0.17693619117E+00  0.10812984563E+01  0.93800000000E+00 0. -1.
         22    1    1    2    0    0 -0.15288525168E-01 -0.41156542393E+00  0.31422423535E+01  0.31691176761E+01  0.00000000000E+00 0.  1.
</event>
<event>
 5    1  0.7095115E+001  0.1595652E+01  0.7818608E-02  0.3358096E+00
         11   -1    0    0    0    0  0.00000000000E+00  0.00000000000E+00  0.39999999674E+01  0.40000000000E+01  0.51100000000E-03 0.  1.
    9000002   -1    0    0    0    0 -0.00000000000E+00 -0.00000000000E+00  0.00000000000E+00  0.93800000000E+00  0.93800000000E+00 0.  1.
         11    1    1    2    0    0  0.14049620508E-01  0.64451814811E-02  0.62168084676E-01  0.64062969600E-01  0.51100000000E-03 0.  1.
    9000002    1    1    2    0    0  0.59946398177E-01  0.34331966690E+00  0.84673346057E-01  0.10042288284E+01  0.93800000000E+00 0.  1.
         22    1    1    2    0    0 -0.73996018685E-01 -0.34976484838E+00  0.38531585366E+01  0.38697082020E+01  0.00000000000E+00 0.  1.
</event>
<event>
 5    1  0.7095115E+001  0.1599677E+01  0.7818608E-02  0.3353714E+00
         11   -1    0    0    0    0  0.00000000000E+00  0.00000000000E+00  0.39999999674E+01  0.40000000000E+01  0.51100000000E-03 0.  1.
    9000002   -1    0    0    0    0 -0.00000000000E+00 -0.00000000000E+00  0.00000000000E+00  0.93800000000E+00  0.93800000000E+00 0.  1.
         11    1    1    2    0    0 -0.45482082790E-01  0.66187204437E-01  0.72209999715E+00  0.72655215428E+00  0.51100000000E-03 0. -1.
    9000002    1    1    2    0    0  0.24326527846E+00 -0.35345564845E+00  0.12466953134E+00  0.10389876723E+01  0.93800000000E+00 0.  1.
         22    1    1    2    0    0 -0.19778319567E+00  0.28726844401E+00  0.31532304389E+01  0.31724601734E+01  0.00000000000E+00 0.  1.
</event>
<event>
 5    1  0.7095115E+001  0.1599627E+01  0.7818608E-02  0.3353769E+00
         11   -1    0    0    0    0  0.00000000000E+00  0.00000000000E+00  0.39999999674E+01  0.40000000000E+01  0.51100000000E-03 0. -1.
    9000002   -1    0    0    0    0 -0.00000000000E+00 -0.00000000000E+00  0.00000000000E+00  0.93800000000E+00  0.93800000000E+00 0. -1.
         11    1    1    2    0    0 -0.11719088282E+00 -0.53805583843E-01  0.11571093806E+01  0.11642727874E+01  0.51100000000E-03 0. -1.
    9000002    1    1    2    0    0  0.37846982108E+00  0.15914630068E+00  0.11390071458E+00  0.10302350816E+01  0.93800000000E+00 0. -1.
         22    1    1    2    0    0 -0.26127893825E+00 -0.10534071684E+00  0.27289898722E+01  0.27434921310E+01  0.00000000000E+00 0. -1.
</event>
<event>
 5    1  0.7095115E+001  0.1599674E+01  0.7818608E-02  0.3353718E+00
         11   -1    0    0    0    0  0.00000000000E+00  0.00000000000E+00  0.39999999674E+01  0.40000000000E+01  0.51100000000E-03 0.  1.
    9000002   -1    0    0    0    0 -0.00000000000E+00 -0.00000000000E+00  0.00000000000E+00  0.93800000000E+00  0.93800000000E+00 0.  1.
         11    1    1    2    0    0  0.11226620641E-01 -0.46209246278E-01  0.46662630918E+00  0.46904339350E+00  0.51100000000E-03 0. -1.
    9000002    1    1    2    0    0 -0.85450663808E-01  0.39341821810E+00  0.10936531878E+00  0.10265887605E+01  0.93800000000E+00 0.  1.
         22    1    1    2    0    0  0.74224043167E-01 -0.34720897182E+00  0.34240083394E+01  0.34423678460E+01  0.00000000000E+00 0.  1.
</event>
<event>
 5    1  0.7095115E+001  0.1583211E+01  0.7818608E-02  0.3371789E+00
         11   -1    0    0    0    0  0.00000000000E+00  0.00000000000E+00  0.39999999674E+01  0.40000000000E+01  0.51100000000E-03 0.  1.
    9000002   -1    0    0    0    0 -0.00000000000E+00 -0.00000000000E+00  0.00000000000E+00  0.93800000000E+00  0.93800000000E+00 0. -1.
         11    1    1    2    0    0 -0.25762329627E+00  0.24682548975E-01  0.76690804474E+00  0.80939928417E+00  0.51100000000E-03 0.  1.
    9000002    1    1    2    0    0  0.62582903707E+00 -0.21303102637E+00  0.32701600830E+00  0.11932425032E+01  0.93800000000E+00 0. -1.
         22    1    1    2    0    0 -0.36820574079E+00  0.18834847739E+00  0.29060759143E+01  0.29353582126E+01  0.00000000000E+00 0.  1.
</event>
<event>
 5    1  0.7095115E+001  0.1599145E+01  0.7818608E-02  0.3354292E+00
         11   -1    0    0    0    0  0.00000000000E+00  0.00000000000E+00  0.39999999674E+01  0.40000000000E+01  0.51100000000E-03 0. -1.
    9000002   -1    0    0    0    0 -0.00000000000E+00 -0.00000000000E+00  0.00000000000E+00  0.93800000000E+00  0.93800000000E+00 0. -1.
         11    1    1    2    0    0  0.10293093771E+00 -0.52703448244E-01  0.10410752263E+01  0.10474780759E+01  0.51100000000E-03 0. -1.
    9000002    1    1    2    0    0 -0.37388284972E+00  0.10599617339E+00  0.10216150182E+00  0.10204433088E+01  0.93800000000E+00 0. -1.
         22    1    1    2    0    0  0.27095191201E+00 -0.53292725147E-01  0.28567632392E+01  0.28700786153E+01  0.00000000000E+00 0. -1.
</event>
<event>
 5    1  0.7095115E+001  0.1595396E+01  0.7818608E-02  0.3358375E+00
         11   -1    0    0    0    0  0.00000000000E+00  0.00000000000E+00  0.39999999674E+01  0.40000000000E+01  0.51100000000E-03 0. -1.
    9000002   -1    0    0    0    0 -0.00000000000E+00 -0.00000000000E+00  0.00000000000E+00  0.93800000000E+00  0.93800000000E+00 0.  1.
         11    1    1    2    0    0  0.20770493381E+00  0.17048564551E-01  0.94871976670E+00  0.97134002797E+00  0.51100000000E-03 0. -1.
    9000002    1    1    2    0    0 -0.57769333085E+00 -0.19543141454E+00  0.26435724911E+00  0.11496311484E+01  0.93800000000E+00 0.  1.
         22    1    1    2    0    0  0.36998839704E+00  0.17838284999E+00  0.27869229515E+01  0.28170288236E+01  0.00000000000E+00 0. -1.
</event>
<event>
 5    1  0.7095115E+001  0.1599637E+01  0.7818608E-02  0.3353757E+00
         11   -1    0    0    0    0  0.00000000000E+00  0.00000000000E+00  0.39999999674E+01  0.40000000000E+01  0.51100000000E-03 0. -1.
    9000002   -1    0    0    0    0 -0.00000000000E+00 -0.00000000000E+00  0.00000000000E+00  0.93800000000E+00  0.93800000000E+00 0.  1.
         11    1    1    2    0    0 -0.54759991308E-01 -0.34529449626E-01  0.57261191768E+00  0.57626001851E+00  0.51100000000E-03 0. -1.
    9000002    1    1    2    0    0  0.36096254323E+00  0.26835956476E+00  0.13743658677E+00  0.10493062608E+01  0.93800000000E+00 0.  1.
         22    1    1    2    0    0 -0.30620255192E+00 -0.23383011513E+00  0.32899514629E+01  0.33124337207E+01  0.00000000000E+00 0. -1.
</event>
<event>
 5    1  0.7095115E+001  0.1457536E+01  0.7818608E-02  0.3524159E+00
         11   -1    0    0    0    0  0.00000000000E+00  0.00000000000E+00  0.39999999674E+01  0.40000000000E+01  0.51100000000E-03 0.  1.
    9000002   -1    0    0    0    0 -0.00000000000E+00 -0.00000000000E+00  0.00000000000E+00  0.93800000000E+00  0.93800000000E+00 0.  1.
         11    1    1    2    0    0 -0.29186261220E+00 -0.32963267343E+00  0.10723001971E+01  0.11591675709E+01  0.51100000000E-03 0.  1.
    9000002    1    1    2    0    0  0.78635075635E+00 -0.29085364676E+00  0.75842692113E+00  0.14690128490E+01  0.93800000000E+00 0.  1.
         22    1    1    2    0    0 -0.49448814415E+00  0.62048632019E+00  0.21692728492E+01  0.23098195800E+01  0.00000000000E+00 0. -1.
</event>
<event>
 5    1  0.7095115E+001  0.1584746E+01  0.7818608E-02  0.3370088E+00
         11   -1    0    0    0    0  0.00000000000E+00  0.00000000000E+00  0.39999999674E+01  0.40000000000E+01  0.51100000000E-03 0. -1.
    9000002   -1    0    0    0    0 -0.00000000000E+00 -0.00000000000E+00  0.00000000000E+00  0.93800000000E+00  0.93800000000E+00 0.  1.
         11    1    1    2    0    0  0.32013277747E-01  0.29094884530E-01  0.11761670545E+00  0.12532083937E+00  0.51100000000E-03 0. -1.
    9000002    1    1    2    0    0  0.20765652685E-01  0.32127626556E+00  0.81214873589E-01  0.99503241497E+00  0.93800000000E+00 0.  1.
         22    1    1    2    0    0 -0.52778930432E-01 -0.35037115009E+00  0.38011683883E+01  0.38176467457E+01  0.00000000000E+00 0. -1.
</event>
<event>
 5    1  0.7095115E+001  0.1598177E+01  0.7818608E-02  0.3355345E+00
         11   -1    0    0    0    0  0.00000000000E+00  0.00000000000E+00  0.39999999674E+01  0.40000000000E+01  0.51100000000E-03 0.  1.
    9000002   -1    0    0    0    0 -0.00000000000E+00 -0.00000000000E+00  0.00000000000E+00  0.93800000000E+00  0.93800000000E+00 0.  1.
         11    1    1    2    0    0  0.13197430683E-01  0.17248807034E+00  0.93336133947E+00  0.94925758239E+00  0.51100000000E-03 0.  1.
    9000002    1    1    2    0    0  0.43614303404E-01 -0.56552754969E+00  0.22439912099E+00  0.11188934634E+01  0.93800000000E+00 0.  1.
         22    1    1    2    0    0 -0.56811734087E-01  0.39303947935E+00  0.28422395069E+01  0.28698489542E+01  0.00000000000E+00 0.  1.
</event>
<event>
 5    1  0.7095115E+001  0.1583045E+01  0.7818608E-02  0.3371974E+00
         11   -1    0    0    0    0  0.00000000000E+00  0.00000000000E+00  0.39999999674E+01  0.40000000000E+01  0.51100000000E-03 0.  1.
    9000002   -1    0    0    0    0 -0.00000000000E+00 -0.00000000000E+00  0.00000000000E+00  0.93800000000E+00  0.93800000000E+00 0. -1.
         11    1    1    2    0    0 -0.27998679746E-01 -0.12551443487E-01  0.41189384338E-01  0.51364299900E-01  0.51100000000E-03 0.  1.
    9000002    1    1    2    0    0 -0.10184869353E+00 -0.33024153284E+00  0.93520608603E-01  0.10040033519E+01  0.93800000000E+00 0. -1.
         22    1    1    2    0    0  0.12984737327E+00  0.34279297633E+00  0.38652899744E+01  0.38826323482E+01  0.00000000000E+00 0.  1.
</event>
<event>
 5    1  0.7095115E+001  0.1599305E+01  0.7818608E-02  0.3354118E+00
         11   -1    0    0    0    0  0.00000000000E+00  0.00000000000E+00  0.39999999674E+01  0.40000000000E+01  0.51100000000E-03 0.  1.
    9000002   -1    0    0    0    0 -0.00000000000E+00 -0.00000000000E+00  0.00000000000E+00  0.93800000000E+00  0.93800000000E+00 0. -1.
         11    1    1    2    0    0  0.26361989730E-01 -0.10962440472E+00  0.11584797160E+01  0.11639535980E+01  0.51100000000E-03 0.  1.
    9000002    1    1    2    0    0 -0.85891168782E-01  0.43705942345E+00  0.13497871575E+00  0.10471205691E+01  0.93800000000E+00 0. -1.
         22    1    1    2    0    0  0.59529179052E-01 -0.32743501873E+00  0.27065415356E+01  0.27269258329E+01  0.00000000000E+00 0.  1.
</event>
<event>
 5    1  0.7095115E+001  0.1599676E+01  0.7818608E-02  0.3353715E+00
         11   -1    0    0    0    0  0.00000000000E+00  0.00000000000E+00  0.39999999674E+01  0.40000000000E+01  0.51100000000E-03 0. -1.
    9000002   -1    0    0    0    0 -0.00000000000E+00 -0.00000000000E+00  0.00000000000E+00  0.93800000000E+00  0.93800000000E+00 0. -1.
         11    1    1    2    0    0  0.10614119786E-01  0.55406371127E-01  0.60593759645E+00  0.60855826131E+00  0.51100000000E-03 0.  1.
    9000002    1    1    2    0    0 -0.68089273037E-01 -0.35360870748E+00  0.87047718176E-01  0.10085120586E+01  0.93800000000E+00 0. -1.
         22    1    1    2    0    0  0.57475153251E-01  0.29820233636E+00  0.33070146527E+01  0.33209296801E+01  0.00000000000E+00 0. -1.
</event>
<event>
 5    1  0.7095115E+001  0.1585975E+01  0.7818608E-02  0.3368727E+00
         11   -1    0    0    0    0  0.00000000000E+00  0.00000000000E+00  0.39999999674E+01  0.40000000000E+01  0.51100000000E-03 0.  1.
    9000002   -1    0    0    0    0 -0.00000000000E+00 -0.00000000000E+00  0.00000000000E+00  0.93800000000E+00  0.93800000000E+00 0. -1.
         11    1    1    2    0    0 -0.90585582351E-02  0.19510294158E-01  0.15412930542E-01  0.26467500908E-01  0.51100000000E-03 0.  1.
    9000002    1    1    2    0    0  0.49627445754E+00  0.42872546716E-01  0.18222944110E+00  0.10775796776E+01  0.93800000000E+00 0. -1.
         22    1    1    2    0    0 -0.48721589930E+00 -0.62382840874E-01  0.38023575957E+01  0.38339528214E+01  0.00000000000E+00 0.  1.
</event>
<event>
 5    1  0.7095115E+001  0.1599645E+01  0.7818608E-02  0.3353748E+00
         11   -1    0    0    0    0  0.00000000000E+00  0.00000000000E+00  0.39999999674E+01  0.40000000000E+01  0.51100000000E-03 0.  1.
    9000002   -1    0    0    0    0 -0.00000000000E+00 -0.00000000000E+00  0.00000000000E+00  0.93800000000E+00  0.93800000000E+00 0.  1.
         11    1    1    2    0    0 -0.11126077154E+00 -0.10366477612E+00  0.13154892040E+01  0.13242497695E+01  0.51100000000E-03 0.  1.
    9000002    1    1    2    0    0  0.33274811100E+00  0.28682051145E+00  0.13089742081E+00  0.10440141024E+01  0.93800000000E+00 0.  1.
         22    1    1    2    0    0 -0.22148733945E+00 -0.18315573533E+00  0.25536133426E+01  0.25697361282E+01  0.00000000000E+00 0.  1.
</event>
<event>
 5    1  0.7095115E+001  0.1484382E+01  0.7818608E-02  0.3489278E+00
         11   -1    0    0    0    0  0.00000000000E+00  0.00000000000E+00  0.39999999674E+01  0.40000000000E+01  0.51100000000E-03 0. -1.
    9000002   -1    0    0    0    0 -0.00000000000E+00 -0.00000000000E+00  0.00000000000E+00  0.93800000000E+00  0.93800000000E+00 0. -1.
         11    1    1    2    0    0 -0.29754731007E+00 -0.29424116163E+00  0.14384945668E+01  0.14981252093E+01  0.51100000000E-03 0. -1.
    9000002    1    1    2    0    0  0.27559282251E+00 -0.13613205886E+00  0.15994158232E+00  0.99995432447E+00  0.93800000000E+00 0. -1.
         22    1    1    2    0    0  0.21954487565E-01  0.43037322049E+00  0.24015638182E+01  0.24399204662E+01  0.00000000000E+00 0. -1.
</event>
<event>
 5    1  0.7095115E+001  0.1599649E+01  0.7818608E-02  0.3353745E+00
         11   -1    0    0    0    0  0.00000000000E+00  0.00000000000E+00  0.39999999674E+01  0.40000000000E+01  0.51100000000E-03 0.  1.
    9000002   -1    0    0    0    0 -0.00000000000E+00 -0.00000000000E+00  0.00000000000E+00  0.93800000000E+00  0.93800000000E+00 0. -1.
         11    1    1    2    0    0  0.25381863359E-01  0.69389277326E-01  0.68616795043E+00  0.69013464491E+00  0.51100000000E-03 0.  1.
    9000002    1    1    2    0    0 -0.14586758193E+00 -0.36616659786E+00  0.10473585490E+00  0.10228239967E+01  0.93800000000E+00 0. -1.
         22    1    1    2    0    0  0.12048571857E+00  0.29677732053E+00  0.32090961620E+01  0.32250413584E+01  0.00000000000E+00 0.  1.
</event>
<event>
 5    1  0.7095115E+001  0.1599672E+01  0.7818608E-02  0.3353720E+00
         11   -1    0    0    0    0  0.00000000000E+00  0.00000000000E+00  0.39999999674E+01  0.40000000000E+01  0.51100000000E-03 0. -1.
    9000002   -1    0    0    0    0 -0.00000000000E+00 -0.00000000000E+00  0.00000000000E+00  0.93800000000E+00  0.93800000000E+00 0. -1.
         11    1    1    2    0    0  0.11239799730E-01 -0.10537505786E+00  0.10073571946E+01  0.10129160946E+01  0.51100000000E-03 0. -1.
    9000002    1    1    2    0    0 -0.52109932891E-01  0.40963786937E+00  0.11521748230E+00  0.10313281230E+01  0.93800000000E+00 0. -1.
         22    1    1    2    0    0  0.40870133161E-01 -0.30426281151E+00  0.28774252904E+01  0.28937557824E+01  0.00000000000E+00 0. -1.
</event>
<event>
 5    1  0.7095115E+001  0.1599661E+01  0.7818608E-02  0.3353731E+00
         11   -1    0    0    0    0  0.00000000000E+00  0.00000000000E+00  0.39999999674E+01  0.40000000000E+01  0.51100000000E-03 0. -1.
    9000002   -1    0    0    0    0 -0.00000000000E+00 -0.00000000000E+00  0.00000000000E+00  0.93800000000E+00  0.93800000000E+00 0. -1.
         11    1    1    2    0    0  0.20571971237E-01 -0.22462580088E-01  0.22874009602E+00  0.23075975852E+00  0.51100000000E-03 0. -1.
    9000002    1    1    2    0    0 -0.33093064438E+00  0.34349886042E+00  0.15517106185E+00  0.10636863339E+01  0.93800000000E+00 0. -1.
         22    1    1    2    0    0  0.31035867314E+00 -0.32103628034E+00  0.36160888095E+01  0.36435539076E+01  0.00000000000E+00 0. -1.
</event>
<event>
 5    1  0.7095115E+001  0.1577323E+01  0.7818608E-02  0.3378350E+00
         11   -1    0    0    0    0  0.00000000000E+00  0.00000000000E+00  0.39999999674E+01  0.40000000000E+01  0.51100000000E-03 0. -1.
    9000002   -1    0    0    0    0 -0.00000000000E+00 -0.00000000000E+00  0.00000000000E+00  0.93800000000E+00  0.93800000000E+00 0. -1.
         11    1    1    2    0    0  0.10738163190E+00  0.25312734878E-02  0.40389780856E+00  0.41793650605E+00  0.51100000000E-03 0. -1.
    9000002    1    1    2    0    0 -0.90113973993E-01  0.47128956226E+00  0.17714982543E+00  0.10683915202E+01  0.93800000000E+00 0. -1.
         22    1    1    2    0    0 -0.17267657909E-01 -0.47382083575E+00  0.34189523334E+01  0.34516719737E+01  0.00000000000E+00 0. -1.
</event>
<event>
 5    1  0.7095115E+001  0.1597574E+01  0.7818608E-02  0.3356001E+00
         11   -1    0    0    0    0  0.00000000000E+00  0.00000000000E+00  0.39999999674E+01  0.40000000000E+01  0.51100000000E-03 0. -1.
    9000002   -1    0    0    0    0 -0.00000000000E+00 -0.00000000000E+00  0.00000000000E+00  0.93800000000E+00  0.93800000000E+00 0. -1.
         11    1    1    2    0    0 -0.90306677216E-01  0.28226828788E-01  0.59357601689E+00  0.60106971206E+00  0.51100000000E-03 0. -1.
    9000002    1    1    2    0    0  0.50957359914E+00  0.65926745262E-01  0.18307840317E+00  0.10850683344E+01  0.93800000000E+00 0. -1.
         22    1    1    2    0    0 -0.41926692193E+00 -0.94153574050E-01  0.32233455473E+01  0.32518619535E+01  0.00000000000E+00 0. -1.
</event>
<event>
 5    1  0.7095115E+001  0.1599677E+01  0.7818608E-02  0.3353714E+00
         11   -1    0    0    0    0  0.00000000000E+00  0.00000000000E+00  0.39999999674E+01  0.40000000000E+01  0.51100000000E-03 0.  1.
    9000002   -1    0    0    0    0 -0.00000000000E+00 -0.00000000000E+00  0.00000000000E+00  0.93800000000E+00  0.93800000000E+00 0. -1.
         11    1    1    2    0    0 -0.16009515337E+00  0.29243777461E-01  0.14436108505E+01  0.14527553839E+01  0.51100000000E-03 0.  1.
    9000002    1    1    2    0    0  0.43092492559E+00 -0.77398239905E-01  0.12996112667E+00  0.10432740165E+01  0.93800000000E+00 0. -1.
         22    1    1    2    0    0 -0.27082977223E+00  0.48154462444E-01  0.24264279902E+01  0.24419705996E+01  0.00000000000E+00 0.  1.
</event>
<event>
 5    1  0.7095115E+001  0.1599667E+01  0.7818608E-02  0.3353725E+00
         11   -1    0    0    0    0  0.00000000000E+00  0.00000000000E+00  0.39999999674E+01  0.40000000000E+01  0.51100000000E-03 0. -1.
    9000002   -1    0    0    0    0 -0.00000000000E+00 -0.00000000000E+00  0.00000000000E+00  0.93800000000E+00  0.93800000000E+00 0.  1.
         11    1    1    2    0    0 -0.29568744023E-01  0.17329439626E-01  0.10190860565E+00  0.10751858038E+00  0.51100000000E-03 0. -1.
    9000002    1    1    2    0    0  0.87735567303E+00 -0.52107250060E+00  0.84787007040E+00  0.16248068144E+01  0.93800000000E+00 0.  1.
         22    1    1    2    0    0 -0.84778692901E+00  0.50374306098E+00  0.30502212913E+01  0.32056746052E+01  0.00000000000E+00 0. -1.
</event>
<event>
 5    1  0.7095115E+001  0.1599494E+01  0.7818608E-02  0.3353913E+00
         11   -1    0    0    0    0  0.00000000000E+00  0.00000000000E+00  0.39999999674E+01  0.40000000000E+01  0.51100000000E-03 0.  1.
    9000002   -1    0    0    0    0 -0.00000000000E+00 -0.00000000000E+00  0.00000000000E+00  0.93800000000E+00  0.93800000000E+00 0.  1.
         11    1    1    2    0    0  0.90606204091E-01  0.45518654380E-02  0.57804822804E+00  0.58512410544E+00  0.51100000000E-03 0.  1.
    9000002    1    1    2    0    0 -0.52040142857E+00 -0.39710987422E-01  0.18734435060E+00  0.10896497213E+01  0.93800000000E+00 0.  1.
         22    1    1    2    0    0  0.42979522448E+00  0.35159121984E-01  0.32346073887E+01  0.32632261733E+01  0.00000000000E+00 0.  1.
</event>
<event>
 5    1  0.7095115E+001  0.1597262E+01  0.7818608E-02  0.3356341E+00
         11   -1    0    0    0    0  0.00000000000E+00  0.00000000000E+00  0.39999999674E+01  0.40000000000E+01  0.51100000000E-03 0.  1.
    9000002   -1    0    0    0    0 -0.00000000000E+00 -0.00000000000E+00  0.00000000000E+00  0.93800000000E+00  0.93800000000E+00 0.  1.
         11    1    1    2    0    0 -0.10814286185E+00 -0.47371848971E-02  0.14102116092E+01  0.14143600543E+01  0.51100000000E-03 0.  1.
    9000002    1    1    2    0    0  0.43308125436E+00 -0.64341970816E-01  0.13203839370E+00  0.10435407992E+01  0.93800000000E+00 0.  1.
         22    1    1    2    0    0 -0.32493839251E+00  0.69079155713E-01  0.24577499645E+01  0.24800991465E+01  0.00000000000E+00 0.  1.
</event>
<event>
 5    1  0.7095115E+001  0.1577878E+01  0.7818608E-02  0.3377730E+00
         11   -1    0    0    0    0  0.00000000000E+00  0.00000000000E+00  0.39999999674E+01  0.40000000000E+01  0.51100000000E-03 0.  1.
    9000002   -1    0    0    0    0 -0.00000000000E+00 -0.00000000000E+00  0.00000000000E+00  0.93800000000E+00  0.93800000000E+00 0. -1.
         11    1    1    2    0    0  0.82339804614E-02  0.80660359465E-02 -0.35471230757E-02  0.12070732092E-01  0.51100000000E-03 0.  1.
    9000002    1    1    2    0    0 -0.11267595575E+00  0.39611904966E+00  0.13310377842E+00  0.10330376510E+01  0.93800000000E+00 0. -1.
         22    1    1    2    0    0  0.10444197529E+00 -0.40418508560E+00  0.38704433120E+01  0.38928916169E+01  0.00000000000E+00 0.  1.
</event>
<event>
 5    1  0.7095115E+001  0.1599668E+01  0.7818608E-02  0.3353724E+00
         11   -1    0    0    0    0  0.00000000000E+00  0.00000000000E+00  0.39999999674E+01  0.40000000000E+01  0.51100000000E-03 0. -1.
    9000002   -1    0    0    0    0 -0.00000000000E+00 -0.00000000000E+00  0.00000000000E+00  0.93800000000E+00  0.93800000000E+00 0.  1.
         11    1    1    2    0    0  0.63120277654E-01  0.19876755452E-01  0.59304404947E+00  0.59672502930E+00  0.51100000000E-03 0. -1.
    9000002    1    1    2    0    0 -0.40081998240E+00 -0.11837108903E+00  0.11810361353E+00  0.10336637928E+01  0.93800000000E+00 0.  1.
         22    1    1    2    0    0  0.33769970475E+00  0.98494333577E-01  0.32888523044E+01  0.33076111779E+01  0.00000000000E+00 0. -1.
</event>
<event>
 5    1  0.7095115E+001  0.1599317E+01  0.7818608E-02  0.3354105E+00
         11   -1    0    0    0    0  0.00000000000E+00  0.00000000000E+00  0.39999999674E+01  0.40000000000E+01  0.51100000000E-03 0. -1.
    9000002   -1    0    0    0    0 -0.00000000000E+00 -0.00000000000E+00  0.00000000000E+00  0.93800000000E+00  0.93800000000E+00 0. -1.
         11    1    1    2    0    0 -0.63208151272E-01 -0.65202939259E-02  0.44215373359E+00  0.44669673143E+00  0.51100000000E-03 0. -1.
    9000002    1    1    2    0    0  0.42575632149E+00  0.58573476812E-01  0.12538723967E+00  0.10393580987E+01  0.93800000000E+00 0. -1.
         22    1    1    2    0    0 -0.36254817021E+00 -0.52053182886E-01  0.34324589941E+01  0.34519451699E+01  0.00000000000E+00 0. -1.
</event>
<event>
 5    1  0.7095115E+001  0.1599497E+01  0.7818608E-02  0.3353910E+00
         11   -1    0    0    0    0  0.00000000000E+00  0.00000000000E+00  0.39999999674E+01  0.40000000000E+01  0.51100000000E-03 0. -1.
    9000002   -1    0    0    0    0 -0.00000000000E+00 -0.00000000000E+00  0.00000000000E+00  0.93800000000E+00  0.93800000000E+00 0.  1.
         11    1    1    2    0    0  0.31505390869E-02  0.65133928939E-02  0.14038714553E+00  0.14057440000E+00  0.51100000000E-03 0. -1.
    9000002    1    1    2    0    0 -0.84149182039E-01 -0.34888958865E+00  0.86597042777E-01  0.10080417044E+01  0.93800000000E+00 0.  1.
         22    1    1    2    0    0  0.80998642952E-01  0.34237619576E+00  0.37730157791E+01  0.37893838956E+01  0.00000000000E+00 0. -1.
</event>
<event>
 5    1  0.7095115E+001  0.1599443E+01  0.7818608E-02  0.3353968E+00
         11   -1    0    0    0    0  0.00000000000E+00  0.00000000000E+00  0.39999999674E+01  0.40000000000E+01  0.51100000000E-03 0.  1.
    9000002   -1    0    0    0    0 -0.00000000000E+00 -0.00000000000E+00  0.00000000000E+00  0.93800000000E+00  0.93800000000E+00 0.  1.
         11    1    1    2    0    0 -0.45570812955E-02 -0.98807450493E-02  0.57888029289E-01  0.58903999598E-01  0.51100000000E-03 0.  1.
    9000002    1    1    2    0    0  0.86103164410E-01  0.45290636054E+00  0.14479440464E+00  0.10551527595E+01  0.93800000000E+00 0.  1.
         22    1    1    2    0    0 -0.81546083114E-01 -0.44302561549E+00  0.37973175334E+01  0.38239432409E+01  0.00000000000E+00 0.  1.
</event>
<event>
 5    1  0.7095115E+001  0.1596296E+01  0.7818608E-02  0.3357394E+00
         11   -1    0    0    0    0  0.00000000000E+00  0.00000000000E+00  0.39999999674E+01  0.40000000000E+01  0.51100000000E-03 0. -1.
    9000002   -1    0    0    0    0 -0.00000000000E+00 -0.00000000000E+00  0.00000000000E+00  0.93800000000E+00  0.93800000000E+00 0.  1.
         11    1    1    2    0    0  0.19431761673E-02 -0.19011011630E-01  0.13405405971E+00  0.13541028965E+00  0.51100000000E-03 0. -1.
    9000002    1    1    2    0    0  0.41678660359E+00 -0.18452579375E-01  0.12052064200E+00  0.10336444242E+01  0.93800000000E+00 0.  1.
         22    1    1    2    0    0 -0.41872977976E+00  0.37463591005E-01  0.37454252656E+01  0.37689452861E+01  0.00000000000E+00 0. -1.
</event>
<event>
 5    1  0.7095115E+001  0.1599651E+01  0.7818608E-02  0.3353742E+00
         11   -1    0    0    0    0  0.00000000000E+00  0.00000000000E+00  0.39999999674E+01  0.40000000000E+01  0.51100000000E-03 0.  1.
    9000002   -1    0    0    0    0 -0.00000000000E+00 -0.00000000000E+00  0.00000000000E+00  0.93800000000E+00  0.93800000000E+00 0.  1.
         11    1    1    2    0    0 -0.37862347716E-01  0.13499577911E+00  0.87764575230E+00  0.88877429384E+00  0.51100000000E-03 0.  1.
    9000002    1    1    2    0    0  0.15764222545E+00 -0.55758468215E+00  0.23327573960E+00  0.11269486766E+01  0.93800000000E+00 0.  1.
         22    1    1    2    0    0 -0.11977987773E+00  0.42258890304E+00  0.28890784755E+01  0.29222770296E+01  0.00000000000E+00 0.  1.
</event>
<event>
 5    1  0.7095115E+001  0.1599670E+01  0.7818608E-02  0.3353722E+00
         11   -1    0    0    0    0  0.00000000000E+00  0.00000000000E+00  0.39999999674E+01  0.40000000000E+01  0.51100000000E-03 0. -1.
    9000002   -1    0    0    0    0 -0.00000000000E+00 -0.00000000000E+00  0.00000000000E+00  0.93800000000E+00  0.93800000000E+00 0.  1.
         11    1    1    2    0    0  0.13063256664E+00 -0.21510889043E+00  0.14654433015E+01  0.14868964433E+01  0.51100000000E-03 0. -1.
    9000002    1    1    2    0    0 -0.32619405938E+00  0.54011023873E+00  0.27968911454E+00  0.11645564113E+01  0.93800000000E+00 0.  1.
         22    1    1    2    0    0  0.19556149274E+00 -0.32500134830E+00  0.22548675513E+01  0.22865471454E+01  0.00000000000E+00 0.  1.
</event>
<event>
 5    1  0.7095115E+001  0.1599674E+01  0.7818608E-02  0.3353717E+00
         11   -1    0    0    0    0  0.00000000000E+00  0.00000000000E+00  0.39999999674E+01  0.40000000000E+01  0.51100000000E-03 0.  1.
    9000002   -1    0    0    0    0 -0.00000000000E+00 -0.00000000000E+00  0.00000000000E+00  0.93800000000E+00  0.93800000000E+00 0. -1.
         11    1    1    2    0    0 -0.62209018645E-02 -0.13826684847E-01  0.14765685872E+00  0.14843411293E+00  0.51100000000E-03 0. -1.
    9000002    1    1    2    0    0  0.17770246524E+00  0.35727723511E+00  0.10738947324E+00  0.10249886282E+01  0.93800000000E+00 0. -1.
         22    1    1    2    0    0 -0.17148156337E+00 -0.34345055026E+00  0.37449536354E+01  0.37645772589E+01  0.00000000000E+00 0.  1.
</event>
<event>
 5    1  0.7095115E+001  0.1599665E+01  0.7818608E-02  0.3353727E+00
         11   -1    0    0    0    0  0.00000000000E+00  0.00000000000E+00  0.39999999674E+01  0.40000000000E+01  0.51100000000E-03 0.  1.
    9000002   -1    0    0    0    0 -0.00000000000E+00 -0.00000000000E+00  0.00000000000E+00  0.93800000000E+00  0.93800000000E+00 0.  1.
         11    1    1    2    0    0  0.30414737090E-01 -0.48208701697E-01  0.60497845434E+00  0.60765806708E+00  0.51100000000E-03 0.  1.
    9000002    1    1    2    0    0 -0.19742607422E+00  0.33021866573E+00  0.99662214316E-01  0.10187237010E+01  0.93800000000E+00 0.  1.
         22    1    1    2    0    0  0.16701133713E+00 -0.28200996403E+00  0.32953592987E+01  0.33116182319E+01  0.00000000000E+00 0.  1.
</event>
<event>
 5    1  0.7095115E+001  0.1592374E+01  0.7818608E-02  0.3361682E+00
         11   -1    0    0    0    0  0.00000000000E+00  0.00000000000E+00  0.39999999674E+01  0.40000000000E+01  0.51100000000E-03 0.  1.
    9000002   -1    0    0    0    0 -0.00000000000E+00 -0.00000000000E+00  0.00000000000E+00  0.93800000000E+00  0.93800000000E+00 0.  1.
         11    1    1    2    0    0  0.11970698813E-02  0.21969343263E-01  0.46027966876E+00  0.46080551170E+00  0.51100000000E-03 0.  1.
    9000002    1    1    2    0    0  0.15146938484E+00  0.35246587348E+00  0.10510198541E+00  0.10188550406E+01  0.93800000000E+00 0.  1.
         22    1    1    2    0    0 -0.15266645472E+00 -0.37443521674E+00  0.34346183132E+01  0.34583394477E+01  0.00000000000E+00 0.  1.
</event>
<event>
 5    1  0.7095115E+001  0.1599674E+01  0.7818608E-02  0.3353717E+00
         11   -1    0    0    0    0  0.00000000000E+00  0.00000000000E+00  0.39999999674E+01  0.40000000000E+01  0.51100000000E-03 0.  1.
    9000002   -1    0    0    0    0 -0.00000000000E+00 -0.00000000000E+00  0.00000000000E+00  0.93800000000E+00  0.93800000000E+00 0.  1.
         11    1    1    2    0    0 -0.49401238947E-01  0.31426549088E-01  0.49626146771E+00  0.49970372808E+00  0.51100000000E-03 0.  1.
    9000002    1    1    2    0    0  0.39345426482E+00 -0.24761395106E+00  0.14711628664E+00  0.10571689217E+01  0.93800000000E+00 0.  1.
         22    1    1    2    0    0 -0.34405302587E+00  0.21618740197E+00  0.33566222130E+01  0.33811273502E+01  0.00000000000E+00 0.  1.
</event>
<event>
 5    1  0.7095115E+001  0.1599676E+01  0.7818608E-02  0.3353715E+00
         11   -1    0    0    0    0  0.00000000000E+00  0.00000000000E+00  0.39999999674E+01  0.40000000000E+01  0.51100000000E-03 0. -1.
    9000002   -1    0    0    0    0 -0.00000000000E+00 -0.00000000000E+00  0.00000000000E+00  0.93800000000E+00  0.93800000000E+00 0. -1.
         11    1    1    2    0    0  0.13628128026E+00  0.68409210496E-01  0.14543952155E+01  0.14623672970E+01  0.51100000000E-03 0. -1.
    9000002    1    1    2    0    0 -0.36643204901E+00 -0.18039739898E+00  0.11264475090E+00  0.10292465730E+01  0.93800000000E+00 0. -1.
         22    1    1    2    0    0  0.23015076875E+00  0.11198818849E+00  0.24329600009E+01  0.24463861300E+01  0.00000000000E+00 0. -1.
</event>
<event>
 5    1  0.7095115E+001  0.1599677E+01  0.7818608E-02  0.3353714E+00
         11   -1    0    0    0    0  0.00000000000E+00  0.00000000000E+00  0.39999999674E+01  0.40000000000E+01  0.51100000000E-03 0.  1.
    9000002   -1    0    0    0    0 -0.00000000000E+00 -0.00000000000E+00  0.00000000000E+00  0.93800000000E+00  0.93800000000E+00 0. -1.
         11    1    1    2    0    0  0.66159821216E-01 -0.80957099678E-01  0.97763135285E+00  0.98320623326E+00  0.51100000000E-03 0.  1.
    9000002    1    1    2    0    0 -0.26112271234E+00  0.32179509922E+00  0.11605932617E+00  0.10320130445E+01  0.93800000000E+00 0. -1.
         22    1    1    2    0    0  0.19496289112E+00 -0.24083799954E+00  0.29063092883E+01  0.29227807223E+01  0.00000000000E+00 0.  1.
</event>
<event>
 5    1  0.7095115E+001  0.1594917E+01  0.7818608E-02  0.3358898E+00
         11   -1    0    0    0    0  0.00000000000E+00  0.00000000000E+00  0.39999999674E+01  0.40000000000E+01  0.51100000000E-03 0.  1.
    9000002   -1    0    0    0    0 -0.00000000000E+00 -0.00000000000E+00  0.00000000000E+00  0.93800000000E+00  0.93800000000E+00 0.  1.
         11    1    1    2    0    0 -0.83747801637E-01  0.16054720967E-01  0.66737719809E+00  0.67280311681E+00  0.51100000000E-03 0.  1.
    9000002    1    1    2    0    0  0.28863415789E+00  0.21128622332E+00  0.89727139882E-01  0.10078921098E+01  0.93800000000E+00 0.  1.
         22    1    1    2    0    0 -0.20488635626E+00 -0.22734094429E+00  0.32428956294E+01  0.32573047734E+01  0.00000000000E+00 0.  1.
</event>
<event>
 5    1  0.7095115E+001  0.1596418E+01  0.7818608E-02  0.3357260E+00
         11   -1    0    0    0    0  0.00000000000E+00  0.00000000000E+00  0.39999999674E+01  0.40000000000E+01  0.51100000000E-03 0.  1.
    9000002   -1    0    0    0    0 -0.00000000000E+00 -0.00000000000E+00  0.00000000000E+00  0.93800000000E+00  0.93800000000E+00 0.  1.
         11    1    1    2    0    0 -0.42464258632E-01  0.46249573650E-01  0.12555165738E+01  0.12570856632E+01  0.51100000000E-03 0.  1.
    9000002    1    1    2    0    0  0.30478055973E+00 -0.40678778767E-01  0.65682342883E-01  0.98929476032E+00  0.93800000000E+00 0.  1.
         22    1    1    2    0    0 -0.26231630110E+00 -0.55707948824E-02  0.26788010506E+01  0.26916195765E+01  0.00000000000E+00 0.  1.
</event>
<event>
 5    1  0.7095115E+001  0.1598372E+01  0.7818608E-02  0.3355132E+00
         11   -1    0    0    0    0  0.00000000000E+00  0.00000000000E+00  0.39999999674E+01  0.40000000000E+01  0.51100000000E-03 0. -1.
    9000002   -1    0    0    0    0 -0.00000000000E+00 -0.00000000000E+00  0.00000000000E+00  0.93800000000E+00  0.93800000000E+00 0. -1.
         11    1    1    2    0    0 -0.36586908211E-02 -0.25974675018E-02  0.12052453322E+00  0.12060910863E+00  0.51100000000E-03 0. -1.
    9000002    1    1    2    0    0 -0.35677055792E+00  0.18833409822E+00  0.11091903696E+00  0.10270842207E+01  0.93800000000E+00 0. -1.
         22    1    1    2    0    0  0.36042924875E+00 -0.18573663071E+00  0.37685563972E+01  0.37903066707E+01  0.00000000000E+00 0. -1.
</event>
<event>
 5    1  0.1046643E+002  0.1546225E+01  0.7818608E-02  0.3413880E+00
         11   -1    0    0    0    0  0.00000000000E+00  0.00000000000E+00  0.39999999674E+01  0.40000000000E+01  0.51100000000E-03 0. -1.
    9000002   -1    0    0    0    0 -0.00000000000E+00 -0.00000000000E+00  0.00000000000E+00  0.93800000000E+00  0.93800000000E+00 0. -1.
         11    1    1    2    0    0  0.25339157306E+00 -0.51762679271E-01  0.11931301908E+01  0.12208384732E+01  0.51100000000E-03 0. -1.
    9000002    1    1    2    0    0 -0.21712642039E-01 -0.50798946348E-01  0.41849139918E-01  0.94055692134E+00  0.93800000000E+00 0. -1.
         22    1    1    2    0    0 -0.23167893102E+00  0.10256162562E+00  0.27650206367E+01  0.27766046055E+01  0.00000000000E+00 0. -1.
</event>
<event>
 5    1  0.7095115E+001  0.1597340E+01  0.7818608E-02  0.3356256E+00
         11   -1    0    0    0    0  0.00000000000E+00  0.00000000000E+00  0.39999999674E+01  0.40000000000E+01  0.51100000000E-03 0.  1.
    9000002   -1    0    0    0    0 -0.00000000000E+00 -0.00000000000E+00  0.00000000000E+00  0.93800000000E+00  0.93800000000E+00 0. -1.
         11    1    1    2    0    0  0.11420333533E-01  0.54207095990E-01  0.99886766582E+00  0.10004027730E+01  0.51100000000E-03 0.  1.
    9000002    1    1    2    0    0 -0.11216887426E+00 -0.39725750180E+00  0.11709238073E+00  0.10314795222E+01  0.93800000000E+00 0. -1.
         22    1    1    2    0    0  0.10074854072E+00  0.34305040581E+00  0.28840399208E+01  0.29061177048E+01  0.00000000000E+00 0.  1.
</event>
<event>
 5    1  0.7095115E+001  0.1598201E+01  0.7818608E-02  0.3355319E+00
         11   -1    0    0    0    0  0.00000000000E+00  0.00000000000E+00  0.39999999674E+01  0.40000000000E+01  0.51100000000E-03 0. -1.
    9000002   -1    0    0    0    0 -0.00000000000E+00 -0.00000000000E+00  0.00000000000E+00  0.93800000000E+00  0.93800000000E+00 0. -1.
         11    1    1    2    0    0 -0.12829915872E+00 -0.12252791427E+00  0.13528715522E+01  0.13644542725E+01  0.51100000000E-03 0. -1.
    9000002    1    1    2    0    0  0.26058140460E+00  0.41843335722E+00  0.16746701047E+00  0.10727899806E+01  0.93800000000E+00 0. -1.
         22    1    1    2    0    0 -0.13228224588E+00 -0.29590544295E+00  0.24796614047E+01  0.25007557469E+01  0.00000000000E+00 0. -1.
</event>
<event>
 5    1  0.7095115E+001  0.1595268E+01  0.7818608E-02  0.3358516E+00
         11   -1    0    0    0    0  0.00000000000E+00  0.00000000000E+00  0.39999999674E+01  0.40000000000E+01  0.51100000000E-03 0. -1.
    9000002   -1    0    0    0    0 -0.00000000000E+00 -0.00000000000E+00  0.00000000000E+00  0.93800000000E+00  0.93800000000E+00 0. -1.
         11    1    1    2    0    0  0.28940056980E-03 -0.56479778845E-01  0.95695007904E+00  0.95861554550E+00  0.51100000000E-03 0. -1.
    9000002    1    1    2    0    0 -0.27989612282E+00  0.26178451318E+00  0.10249636766E+00  0.10184411992E+01  0.93800000000E+00 0. -1.
         22    1    1    2    0    0  0.27960672225E+00 -0.20530473433E+00  0.29405535207E+01  0.29609432553E+01  0.00000000000E+00 0. -1.
</event>
<event>
 5    1  0.7095115E+001  0.1599677E+01  0.7818608E-02  0.3353714E+00
         11   -1    0    0    0    0  0.00000000000E+00  0.00000000000E+00  0.39999999674E+01  0.40000000000E+01  0.51100000000E-03 0.  1.
    9000002   -1    0    0    0    0 -0.00000000000E+00 -0.00000000000E+00  0.00000000000E+00  0.93800000000E+00  0.93800000000E+00 0. -1.
         11    1    1    2    0    0 -0.11994902437E+00  0.11014976082E+00  0.13447234741E+01  0.13545487149E+01  0.51100000000E-03 0.  1.
    9000002    1    1    2    0    0  0.34228571889E+00 -0.31506768123E+00  0.14733112037E+00  0.10573446061E+01  0.93800000000E+00 0. -1.
         22    1    1    2    0    0 -0.22233669452E+00  0.20491792041E+00  0.25079453729E+01  0.25261066789E+01  0.00000000000E+00 0.  1.
</event>
<event>
 5    1  0.7095115E+001  0.1599674E+01  0.7818608E-02  0.3353717E+00
         11   -1    0    0    0    0  0.00000000000E+00  0.00000000000E+00  0.39999999674E+01  0.40000000000E+01  0.51100000000E-03 0.  1.
    9000002   -1    0    0    0    0 -0.00000000000E+00 -0.00000000000E+00  0.00000000000E+00  0.93800000000E+00  0.93800000000E+00 0.  1.
         11    1    1    2    0    0  0.10925103299E+00 -0.12744436744E+00  0.13914248573E+01  0.14015139135E+01  0.51100000000E-03 0.  1.
    9000002    1    1    2    0    0 -0.30131727229E+00  0.35787452498E+00  0.14905372881E+00  0.10587385363E+01  0.93800000000E+00 0.  1.
         22    1    1    2    0    0  0.19206623930E+00 -0.23043015754E+00  0.24595213812E+01  0.24777475502E+01  0.00000000000E+00 0.  1.
</event>
<event>
 5    1  0.7095115E+001  0.1599677E+01  0.7818608E-02  0.3353714E+00
         11   -1    0    0    0    0  0.00000000000E+00  0.00000000000E+00  0.39999999674E+01  0.40000000000E+01  0.51100000000E-03 0. -1.
    9000002   -1    0    0    0    0 -0.00000000000E+00 -0.00000000000E+00  0.00000000000E+00  0.93800000000E+00  0.93800000000E+00 0. -1.
         11    1    1    2    0    0  0.13241013291E+00  0.36033047575E-03  0.14518599821E+01  0.14578855380E+01  0.51100000000E-03 0. -1.
    9000002    1    1    2    0    0 -0.35744009333E+00 -0.16421904965E-02  0.85739756982E-01  0.10074529384E+01  0.93800000000E+00 0. -1.
         22    1    1    2    0    0  0.22502996042E+00  0.12818600207E-02  0.24624002283E+01  0.24726615236E+01  0.00000000000E+00 0. -1.
</event>
<event>
 5    1  0.7095115E+001  0.1526119E+01  0.7818608E-02  0.3437674E+00
         11   -1    0    0    0    0  0.00000000000E+00  0.00000000000E+00  0.39999999674E+01  0.40000000000E+01  0.51100000000E-03 0. -1.
    9000002   -1    0    0    0    0 -0.00000000000E+00 -0.00000000000E+00  0.00000000000E+00  0.93800000000E+00  0.93800000000E+00 0.  1.
         11    1    1    2    0    0  0.15161513240E-01 -0.26099419101E+00  0.77524013563E+00  0.81813529947E+00  0.51100000000E-03 0. -1.
    9000002    1    1    2    0    0 -0.14152394942E+00 -0.17067064908E-02  0.69492675503E-01  0.95115990930E+00  0.93800000000E+00 0.  1.
         22    1    1    2    0    0  0.12636243618E+00  0.26270089750E+00  0.31552671562E+01  0.31687047912E+01  0.00000000000E+00 0. -1.
</event>
<event>
 5    1  0.7095115E+001  0.1587481E+01  0.7818608E-02  0.3367064E+00
         11   -1    0    0    0    0  0.00000000000E+00  0.00000000000E+00  0.39999999674E+01  0.40000000000E+01  0.51100000000E-03 0.  1.
    9000002   -1    0    0    0    0 -0.00000000000E+00 -0.00000000000E+00  0.00000000000E+00  0.93800000000E+00  0.93800000000E+00 0.  1.
         11    1    1    2    0    0  0.42541366274E-01 -0.41154549535E-01  0.35250403004E+00  0.35743924953E+00  0.51100000000E-03 0.  1.
    9000002    1    1    2    0    0 -0.20053790658E+00 -0.34422154502E+00  0.11723294703E+00  0.10258125988E+01  0.93800000000E+00 0.  1.
         22    1    1    2    0    0  0.15799654031E+00  0.38537609455E+00  0.35302629903E+01  0.35547481516E+01  0.00000000000E+00 0.  1.
</event>
<event>
 5    1  0.7095115E+001  0.1599654E+01  0.7818608E-02  0.3353739E+00
         11   -1    0    0    0    0  0.00000000000E+00  0.00000000000E+00  0.39999999674E+01  0.40000000000E+01  0.51100000000E-03 0. -1.
    9000002   -1    0    0    0    0 -0.00000000000E+00 -0.00000000000E+00  0.00000000000E+00  0.93800000000E+00  0.93800000000E+00 0. -1.
         11    1    1    2    0    0 -0.11047846467E-01  0.64244185958E-01  0.73289019515E+00  0.73578371116E+00  0.51100000000E-03 0. -1.
    9000002    1    1    2    0    0  0.75249107584E-01 -0.36040477625E+00  0.91096960737E-01  0.10117789715E+01  0.93800000000E+00 0. -1.
         22    1    1    2    0    0 -0.64201261118E-01  0.29616059029E+00  0.31760128115E+01  0.31904373173E+01  0.00000000000E+00 0. -1.
</event>
<event>
 5    1  0.7095115E+001  0.1599618E+01  0.7818608E-02  0.3353778E+00
         11   -1    0    0    0    0  0.00000000000E+00  0.00000000000E+00  0.39999999674E+01  0.40000000000E+01  0.51100000000E-03 0. -1.
    9000002   -1    0    0    0    0 -0.00000000000E+00 -0.00000000000E+00  0.00000000000E+00  0.93800000000E+00  0.93800000000E+00 0. -1.
         11    1    1    2    0    0  0.13453773497E-02 -0.15669781852E-01  0.13591497972E+00  0.13682285970E+00  0.51100000000E-03 0. -1.
    9000002    1    1    2    0    0  0.30999802163E-01  0.38315370688E+00  0.99525750008E-01  0.10185858460E+01  0.93800000000E+00 0. -1.
         22    1    1    2    0    0 -0.32345179513E-01 -0.36748392503E+00  0.37645592376E+01  0.37825912943E+01  0.00000000000E+00 0. -1.
</event>
<event>
 5    1  0.7095115E+001  0.1599672E+01  0.7818608E-02  0.3353719E+00
         11   -1    0    0    0    0  0.00000000000E+00  0.00000000000E+00  0.39999999674E+01  0.40000000000E+01  0.51100000000E-03 0. -1.
    9000002   -1    0    0    0    0 -0.00000000000E+00 -0.00000000000E+00  0.00000000000E+00  0.93800000000E+00  0.93800000000E+00 0. -1.
         11    1    1    2    0    0 -0.19111427434E+00  0.52353138579E-01  0.14603645499E+01  0.14737470600E+01  0.51100000000E-03 0. -1.
    9000002    1    1    2    0    0  0.49739509751E+00 -0.14304164977E+00  0.18392460650E+00  0.10869843869E+01  0.93800000000E+00 0. -1.
         22    1    1    2    0    0 -0.30628082317E+00  0.90688511187E-01  0.23557108110E+01  0.23772685531E+01  0.00000000000E+00 0. -1.
</event>
<event>
 5    1  0.7095115E+001  0.1599675E+01  0.7818608E-02  0.3353716E+00
         11   -1    0    0    0    0  0.00000000000E+00  0.00000000000E+00  0.39999999674E+01  0.40000000000E+01  0.51100000000E-03 0. -1.
    9000002   -1    0    0    0    0 -0.00000000000E+00 -0.00000000000E+00  0.00000000000E+00  0.93800000000E+00  0.93800000000E+00 0.  1.
         11    1    1    2    0    0  0.62964860136E-01  0.26377161342E-02  0.48851018944E+00  0.49255862338E+00  0.51100000000E-03 0. -1.
    9000002    1    1    2    0    0 -0.48609313791E+00 -0.21546388465E-01  0.16171219206E+00  0.10689928057E+01  0.93800000000E+00 0.  1.
         22    1    1    2    0    0  0.42312827777E+00  0.18908672331E-01  0.33497775859E+01  0.33764485709E+01  0.00000000000E+00 0. -1.
</event>
<event>
 5    1  0.7095115E+001  0.1599670E+01  0.7818608E-02  0.3353721E+00
         11   -1    0    0    0    0  0.00000000000E+00  0.00000000000E+00  0.39999999674E+01  0.40000000000E+01  0.51100000000E-03 0.  1.
    9000002   -1    0    0    0    0 -0.00000000000E+00 -0.00000000000E+00  0.00000000000E+00  0.93800000000E+00  0.93800000000E+00 0. -1.
         11    1    1    2    0    0 -0.43008682310E-02  0.93024641824E-01  0.97387509394E+00  0.97831745419E+00  0.51100000000E-03 0.  1.
    9000002    1    1    2    0    0  0.20933349818E-01 -0.38291179639E+00  0.98995236778E-01  0.10181864789E+01  0.93800000000E+00 0. -1.
         22    1    1    2    0    0 -0.16632481587E-01  0.28988715457E+00  0.29271296366E+01  0.29414960669E+01  0.00000000000E+00 0.  1.
</event>
<event>
 5    1  0.7095115E+001  0.1599669E+01  0.7818608E-02  0.3353723E+00
         11   -1    0    0    0    0  0.00000000000E+00  0.00000000000E+00  0.39999999674E+01  0.40000000000E+01  0.51100000000E-03 0. -1.
    9000002   -1    0    0    0    0 -0.00000000000E+00 -0.00000000000E+00  0.00000000000E+00  0.93800000000E+00  0.93800000000E+00 0. -1.
         11    1    1    2    0    0 -0.14476101623E+00 -0.16037422194E+00  0.14121747662E+01  0.14286054299E+01  0.51100000000E-03 0. -1.
    9000002    1    1    2    0    0  0.37856540687E+00  0.42521934289E+00  0.22472231652E+00  0.11200300783E+01  0.93800000000E+00 0. -1.
         22    1    1    2    0    0 -0.23380439064E+00 -0.26484512094E+00  0.23631028847E+01  0.23893644918E+01  0.00000000000E+00 0. -1.
</event>
<event>
 5    1  0.8558467E+001  0.1599568E+01  0.7818608E-02  0.3353832E+00
         11   -1    0    0    0    0  0.00000000000E+00  0.00000000000E+00  0.39999999674E+01  0.40000000000E+01  0.51100000000E-03 0. -1.
    9000002   -1    0    0    0    0 -0.00000000000E+00 -0.00000000000E+00  0.00000000000E+00  0.93800000000E+00  0.93800000000E+00 0. -1.
         11    1    1    2    0    0 -0.55930848006E-01  0.83473311725E-01  0.11211631339E+01  0.11256567361E+01  0.51100000000E-03 0. -1.
    9000002    1    1    2    0    0  0.22767909900E+00 -0.26871284925E+00  0.83280791474E-01  0.10053974626E+01  0.93800000000E+00 0. -1.
         22    1    1    2    0    0 -0.17174825099E+00  0.18523953753E+00  0.27955560420E+01  0.28069458013E+01  0.00000000000E+00 0. -1.
</event>
<event>
 5    1  0.7095115E+001  0.1599333E+01  0.7818608E-02  0.3354088E+00
         11   -1    0    0    0    0  0.00000000000E+00  0.00000000000E+00  0.39999999674E+01  0.40000000000E+01  0.51100000000E-03 0. -1.
    9000002   -1    0    0    0    0 -0.00000000000E+00 -0.00000000000E+00  0.00000000000E+00  0.93800000000E+00  0.93800000000E+00 0. -1.
         11    1    1    2    0    0 -0.23393950128E+00  0.10320048040E-01  0.14683830987E+01  0.14869375842E+01  0.51100000000E-03 0. -1.
    9000002    1    1    2    0    0  0.55774409654E+00 -0.60829137156E-01  0.21820902377E+00  0.11145572391E+01  0.93800000000E+00 0. -1.
         22    1    1    2    0    0 -0.32380459526E+00  0.50509089116E-01  0.23134078449E+01  0.23365051768E+01  0.00000000000E+00 0. -1.
</event>
<event>
 5    1  0.7095115E+001  0.1599406E+01  0.7818608E-02  0.3354008E+00
         11   -1    0    0    0    0  0.00000000000E+00  0.00000000000E+00  0.39999999674E+01  0.40000000000E+01  0.51100000000E-03 0.  1.
    9000002   -1    0    0    0    0 -0.00000000000E+00 -0.00000000000E+00  0.00000000000E+00  0.93800000000E+00  0.93800000000E+00 0.  1.
         11    1    1    2    0    0 -0.48341339609E-01 -0.64291836462E-01  0.10828159219E+01  0.10857996625E+01  0.51100000000E-03 0.  1.
    9000002    1    1    2    0    0  0.22079234513E+00  0.27735667505E+00  0.84527807722E-01  0.10063125435E+01  0.93800000000E+00 0.  1.
         22    1    1    2    0    0 -0.17245100552E+00 -0.21306483859E+00  0.28326562377E+01  0.28458877940E+01  0.00000000000E+00 0.  1.
</event>
<event>
 5    1  0.7095115E+001  0.1595028E+01  0.7818608E-02  0.3358777E+00
         11   -1    0    0    0    0  0.00000000000E+00  0.00000000000E+00  0.39999999674E+01  0.40000000000E+01  0.51100000000E-03 0.  1.
    9000002   -1    0    0    0    0 -0.00000000000E+00 -0.00000000000E+00  0.00000000000E+00  0.93800000000E+00  0.93800000000E+00 0.  1.
         11    1    1    2    0    0  0.44853945597E-02 -0.27322922001E-01  0.84639276555E-01  0.89054641023E-01  0.51100000000E-03 0.  1.
    9000002    1    1    2    0    0  0.35132543793E+00  0.28590703397E+00  0.14344643522E+00  0.10514719564E+01  0.93800000000E+00 0.  1.
         22    1    1    2    0    0 -0.35581083249E+00 -0.25858411197E+00  0.37719142556E+01  0.37974734025E+01  0.00000000000E+00 0.  1.
</event>
<event>
 5    1  0.7095115E+001  0.1663781E+01  0.7818608E-02  0.3286921E+00
         11   -1    0    0    0    0  0.00000000000E+00  0.00000000000E+00  0.39999999674E+01  0.40000000000E+01  0.51100000000E-03 0. -1.
    9000002   -1    0    0    0    0 -0.00000000000E+00 -0.00000000000E+00  0.00000000000E+00  0.93800000000E+00  0.93800000000E+00 0. -1.
         11    1    1    2    0    0 -0.17358248317E+00  0.55462688922E-01 -0.83660080136E-01  0.20051498312E+00  0.51100000000E-03 0. -1.
    9000002    1    1    2    0    0 -0.92640386898E-01 -0.31399843868E+00  0.45990140526E+00  0.10947742066E+01  0.93800000000E+00 0. -1.
         22    1    1    2    0    0  0.26622287007E+00  0.25853574975E+00  0.36237586422E+01  0.36427108103E+01  0.00000000000E+00 0. -1.
</event>
<event>
 5    1  0.7095115E+001  0.1599211E+01  0.7818608E-02  0.3354220E+00
         11   -1    0    0    0    0  0.00000000000E+00  0.00000000000E+00  0.39999999674E+01  0.40000000000E+01  0.51100000000E-03 0. -1.
    9000002   -1    0    0    0    0 -0.00000000000E+00 -0.00000000000E+00  0.00000000000E+00  0.93800000000E+00  0.93800000000E+00 0.  1.
         11    1    1    2    0    0 -0.46866151025E-02 -0.16047747186E+00  0.13390916071E+01  0.13486814215E+01  0.51100000000E-03 0. -1.
    9000002    1    1    2    0    0 -0.53753619479E-01  0.48301192691E+00  0.16172654282E+00  0.10687326363E+01  0.93800000000E+00 0.  1.
         22    1    1    2    0    0  0.58440234582E-01 -0.32253445505E+00  0.24991818174E+01  0.25205859423E+01  0.00000000000E+00 0.  1.
</event>
<event>
 5    1  0.7095115E+001  0.1599436E+01  0.7818608E-02  0.3353975E+00
         11   -1    0    0    0    0  0.00000000000E+00  0.00000000000E+00  0.39999999674E+01  0.40000000000E+01  0.51100000000E-03 0.  1.
    9000002   -1    0    0    0    0 -0.00000000000E+00 -0.00000000000E+00  0.00000000000E+00  0.93800000000E+00  0.93800000000E+00 0.  1.
         11    1    1    2    0    0  0.17182411734E-01  0.12279628850E-02  0.21115267176E+00  0.21185479715E+00  0.51100000000E-03 0.  1.
    9000002    1    1    2    0    0 -0.37816334950E+00  0.12060431216E+00  0.10643066445E+00  0.10240724610E+01  0.93800000000E+00 0.  1.
         22    1    1    2    0    0  0.36098093776E+00 -0.12183227504E+00  0.36824166311E+01  0.37020727419E+01  0.00000000000E+00 0.  1.
</event>
<event>
 5    1  0.7095115E+001  0.1598811E+01  0.7818608E-02  0.3354655E+00
         11   -1    0    0    0    0  0.00000000000E+00  0.00000000000E+00  0.39999999674E+01  0.40000000000E+01  0.51100000000E-03 0.  1.
    9000002   -1    0    0    0    0 -0.00000000000E+00 -0.00000000000E+00  0.00000000000E+00  0.93800000000E+00  0.93800000000E+00 0.  1.
         11    1    1    2    0    0 -0.73020346284E-01 -0.92848431089E-01  0.93067406651E+00  0.93814033136E+00  0.51100000000E-03 0.  1.
    9000002    1    1    2    0    0  0.28610193344E+00  0.26341936407E+00  0.10258965348E+00  0.10205942949E+01  0.93800000000E+00 0.  1.
         22    1    1    2    0    0 -0.21308158716E+00 -0.17057093298E+00  0.29667362474E+01  0.29792653738E+01  0.00000000000E+00 0. -1.
</event>
<event>
 5    1  0.7095115E+001  0.1599653E+01  0.7818608E-02  0.3353740E+00
         11   -1    0    0    0    0  0.00000000000E+00  0.00000000000E+00  0.39999999674E+01  0.40000000000E+01  0.51100000000E-03 0.  1.
    9000002   -1    0    0    0    0 -0.00000000000E+00 -0.00000000000E+00  0.00000000000E+00  0.93800000000E+00  0.93800000000E+00 0. -1.
         11    1    1    2    0    0 -0.54611643366E-01  0.36189373717E-01  0.66818330539E+00  0.67138758782E+00  0.51100000000E-03 0.  1.
    9000002    1    1    2    0    0  0.34387907476E+00 -0.20762977369E+00  0.10888655815E+00  0.10261886881E+01  0.93800000000E+00 0. -1.
         22    1    1    2    0    0 -0.28926743140E+00  0.17144039997E+00  0.32229301038E+01  0.32404237241E+01  0.00000000000E+00 0.  1.
</event>
<event>
 5    1  0.7095115E+001  0.1598379E+01  0.7818608E-02  0.3355125E+00
         11   -1    0    0    0    0  0.00000000000E+00  0.00000000000E+00  0.39999999674E+01  0.40000000000E+01  0.51100000000E-03 0.  1.
    9000002   -1    0    0    0    0 -0.00000000000E+00 -0.00000000000E+00  0.00000000000E+00  0.93800000000E+00  0.93800000000E+00 0.  1.
         11    1    1    2    0    0 -0.40596809820E-02  0.17960261851E-01  0.16264958018E-01  0.24573603638E-01  0.51100000000E-03 0.  1.
    9000002    1    1    2    0    0  0.83786468371E+00 -0.98459216258E+00  0.23094352310E+01  0.28079839816E+01  0.93800000000E+00 0.  1.
         22    1    1    2    0    0 -0.83380500272E+00  0.96663190073E+00  0.16742997784E+01  0.21054424148E+01  0.00000000000E+00 0.  1.
</event>
<event>
 5    1  0.7095115E+001  0.1577857E+01  0.7818608E-02  0.3377753E+00
         11   -1    0    0    0    0  0.00000000000E+00  0.00000000000E+00  0.39999999674E+01  0.40000000000E+01  0.51100000000E-03 0. -1.
    9000002   -1    0    0    0    0 -0.00000000000E+00 -0.00000000000E+00  0.00000000000E+00  0.93800000000E+00  0.93800000000E+00 0. -1.
         11    1    1    2    0    0  0.10921051550E+00  0.72615856619E-01  0.32026016259E+00  0.34607344913E+00  0.51100000000E-03 0. -1.
    9000002    1    1    2    0    0 -0.20504157158E+00 -0.38606382444E+00  0.14844260712E+00  0.10454503959E+01  0.93800000000E+00 0. -1.
         22    1    1    2    0    0  0.95831056081E-01  0.31344796783E+00  0.35312971976E+01  0.35464761550E+01  0.00000000000E+00 0. -1.
</event>
<event>
 5    1  0.7095115E+001  0.1448508E+01  0.7818608E-02  0.3536207E+00
         11   -1    0    0    0    0  0.00000000000E+00  0.00000000000E+00  0.39999999674E+01  0.40000000000E+01  0.51100000000E-03 0. -1.
    9000002   -1    0    0    0    0 -0.00000000000E+00 -0.00000000000E+00  0.00000000000E+00  0.93800000000E+00  0.93800000000E+00 0. -1.
         11    1    1    2    0    0 -0.20894477023E+00 -0.45193923105E-02  0.19008883183E+00  0.28251082638E+00  0.51100000000E-03 0. -1.
    9000002    1    1    2    0    0 -0.23955333770E+00  0.97847676744E-01  0.17111493893E+00  0.98796978282E+00  0.93800000000E+00 0. -1.
         22    1    1    2    0    0  0.44849810793E+00 -0.93328284434E-01  0.36387961966E+01  0.36675193908E+01  0.00000000000E+00 0. -1.
</event>
<event>
 5    1  0.7095115E+001  0.1599631E+01  0.7818608E-02  0.3353765E+00
         11   -1    0    0    0    0  0.00000000000E+00  0.00000000000E+00  0.39999999674E+01  0.40000000000E+01  0.51100000000E-03 0.  1.
    9000002   -1    0    0    0    0 -0.00000000000E+00 -0.00000000000E+00  0.00000000000E+00  0.93800000000E+00  0.93800000000E+00 0.  1.
         11    1    1    2    0    0 -0.25871709965E-01  0.29333495905E-01  0.30901005363E+00  0.31147596011E+00  0.51100000000E-03 0.  1.
    9000002    1    1    2    0    0  0.33479718572E+00 -0.41408229739E+00  0.19525748169E+00  0.10961399494E+01  0.93800000000E+00 0.  1.
         22    1    1    2    0    0 -0.30892547575E+00  0.38474880149E+00  0.34957324320E+01  0.35303840905E+01  0.00000000000E+00 0.  1.
</event>
<event>
 5    1  0.7095115E+001  0.1599359E+01  0.7818608E-02  0.3354060E+00
         11   -1    0    0    0    0  0.00000000000E+00  0.00000000000E+00  0.39999999674E+01  0.40000000000E+01  0.51100000000E-03 0. -1.
    9000002   -1    0    0    0    0 -0.00000000000E+00 -0.00000000000E+00  0.00000000000E+00  0.93800000000E+00  0.93800000000E+00 0. -1.
         11    1    1    2    0    0 -0.72562074635E-02  0.31147594715E-01  0.25248109092E+00  0.25449909155E+00  0.51100000000E-03 0. -1.
    9000002    1    1    2    0    0  0.12917723100E+00 -0.61805102042E+00  0.28042562618E+00  0.11649705373E+01  0.93800000000E+00 0. -1.
         22    1    1    2    0    0 -0.12192102354E+00  0.58690342571E+00  0.34670932503E+01  0.35185303712E+01  0.00000000000E+00 0. -1.
</event>
<event>
 5    1  0.7095115E+001  0.1591103E+01  0.7818608E-02  0.3363076E+00
         11   -1    0    0    0    0  0.00000000000E+00  0.00000000000E+00  0.39999999674E+01  0.40000000000E+01  0.51100000000E-03 0. -1.
    9000002   -1    0    0    0    0 -0.00000000000E+00 -0.00000000000E+00  0.00000000000E+00  0.93800000000E+00  0.93800000000E+00 0. -1.
         11    1    1    2    0    0  0.23758605171E-01  0.67881596852E-02  0.43063867804E+00  0.43134728767E+00  0.51100000000E-03 0. -1.
    9000002    1    1    2    0    0  0.31410418788E+00  0.28359026799E+00  0.12845827019E+00  0.10370296081E+01  0.93800000000E+00 0. -1.
         22    1    1    2    0    0 -0.33786279305E+00 -0.29037842768E+00  0.34409030191E+01  0.34696231042E+01  0.00000000000E+00 0. -1.
</event>
<event>
 5    1  0.7095115E+001  0.1599554E+01  0.7818608E-02  0.3353848E+00
         11   -1    0    0    0    0  0.00000000000E+00  0.00000000000E+00  0.39999999674E+01  0.40000000000E+01  0.51100000000E-03 0. -1.
    9000002   -1    0    0    0    0 -0.00000000000E+00 -0.00000000000E+00  0.00000000000E+00  0.93800000000E+00  0.93800000000E+00 0.  1.
         11    1    1    2    0    0 -0.40948675707E-01  0.14734922974E+00  0.14797562253E+01  0.14876381741E+01  0.51100000000E-03 0. -1.
    9000002    1    1    2    0    0  0.13133697624E+00 -0.36341729540E+00  0.10064979731E+00  0.10194586375E+01  0.93800000000E+00 0.  1.
         22    1    1    2    0    0 -0.90388300529E-01  0.21606806566E+00  0.24195939448E+01  0.24309031884E+01  0.00000000000E+00 0. -1.
</event>
<event>
 5    1  0.7095115E+001  0.1548571E+01  0.7818608E-02  0.3411147E+00
         11   -1    0    0    0    0  0.00000000000E+00  0.00000000000E+00  0.39999999674E+01  0.40000000000E+01  0.51100000000E-03 0. -1.
    9000002   -1    0    0    0    0 -0.00000000000E+00 -0.00000000000E+00  0.00000000000E+00  0.93800000000E+00  0.93800000000E+00 0. -1.
         11    1    1    2    0    0  0.99852056373E-01 -0.21550929874E+00  0.87646876145E+00  0.90808173747E+00  0.51100000000E-03 0. -1.
    9000002    1    1    2    0    0 -0.22587698614E+00 -0.29778419072E-01  0.74175494029E-01  0.96811836623E+00  0.93800000000E+00 0. -1.
         22    1    1    2    0    0  0.12602492977E+00  0.24528771781E+00  0.30493557119E+01  0.30617998963E+01  0.00000000000E+00 0.  1.
</event>
<event>
 5    1  0.7095115E+001  0.1599667E+01  0.7818608E-02  0.3353725E+00
         11   -1    0    0    0    0  0.00000000000E+00  0.00000000000E+00  0.39999999674E+01  0.40000000000E+01  0.51100000000E-03 0. -1.
    9000002   -1    0    0    0    0 -0.00000000000E+00 -0.00000000000E+00  0.00000000000E+00  0.93800000000E+00  0.93800000000E+00 0. -1.
         11    1    1    2    0    0 -0.28148615544E-01 -0.41601363587E-01  0.27073873721E+00  0.27535929793E+00  0.51100000000E-03 0. -1.
    9000002    1    1    2    0    0  0.36196000361E+00  0.55234302031E+00  0.30851867153E+00  0.11879080886E+01  0.93800000000E+00 0. -1.
         22    1    1    2    0    0 -0.33381138806E+00 -0.51074165673E+00  0.34207425586E+01  0.34747326135E+01  0.00000000000E+00 0. -1.
</event>
<event>
 5    1  0.7095115E+001  0.1544132E+01  0.7818608E-02  0.3416326E+00
         11   -1    0    0    0    0  0.00000000000E+00  0.00000000000E+00  0.39999999674E+01  0.40000000000E+01  0.51100000000E-03 0. -1.
    9000002   -1    0    0    0    0 -0.00000000000E+00 -0.00000000000E+00  0.00000000000E+00  0.93800000000E+00  0.93800000000E+00 0. -1.
         11    1    1    2    0    0  0.19287748193E+00 -0.17876751292E+00  0.13948424616E+01  0.14194172398E+01  0.51100000000E-03 0. -1.
    9000002    1    1    2    0    0 -0.58852652251E-03 -0.34055526087E-01  0.42137547557E-01  0.93956356791E+00  0.93800000000E+00 0. -1.
         22    1    1    2    0    0 -0.19228895541E+00  0.21282303901E+00  0.25630199582E+01  0.25790191923E+01  0.00000000000E+00 0. -1.
</event>
<event>
 5    1  0.7095115E+001  0.1599506E+01  0.7818608E-02  0.3353900E+00
         11   -1    0    0    0    0  0.00000000000E+00  0.00000000000E+00  0.39999999674E+01  0.40000000000E+01  0.51100000000E-03 0.  1.
    9000002   -1    0    0    0    0 -0.00000000000E+00 -0.00000000000E+00  0.00000000000E+00  0.93800000000E+00  0.93800000000E+00 0. -1.
         11    1    1    2    0    0 -0.17775069517E+00  0.24601992189E-01  0.10206643887E+01  0.10363187845E+01  0.51100000000E-03 0.  1.
    9000002    1    1    2    0    0  0.62778771323E+00 -0.42534116741E-01  0.27820455748E+00  0.11632576412E+01  0.93800000000E+00 0. -1.
         22    1    1    2    0    0 -0.45003701806E+00  0.17932124552E-01  0.27011310212E+01  0.27384235743E+01  0.00000000000E+00 0.  1.
</event>
<event>
 5    1  0.7095115E+001  0.1598399E+01  0.7818608E-02  0.3355103E+00
         11   -1    0    0    0    0  0.00000000000E+00  0.00000000000E+00  0.39999999674E+01  0.40000000000E+01  0.51100000000E-03 0. -1.
    9000002   -1    0    0    0    0 -0.00000000000E+00 -0.00000000000E+00  0.00000000000E+00  0.93800000000E+00  0.93800000000E+00 0. -1.
         11    1    1    2    0    0 -0.22203068254E+00  0.90330243172E-01  0.13414363745E+01  0.13626844773E+01  0.51100000000E-03 0. -1.
    9000002    1    1    2    0    0  0.50998999096E+00 -0.28220894398E+00  0.23742964946E+00  0.11295789115E+01  0.93800000000E+00 0. -1.
         22    1    1    2    0    0 -0.28795930841E+00  0.19187870081E+00  0.24211339434E+01  0.24457366111E+01  0.00000000000E+00 0. -1.
</event>
<event>
 5    1  0.7095115E+001  0.1599676E+01  0.7818608E-02  0.3353715E+00
         11   -1    0    0    0    0  0.00000000000E+00  0.00000000000E+00  0.39999999674E+01  0.40000000000E+01  0.51100000000E-03 0. -1.
    9000002   -1    0    0    0    0 -0.00000000000E+00 -0.00000000000E+00  0.00000000000E+00  0.93800000000E+00  0.93800000000E+00 0.  1.
         11    1    1    2    0    0 -0.92206552958E-01 -0.77468619989E-01  0.12558495355E+01  0.12616107769E+01  0.51100000000E-03 0. -1.
    9000002    1    1    2    0    0  0.28335446653E+00  0.24022944251E+00  0.92758358521E-01  0.10131377260E+01  0.93800000000E+00 0.  1.
         22    1    1    2    0    0 -0.19114791357E+00 -0.16276082252E+00  0.26513920734E+01  0.26632514971E+01  0.00000000000E+00 0. -1.
</event>
<event>
 5    1  0.7095115E+001  0.1599677E+01  0.7818608E-02  0.3353714E+00
         11   -1    0    0    0    0  0.00000000000E+00  0.00000000000E+00  0.39999999674E+01  0.40000000000E+01  0.51100000000E-03 0.  1.
    9000002   -1    0    0    0    0 -0.00000000000E+00 -0.00000000000E+00  0.00000000000E+00  0.93800000000E+00  0.93800000000E+00 0.  1.
         11    1    1    2    0    0  0.10405197669E+00  0.84122203791E-01  0.97315516782E+00  0.98231084734E+00  0.51100000000E-03 0.  1.
    9000002    1    1    2    0    0 -0.40536659440E+00 -0.32957915460E+00  0.18757160220E+00  0.10899410998E+01  0.93800000000E+00 0.  1.
         22    1    1    2    0    0  0.30131461772E+00  0.24545695080E+00  0.28392731973E+01  0.28657480529E+01  0.00000000000E+00 0.  1.
</event>
<event>
 5    1  0.7095115E+001  0.1599092E+01  0.7818608E-02  0.3354350E+00
         11   -1    0    0    0    0  0.00000000000E+00  0.00000000000E+00  0.39999999674E+01  0.40000000000E+01  0.51100000000E-03 0.  1.
    9000002   -1    0    0    0    0 -0.00000000000E+00 -0.00000000000E+00  0.00000000000E+00  0.93800000000E+00  0.93800000000E+00 0.  1.
         11    1    1    2    0    0 -0.71694941116E-01 -0.14380776359E+00  0.10525151665E+01  0.10647108876E+01  0.51100000000E-03 0.  1.
    9000002    1    1    2    0    0  0.26526478235E+00  0.42772184222E+00  0.17403134451E+00  0.10786298197E+01  0.93800000000E+00 0.  1.
         22    1    1    2    0    0 -0.19356984124E+00 -0.28391407863E+00  0.27734534564E+01  0.27946592927E+01  0.00000000000E+00 0.  1.
</event>
<event>
 5    1  0.7095115E+001  0.1599674E+01  0.7818608E-02  0.3353717E+00
         11   -1    0    0    0    0  0.00000000000E+00  0.00000000000E+00  0.39999999674E+01  0.40000000000E+01  0.51100000000E-03 0. -1.
    9000002   -1    0    0    0    0 -0.00000000000E+00 -0.00000000000E+00  0.00000000000E+00  0.93800000000E+00  0.93800000000E+00 0.  1.
         11    1    1    2    0    0 -0.85466852900E-02 -0.27122225451E-01  0.21398675302E+00  0.21586860015E+00  0.51100000000E-03 0. -1.
    9000002    1    1    2    0    0  0.13765802777E+00  0.48719981242E+00  0.17565006040E+00  0.10802825249E+01  0.93800000000E+00 0.  1.
         22    1    1    2    0    0 -0.12911134248E+00 -0.46007758697E+00  0.36103631539E+01  0.36418488750E+01  0.00000000000E+00 0. -1.
</event>
<event>
 5    1  0.7095115E+001  0.1533291E+01  0.7818608E-02  0.3429110E+00
         11   -1    0    0    0    0  0.00000000000E+00  0.00000000000E+00  0.39999999674E+01  0.40000000000E+01  0.51100000000E-03 0.  1.
    9000002   -1    0    0    0    0 -0.00000000000E+00 -0.00000000000E+00  0.00000000000E+00  0.93800000000E+00  0.93800000000E+00 0.  1.
         11    1    1    2    0    0 -0.27808194450E-01 -0.99896941183E-01  0.11146245332E+00  0.15223939752E+00  0.51100000000E-03 0.  1.
    9000002    1    1    2    0    0 -0.16358802412E+00 -0.19802725428E+00  0.96592678336E-01  0.97731774801E+00  0.93800000000E+00 0.  1.
         22    1    1    2    0    0  0.19139621857E+00  0.29792419546E+00  0.37919448357E+01  0.38084428545E+01  0.00000000000E+00 0.  1.
</event>
<event>
 5    1  0.7095115E+001  0.1599676E+01  0.7818608E-02  0.3353715E+00
         11   -1    0    0    0    0  0.00000000000E+00  0.00000000000E+00  0.39999999674E+01  0.40000000000E+01  0.51100000000E-03 0. -1.
    9000002   -1    0    0    0    0 -0.00000000000E+00 -0.00000000000E+00  0.00000000000E+00  0.93800000000E+00  0.93800000000E+00 0. -1.
         11    1    1    2    0    0 -0.10690897168E+00  0.11528487926E+00  0.12378038228E+01  0.12477494526E+01  0.51100000000E-03 0. -1.
    9000002    1    1    2    0    0  0.32788337240E+00 -0.35717070386E+00  0.16052431981E+00  0.10680311207E+01  0.93800000000E+00 0. -1.
         22    1    1    2    0    0 -0.22097440072E+00  0.24188582460E+00  0.26016718248E+01  0.26222194267E+01  0.00000000000E+00 0. -1.
</event>
<event>
 5    1  0.7095115E+001  0.1599635E+01  0.7818608E-02  0.3353760E+00
         11   -1    0    0    0    0  0.00000000000E+00  0.00000000000E+00  0.39999999674E+01  0.40000000000E+01  0.51100000000E-03 0. -1.
    9000002   -1    0    0    0    0 -0.00000000000E+00 -0.00000000000E+00  0.00000000000E+00  0.93800000000E+00  0.93800000000E+00 0.  1.
         11    1    1    2    0    0 -0.32068198060E-01 -0.23670472923E-02  0.23422704770E+00  0.23642449796E+00  0.51100000000E-03 0. -1.
    9000002    1    1    2    0    0  0.51524218729E+00  0.98662649077E-01  0.18923886618E+00  0.10912672351E+01  0.93800000000E+00 0.  1.
         22    1    1    2    0    0 -0.48317398923E+00 -0.96295601784E-01  0.35765340535E+01  0.36103082670E+01  0.00000000000E+00 0. -1.
</event>
<event>
 5    1  0.7095115E+001  0.1599677E+01  0.7818608E-02  0.3353714E+00
         11   -1    0    0    0    0  0.00000000000E+00  0.00000000000E+00  0.39999999674E+01  0.40000000000E+01  0.51100000000E-03 0.  1.
    9000002   -1    0    0    0    0 -0.00000000000E+00 -0.00000000000E+00  0.00000000000E+00  0.93800000000E+00  0.93800000000E+00 0. -1.
         11    1    1    2    0    0 -0.13729561570E+00  0.96872586650E-02  0.14753946187E+01  0.14818007528E+01  0.51100000000E-03 0.  1.
    9000002    1    1    2    0    0  0.36397778054E+00 -0.24645213295E-01  0.89385799176E-01  0.10104063699E+01  0.93800000000E+00 0. -1.
         22    1    1    2    0    0 -0.22668216484E+00  0.14957954630E-01  0.24352195495E+01  0.24457928772E+01  0.00000000000E+00 0.  1.
</event>
<event>
 5    1  0.7095115E+001  0.1599593E+01  0.7818608E-02  0.3353805E+00
         11   -1    0    0    0    0  0.00000000000E+00  0.00000000000E+00  0.39999999674E+01  0.40000000000E+01  0.51100000000E-03 0. -1.
    9000002   -1    0    0    0    0 -0.00000000000E+00 -0.00000000000E+00  0.00000000000E+00  0.93800000000E+00  0.93800000000E+00 0. -1.
         11    1    1    2    0    0 -0.11738754668E+00 -0.61859326852E-01  0.78797532913E+00  0.79906932920E+00  0.51100000000E-03 0. -1.
    9000002    1    1    2    0    0  0.51638454003E+00  0.29039356383E+00  0.24457027762E+00  0.11360633943E+01  0.93800000000E+00 0. -1.
         22    1    1    2    0    0 -0.39899699335E+00 -0.22853423698E+00  0.29674543606E+01  0.30028672765E+01  0.00000000000E+00 0. -1.
</event>
<event>
 5    1  0.7095115E+001  0.1593668E+01  0.7818608E-02  0.3360265E+00
         11   -1    0    0    0    0  0.00000000000E+00  0.00000000000E+00  0.39999999674E+01  0.40000000000E+01  0.51100000000E-03 0.  1.
    9000002   -1    0    0    0    0 -0.00000000000E+00 -0.00000000000E+00  0.00000000000E+00  0.93800000000E+00  0.93800000000E+00 0.  1.
         11    1    1    2    0    0 -0.10415597858E-01 -0.14008243296E+00  0.95170970616E+00  0.96202037329E+00  0.51100000000E-03 0.  1.
    9000002    1    1    2    0    0  0.22568849709E+00  0.30073471913E+00  0.10001323762E+00  0.10154916626E+01  0.93800000000E+00 0.  1.
         22    1    1    2    0    0 -0.21527289923E+00 -0.16065228617E+00  0.29482770236E+01  0.29604879642E+01  0.00000000000E+00 0.  1.
</event>
<event>
 5    1  0.7095115E+001  0.1599513E+01  0.7818608E-02  0.3353892E+00
         11   -1    0    0    0    0  0.00000000000E+00  0.00000000000E+00  0.39999999674E+01  0.40000000000E+01  0.51100000000E-03 0.  1.
    9000002   -1    0    0    0    0 -0.00000000000E+00 -0.00000000000E+00  0.00000000000E+00  0.93800000000E+00  0.93800000000E+00 0.  1.
         11    1    1    2    0    0  0.10038616118E+00 -0.27415915241E-01  0.10455294375E+01  0.10506955218E+01  0.51100000000E-03 0.  1.
    9000002    1    1    2    0    0 -0.33643070970E+00  0.13528260493E+00  0.88421347402E-01  0.10095292667E+01  0.93800000000E+00 0.  1.
         22    1    1    2    0    0  0.23604454851E+00 -0.10786668969E+00  0.28660491825E+01  0.28777752115E+01  0.00000000000E+00 0.  1.
</event>
<event>
 5    1  0.7095115E+001  0.1599677E+01  0.7818608E-02  0.3353714E+00
         11   -1    0    0    0    0  0.00000000000E+00  0.00000000000E+00  0.39999999674E+01  0.40000000000E+01  0.51100000000E-03 0. -1.
    9000002   -1    0    0    0    0 -0.00000000000E+00 -0.00000000000E+00  0.00000000000E+00  0.93800000000E+00  0.93800000000E+00 0. -1.
         11    1    1    2    0    0 -0.49698222061E-01 -0.13314797507E+00  0.14047408548E+01  0.14119119756E+01  0.51100000000E-03 0. -1.
    9000002    1    1    2    0    0  0.13851388137E+00  0.36951474385E+00  0.10496928089E+00  0.10230297118E+01  0.93800000000E+00 0. -1.
         22    1    1    2    0    0 -0.88815659309E-01 -0.23636676878E+00  0.24902898317E+01  0.25030583126E+01  0.00000000000E+00 0. -1.
</event>
<event>
 5    1  0.7095115E+001  0.1599673E+01  0.7818608E-02  0.3353719E+00
         11   -1    0    0    0    0  0.00000000000E+00  0.00000000000E+00  0.39999999674E+01  0.40000000000E+01  0.51100000000E-03 0. -1.
    9000002   -1    0    0    0    0 -0.00000000000E+00 -0.00000000000E+00  0.00000000000E+00  0.93800000000E+00  0.93800000000E+00 0. -1.
         11    1    1    2    0    0 -0.91287806300E-01 -0.37120668177E-01  0.78579842519E+00  0.79195380783E+00  0.51100000000E-03 0. -1.
    9000002    1    1    2    0    0  0.44432456724E+00  0.17197040041E+00  0.15480152611E+00  0.10633934606E+01  0.93800000000E+00 0. -1.
         22    1    1    2    0    0 -0.35303676094E+00 -0.13484973223E+00  0.30594000161E+01  0.30826527315E+01  0.00000000000E+00 0.  1.
</event>
<event>
 5    1  0.7095115E+001  0.1536491E+01  0.7818608E-02  0.3425317E+00
         11   -1    0    0    0    0  0.00000000000E+00  0.00000000000E+00  0.39999999674E+01  0.40000000000E+01  0.51100000000E-03 0.  1.
    9000002   -1    0    0    0    0 -0.00000000000E+00 -0.00000000000E+00  0.00000000000E+00  0.93800000000E+00  0.93800000000E+00 0. -1.
         11    1    1    2    0    0 -0.14661486502E+00 -0.24246551045E-01  0.32940911432E+00  0.36137852676E+00  0.51100000000E-03 0.  1.
    9000002    1    1    2    0    0 -0.27442192012E+00  0.10407813993E+00  0.10846589830E+00  0.98881166081E+00  0.93800000000E+00 0. -1.
         22    1    1    2    0    0  0.42103678514E+00 -0.79831588889E-01  0.35621249547E+01  0.35878098124E+01  0.00000000000E+00 0.  1.
</event>
<event>
 5    1  0.7095115E+001  0.1599676E+01  0.7818608E-02  0.3353716E+00
         11   -1    0    0    0    0  0.00000000000E+00  0.00000000000E+00  0.39999999674E+01  0.40000000000E+01  0.51100000000E-03 0.  1.
    9000002   -1    0    0    0    0 -0.00000000000E+00 -0.00000000000E+00  0.00000000000E+00  0.93800000000E+00  0.93800000000E+00 0. -1.
         11    1    1    2    0    0 -0.16231213191E-01 -0.97391898604E-02  0.20957132636E+00  0.21042506043E+00  0.51100000000E-03 0.  1.
    9000002    1    1    2    0    0  0.31033666067E+00  0.17697524451E+00  0.85647068382E-01  0.10073770399E+01  0.93800000000E+00 0. -1.
         22    1    1    2    0    0 -0.29410544748E+00 -0.16723605465E+00  0.37047815726E+01  0.37201978997E+01  0.00000000000E+00 0.  1.
</event>
<event>
 5    1  0.7095115E+001  0.1595978E+01  0.7818608E-02  0.3357741E+00
         11   -1    0    0    0    0  0.00000000000E+00  0.00000000000E+00  0.39999999674E+01  0.40000000000E+01  0.51100000000E-03 0. -1.
    9000002   -1    0    0    0    0 -0.00000000000E+00 -0.00000000000E+00  0.00000000000E+00  0.93800000000E+00  0.93800000000E+00 0. -1.
         11    1    1    2    0    0  0.31026594780E-01  0.14386107927E+00  0.12839132088E+01  0.12923204125E+01  0.51100000000E-03 0. -1.
    9000002    1    1    2    0    0  0.11033422727E+00 -0.39408007515E+00  0.11620404638E+00  0.10299612263E+01  0.93800000000E+00 0. -1.
         22    1    1    2    0    0 -0.14136082205E+00  0.25021899588E+00  0.25998827122E+01  0.26157183612E+01  0.00000000000E+00 0. -1.
</event>
<event>
 5    1  0.7095115E+001  0.1599643E+01  0.7818608E-02  0.3353750E+00
         11   -1    0    0    0    0  0.00000000000E+00  0.00000000000E+00  0.39999999674E+01  0.40000000000E+01  0.51100000000E-03 0.  1.
    9000002   -1    0    0    0    0 -0.00000000000E+00 -0.00000000000E+00  0.00000000000E+00  0.93800000000E+00  0.93800000000E+00 0.  1.
         11    1    1    2    0    0  0.17973061293E-02 -0.50822496617E-01  0.57805260606E+00  0.58028547540E+00  0.51100000000E-03 0.  1.
    9000002    1    1    2    0    0 -0.41972494659E-01  0.35912507936E+00  0.87798744465E-01  0.10091011508E+01  0.93800000000E+00 0.  1.
         22    1    1    2    0    0  0.40175188530E-01 -0.30830258274E+00  0.33341486168E+01  0.33486133738E+01  0.00000000000E+00 0.  1.
</event>
<event>
 5    1  0.7095115E+001  0.1544462E+01  0.7818608E-02  0.3415940E+00
         11   -1    0    0    0    0  0.00000000000E+00  0.00000000000E+00  0.39999999674E+01  0.40000000000E+01  0.51100000000E-03 0. -1.
    9000002   -1    0    0    0    0 -0.00000000000E+00 -0.00000000000E+00  0.00000000000E+00  0.93800000000E+00  0.93800000000E+00 0.  1.
         11    1    1    2    0    0  0.19162982672E+00  0.31233959401E+00  0.26162734797E+00  0.45025231016E+00  0.51100000000E-03 0. -1.
    9000002    1    1    2    0    0 -0.53295656448E+00 -0.10715535295E+01  0.16720502649E+01  0.22600587945E+01  0.93800000000E+00 0. -1.
         22    1    1    2    0    0  0.34132673775E+00  0.75921393550E+00  0.20663223545E+01  0.22276888954E+01  0.00000000000E+00 0. -1.
</event>
<event>
 5    1  0.7095115E+001  0.1599615E+01  0.7818608E-02  0.3353782E+00
         11   -1    0    0    0    0  0.00000000000E+00  0.00000000000E+00  0.39999999674E+01  0.40000000000E+01  0.51100000000E-03 0. -1.
    9000002   -1    0    0    0    0 -0.00000000000E+00 -0.00000000000E+00  0.00000000000E+00  0.93800000000E+00  0.93800000000E+00 0. -1.
         11    1    1    2    0    0  0.26314947503E-01  0.89336652982E-01  0.64513722062E+00  0.65182498309E+00  0.51100000000E-03 0. -1.
    9000002    1    1    2    0    0 -0.11338806592E+00 -0.53195246225E+00  0.20415399336E+00  0.11033372687E+01  0.93800000000E+00 0. -1.
         22    1    1    2    0    0  0.87073118421E-01  0.44261580927E+00  0.31507087534E+01  0.31828377482E+01  0.00000000000E+00 0. -1.
</event>
<event>
 5    1  0.7095115E+001  0.1599545E+01  0.7818608E-02  0.3353858E+00
         11   -1    0    0    0    0  0.00000000000E+00  0.00000000000E+00  0.39999999674E+01  0.40000000000E+01  0.51100000000E-03 0.  1.
    9000002   -1    0    0    0    0 -0.00000000000E+00 -0.00000000000E+00  0.00000000000E+00  0.93800000000E+00  0.93800000000E+00 0.  1.
         11    1    1    2    0    0 -0.53533651797E-01  0.27174155374E-01  0.54432714041E+00  0.54762814346E+00  0.51100000000E-03 0.  1.
    9000002    1    1    2    0    0  0.31614140958E+00 -0.18506043317E+00  0.90251771452E-01  0.10110302355E+01  0.93800000000E+00 0.  1.
         22    1    1    2    0    0 -0.26260775779E+00  0.15788627780E+00  0.33654210555E+01  0.33793416211E+01  0.00000000000E+00 0.  1.
</event>
<event>
 5    1  0.7095115E+001  0.1517027E+01  0.7818608E-02  0.3448655E+00
         11   -1    0    0    0    0  0.00000000000E+00  0.00000000000E+00  0.39999999674E+01  0.40000000000E+01  0.51100000000E-03 0. -1.
    9000002   -1    0    0    0    0 -0.00000000000E+00 -0.00000000000E+00  0.00000000000E+00  0.93800000000E+00  0.93800000000E+00 0.  1.
         11    1    1    2    0    0 -0.12710586463E+00 -0.31058517522E+00  0.11460669734E+01  0.11941896082E+01  0.51100000000E-03 0. -1.
    9000002    1    1    2    0    0  0.73135030515E-01  0.44576510594E-01  0.67639854896E-01  0.94432777570E+00  0.93800000000E+00 0.  1.
         22    1    1    2    0    0  0.53970834112E-01  0.26600866463E+00  0.27862931391E+01  0.27994826161E+01  0.00000000000E+00 0. -1.
</event>
<event>
 5    1  0.7095115E+001  0.1599646E+01  0.7818608E-02  0.3353747E+00
         11   -1    0    0    0    0  0.00000000000E+00  0.00000000000E+00  0.39999999674E+01  0.40000000000E+01  0.51100000000E-03 0.  1.
    9000002   -1    0    0    0    0 -0.00000000000E+00 -0.00000000000E+00  0.00000000000E+00  0.93800000000E+00  0.93800000000E+00 0. -1.
         11    1    1    2    0    0  0.68812991807E-02 -0.10960140566E-01  0.89374697069E-01  0.90308219763E-01  0.51100000000E-03 0.  1.
    9000002    1    1    2    0    0 -0.29978231986E+00  0.38663275129E+00  0.16358690289E+00  0.10704947447E+01  0.93800000000E+00 0. -1.
         22    1    1    2    0    0  0.29290102068E+00 -0.37567261072E+00  0.37470383674E+01  0.37771970355E+01  0.00000000000E+00 0.  1.
</event>
<event>
 5    1  0.7095115E+001  0.1599677E+01  0.7818608E-02  0.3353714E+00
         11   -1    0    0    0    0  0.00000000000E+00  0.00000000000E+00  0.39999999674E+01  0.40000000000E+01  0.51100000000E-03 0.  1.
    9000002   -1    0    0    0    0 -0.00000000000E+00 -0.00000000000E+00  0.00000000000E+00  0.93800000000E+00  0.93800000000E+00 0.  1.
         11    1    1    2    0    0  0.15420792391E+00 -0.70409566109E-01  0.11380469792E+01  0.11506036584E+01  0.51100000000E-03 0.  1.
    9000002    1    1    2    0    0 -0.51263743782E+00  0.23546404625E+00  0.22040969882E+00  0.11165414883E+01  0.93800000000E+00 0.  1.
         22    1    1    2    0    0  0.35842951391E+00 -0.16505448014E+00  0.26415432893E+01  0.26708548533E+01  0.00000000000E+00 0.  1.
</event>
<event>
 5    1  0.7095115E+001  0.1586693E+01  0.7818608E-02  0.3367935E+00
         11   -1    0    0    0    0  0.00000000000E+00  0.00000000000E+00  0.39999999674E+01  0.40000000000E+01  0.51100000000E-03 0.  1.
    9000002   -1    0    0    0    0 -0.00000000000E+00 -0.00000000000E+00  0.00000000000E+00  0.93800000000E+00  0.93800000000E+00 0. -1.
         11    1    1    2    0    0 -0.11313469400E+00  0.14071635432E+00  0.68088344523E+00  0.70441683573E+00  0.51100000000E-03 0.  1.
    9000002    1    1    2    0    0  0.27984770422E-01 -0.74500605136E+00  0.41805111229E+00  0.12690263577E+01  0.93800000000E+00 0. -1.
         22    1    1    2    0    0  0.85149923578E-01  0.60428969703E+00  0.29010654098E+01  0.29645568066E+01  0.00000000000E+00 0.  1.
</event>
<event>
 5    1  0.7095115E+001  0.1599507E+01  0.7818608E-02  0.3353899E+00
         11   -1    0    0    0    0  0.00000000000E+00  0.00000000000E+00  0.39999999674E+01  0.40000000000E+01  0.51100000000E-03 0. -1.
    9000002   -1    0    0    0    0 -0.00000000000E+00 -0.00000000000E+00  0.00000000000E+00  0.93800000000E+00  0.93800000000E+00 0. -1.
         11    1    1    2    0    0  0.29280923178E-01 -0.24626604063E-01  0.32012312896E+00  0.32240180041E+00  0.51100000000E-03 0. -1.
    9000002    1    1    2    0    0 -0.44856702947E+00  0.31408907146E+00  0.20718281211E+00  0.11057273816E+01  0.93800000000E+00 0. -1.
         22    1    1    2    0    0  0.41928610629E+00 -0.28946246739E+00  0.34726940263E+01  0.35098708180E+01  0.00000000000E+00 0. -1.
</event>
<event>
 5    1  0.7095115E+001  0.1565703E+01  0.7818608E-02  0.3391451E+00
         11   -1    0    0    0    0  0.00000000000E+00  0.00000000000E+00  0.39999999674E+01  0.40000000000E+01  0.51100000000E-03 0.  1.
    9000002   -1    0    0    0    0 -0.00000000000E+00 -0.00000000000E+00  0.00000000000E+00  0.93800000000E+00  0.93800000000E+00 0. -1.
         11    1    1    2    0    0  0.13564743707E+00 -0.30366497185E-01  0.39809075133E+00  0.42166201958E+00  0.51100000000E-03 0.  1.
    9000002    1    1    2    0    0  0.61684518193E-03  0.40834828743E+00  0.14160525065E+00  0.10327849492E+01  0.93800000000E+00 0. -1.
         22    1    1    2    0    0 -0.13626428225E+00 -0.37798179024E+00  0.34603039654E+01  0.34835530312E+01  0.00000000000E+00 0.  1.
</event>
<event>
 5    1  0.7095115E+001  0.1599573E+01  0.7818608E-02  0.3353827E+00
         11   -1    0    0    0    0  0.00000000000E+00  0.00000000000E+00  0.39999999674E+01  0.40000000000E+01  0.51100000000E-03 0.  1.
    9000002   -1    0    0    0    0 -0.00000000000E+00 -0.00000000000E+00  0.00000000000E+00  0.93800000000E+00  0.93800000000E+00 0. -1.
         11    1    1    2    0    0  0.87154448122E-01 -0.95196782958E-01  0.13493907205E+01  0.13555492993E+01  0.51100000000E-03 0.  1.
    9000002    1    1    2    0    0 -0.28352596920E+00  0.26322597116E+00  0.10087811837E+00  0.10196544914E+01  0.93800000000E+00 0. -1.
         22    1    1    2    0    0  0.19637152108E+00 -0.16802918820E+00  0.25497311285E+01  0.25627962092E+01  0.00000000000E+00 0.  1.
</event>
<event>
 5    1  0.7095115E+001  0.1581539E+01  0.7818608E-02  0.3373647E+00
         11   -1    0    0    0    0  0.00000000000E+00  0.00000000000E+00  0.39999999674E+01  0.40000000000E+01  0.51100000000E-03 0.  1.
    9000002   -1    0    0    0    0 -0.00000000000E+00 -0.00000000000E+00  0.00000000000E+00  0.93800000000E+00  0.93800000000E+00 0.  1.
         11    1    1    2    0    0  0.36855355094E-01  0.72886121119E-01  0.92810360469E+00  0.93169054198E+00  0.51100000000E-03 0.  1.
    9000002    1    1    2    0    0 -0.89451578951E-01  0.27050023942E+00  0.68300140894E-01  0.98269062972E+00  0.93800000000E+00 0.  1.
         22    1    1    2    0    0  0.52596223857E-01 -0.34338636054E+00  0.30035962218E+01  0.30236188283E+01  0.00000000000E+00 0.  1.
</event>
<event>
 5    1  0.7095115E+001  0.1599677E+01  0.7818608E-02  0.3353714E+00
         11   -1    0    0    0    0  0.00000000000E+00  0.00000000000E+00  0.39999999674E+01  0.40000000000E+01  0.51100000000E-03 0.  1.
    9000002   -1    0    0    0    0 -0.00000000000E+00 -0.00000000000E+00  0.00000000000E+00  0.93800000000E+00  0.93800000000E+00 0.  1.
         11    1    1    2    0    0  0.15748970436E+00  0.67090641902E-01  0.87670269654E+00  0.89325922355E+00  0.51100000000E-03 0.  1.
    9000002    1    1    2    0    0 -0.65509306729E+00 -0.27652479138E+00  0.36244010268E+00  0.12315923494E+01  0.93800000000E+00 0.  1.
         22    1    1    2    0    0  0.49760336294E+00  0.20943414947E+00  0.27608571681E+01  0.28131484271E+01  0.00000000000E+00 0.  1.
</event>
<event>
 5    1  0.7095115E+001  0.1599658E+01  0.7818608E-02  0.3353735E+00
         11   -1    0    0    0    0  0.00000000000E+00  0.00000000000E+00  0.39999999674E+01  0.40000000000E+01  0.51100000000E-03 0. -1.
    9000002   -1    0    0    0    0 -0.00000000000E+00 -0.00000000000E+00  0.00000000000E+00  0.93800000000E+00  0.93800000000E+00 0. -1.
         11    1    1    2    0    0 -0.64358348229E-01 -0.17151783080E+00  0.11951549342E+01  0.12091137007E+01  0.51100000000E-03 0. -1.
    9000002    1    1    2    0    0  0.19415367172E+00  0.52975726553E+00  0.22049962932E+00  0.11166031055E+01  0.93800000000E+00 0. -1.
         22    1    1    2    0    0 -0.12979532349E+00 -0.35823943473E+00  0.25843454038E+01  0.26122831939E+01  0.00000000000E+00 0. -1.
</event>
<event>
 5    1  0.7095115E+001  0.1596695E+01  0.7818608E-02  0.3356958E+00
         11   -1    0    0    0    0  0.00000000000E+00  0.00000000000E+00  0.39999999674E+01  0.40000000000E+01  0.51100000000E-03 0. -1.
    9000002   -1    0    0    0    0 -0.00000000000E+00 -0.00000000000E+00  0.00000000000E+00  0.93800000000E+00  0.93800000000E+00 0.  1.
         11    1    1    2    0    0  0.56956149734E-01  0.83198592884E-01  0.10065836531E+01  0.10116209373E+01  0.51100000000E-03 0. -1.
    9000002    1    1    2    0    0 -0.36467817446E+00 -0.15246224702E+00  0.10779675871E+00  0.10235717116E+01  0.93800000000E+00 0.  1.
         22    1    1    2    0    0  0.30772202473E+00  0.69263654136E-01  0.28856195555E+01  0.29028073511E+01  0.00000000000E+00 0. -1.
</event>
<event>
 5    1  0.7095115E+001  0.1591550E+01  0.7818608E-02  0.3362586E+00
         11   -1    0    0    0    0  0.00000000000E+00  0.00000000000E+00  0.39999999674E+01  0.40000000000E+01  0.51100000000E-03 0. -1.
    9000002   -1    0    0    0    0 -0.00000000000E+00 -0.00000000000E+00  0.00000000000E+00  0.93800000000E+00  0.93800000000E+00 0.  1.
         11    1    1    2    0    0  0.24638640505E-01 -0.26345997341E-01  0.13651446451E+01  0.13656212276E+01  0.51100000000E-03 0. -1.
    9000002    1    1    2    0    0 -0.10999070339E+00 -0.22016659519E+00  0.46451149310E-01  0.97086198491E+00  0.93800000000E+00 0.  1.
         22    1    1    2    0    0  0.85352062882E-01  0.24651259253E+00  0.25884041729E+01  0.26015167874E+01  0.00000000000E+00 0. -1.
</event>
<event>
 5    1  0.7095115E+001  0.1579278E+01  0.7818608E-02  0.3376166E+00
         11   -1    0    0    0    0  0.00000000000E+00  0.00000000000E+00  0.39999999674E+01  0.40000000000E+01  0.51100000000E-03 0.  1.
    9000002   -1    0    0    0    0 -0.00000000000E+00 -0.00000000000E+00  0.00000000000E+00  0.93800000000E+00  0.93800000000E+00 0.  1.
         11    1    1    2    0    0 -0.10643626006E+00  0.78355752012E-01  0.71408047636E+00  0.72620898450E+00  0.51100000000E-03 0.  1.
    9000002    1    1    2    0    0  0.23843134651E+00  0.21217638635E+00  0.84394489834E-01  0.99440170748E+00  0.93800000000E+00 0.  1.
         22    1    1    2    0    0 -0.13199508646E+00 -0.29053213836E+00  0.32015250012E+01  0.32173893080E+01  0.00000000000E+00 0.  1.
</event>
<event>
 5    1  0.7095115E+001  0.1500501E+01  0.7818608E-02  0.3468981E+00
         11   -1    0    0    0    0  0.00000000000E+00  0.00000000000E+00  0.39999999674E+01  0.40000000000E+01  0.51100000000E-03 0. -1.
    9000002   -1    0    0    0    0 -0.00000000000E+00 -0.00000000000E+00  0.00000000000E+00  0.93800000000E+00  0.93800000000E+00 0. -1.
         11    1    1    2    0    0  0.32739889842E-01 -0.94683517244E-01  0.23956131505E-01  0.10300983537E+00  0.51100000000E-03 0. -1.
    9000002    1    1    2    0    0 -0.37595836078E+00  0.11932763801E+00  0.19222477017E+00  0.10355569209E+01  0.93800000000E+00 0. -1.
         22    1    1    2    0    0  0.34321847094E+00 -0.24644120764E-01  0.37838190657E+01  0.37994332437E+01  0.00000000000E+00 0. -1.
</event>
<event>
 5    1  0.7095115E+001  0.1599524E+01  0.7818608E-02  0.3353880E+00
         11   -1    0    0    0    0  0.00000000000E+00  0.00000000000E+00  0.39999999674E+01  0.40000000000E+01  0.51100000000E-03 0.  1.
    9000002   -1    0    0    0    0 -0.00000000000E+00 -0.00000000000E+00  0.00000000000E+00  0.93800000000E+00  0.93800000000E+00 0.  1.
         11    1    1    2    0    0 -0.82733373005E-01 -0.79589220191E-01  0.96882599238E+00  0.97560407933E+00  0.51100000000E-03 0.  1.
    9000002    1    1    2    0    0  0.28819201406E+00  0.29128876679E+00  0.11352637962E+00  0.10298718471E+01  0.93800000000E+00 0.  1.
         22    1    1    2    0    0 -0.20545864105E+00 -0.21169954660E+00  0.29176475954E+01  0.29325240735E+01  0.00000000000E+00 0.  1.
</event>
<event>
 5    1  0.7095115E+001  0.1599568E+01  0.7818608E-02  0.3353833E+00
         11   -1    0    0    0    0  0.00000000000E+00  0.00000000000E+00  0.39999999674E+01  0.40000000000E+01  0.51100000000E-03 0.  1.
    9000002   -1    0    0    0    0 -0.00000000000E+00 -0.00000000000E+00  0.00000000000E+00  0.93800000000E+00  0.93800000000E+00 0.  1.
         11    1    1    2    0    0  0.35474039182E-01  0.10808740092E+00  0.11958133892E+01  0.12012123945E+01  0.51100000000E-03 0.  1.
    9000002    1    1    2    0    0 -0.78161776026E-01 -0.35297156706E+00  0.87836499287E-01  0.10090874298E+01  0.93800000000E+00 0.  1.
         22    1    1    2    0    0  0.42687736844E-01  0.24488416614E+00  0.27163500788E+01  0.27277001757E+01  0.00000000000E+00 0.  1.
</event>
<event>
 5    1  0.7095115E+001  0.1552128E+01  0.7818608E-02  0.3407020E+00
         11   -1    0    0    0    0  0.00000000000E+00  0.00000000000E+00  0.39999999674E+01  0.40000000000E+01  0.51100000000E-03 0.  1.
    9000002   -1    0    0    0    0 -0.00000000000E+00 -0.00000000000E+00  0.00000000000E+00  0.93800000000E+00  0.93800000000E+00 0. -1.
         11    1    1    2    0    0 -0.15032317174E+00 -0.49362104511E-01  0.22240542601E+00  0.27294341531E+00  0.51100000000E-03 0.  1.
    9000002    1    1    2    0    0  0.34066573677E+00  0.42959486792E+00  0.25384555980E+00  0.11157448019E+01  0.93800000000E+00 0. -1.
         22    1    1    2    0    0 -0.19034256503E+00 -0.38023276341E+00  0.35237489815E+01  0.35493117828E+01  0.00000000000E+00 0.  1.
</event>
<event>
 5    1  0.7095115E+001  0.1599636E+01  0.7818608E-02  0.3353759E+00
         11   -1    0    0    0    0  0.00000000000E+00  0.00000000000E+00  0.39999999674E+01  0.40000000000E+01  0.51100000000E-03 0. -1.
    9000002   -1    0    0    0    0 -0.00000000000E+00 -0.00000000000E+00  0.00000000000E+00  0.93800000000E+00  0.93800000000E+00 0.  1.
         11    1    1    2    0    0 -0.59768224009E-01 -0.28330381260E-01  0.55311671205E+00  0.55705763559E+00  0.51100000000E-03 0. -1.
    9000002    1    1    2    0    0  0.41871839196E+00  0.23436140839E+00  0.15713670177E+00  0.10652634907E+01  0.93800000000E+00 0.  1.
         22    1    1    2    0    0 -0.35895016795E+00 -0.20603102713E+00  0.32897465535E+01  0.33156788737E+01  0.00000000000E+00 0. -1.
</event>
<event>
 5    1  0.7095115E+001  0.1599552E+01  0.7818608E-02  0.3353850E+00
         11   -1    0    0    0    0  0.00000000000E+00  0.00000000000E+00  0.39999999674E+01  0.40000000000E+01  0.51100000000E-03 0. -1.
    9000002   -1    0    0    0    0 -0.00000000000E+00 -0.00000000000E+00  0.00000000000E+00  0.93800000000E+00  0.93800000000E+00 0. -1.
         11    1    1    2    0    0  0.12896992295E+00 -0.12096374493E+00  0.97188804319E+00  0.98784214236E+00  0.51100000000E-03 0. -1.
    9000002    1    1    2    0    0 -0.44956760134E+00  0.44844776344E+00  0.28365361841E+00  0.11676985056E+01  0.93800000000E+00 0. -1.
         22    1    1    2    0    0  0.32059767839E+00 -0.32748401852E+00  0.27444583058E+01  0.27824593520E+01  0.00000000000E+00 0. -1.
</event>
<event>
 5    1  0.7095115E+001  0.1571926E+01  0.7818608E-02  0.3384409E+00
         11   -1    0    0    0    0  0.00000000000E+00  0.00000000000E+00  0.39999999674E+01  0.40000000000E+01  0.51100000000E-03 0. -1.
    9000002   -1    0    0    0    0 -0.00000000000E+00 -0.00000000000E+00  0.00000000000E+00  0.93800000000E+00  0.93800000000E+00 0. -1.
         11    1    1    2    0    0 -0.17122836626E-02  0.31902397764E+00  0.13740179946E+01  0.14105690131E+01  0.51100000000E-03 0. -1.
    9000002    1    1    2    0    0  0.23288221402E+00 -0.40124871431E+00  0.17114489489E+00  0.10603627829E+01  0.93800000000E+00 0. -1.
         22    1    1    2    0    0 -0.23116993036E+00  0.82224736673E-01  0.24548370779E+01  0.24670682039E+01  0.00000000000E+00 0. -1.
</event>
<event>
 5    1  0.7095115E+001  0.1576827E+01  0.7818608E-02  0.3378905E+00
         11   -1    0    0    0    0  0.00000000000E+00  0.00000000000E+00  0.39999999674E+01  0.40000000000E+01  0.51100000000E-03 0. -1.
    9000002   -1    0    0    0    0 -0.00000000000E+00 -0.00000000000E+00  0.00000000000E+00  0.93800000000E+00  0.93800000000E+00 0. -1.
         11    1    1    2    0    0  0.53080193063E-01 -0.12096227394E+00  0.64119955081E+00  0.65466518442E+00  0.51100000000E-03 0. -1.
    9000002    1    1    2    0    0  0.25635325182E+00  0.15474084921E+00  0.77910752260E-01  0.98771241030E+00  0.93800000000E+00 0. -1.
         22    1    1    2    0    0 -0.30943344489E+00 -0.33778575274E-01  0.32808896643E+01  0.32956224053E+01  0.00000000000E+00 0. -1.
</event>
<event>
 5    1  0.7095115E+001  0.1561902E+01  0.7818608E-02  0.3395780E+00
         11   -1    0    0    0    0  0.00000000000E+00  0.00000000000E+00  0.39999999674E+01  0.40000000000E+01  0.51100000000E-03 0.  1.
    9000002   -1    0    0    0    0 -0.00000000000E+00 -0.00000000000E+00  0.00000000000E+00  0.93800000000E+00  0.93800000000E+00 0. -1.
         11    1    1    2    0    0  0.11562594987E+00  0.19454901041E+00  0.14767322063E+01  0.14939735433E+01  0.51100000000E-03 0.  1.
    9000002    1    1    2    0    0  0.14783037894E+00 -0.12326391369E+00  0.53301935557E-01  0.95902706411E+00  0.93800000000E+00 0. -1.
         22    1    1    2    0    0 -0.26345632881E+00 -0.71285096721E-01  0.24699658255E+01  0.24849993926E+01  0.00000000000E+00 0.  1.
</event>
<event>
 5    1  0.7095115E+001  0.1521610E+01  0.7818608E-02  0.3443102E+00
         11   -1    0    0    0    0  0.00000000000E+00  0.00000000000E+00  0.39999999674E+01  0.40000000000E+01  0.51100000000E-03 0. -1.
    9000002   -1    0    0    0    0 -0.00000000000E+00 -0.00000000000E+00  0.00000000000E+00  0.93800000000E+00  0.93800000000E+00 0.  1.
         11    1    1    2    0    0  0.23322688760E+00  0.11178929044E+00  0.10134122760E+01  0.10458949894E+01  0.51100000000E-03 0. -1.
    9000002    1    1    2    0    0  0.14197488417E+00  0.25769774982E-01  0.73654501803E-01  0.95188756409E+00  0.93800000000E+00 0.  1.
         22    1    1    2    0    0 -0.37520177177E+00 -0.13755906542E+00  0.29129331895E+01  0.29402174465E+01  0.00000000000E+00 0. -1.
</event>
<event>
 5    1  0.7095115E+001  0.1599322E+01  0.7818608E-02  0.3354100E+00
         11   -1    0    0    0    0  0.00000000000E+00  0.00000000000E+00  0.39999999674E+01  0.40000000000E+01  0.51100000000E-03 0. -1.
    9000002   -1    0    0    0    0 -0.00000000000E+00 -0.00000000000E+00  0.00000000000E+00  0.93800000000E+00  0.93800000000E+00 0. -1.
         11    1    1    2    0    0  0.79592954124E-02  0.64526932910E-02  0.62847713836E-01  0.63679540589E-01  0.51100000000E-03 0. -1.
    9000002    1    1    2    0    0 -0.35910496569E+00 -0.73298603755E-01  0.90526582115E-01  0.10111222101E+01  0.93800000000E+00 0. -1.
         22    1    1    2    0    0  0.35114567028E+00  0.66845910464E-01  0.38466256714E+01  0.38631982493E+01  0.00000000000E+00 0. -1.
</event>
<event>
 5    1  0.7095115E+001  0.1598158E+01  0.7818608E-02  0.3355365E+00
         11   -1    0    0    0    0  0.00000000000E+00  0.00000000000E+00  0.39999999674E+01  0.40000000000E+01  0.51100000000E-03 0. -1.
    9000002   -1    0    0    0    0 -0.00000000000E+00 -0.00000000000E+00  0.00000000000E+00  0.93800000000E+00  0.93800000000E+00 0.  1.
         11    1    1    2    0    0  0.25104253000E-01  0.35722741620E-01  0.77156345818E+00  0.77279801301E+00  0.51100000000E-03 0. -1.
    9000002    1    1    2    0    0 -0.86617984622E-02 -0.32963334675E+00  0.73958898211E-01  0.99701910145E+00  0.93800000000E+00 0.  1.
         22    1    1    2    0    0 -0.16442454537E-01  0.29391060513E+00  0.31544776110E+01  0.31681828855E+01  0.00000000000E+00 0. -1.
</event>
<event>
 5    1  0.7095115E+001  0.1485340E+01  0.7818608E-02  0.3488058E+00
         11   -1    0    0    0    0  0.00000000000E+00  0.00000000000E+00  0.39999999674E+01  0.40000000000E+01  0.51100000000E-03 0.  1.
    9000002   -1    0    0    0    0 -0.00000000000E+00 -0.00000000000E+00  0.00000000000E+00  0.93800000000E+00  0.93800000000E+00 0.  1.
         11    1    1    2    0    0  0.31135766545E+00 -0.26001986704E-01  0.63326234594E+00  0.70614528183E+00  0.51100000000E-03 0.  1.
    9000002    1    1    2    0    0 -0.31261590852E-01  0.21977093546E+00  0.12466019273E+00  0.97193657961E+00  0.93800000000E+00 0.  1.
         22    1    1    2    0    0 -0.28009607460E+00 -0.19376894875E+00  0.32420774287E+01  0.32599181386E+01  0.00000000000E+00 0.  1.
</event>
<event>
 5    1  0.7095115E+001  0.1598845E+01  0.7818608E-02  0.3354618E+00
         11   -1    0    0    0    0  0.00000000000E+00  0.00000000000E+00  0.39999999674E+01  0.40000000000E+01  0.51100000000E-03 0.  1.
    9000002   -1    0    0    0    0 -0.00000000000E+00 -0.00000000000E+00  0.00000000000E+00  0.93800000000E+00  0.93800000000E+00 0.  1.
         11    1    1    2    0    0  0.75988347128E-02  0.47530229943E-02  0.10189476586E+00  0.10228948112E+00  0.51100000000E-03 0.  1.
    9000002    1    1    2    0    0  0.59319679004E-01 -0.41946163902E+00  0.12213936181E+00  0.10364501506E+01  0.93800000000E+00 0.  1.
         22    1    1    2    0    0 -0.66918513717E-01  0.41470861603E+00  0.37759658397E+01  0.37992603683E+01  0.00000000000E+00 0.  1.
</event>
<event>
 5    1  0.7095115E+001  0.1568726E+01  0.7818608E-02  0.3388023E+00
         11   -1    0    0    0    0  0.00000000000E+00  0.00000000000E+00  0.39999999674E+01  0.40000000000E+01  0.51100000000E-03 0.  1.
    9000002   -1    0    0    0    0 -0.00000000000E+00 -0.00000000000E+00  0.00000000000E+00  0.93800000000E+00  0.93800000000E+00 0. -1.
         11    1    1    2    0    0  0.97932139168E-01 -0.16588344033E-01  0.11522170425E+00  0.15212553793E+00  0.51100000000E-03 0.  1.
    9000002    1    1    2    0    0 -0.61960663793E+00 -0.14911377290E+00  0.31858046545E+00  0.11779154537E+01  0.93800000000E+00 0. -1.
         22    1    1    2    0    0  0.52167449877E+00  0.16570211694E+00  0.35661977977E+01  0.36079590084E+01  0.00000000000E+00 0.  1.
</event>
<event>
 5    1  0.7095115E+001  0.1598365E+01  0.7818608E-02  0.3355140E+00
         11   -1    0    0    0    0  0.00000000000E+00  0.00000000000E+00  0.39999999674E+01  0.40000000000E+01  0.51100000000E-03 0.  1.
    9000002   -1    0    0    0    0 -0.00000000000E+00 -0.00000000000E+00  0.00000000000E+00  0.93800000000E+00  0.93800000000E+00 0.  1.
         11    1    1    2    0    0 -0.59185978510E-01 -0.33333200602E-01  0.78435994773E+00  0.78729592342E+00  0.51100000000E-03 0.  1.
    9000002    1    1    2    0    0  0.36600157006E+00  0.73009526103E-02  0.91086551309E-01  0.10110149420E+01  0.93800000000E+00 0.  1.
         22    1    1    2    0    0 -0.30681559155E+00  0.26032247992E-01  0.31245534683E+01  0.31396891345E+01  0.00000000000E+00 0.  1.
</event>
<event>
 5    1  0.1062092E+002  0.1577656E+01  0.7818608E-02  0.3377978E+00
         11   -1    0    0    0    0  0.00000000000E+00  0.00000000000E+00  0.39999999674E+01  0.40000000000E+01  0.51100000000E-03 0.  1.
    9000002   -1    0    0    0    0 -0.00000000000E+00 -0.00000000000E+00  0.00000000000E+00  0.93800000000E+00  0.93800000000E+00 0.  1.
         11    1    1    2    0    0 -0.94680737704E-01  0.85290450338E-01  0.13039981147E+01  0.13102100013E+01  0.51100000000E-03 0.  1.
    9000002    1    1    2    0    0 -0.37610386639E-01  0.13344504134E+00  0.29071571826E-01  0.94863653552E+00  0.93800000000E+00 0.  1.
         22    1    1    2    0    0  0.13229112434E+00 -0.21873549168E+00  0.26669302808E+01  0.26791534632E+01  0.00000000000E+00 0.  1.
</event>
<event>
 5    1  0.7095115E+001  0.1599534E+01  0.7818608E-02  0.3353869E+00
         11   -1    0    0    0    0  0.00000000000E+00  0.00000000000E+00  0.39999999674E+01  0.40000000000E+01  0.51100000000E-03 0.  1.
    9000002   -1    0    0    0    0 -0.00000000000E+00 -0.00000000000E+00  0.00000000000E+00  0.93800000000E+00  0.93800000000E+00 0.  1.
         11    1    1    2    0    0  0.97173524475E-01 -0.42803326171E-01  0.95128352180E+00  0.95719142211E+00  0.51100000000E-03 0.  1.
    9000002    1    1    2    0    0 -0.34833133702E+00  0.16642084665E+00  0.10046529025E+00  0.10192977451E+01  0.93800000000E+00 0.  1.
         22    1    1    2    0    0  0.25115781254E+00 -0.12361752048E+00  0.29482511553E+01  0.29615108328E+01  0.00000000000E+00 0.  1.
</event>
<event>
 5    1  0.7095115E+001  0.1599676E+01  0.7818608E-02  0.3353715E+00
         11   -1    0    0    0    0  0.00000000000E+00  0.00000000000E+00  0.39999999674E+01  0.40000000000E+01  0.51100000000E-03 0. -1.
    9000002   -1    0    0    0    0 -0.00000000000E+00 -0.00000000000E+00  0.00000000000E+00  0.93800000000E+00  0.93800000000E+00 0. -1.
         11    1    1    2    0    0 -0.11297011592E+00 -0.14060939750E-01  0.11717998036E+01  0.11773168638E+01  0.51100000000E-03 0. -1.
    9000002    1    1    2    0    0  0.37943859691E+00  0.47963265348E-01  0.98449261569E-01  0.10177476999E+01  0.93800000000E+00 0. -1.
         22    1    1    2    0    0 -0.26646848098E+00 -0.33902325598E-01  0.27297509022E+01  0.27429354362E+01  0.00000000000E+00 0. -1.
</event>
<event>
 5    1  0.7095115E+001  0.1630128E+01  0.7818608E-02  0.3321299E+00
         11   -1    0    0    0    0  0.00000000000E+00  0.00000000000E+00  0.39999999674E+01  0.40000000000E+01  0.51100000000E-03 0. -1.
    9000002   -1    0    0    0    0 -0.00000000000E+00 -0.00000000000E+00  0.00000000000E+00  0.93800000000E+00  0.93800000000E+00 0.  1.
         11    1    1    2    0    0 -0.24869728290E+00  0.51262561796E-01 -0.36888309732E-01  0.25659149885E+00  0.51100000000E-03 0. -1.
    9000002    1    1    2    0    0  0.36966445471E+00 -0.35836425439E+00  0.59614759341E+00  0.12248725244E+01  0.93800000000E+00 0.  1.
         22    1    1    2    0    0 -0.12096717181E+00  0.30710169260E+00  0.34407406837E+01  0.34565359767E+01  0.00000000000E+00 0. -1.
</event>
<event>
 5    1  0.7095115E+001  0.1599668E+01  0.7818608E-02  0.3353724E+00
         11   -1    0    0    0    0  0.00000000000E+00  0.00000000000E+00  0.39999999674E+01  0.40000000000E+01  0.51100000000E-03 0.  1.
    9000002   -1    0    0    0    0 -0.00000000000E+00 -0.00000000000E+00  0.00000000000E+00  0.93800000000E+00  0.93800000000E+00 0. -1.
         11    1    1    2    0    0 -0.14806623315E+00 -0.10558713956E+00  0.11251855666E+01  0.11397872933E+01  0.51100000000E-03 0.  1.
    9000002    1    1    2    0    0  0.48233946054E+00  0.35304282304E+00  0.24917027340E+00  0.11398335033E+01  0.93800000000E+00 0. -1.
         22    1    1    2    0    0 -0.33427322739E+00 -0.24745568347E+00  0.26256441273E+01  0.26583792034E+01  0.00000000000E+00 0. -1.
</event>
<event>
 5    1  0.7095115E+001  0.1597623E+01  0.7818608E-02  0.3355948E+00
         11   -1    0    0    0    0  0.00000000000E+00  0.00000000000E+00  0.39999999674E+01  0.40000000000E+01  0.51100000000E-03 0. -1.
    9000002   -1    0    0    0    0 -0.00000000000E+00 -0.00000000000E+00  0.00000000000E+00  0.93800000000E+00  0.93800000000E+00 0.  1.
         11    1    1    2    0    0 -0.49284002188E-01 -0.67943141341E-01  0.47840779996E+00  0.48571541823E+00  0.51100000000E-03 0. -1.
    9000002    1    1    2    0    0  0.16912559997E+00  0.37129432065E+00  0.11412013280E+00  0.10292377499E+01  0.93800000000E+00 0.  1.
         22    1    1    2    0    0 -0.11984159778E+00 -0.30335117931E+00  0.34074720346E+01  0.34230468319E+01  0.00000000000E+00 0. -1.
</event>
<event>
 5    1  0.7095115E+001  0.1557089E+01  0.7818608E-02  0.3401296E+00
         11   -1    0    0    0    0  0.00000000000E+00  0.00000000000E+00  0.39999999674E+01  0.40000000000E+01  0.51100000000E-03 0. -1.
    9000002   -1    0    0    0    0 -0.00000000000E+00 -0.00000000000E+00  0.00000000000E+00  0.93800000000E+00  0.93800000000E+00 0.  1.
         11    1    1    2    0    0  0.11830851589E+00 -0.20341712488E+00  0.12898254130E+01  0.13111160470E+01  0.51100000000E-03 0. -1.
    9000002    1    1    2    0    0 -0.11036051015E+00 -0.44620864508E-01  0.41224931673E-01  0.94642166012E+00  0.93800000000E+00 0.  1.
         22    1    1    2    0    0 -0.79480057378E-02  0.24803798939E+00  0.26689496227E+01  0.26804622929E+01  0.00000000000E+00 0. -1.
</event>
<event>
 5    1  0.7273923E+001  0.1574147E+01  0.7818608E-02  0.3381910E+00
         11   -1    0    0    0    0  0.00000000000E+00  0.00000000000E+00  0.39999999674E+01  0.40000000000E+01  0.51100000000E-03 0.  1.
    9000002   -1    0    0    0    0 -0.00000000000E+00 -0.00000000000E+00  0.00000000000E+00  0.93800000000E+00  0.93800000000E+00 0.  1.
         11    1    1    2    0    0 -0.21018345470E+00 -0.38223553113E-01  0.14444818991E+01  0.14601939401E+01  0.51100000000E-03 0.  1.
    9000002    1    1    2    0    0  0.17560361323E+00 -0.20837930093E+00  0.69395603594E-01  0.97924374485E+00  0.93800000000E+00 0.  1.
         22    1    1    2    0    0  0.34579841472E-01  0.24660285404E+00  0.24861224646E+01  0.24985623151E+01  0.00000000000E+00 0.  1.
</event>
<event>
 5    1  0.7095115E+001  0.1599601E+01  0.7818608E-02  0.3353796E+00
         11   -1    0    0    0    0  0.00000000000E+00  0.00000000000E+00  0.39999999674E+01  0.40000000000E+01  0.51100000000E-03 0.  1.
    9000002   -1    0    0    0    0 -0.00000000000E+00 -0.00000000000E+00  0.00000000000E+00  0.93800000000E+00  0.93800000000E+00 0. -1.
         11    1    1    2    0    0  0.53410605642E-01 -0.43108340279E-01  0.71732214570E+00  0.72059860091E+00  0.51100000000E-03 0.  1.
    9000002    1    1    2    0    0 -0.32362765590E+00  0.26100934371E+00  0.11690341880E+00  0.10326524810E+01  0.93800000000E+00 0. -1.
         22    1    1    2    0    0  0.27021705026E+00 -0.21790100343E+00  0.31657744029E+01  0.31847489181E+01  0.00000000000E+00 0.  1.
</event>
<event>
 5    1  0.7095115E+001  0.1581365E+01  0.7818608E-02  0.3373841E+00
         11   -1    0    0    0    0  0.00000000000E+00  0.00000000000E+00  0.39999999674E+01  0.40000000000E+01  0.51100000000E-03 0.  1.
    9000002   -1    0    0    0    0 -0.00000000000E+00 -0.00000000000E+00  0.00000000000E+00  0.93800000000E+00  0.93800000000E+00 0.  1.
         11    1    1    2    0    0  0.15759227671E+00  0.48837153385E-01  0.56789351802E+00  0.59137441791E+00  0.51100000000E-03 0.  1.
    9000002    1    1    2    0    0 -0.50103967160E+00  0.23329858648E+00  0.22863820219E+00  0.11124695099E+01  0.93800000000E+00 0.  1.
         22    1    1    2    0    0  0.34344739489E+00 -0.28213573987E+00  0.32034682471E+01  0.32341560722E+01  0.00000000000E+00 0.  1.
</event>
<event>
 5    1  0.7095115E+001  0.1599668E+01  0.7818608E-02  0.3353724E+00
         11   -1    0    0    0    0  0.00000000000E+00  0.00000000000E+00  0.39999999674E+01  0.40000000000E+01  0.51100000000E-03 0.  1.
    9000002   -1    0    0    0    0 -0.00000000000E+00 -0.00000000000E+00  0.00000000000E+00  0.93800000000E+00  0.93800000000E+00 0. -1.
         11    1    1    2    0    0 -0.13199282361E+00  0.11351966075E+00  0.14247423833E+01  0.14353396597E+01  0.51100000000E-03 0.  1.
    9000002    1    1    2    0    0  0.35496915431E+00 -0.29763023004E+00  0.14604202522E+00  0.10562950002E+01  0.93800000000E+00 0. -1.
         22    1    1    2    0    0 -0.22297633070E+00  0.18411056929E+00  0.24292155588E+01  0.24463653401E+01  0.00000000000E+00 0.  1.
</event>
<event>
 5    1  0.7095115E+001  0.1589581E+01  0.7818608E-02  0.3364750E+00
         11   -1    0    0    0    0  0.00000000000E+00  0.00000000000E+00  0.39999999674E+01  0.40000000000E+01  0.51100000000E-03 0. -1.
    9000002   -1    0    0    0    0 -0.00000000000E+00 -0.00000000000E+00  0.00000000000E+00  0.93800000000E+00  0.93800000000E+00 0. -1.
         11    1    1    2    0    0  0.22154675965E+00 -0.26583403743E+00  0.13614839694E+00  0.37187007043E+00  0.51100000000E-03 0. -1.
    9000002    1    1    2    0    0  0.36455868811E+00  0.48662399110E+00  0.65263205643E+00  0.12944027761E+01  0.93800000000E+00 0. -1.
         22    1    1    2    0    0 -0.58610544776E+00 -0.22078995366E+00  0.32112195140E+01  0.32717271534E+01  0.00000000000E+00 0. -1.
</event>
<event>
 5    1  0.7095115E+001  0.1540865E+01  0.7818608E-02  0.3420158E+00
         11   -1    0    0    0    0  0.00000000000E+00  0.00000000000E+00  0.39999999674E+01  0.40000000000E+01  0.51100000000E-03 0.  1.
    9000002   -1    0    0    0    0 -0.00000000000E+00 -0.00000000000E+00  0.00000000000E+00  0.93800000000E+00  0.93800000000E+00 0.  1.
         11    1    1    2    0    0 -0.10867925303E-01  0.37566167506E+00  0.34937860011E+00  0.51313299762E+00  0.51100000000E-03 0.  1.
    9000002    1    1    2    0    0 -0.20749399811E+00 -0.14264490914E-01  0.24279941023E+00  0.99098576607E+00  0.93800000000E+00 0.  1.
         22    1    1    2    0    0  0.21836192341E+00 -0.36139718415E+00  0.34078219570E+01  0.34338812363E+01  0.00000000000E+00 0.  1.
</event>
<event>
 5    1  0.7095115E+001  0.1574689E+01  0.7818608E-02  0.3381301E+00
         11   -1    0    0    0    0  0.00000000000E+00  0.00000000000E+00  0.39999999674E+01  0.40000000000E+01  0.51100000000E-03 0. -1.
    9000002   -1    0    0    0    0 -0.00000000000E+00 -0.00000000000E+00  0.00000000000E+00  0.93800000000E+00  0.93800000000E+00 0.  1.
         11    1    1    2    0    0 -0.22393957152E-01  0.10921408730E+00  0.79804899084E+00  0.80579877084E+00  0.51100000000E-03 0. -1.
    9000002    1    1    2    0    0  0.22957623454E-01  0.21041187033E+00  0.48725755753E-01  0.96281795108E+00  0.93800000000E+00 0.  1.
         22    1    1    2    0    0 -0.56366630227E-03 -0.31962595763E+00  0.31532252208E+01  0.31693832781E+01  0.00000000000E+00 0. -1.
</event>
<event>
 5    1  0.7095115E+001  0.1598258E+01  0.7818608E-02  0.3355256E+00
         11   -1    0    0    0    0  0.00000000000E+00  0.00000000000E+00  0.39999999674E+01  0.40000000000E+01  0.51100000000E-03 0.  1.
    9000002   -1    0    0    0    0 -0.00000000000E+00 -0.00000000000E+00  0.00000000000E+00  0.93800000000E+00  0.93800000000E+00 0. -1.
         11    1    1    2    0    0 -0.94410610826E-01  0.99629403849E-01  0.14699362586E+01  0.14763306700E+01  0.51100000000E-03 0.  1.
    9000002    1    1    2    0    0  0.36310703840E+00 -0.27462338961E+00  0.14211274464E+00  0.10522854934E+01  0.93800000000E+00 0. -1.
         22    1    1    2    0    0 -0.26869642757E+00  0.17499398576E+00  0.23879509641E+01  0.24093838366E+01  0.00000000000E+00 0.  1.
</event>
<event>
 5    1  0.7095115E+001  0.1599675E+01  0.7818608E-02  0.3353717E+00
         11   -1    0    0    0    0  0.00000000000E+00  0.00000000000E+00  0.39999999674E+01  0.40000000000E+01  0.51100000000E-03 0. -1.
    9000002   -1    0    0    0    0 -0.00000000000E+00 -0.00000000000E+00  0.00000000000E+00  0.93800000000E+00  0.93800000000E+00 0. -1.
         11    1    1    2    0    0 -0.49777241247E-01 -0.70648657341E-01  0.83654962239E+00  0.84100210367E+00  0.51100000000E-03 0. -1.
    9000002    1    1    2    0    0  0.23833034450E+00  0.32746337294E+00  0.11071764739E+00  0.10276847820E+01  0.93800000000E+00 0. -1.
         22    1    1    2    0    0 -0.18855310325E+00 -0.25681471560E+00  0.30527326976E+01  0.30693131143E+01  0.00000000000E+00 0. -1.
</event>
<event>
 5    1  0.7095115E+001  0.1545893E+01  0.7818608E-02  0.3414267E+00
         11   -1    0    0    0    0  0.00000000000E+00  0.00000000000E+00  0.39999999674E+01  0.40000000000E+01  0.51100000000E-03 0.  1.
    9000002   -1    0    0    0    0 -0.00000000000E+00 -0.00000000000E+00  0.00000000000E+00  0.93800000000E+00  0.93800000000E+00 0.  1.
         11    1    1    2    0    0  0.15440681845E+00 -0.23055275535E+00  0.12937287193E+01  0.13231516537E+01  0.51100000000E-03 0.  1.
    9000002    1    1    2    0    0 -0.26619904396E+00 -0.72307657855E-01  0.93468312319E-01  0.98217648811E+00  0.93800000000E+00 0.  1.
         22    1    1    2    0    0  0.11179222550E+00  0.30286041321E+00  0.26128029358E+01  0.26326718581E+01  0.00000000000E+00 0.  1.
</event>
<event>
 5    1  0.7095115E+001  0.1599653E+01  0.7818608E-02  0.3353741E+00
         11   -1    0    0    0    0  0.00000000000E+00  0.00000000000E+00  0.39999999674E+01  0.40000000000E+01  0.51100000000E-03 0. -1.
    9000002   -1    0    0    0    0 -0.00000000000E+00 -0.00000000000E+00  0.00000000000E+00  0.93800000000E+00  0.93800000000E+00 0. -1.
         11    1    1    2    0    0 -0.57207337967E-01 -0.16233610878E+00  0.11160218761E+01  0.11292168883E+01  0.51100000000E-03 0. -1.
    9000002    1    1    2    0    0  0.20470994883E+00  0.53430648640E+00  0.22713186851E+00  0.11219725800E+01  0.93800000000E+00 0. -1.
         22    1    1    2    0    0 -0.14750261086E+00 -0.37197037763E+00  0.26568462228E+01  0.26868105318E+01  0.00000000000E+00 0. -1.
</event>
<event>
 5    1  0.7095115E+001  0.1517370E+01  0.7818608E-02  0.3448238E+00
         11   -1    0    0    0    0  0.00000000000E+00  0.00000000000E+00  0.39999999674E+01  0.40000000000E+01  0.51100000000E-03 0.  1.
    9000002   -1    0    0    0    0 -0.00000000000E+00 -0.00000000000E+00  0.00000000000E+00  0.93800000000E+00  0.93800000000E+00 0.  1.
         11    1    1    2    0    0 -0.41244636315E+00 -0.39966945836E+00  0.79831325585E+00  0.98343886134E+00  0.51100000000E-03 0.  1.
    9000002    1    1    2    0    0  0.62214106586E+00  0.73701033170E+00  0.89957043371E+00  0.16184297019E+01  0.93800000000E+00 0.  1.
         22    1    1    2    0    0 -0.20969470271E+00 -0.33734087334E+00  0.23021162778E+01  0.23361314367E+01  0.00000000000E+00 0.  1.
</event>
<event>
 5    1  0.7456442E+001  0.1576832E+01  0.7818608E-02  0.3378900E+00
         11   -1    0    0    0    0  0.00000000000E+00  0.00000000000E+00  0.39999999674E+01  0.40000000000E+01  0.51100000000E-03 0. -1.
    9000002   -1    0    0    0    0 -0.00000000000E+00 -0.00000000000E+00  0.00000000000E+00  0.93800000000E+00  0.93800000000E+00 0.  1.
         11    1    1    2    0    0  0.90911822995E-01 -0.95196113089E-01  0.12565489267E+01  0.12634249981E+01  0.51100000000E-03 0. -1.
    9000002    1    1    2    0    0  0.47070981509E-01 -0.11627393749E+00  0.27333076441E-01  0.94674516260E+00  0.93800000000E+00 0.  1.
         22    1    1    2    0    0 -0.13798280450E+00  0.21147005058E+00  0.27161179642E+01  0.27278298393E+01  0.00000000000E+00 0. -1.
</event>
<event>
 5    1  0.7095115E+001  0.1596460E+01  0.7818608E-02  0.3357214E+00
         11   -1    0    0    0    0  0.00000000000E+00  0.00000000000E+00  0.39999999674E+01  0.40000000000E+01  0.51100000000E-03 0. -1.
    9000002   -1    0    0    0    0 -0.00000000000E+00 -0.00000000000E+00  0.00000000000E+00  0.93800000000E+00  0.93800000000E+00 0. -1.
         11    1    1    2    0    0 -0.18564202452E+00 -0.12242568397E+00  0.13271221925E+01  0.13456242359E+01  0.51100000000E-03 0. -1.
    9000002    1    1    2    0    0  0.36290339681E+00  0.28442888632E+00  0.14744152384E+00  0.10555480424E+01  0.93800000000E+00 0. -1.
         22    1    1    2    0    0 -0.17726137229E+00 -0.16200320235E+00  0.25254362510E+01  0.25368277217E+01  0.00000000000E+00 0. -1.
</event>
<event>
 5    1  0.1584747E+002  0.1549833E+01  0.7818608E-02  0.3409680E+00
         11   -1    0    0    0    0  0.00000000000E+00  0.00000000000E+00  0.39999999674E+01  0.40000000000E+01  0.51100000000E-03 0. -1.
    9000002   -1    0    0    0    0 -0.00000000000E+00 -0.00000000000E+00  0.00000000000E+00  0.93800000000E+00  0.93800000000E+00 0. -1.
         11    1    1    2    0    0 -0.23448721590E+00  0.37589965645E-01  0.11314481630E+01  0.11561022734E+01  0.51100000000E-03 0. -1.
    9000002    1    1    2    0    0 -0.26066509376E-01 -0.48111736914E-01  0.39050581258E-01  0.94040584326E+00  0.93800000000E+00 0. -1.
         22    1    1    2    0    0  0.26055372527E+00  0.10521771269E-01  0.28295012231E+01  0.28414918833E+01  0.00000000000E+00 0. -1.
</event>
<event>
 5    1  0.7095115E+001  0.1599441E+01  0.7818608E-02  0.3353970E+00
         11   -1    0    0    0    0  0.00000000000E+00  0.00000000000E+00  0.39999999674E+01  0.40000000000E+01  0.51100000000E-03 0. -1.
    9000002   -1    0    0    0    0 -0.00000000000E+00 -0.00000000000E+00  0.00000000000E+00  0.93800000000E+00  0.93800000000E+00 0.  1.
         11    1    1    2    0    0 -0.32362470252E-01 -0.34873205193E-01  0.55498600846E+00  0.55702172366E+00  0.51100000000E-03 0. -1.
    9000002    1    1    2    0    0  0.16579550797E+00  0.31198852769E+00  0.83917231044E-01  0.10058385027E+01  0.93800000000E+00 0.  1.
         22    1    1    2    0    0 -0.13343303772E+00 -0.27711532250E+00  0.33610967279E+01  0.33751397736E+01  0.00000000000E+00 0. -1.
</event>
<event>
 5    1  0.8131019E+001  0.1581206E+01  0.7818608E-02  0.3374018E+00
         11   -1    0    0    0    0  0.00000000000E+00  0.00000000000E+00  0.39999999674E+01  0.40000000000E+01  0.51100000000E-03 0.  1.
    9000002   -1    0    0    0    0 -0.00000000000E+00 -0.00000000000E+00  0.00000000000E+00  0.93800000000E+00  0.93800000000E+00 0. -1.
         11    1    1    2    0    0  0.47556199077E-01  0.87351973711E-01  0.93471299687E+00  0.93998968452E+00  0.51100000000E-03 0.  1.
    9000002    1    1    2    0    0 -0.36628933163E-01  0.19475955515E+00  0.39959561629E-01  0.95953828982E+00  0.93800000000E+00 0. -1.
         22    1    1    2    0    0 -0.10927265915E-01 -0.28211152886E+00  0.30253274089E+01  0.30384720257E+01  0.00000000000E+00 0.  1.
</event>
<event>
 5    1  0.7095115E+001  0.1599677E+01  0.7818608E-02  0.3353714E+00
         11   -1    0    0    0    0  0.00000000000E+00  0.00000000000E+00  0.39999999674E+01  0.40000000000E+01  0.51100000000E-03 0.  1.
    9000002   -1    0    0    0    0 -0.00000000000E+00 -0.00000000000E+00  0.00000000000E+00  0.93800000000E+00  0.93800000000E+00 0.  1.
         11    1    1    2    0    0 -0.79553461052E-01 -0.36636719984E-01  0.96192625542E+00  0.96590547384E+00  0.51100000000E-03 0.  1.
    9000002    1    1    2    0    0  0.32152681890E+00  0.14915429866E+00  0.84275693931E-01  0.10062668099E+01  0.93800000000E+00 0.  1.
         22    1    1    2    0    0 -0.24197335785E+00 -0.11251757867E+00  0.29537980180E+01  0.29658277163E+01  0.00000000000E+00 0.  1.
</event>
<event>
 5    1  0.7095115E+001  0.1599672E+01  0.7818608E-02  0.3353720E+00
         11   -1    0    0    0    0  0.00000000000E+00  0.00000000000E+00  0.39999999674E+01  0.40000000000E+01  0.51100000000E-03 0. -1.
    9000002   -1    0    0    0    0 -0.00000000000E+00 -0.00000000000E+00  0.00000000000E+00  0.93800000000E+00  0.93800000000E+00 0.  1.
         11    1    1    2    0    0  0.16814158775E+00 -0.45962515964E-01  0.95769481678E+00  0.97342887240E+00  0.51100000000E-03 0. -1.
    9000002    1    1    2    0    0 -0.63855107435E+00  0.17964702848E+00  0.31151642016E+00  0.11903390313E+01  0.93800000000E+00 0.  1.
         22    1    1    2    0    0  0.47040948660E+00 -0.13368451252E+00  0.27307887304E+01  0.27742320963E+01  0.00000000000E+00 0.  1.
</event>
<event>
 5    1  0.7095115E+001  0.1599587E+01  0.7818608E-02  0.3353812E+00
         11   -1    0    0    0    0  0.00000000000E+00  0.00000000000E+00  0.39999999674E+01  0.40000000000E+01  0.51100000000E-03 0. -1.
    9000002   -1    0    0    0    0 -0.00000000000E+00 -0.00000000000E+00  0.00000000000E+00  0.93800000000E+00  0.93800000000E+00 0. -1.
         11    1    1    2    0    0  0.25757952590E-02 -0.21519756920E+00  0.24971484242E+00  0.32965799271E+00  0.51100000000E-03 0. -1.
    9000002    1    1    2    0    0  0.26912269236E-01  0.12869329160E+01  0.24622179984E+01  0.29324532514E+01  0.93800000000E+00 0. -1.
         22    1    1    2    0    0 -0.29488064495E-01 -0.10717353468E+01  0.12880671266E+01  0.16758887559E+01  0.00000000000E+00 0. -1.
</event>
<event>
 5    1  0.7095115E+001  0.1599676E+01  0.7818608E-02  0.3353715E+00
         11   -1    0    0    0    0  0.00000000000E+00  0.00000000000E+00  0.39999999674E+01  0.40000000000E+01  0.51100000000E-03 0. -1.
    9000002   -1    0    0    0    0 -0.00000000000E+00 -0.00000000000E+00  0.00000000000E+00  0.93800000000E+00  0.93800000000E+00 0.  1.
         11    1    1    2    0    0  0.78776849544E-01  0.77780917268E-01  0.67772045808E+00  0.68670295146E+00  0.51100000000E-03 0.  1.
    9000002    1    1    2    0    0 -0.43397791234E+00 -0.43307444279E+00  0.26300556372E+00  0.11510457106E+01  0.93800000000E+00 0.  1.
         22    1    1    2    0    0  0.35520106280E+00  0.35529352552E+00  0.30592739456E+01  0.31002513379E+01  0.00000000000E+00 0. -1.
</event>
<event>
 5    1  0.7095115E+001  0.1591268E+01  0.7818608E-02  0.3362896E+00
         11   -1    0    0    0    0  0.00000000000E+00  0.00000000000E+00  0.39999999674E+01  0.40000000000E+01  0.51100000000E-03 0. -1.
    9000002   -1    0    0    0    0 -0.00000000000E+00 -0.00000000000E+00  0.00000000000E+00  0.93800000000E+00  0.93800000000E+00 0. -1.
         11    1    1    2    0    0 -0.15543445319E+00 -0.11277379325E+00  0.58595477434E+00  0.61662067463E+00  0.51100000000E-03 0. -1.
    9000002    1    1    2    0    0  0.61872882055E+00  0.31810909751E+00  0.35495103805E+00  0.12205953427E+01  0.93800000000E+00 0. -1.
         22    1    1    2    0    0 -0.46329436736E+00 -0.20533530425E+00  0.30590941550E+01  0.31007839826E+01  0.00000000000E+00 0. -1.
</event>
<event>
 5    1  0.7095115E+001  0.1599677E+01  0.7818608E-02  0.3353714E+00
         11   -1    0    0    0    0  0.00000000000E+00  0.00000000000E+00  0.39999999674E+01  0.40000000000E+01  0.51100000000E-03 0. -1.
    9000002   -1    0    0    0    0 -0.00000000000E+00 -0.00000000000E+00  0.00000000000E+00  0.93800000000E+00  0.93800000000E+00 0.  1.
         11    1    1    2    0    0  0.20902163815E-01 -0.13394922610E+00  0.70952008493E+00  0.72235608094E+00  0.51100000000E-03 0. -1.
    9000002    1    1    2    0    0 -0.10949193067E+00  0.68830752953E+00  0.34687508056E+00  0.12189840276E+01  0.93800000000E+00 0.  1.
         22    1    1    2    0    0  0.88589766859E-01 -0.55435830342E+00  0.29436048019E+01  0.29966598914E+01  0.00000000000E+00 0. -1.
</event>
<event>
 5    1  0.7095115E+001  0.1599120E+01  0.7818608E-02  0.3354319E+00
         11   -1    0    0    0    0  0.00000000000E+00  0.00000000000E+00  0.39999999674E+01  0.40000000000E+01  0.51100000000E-03 0. -1.
    9000002   -1    0    0    0    0 -0.00000000000E+00 -0.00000000000E+00  0.00000000000E+00  0.93800000000E+00  0.93800000000E+00 0.  1.
         11    1    1    2    0    0 -0.57504900645E-01 -0.11183751314E+00  0.11656315403E+01  0.11723956635E+01  0.51100000000E-03 0. -1.
    9000002    1    1    2    0    0  0.27658346864E+00  0.36510318617E+00  0.14314717417E+00  0.10536289030E+01  0.93800000000E+00 0.  1.
         22    1    1    2    0    0 -0.21907856800E+00 -0.25326567302E+00  0.26912212529E+01  0.27119754336E+01  0.00000000000E+00 0.  1.
</event>
<event>
 5    1  0.7095115E+001  0.1125773E+01  0.7818608E-02  0.4181158E+00
         11   -1    0    0    0    0  0.00000000000E+00  0.00000000000E+00  0.39999999674E+01  0.40000000000E+01  0.51100000000E-03 0.  1.
    9000002   -1    0    0    0    0 -0.00000000000E+00 -0.00000000000E+00  0.00000000000E+00  0.93800000000E+00  0.93800000000E+00 0. -1.
         11    1    1    2    0    0 -0.63723050121E+00  0.37485432154E+00  0.90161669414E+00  0.11659722974E+01  0.51100000000E-03 0.  1.
    9000002    1    1    2    0    0 -0.90129551913E-01 -0.11791909463E+00  0.52418640069E+00  0.10847320552E+01  0.93800000000E+00 0. -1.
         22    1    1    2    0    0  0.72736005312E+00 -0.25693522691E+00  0.25741968725E+01  0.26872956473E+01  0.00000000000E+00 0.  1.
</event>
<event>
 5    1  0.7095115E+001  0.1590598E+01  0.7818608E-02  0.3363632E+00
         11   -1    0    0    0    0  0.00000000000E+00  0.00000000000E+00  0.39999999674E+01  0.40000000000E+01  0.51100000000E-03 0.  1.
    9000002   -1    0    0    0    0 -0.00000000000E+00 -0.00000000000E+00  0.00000000000E+00  0.93800000000E+00  0.93800000000E+00 0.  1.
         11    1    1    2    0    0 -0.90355040641E-01 -0.38872751856E-01  0.25081406415E+00  0.26941247206E+00  0.51100000000E-03 0.  1.
    9000002    1    1    2    0    0  0.46114626949E+00  0.46387967525E+00  0.31186962028E+00  0.11853045579E+01  0.93800000000E+00 0.  1.
         22    1    1    2    0    0 -0.37079122885E+00 -0.42500692339E+00  0.34373162829E+01  0.34832829700E+01  0.00000000000E+00 0.  1.
</event>
<event>
 5    1  0.7095115E+001  0.1577585E+01  0.7818608E-02  0.3378057E+00
         11   -1    0    0    0    0  0.00000000000E+00  0.00000000000E+00  0.39999999674E+01  0.40000000000E+01  0.51100000000E-03 0. -1.
    9000002   -1    0    0    0    0 -0.00000000000E+00 -0.00000000000E+00  0.00000000000E+00  0.93800000000E+00  0.93800000000E+00 0. -1.
         11    1    1    2    0    0 -0.45664713626E-01 -0.83336910821E-01  0.78548826236E+00  0.79121575957E+00  0.51100000000E-03 0. -1.
    9000002    1    1    2    0    0 -0.82758846456E-01 -0.22738117331E+00  0.55889637541E-01  0.97031895592E+00  0.93800000000E+00 0. -1.
         22    1    1    2    0    0  0.12842356008E+00  0.31071808413E+00  0.31586220675E+01  0.31764652845E+01  0.00000000000E+00 0.  1.
</event>
<event>
 5    1  0.7095115E+001  0.1599649E+01  0.7818608E-02  0.3353745E+00
         11   -1    0    0    0    0  0.00000000000E+00  0.00000000000E+00  0.39999999674E+01  0.40000000000E+01  0.51100000000E-03 0.  1.
    9000002   -1    0    0    0    0 -0.00000000000E+00 -0.00000000000E+00  0.00000000000E+00  0.93800000000E+00  0.93800000000E+00 0.  1.
         11    1    1    2    0    0  0.14449675280E-01  0.24269470310E-01  0.29562153703E+00  0.29696827202E+00  0.51100000000E-03 0.  1.
    9000002    1    1    2    0    0 -0.21987016482E+00 -0.28727336258E+00  0.87887869753E-01  0.10091764721E+01  0.93800000000E+00 0.  1.
         22    1    1    2    0    0  0.20542048954E+00  0.26300389227E+00  0.36164905606E+01  0.36318552559E+01  0.00000000000E+00 0.  1.
</event>
<event>
 5    1  0.7095115E+001  0.1599676E+01  0.7818608E-02  0.3353715E+00
         11   -1    0    0    0    0  0.00000000000E+00  0.00000000000E+00  0.39999999674E+01  0.40000000000E+01  0.51100000000E-03 0. -1.
    9000002   -1    0    0    0    0 -0.00000000000E+00 -0.00000000000E+00  0.00000000000E+00  0.93800000000E+00  0.93800000000E+00 0.  1.
         11    1    1    2    0    0 -0.30603673747E-01 -0.44627820827E-01  0.53813194167E+00  0.54084607331E+00  0.51100000000E-03 0. -1.
    9000002    1    1    2    0    0  0.22510862128E+00  0.31936915782E+00  0.10285930652E+00  0.10213200220E+01  0.93800000000E+00 0.  1.
         22    1    1    2    0    0 -0.19450494754E+00 -0.27474133699E+00  0.33590087192E+01  0.33758339047E+01  0.00000000000E+00 0. -1.
</event>
<event>
 5    1  0.7095115E+001  0.1484053E+01  0.7818608E-02  0.3489697E+00
         11   -1    0    0    0    0  0.00000000000E+00  0.00000000000E+00  0.39999999674E+01  0.40000000000E+01  0.51100000000E-03 0. -1.
    9000002   -1    0    0    0    0 -0.00000000000E+00 -0.00000000000E+00  0.00000000000E+00  0.93800000000E+00  0.93800000000E+00 0.  1.
         11    1    1    2    0    0  0.14674932250E+00  0.15004372386E+00  0.25398541640E+00  0.32948040243E+00  0.51100000000E-03 0. -1.
    9000002    1    1    2    0    0 -0.20848279912E+00  0.28966625395E+00  0.18571630784E+00  0.10206400752E+01  0.93800000000E+00 0.  1.
         22    1    1    2    0    0  0.61733476613E-01 -0.43970997780E+00  0.35602982431E+01  0.35878795223E+01  0.00000000000E+00 0. -1.
</event>
<event>
 5    1  0.7095115E+001  0.1554635E+01  0.7818608E-02  0.3404122E+00
         11   -1    0    0    0    0  0.00000000000E+00  0.00000000000E+00  0.39999999674E+01  0.40000000000E+01  0.51100000000E-03 0. -1.
    9000002   -1    0    0    0    0 -0.00000000000E+00 -0.00000000000E+00  0.00000000000E+00  0.93800000000E+00  0.93800000000E+00 0. -1.
         11    1    1    2    0    0  0.14052607956E+00  0.63609035276E-01  0.60682445993E+00  0.62612289104E+00  0.51100000000E-03 0. -1.
    9000002    1    1    2    0    0 -0.29180161437E-01  0.40569934154E+00  0.15036453747E+00  0.10333909868E+01  0.93800000000E+00 0. -1.
         22    1    1    2    0    0 -0.11134591812E+00 -0.46930837681E+00  0.32428109700E+01  0.32784861221E+01  0.00000000000E+00 0. -1.
</event>
<event>
 5    1  0.7095115E+001  0.1599323E+01  0.7818608E-02  0.3354099E+00
         11   -1    0    0    0    0  0.00000000000E+00  0.00000000000E+00  0.39999999674E+01  0.40000000000E+01  0.51100000000E-03 0.  1.
    9000002   -1    0    0    0    0 -0.00000000000E+00 -0.00000000000E+00  0.00000000000E+00  0.93800000000E+00  0.93800000000E+00 0. -1.
         11    1    1    2    0    0 -0.95090745163E-01 -0.94963356794E-01  0.10950512389E+01  0.11032668607E+01  0.51100000000E-03 0.  1.
    9000002    1    1    2    0    0  0.38041735451E+00  0.38072952567E+00  0.19996676094E+00  0.10997740863E+01  0.93800000000E+00 0. -1.
         22    1    1    2    0    0 -0.28532660935E+00 -0.28576616887E+00  0.27049819675E+01  0.27349590531E+01  0.00000000000E+00 0.  1.
</event>
<event>
 5    1  0.7095115E+001  0.1599536E+01  0.7818608E-02  0.3353867E+00
         11   -1    0    0    0    0  0.00000000000E+00  0.00000000000E+00  0.39999999674E+01  0.40000000000E+01  0.51100000000E-03 0.  1.
    9000002   -1    0    0    0    0 -0.00000000000E+00 -0.00000000000E+00  0.00000000000E+00  0.93800000000E+00  0.93800000000E+00 0.  1.
         11    1    1    2    0    0  0.31935612557E-02  0.48220324513E-03  0.46365463139E-01  0.46480626572E-01  0.51100000000E-03 0.  1.
    9000002    1    1    2    0    0 -0.49438144773E+00  0.70703100711E-01  0.17084647748E+00  0.10763105793E+01  0.93800000000E+00 0.  1.
         22    1    1    2    0    0  0.49118788647E+00 -0.71185303956E-01  0.37827880267E+01  0.38152087941E+01  0.00000000000E+00 0.  1.
</event>
<event>
 5    1  0.7095115E+001  0.1587544E+01  0.7818608E-02  0.3366995E+00
         11   -1    0    0    0    0  0.00000000000E+00  0.00000000000E+00  0.39999999674E+01  0.40000000000E+01  0.51100000000E-03 0.  1.
    9000002   -1    0    0    0    0 -0.00000000000E+00 -0.00000000000E+00  0.00000000000E+00  0.93800000000E+00  0.93800000000E+00 0.  1.
         11    1    1    2    0    0 -0.13167933949E-01 -0.28688612160E-01  0.85410836636E-01  0.91058789186E-01  0.51100000000E-03 0.  1.
    9000002    1    1    2    0    0 -0.46907212492E-01 -0.35418428659E+00  0.95537029161E-01  0.10082748233E+01  0.93800000000E+00 0.  1.
         22    1    1    2    0    0  0.60075146442E-01  0.38287289875E+00  0.38190521016E+01  0.38386663875E+01  0.00000000000E+00 0.  1.
</event>
<event>
 5    1  0.7095115E+001  0.1599677E+01  0.7818608E-02  0.3353714E+00
         11   -1    0    0    0    0  0.00000000000E+00  0.00000000000E+00  0.39999999674E+01  0.40000000000E+01  0.51100000000E-03 0. -1.
    9000002   -1    0    0    0    0 -0.00000000000E+00 -0.00000000000E+00  0.00000000000E+00  0.93800000000E+00  0.93800000000E+00 0.  1.
         11    1    1    2    0    0 -0.74331744826E-01  0.23324469789E+00  0.13730869930E+01  0.13947388461E+01  0.51100000000E-03 0. -1.
    9000002    1    1    2    0    0  0.19935072164E+00 -0.62829104351E+00  0.30727933518E+00  0.11869098261E+01  0.93800000000E+00 0.  1.
         22    1    1    2    0    0 -0.12501897681E+00  0.39504634562E+00  0.23196336392E+01  0.23563513278E+01  0.00000000000E+00 0. -1.
</event>
<event>
 5    1  0.7095115E+001  0.1554898E+01  0.7818608E-02  0.3403819E+00
         11   -1    0    0    0    0  0.00000000000E+00  0.00000000000E+00  0.39999999674E+01  0.40000000000E+01  0.51100000000E-03 0.  1.
    9000002   -1    0    0    0    0 -0.00000000000E+00 -0.00000000000E+00  0.00000000000E+00  0.93800000000E+00  0.93800000000E+00 0. -1.
         11    1    1    2    0    0 -0.13896882221E+00  0.20746359304E+00  0.10132954584E+01  0.10436098040E+01  0.51100000000E-03 0.  1.
    9000002    1    1    2    0    0 -0.25761710564E+00 -0.44514742676E+00  0.22360054192E+00  0.10928696203E+01  0.93800000000E+00 0. -1.
         22    1    1    2    0    0  0.39658592785E+00  0.23768383372E+00  0.27631039671E+01  0.28015205756E+01  0.00000000000E+00 0.  1.
</event>
<event>
 5    1  0.7095115E+001  0.1599676E+01  0.7818608E-02  0.3353715E+00
         11   -1    0    0    0    0  0.00000000000E+00  0.00000000000E+00  0.39999999674E+01  0.40000000000E+01  0.51100000000E-03 0.  1.
    9000002   -1    0    0    0    0 -0.00000000000E+00 -0.00000000000E+00  0.00000000000E+00  0.93800000000E+00  0.93800000000E+00 0.  1.
         11    1    1    2    0    0 -0.66796717909E-01  0.72796347695E-02  0.71281251034E+00  0.71597257673E+00  0.51100000000E-03 0. -1.
    9000002    1    1    2    0    0  0.36435128952E+00 -0.35635587919E-01  0.90027516670E-01  0.10109256704E+01  0.93800000000E+00 0.  1.
         22    1    1    2    0    0 -0.29755457162E+00  0.28355953150E-01  0.31971599403E+01  0.32111017529E+01  0.00000000000E+00 0.  1.
</event>
<event>
 5    1  0.7095115E+001  0.1599554E+01  0.7818608E-02  0.3353848E+00
         11   -1    0    0    0    0  0.00000000000E+00  0.00000000000E+00  0.39999999674E+01  0.40000000000E+01  0.51100000000E-03 0. -1.
    9000002   -1    0    0    0    0 -0.00000000000E+00 -0.00000000000E+00  0.00000000000E+00  0.93800000000E+00  0.93800000000E+00 0.  1.
         11    1    1    2    0    0 -0.17373391153E-01  0.10836255078E+00  0.10060523059E+01  0.10120206423E+01  0.51100000000E-03 0. -1.
    9000002    1    1    2    0    0  0.40849960647E-01 -0.38310312394E+00  0.10003998238E+00  0.10189645337E+01  0.93800000000E+00 0.  1.
         22    1    1    2    0    0 -0.23476569494E-01  0.27474057317E+00  0.28939076791E+01  0.29070148240E+01  0.00000000000E+00 0. -1.
</event>
<event>
 5    1  0.7720613E+001  0.1599500E+01  0.7818608E-02  0.3353906E+00
         11   -1    0    0    0    0  0.00000000000E+00  0.00000000000E+00  0.39999999674E+01  0.40000000000E+01  0.51100000000E-03 0. -1.
    9000002   -1    0    0    0    0 -0.00000000000E+00 -0.00000000000E+00  0.00000000000E+00  0.93800000000E+00  0.93800000000E+00 0. -1.
         11    1    1    2    0    0 -0.28828070383E-02 -0.64726775813E-01  0.68824359818E+00  0.69128675500E+00  0.51100000000E-03 0. -1.
    9000002    1    1    2    0    0 -0.52078144539E-01  0.35716596037E+00  0.87604852723E-01  0.10088598845E+01  0.93800000000E+00 0. -1.
         22    1    1    2    0    0  0.54960951578E-01 -0.29243918455E+00  0.32241515165E+01  0.32378533605E+01  0.00000000000E+00 0. -1.
</event>
<event>
 5    1  0.7095115E+001  0.1587432E+01  0.7818608E-02  0.3367118E+00
         11   -1    0    0    0    0  0.00000000000E+00  0.00000000000E+00  0.39999999674E+01  0.40000000000E+01  0.51100000000E-03 0.  1.
    9000002   -1    0    0    0    0 -0.00000000000E+00 -0.00000000000E+00  0.00000000000E+00  0.93800000000E+00  0.93800000000E+00 0.  1.
         11    1    1    2    0    0 -0.12789211361E+00 -0.23070168091E+00  0.12034627122E+01  0.12320318255E+01  0.51100000000E-03 0.  1.
    9000002    1    1    2    0    0  0.35593032340E+00  0.34007670670E+00  0.17671879539E+00  0.10739702483E+01  0.93800000000E+00 0.  1.
         22    1    1    2    0    0 -0.22803820979E+00 -0.10937502579E+00  0.26198184598E+01  0.26319979262E+01  0.00000000000E+00 0.  1.
</event>
<event>
 5    1  0.7095115E+001  0.1535288E+01  0.7818608E-02  0.3426741E+00
         11   -1    0    0    0    0  0.00000000000E+00  0.00000000000E+00  0.39999999674E+01  0.40000000000E+01  0.51100000000E-03 0.  1.
    9000002   -1    0    0    0    0 -0.00000000000E+00 -0.00000000000E+00  0.00000000000E+00  0.93800000000E+00  0.93800000000E+00 0.  1.
         11    1    1    2    0    0  0.53957495886E-01 -0.27938030206E+00  0.14300636384E+01  0.14580970597E+01  0.51100000000E-03 0.  1.
    9000002    1    1    2    0    0  0.16994847358E-01 -0.22252894946E-01  0.48683284932E-01  0.93967977439E+00  0.93800000000E+00 0.  1.
         22    1    1    2    0    0 -0.70952343244E-01  0.30163319700E+00  0.25212530440E+01  0.25402231659E+01  0.00000000000E+00 0.  1.
</event>
<event>
 5    1  0.7095115E+001  0.1599677E+01  0.7818608E-02  0.3353714E+00
         11   -1    0    0    0    0  0.00000000000E+00  0.00000000000E+00  0.39999999674E+01  0.40000000000E+01  0.51100000000E-03 0. -1.
    9000002   -1    0    0    0    0 -0.00000000000E+00 -0.00000000000E+00  0.00000000000E+00  0.93800000000E+00  0.93800000000E+00 0. -1.
         11    1    1    2    0    0 -0.40519024792E-01 -0.13576602298E+00  0.13273665032E+01  0.13349068504E+01  0.51100000000E-03 0. -1.
    9000002    1    1    2    0    0  0.11803570984E+00  0.39780477515E+00  0.11636751640E+00  0.10322627896E+01  0.93800000000E+00 0. -1.
         22    1    1    2    0    0 -0.77516685050E-01 -0.26203875217E+00  0.25562659477E+01  0.25708303600E+01  0.00000000000E+00 0. -1.
</event>
<event>
 5    1  0.7095115E+001  0.1599513E+01  0.7818608E-02  0.3353892E+00
         11   -1    0    0    0    0  0.00000000000E+00  0.00000000000E+00  0.39999999674E+01  0.40000000000E+01  0.51100000000E-03 0.  1.
    9000002   -1    0    0    0    0 -0.00000000000E+00 -0.00000000000E+00  0.00000000000E+00  0.93800000000E+00  0.93800000000E+00 0. -1.
         11    1    1    2    0    0 -0.10133503308E-01  0.53062235675E-03  0.10986997137E+00  0.11033875647E+00  0.51100000000E-03 0.  1.
    9000002    1    1    2    0    0  0.42588036987E+00 -0.18363252068E+00  0.14653510650E+00  0.10566037713E+01  0.93800000000E+00 0. -1.
         22    1    1    2    0    0 -0.41574686656E+00  0.18310189833E+00  0.37435948895E+01  0.37710574722E+01  0.00000000000E+00 0.  1.
</event>
<event>
 5    1  0.7095115E+001  0.1599657E+01  0.7818608E-02  0.3353736E+00
         11   -1    0    0    0    0  0.00000000000E+00  0.00000000000E+00  0.39999999674E+01  0.40000000000E+01  0.51100000000E-03 0. -1.
    9000002   -1    0    0    0    0 -0.00000000000E+00 -0.00000000000E+00  0.00000000000E+00  0.93800000000E+00  0.93800000000E+00 0.  1.
         11    1    1    2    0    0  0.40400816158E-01  0.88990445027E-01  0.11007667478E+01  0.11050969276E+01  0.51100000000E-03 0. -1.
    9000002    1    1    2    0    0 -0.14152318821E+00 -0.33332042068E+00  0.88060938565E-01  0.10093215764E+01  0.93800000000E+00 0.  1.
         22    1    1    2    0    0  0.10112237205E+00  0.24432997565E+00  0.28111722810E+01  0.28235814960E+01  0.00000000000E+00 0. -1.
</event>
<event>
 5    1  0.7095115E+001  0.1594853E+01  0.7818608E-02  0.3358969E+00
         11   -1    0    0    0    0  0.00000000000E+00  0.00000000000E+00  0.39999999674E+01  0.40000000000E+01  0.51100000000E-03 0.  1.
    9000002   -1    0    0    0    0 -0.00000000000E+00 -0.00000000000E+00  0.00000000000E+00  0.93800000000E+00  0.93800000000E+00 0.  1.
         11    1    1    2    0    0  0.16848405861E-02 -0.31935685412E-01  0.16081944509E+00  0.16396914872E+00  0.51100000000E-03 0.  1.
    9000002    1    1    2    0    0  0.41532676953E+00  0.10625804796E+00  0.12855445108E+00  0.10393061845E+01  0.93800000000E+00 0.  1.
         22    1    1    2    0    0 -0.41701161011E+00 -0.74322362550E-01  0.37106260712E+01  0.37347246668E+01  0.00000000000E+00 0.  1.
</event>
<event>
 5    1  0.7948649E+001  0.1586492E+01  0.7818608E-02  0.3368156E+00
         11   -1    0    0    0    0  0.00000000000E+00  0.00000000000E+00  0.39999999674E+01  0.40000000000E+01  0.51100000000E-03 0. -1.
    9000002   -1    0    0    0    0 -0.00000000000E+00 -0.00000000000E+00  0.00000000000E+00  0.93800000000E+00  0.93800000000E+00 0.  1.
         11    1    1    2    0    0 -0.10494737372E+00  0.65549336054E-01  0.13674522632E+01  0.13730391910E+01  0.51100000000E-03 0. -1.
    9000002    1    1    2    0    0 -0.70796902380E-01 -0.25518061385E+00  0.56853196057E-01  0.97632250459E+00  0.93800000000E+00 0.  1.
         22    1    1    2    0    0  0.17574427610E+00  0.18963127779E+00  0.25756945081E+01  0.25886383044E+01  0.00000000000E+00 0. -1.
</event>
<event>
 5    1  0.7095115E+001  0.1326556E+01  0.7818608E-02  0.3732355E+00
         11   -1    0    0    0    0  0.00000000000E+00  0.00000000000E+00  0.39999999674E+01  0.40000000000E+01  0.51100000000E-03 0.  1.
    9000002   -1    0    0    0    0 -0.00000000000E+00 -0.00000000000E+00  0.00000000000E+00  0.93800000000E+00  0.93800000000E+00 0.  1.
         11    1    1    2    0    0 -0.64437936297E+00 -0.58733439560E-01  0.28840422908E+00  0.70841487902E+00  0.51100000000E-03 0.  1.
    9000002    1    1    2    0    0  0.91143515184E+00 -0.56427918249E-01  0.14667757229E+01  0.19660043660E+01  0.93800000000E+00 0.  1.
         22    1    1    2    0    0 -0.26705578887E+00  0.11516135781E+00  0.22448200154E+01  0.22635807549E+01  0.00000000000E+00 0.  1.
</event>
<event>
 5    1  0.7095115E+001  0.1576955E+01  0.7818608E-02  0.3378762E+00
         11   -1    0    0    0    0  0.00000000000E+00  0.00000000000E+00  0.39999999674E+01  0.40000000000E+01  0.51100000000E-03 0.  1.
    9000002   -1    0    0    0    0 -0.00000000000E+00 -0.00000000000E+00  0.00000000000E+00  0.93800000000E+00  0.93800000000E+00 0. -1.
         11    1    1    2    0    0 -0.31948152340E-02 -0.68178007827E-01  0.14833716224E+01  0.14849411028E+01  0.51100000000E-03 0.  1.
    9000002    1    1    2    0    0  0.14511692703E+00 -0.26491593301E+00  0.78900446046E-01  0.98858922433E+00  0.93800000000E+00 0. -1.
         22    1    1    2    0    0 -0.14192211180E+00  0.33309394083E+00  0.24377278989E+01  0.24644696728E+01  0.00000000000E+00 0.  1.
</event>
<event>
 5    1  0.7095115E+001  0.1599675E+01  0.7818608E-02  0.3353716E+00
         11   -1    0    0    0    0  0.00000000000E+00  0.00000000000E+00  0.39999999674E+01  0.40000000000E+01  0.51100000000E-03 0. -1.
    9000002   -1    0    0    0    0 -0.00000000000E+00 -0.00000000000E+00  0.00000000000E+00  0.93800000000E+00  0.93800000000E+00 0.  1.
         11    1    1    2    0    0  0.35114590586E-01 -0.10151442034E+00  0.10030218148E+01  0.10087572722E+01  0.51100000000E-03 0. -1.
    9000002    1    1    2    0    0 -0.13313856954E+00  0.39696107751E+00  0.11853912691E+00  0.10340210348E+01  0.93800000000E+00 0.  1.
         22    1    1    2    0    0  0.98023978958E-01 -0.29544665717E+00  0.28784390256E+01  0.28952216931E+01  0.00000000000E+00 0. -1.
</event>
<event>
 5    1  0.7095115E+001  0.1599675E+01  0.7818608E-02  0.3353716E+00
         11   -1    0    0    0    0  0.00000000000E+00  0.00000000000E+00  0.39999999674E+01  0.40000000000E+01  0.51100000000E-03 0. -1.
    9000002   -1    0    0    0    0 -0.00000000000E+00 -0.00000000000E+00  0.00000000000E+00  0.93800000000E+00  0.93800000000E+00 0.  1.
         11    1    1    2    0    0 -0.57246908167E-01  0.12951908097E-01  0.51257819644E+00  0.51592793005E+00  0.51100000000E-03 0. -1.
    9000002    1    1    2    0    0  0.43678470929E+00 -0.90810950527E-01  0.13510136501E+00  0.10474368190E+01  0.93800000000E+00 0.  1.
         22    1    1    2    0    0 -0.37953780113E+00  0.77859042429E-01  0.33523204059E+01  0.33746352509E+01  0.00000000000E+00 0. -1.
</event>
<event>
 5    1  0.7095115E+001  0.1599621E+01  0.7818608E-02  0.3353775E+00
         11   -1    0    0    0    0  0.00000000000E+00  0.00000000000E+00  0.39999999674E+01  0.40000000000E+01  0.51100000000E-03 0.  1.
    9000002   -1    0    0    0    0 -0.00000000000E+00 -0.00000000000E+00  0.00000000000E+00  0.93800000000E+00  0.93800000000E+00 0. -1.
         11    1    1    2    0    0 -0.11667571052E+00 -0.82515341453E-01  0.14469107373E+01  0.14539508058E+01  0.51100000000E-03 0.  1.
    9000002    1    1    2    0    0  0.30840763567E+00  0.20029562793E+00  0.90904114308E-01  0.10116032653E+01  0.93800000000E+00 0. -1.
         22    1    1    2    0    0 -0.19173192515E+00 -0.11778028647E+00  0.24621851158E+01  0.24724459289E+01  0.00000000000E+00 0.  1.
</event>
<event>
 5    1  0.7095115E+001  0.1537632E+01  0.7818608E-02  0.3423968E+00
         11   -1    0    0    0    0  0.00000000000E+00  0.00000000000E+00  0.39999999674E+01  0.40000000000E+01  0.51100000000E-03 0. -1.
    9000002   -1    0    0    0    0 -0.00000000000E+00 -0.00000000000E+00  0.00000000000E+00  0.93800000000E+00  0.93800000000E+00 0. -1.
         11    1    1    2    0    0 -0.80935192846E-01 -0.21580695973E+00  0.14557550690E+01  0.14738881340E+01  0.51100000000E-03 0. -1.
    9000002    1    1    2    0    0  0.91515489414E-01 -0.18845897215E+00  0.77272913761E-01  0.96421313629E+00  0.93800000000E+00 0. -1.
         22    1    1    2    0    0 -0.10580296568E-01  0.40426593188E+00  0.24669719846E+01  0.24998987298E+01  0.00000000000E+00 0. -1.
</event>
<event>
 5    1  0.7095115E+001  0.1553538E+01  0.7818608E-02  0.3405389E+00
         11   -1    0    0    0    0  0.00000000000E+00  0.00000000000E+00  0.39999999674E+01  0.40000000000E+01  0.51100000000E-03 0.  1.
    9000002   -1    0    0    0    0 -0.00000000000E+00 -0.00000000000E+00  0.00000000000E+00  0.93800000000E+00  0.93800000000E+00 0.  1.
         11    1    1    2    0    0 -0.22832333056E+00 -0.11646856687E-01  0.84439905680E+00  0.87480124645E+00  0.51100000000E-03 0.  1.
    9000002    1    1    2    0    0  0.14197139031E+00 -0.32898309792E+00  0.12449923699E+00  0.10117953421E+01  0.93800000000E+00 0.  1.
         22    1    1    2    0    0  0.86351940247E-01  0.34062995460E+00  0.30311016736E+01  0.30514034114E+01  0.00000000000E+00 0.  1.
</event>
<event>
 5    1  0.7095115E+001  0.1599672E+01  0.7818608E-02  0.3353720E+00
         11   -1    0    0    0    0  0.00000000000E+00  0.00000000000E+00  0.39999999674E+01  0.40000000000E+01  0.51100000000E-03 0.  1.
    9000002   -1    0    0    0    0 -0.00000000000E+00 -0.00000000000E+00  0.00000000000E+00  0.93800000000E+00  0.93800000000E+00 0.  1.
         11    1    1    2    0    0  0.45199019543E-01  0.40254525321E-01  0.46951369512E+00  0.47339914365E+00  0.51100000000E-03 0.  1.
    9000002    1    1    2    0    0 -0.36654703120E+00 -0.34266724001E+00  0.17241219325E+00  0.10776583540E+01  0.93800000000E+00 0.  1.
         22    1    1    2    0    0  0.32134801166E+00  0.30241271469E+00  0.33580740790E+01  0.33869425024E+01  0.00000000000E+00 0.  1.
</event>
<event>
 5    1  0.7095115E+001  0.1504106E+01  0.7818608E-02  0.3464506E+00
         11   -1    0    0    0    0  0.00000000000E+00  0.00000000000E+00  0.39999999674E+01  0.40000000000E+01  0.51100000000E-03 0.  1.
    9000002   -1    0    0    0    0 -0.00000000000E+00 -0.00000000000E+00  0.00000000000E+00  0.93800000000E+00  0.93800000000E+00 0.  1.
         11    1    1    2    0    0  0.34200359376E+00  0.70936815386E-01  0.10921778786E+01  0.11466696427E+01  0.51100000000E-03 0.  1.
    9000002    1    1    2    0    0 -0.90230881746E-01  0.14246612032E+00  0.93379898745E-01  0.95760222063E+00  0.93800000000E+00 0.  1.
         22    1    1    2    0    0 -0.25177271202E+00 -0.21340293571E+00  0.28144421900E+01  0.28337281367E+01  0.00000000000E+00 0.  1.
</event>
<event>
 5    1  0.7095115E+001  0.1599335E+01  0.7818608E-02  0.3354085E+00
         11   -1    0    0    0    0  0.00000000000E+00  0.00000000000E+00  0.39999999674E+01  0.40000000000E+01  0.51100000000E-03 0. -1.
    9000002   -1    0    0    0    0 -0.00000000000E+00 -0.00000000000E+00  0.00000000000E+00  0.93800000000E+00  0.93800000000E+00 0. -1.
         11    1    1    2    0    0  0.23359868226E-02  0.23953308694E-01  0.28432870750E+00  0.28534591790E+00  0.51100000000E-03 0. -1.
    9000002    1    1    2    0    0  0.12309162733E+00 -0.36184956974E+00  0.98600396304E-01  0.10176702305E+01  0.93800000000E+00 0. -1.
         22    1    1    2    0    0 -0.12542761415E+00  0.33789626104E+00  0.36170708636E+01  0.36349838516E+01  0.00000000000E+00 0. -1.
</event>
<event>
 5    1  0.7095115E+001  0.1597721E+01  0.7818608E-02  0.3355841E+00
         11   -1    0    0    0    0  0.00000000000E+00  0.00000000000E+00  0.39999999674E+01  0.40000000000E+01  0.51100000000E-03 0. -1.
    9000002   -1    0    0    0    0 -0.00000000000E+00 -0.00000000000E+00  0.00000000000E+00  0.93800000000E+00  0.93800000000E+00 0.  1.
         11    1    1    2    0    0 -0.34887926227E-01  0.64494302032E-01  0.39147625191E+00  0.39828457078E+00  0.51100000000E-03 0. -1.
    9000002    1    1    2    0    0  0.27107983419E+00 -0.32693873386E+00  0.12372460962E+00  0.10370752100E+01  0.93800000000E+00 0.  1.
         22    1    1    2    0    0 -0.23619190797E+00  0.26244443183E+00  0.34847991058E+01  0.35026402192E+01  0.00000000000E+00 0. -1.
</event>
<event>
 5    1  0.7095115E+001  0.1594335E+01  0.7818608E-02  0.3359535E+00
         11   -1    0    0    0    0  0.00000000000E+00  0.00000000000E+00  0.39999999674E+01  0.40000000000E+01  0.51100000000E-03 0. -1.
    9000002   -1    0    0    0    0 -0.00000000000E+00 -0.00000000000E+00  0.00000000000E+00  0.93800000000E+00  0.93800000000E+00 0.  1.
         11    1    1    2    0    0  0.13358946970E-01  0.15748679759E-02  0.22123563724E+00  0.22164478334E+00  0.51100000000E-03 0. -1.
    9000002    1    1    2    0    0  0.44548609559E+00 -0.24353734838E+00  0.18154824220E+00  0.10819297878E+01  0.93800000000E+00 0.  1.
         22    1    1    2    0    0 -0.45884504256E+00  0.24196248041E+00  0.35972160879E+01  0.36344254289E+01  0.00000000000E+00 0. -1.
</event>
<event>
 5    1  0.7095115E+001  0.1553500E+01  0.7818608E-02  0.3405433E+00
         11   -1    0    0    0    0  0.00000000000E+00  0.00000000000E+00  0.39999999674E+01  0.40000000000E+01  0.51100000000E-03 0.  1.
    9000002   -1    0    0    0    0 -0.00000000000E+00 -0.00000000000E+00  0.00000000000E+00  0.93800000000E+00  0.93800000000E+00 0. -1.
         11    1    1    2    0    0  0.16723195877E+00  0.13921387783E+00  0.11550824851E+01  0.11753990132E+01  0.51100000000E-03 0.  1.
    9000002    1    1    2    0    0  0.72148573791E-01  0.62814184010E-02  0.37810345104E-01  0.94155111126E+00  0.93800000000E+00 0. -1.
         22    1    1    2    0    0 -0.23938053256E+00 -0.14549529623E+00  0.28071071372E+01  0.28210498756E+01  0.00000000000E+00 0.  1.
</event>
<event>
 5    1  0.7095115E+001  0.1595215E+01  0.7818608E-02  0.3358573E+00
         11   -1    0    0    0    0  0.00000000000E+00  0.00000000000E+00  0.39999999674E+01  0.40000000000E+01  0.51100000000E-03 0. -1.
    9000002   -1    0    0    0    0 -0.00000000000E+00 -0.00000000000E+00  0.00000000000E+00  0.93800000000E+00  0.93800000000E+00 0.  1.
         11    1    1    2    0    0  0.82995993050E-01  0.44998662115E-01  0.39215531905E+00  0.40335997550E+00  0.51100000000E-03 0. -1.
    9000002    1    1    2    0    0 -0.38503739679E+00 -0.22320435578E+00  0.13827957363E+00  0.10473964015E+01  0.93800000000E+00 0.  1.
         22    1    1    2    0    0  0.30204140374E+00  0.17820569366E+00  0.34695650747E+01  0.34872436230E+01  0.00000000000E+00 0. -1.
</event>
<event>
 5    1  0.7095115E+001  0.1580701E+01  0.7818608E-02  0.3374580E+00
         11   -1    0    0    0    0  0.00000000000E+00  0.00000000000E+00  0.39999999674E+01  0.40000000000E+01  0.51100000000E-03 0.  1.
    9000002   -1    0    0    0    0 -0.00000000000E+00 -0.00000000000E+00  0.00000000000E+00  0.93800000000E+00  0.93800000000E+00 0. -1.
         11    1    1    2    0    0  0.64894124886E-01  0.38292159985E+00  0.14022209129E+01  0.14550133844E+01  0.51100000000E-03 0.  1.
    9000002    1    1    2    0    0 -0.65487641540E-01 -0.59763348994E+00  0.27139385614E+00  0.11467140204E+01  0.93800000000E+00 0. -1.
         22    1    1    2    0    0  0.59351665331E-03  0.21471189009E+00  0.23263851983E+01  0.23362725952E+01  0.00000000000E+00 0.  1.
</event>
<event>
 5    1  0.7095115E+001  0.1599674E+01  0.7818608E-02  0.3353717E+00
         11   -1    0    0    0    0  0.00000000000E+00  0.00000000000E+00  0.39999999674E+01  0.40000000000E+01  0.51100000000E-03 0.  1.
    9000002   -1    0    0    0    0 -0.00000000000E+00 -0.00000000000E+00  0.00000000000E+00  0.93800000000E+00  0.93800000000E+00 0.  1.
         11    1    1    2    0    0 -0.22760993184E-01  0.64463698659E-01  0.71435006206E+00  0.71761403522E+00  0.51100000000E-03 0.  1.
    9000002    1    1    2    0    0  0.12462133885E+00 -0.34399504298E+00  0.89920393335E-01  0.10108376451E+01  0.93800000000E+00 0.  1.
         22    1    1    2    0    0 -0.10186034567E+00  0.27953134432E+00  0.31957295120E+01  0.32095483196E+01  0.00000000000E+00 0.  1.
</event>
<event>
 5    1  0.7095115E+001  0.1599676E+01  0.7818608E-02  0.3353716E+00
         11   -1    0    0    0    0  0.00000000000E+00  0.00000000000E+00  0.39999999674E+01  0.40000000000E+01  0.51100000000E-03 0.  1.
    9000002   -1    0    0    0    0 -0.00000000000E+00 -0.00000000000E+00  0.00000000000E+00  0.93800000000E+00  0.93800000000E+00 0. -1.
         11    1    1    2    0    0 -0.12012644997E+00 -0.35820582232E-01  0.50262904089E+00  0.51802479859E+00  0.51100000000E-03 0. -1.
    9000002    1    1    2    0    0  0.81855371340E+00  0.24876858933E+00  0.55010724850E+00  0.13836104862E+01  0.93800000000E+00 0. -1.
         22    1    1    2    0    0 -0.69842726343E+00 -0.21294800710E+00  0.29472636780E+01  0.30363647152E+01  0.00000000000E+00 0.  1.
</event>
<event>
 5    1  0.7095115E+001  0.1599185E+01  0.7818608E-02  0.3354248E+00
         11   -1    0    0    0    0  0.00000000000E+00  0.00000000000E+00  0.39999999674E+01  0.40000000000E+01  0.51100000000E-03 0. -1.
    9000002   -1    0    0    0    0 -0.00000000000E+00 -0.00000000000E+00  0.00000000000E+00  0.93800000000E+00  0.93800000000E+00 0.  1.
         11    1    1    2    0    0 -0.33042670657E-01  0.88889278581E-01  0.14200199768E+01  0.14231830935E+01  0.51100000000E-03 0. -1.
    9000002    1    1    2    0    0  0.88917297780E-01 -0.31691031265E+00  0.72872026572E-01  0.99674107188E+00  0.93800000000E+00 0.  1.
         22    1    1    2    0    0 -0.55874627123E-01  0.22802103407E+00  0.25071079640E+01  0.25180758346E+01  0.00000000000E+00 0. -1.
</event>
<event>
 5    1  0.7095115E+001  0.1599672E+01  0.7818608E-02  0.3353720E+00
         11   -1    0    0    0    0  0.00000000000E+00  0.00000000000E+00  0.39999999674E+01  0.40000000000E+01  0.51100000000E-03 0.  1.
    9000002   -1    0    0    0    0 -0.00000000000E+00 -0.00000000000E+00  0.00000000000E+00  0.93800000000E+00  0.93800000000E+00 0.  1.
         11    1    1    2    0    0  0.10226853481E-01  0.92971390000E-02  0.12667320937E+00  0.12742601154E+00  0.51100000000E-03 0.  1.
    9000002    1    1    2    0    0 -0.32882877895E+00 -0.30362787683E+00  0.13600889040E+00  0.10481701540E+01  0.93800000000E+00 0.  1.
         22    1    1    2    0    0  0.31860192547E+00  0.29433073783E+00  0.37373178676E+01  0.37624038345E+01  0.00000000000E+00 0.  1.
</event>
<event>
 5    1  0.7095115E+001  0.1464861E+01  0.7818608E-02  0.3514504E+00
         11   -1    0    0    0    0  0.00000000000E+00  0.00000000000E+00  0.39999999674E+01  0.40000000000E+01  0.51100000000E-03 0.  1.
    9000002   -1    0    0    0    0 -0.00000000000E+00 -0.00000000000E+00  0.00000000000E+00  0.93800000000E+00  0.93800000000E+00 0.  1.
         11    1    1    2    0    0  0.24968218541E+00  0.43055421717E+00  0.85249162278E+00  0.98714758555E+00  0.51100000000E-03 0.  1.
    9000002    1    1    2    0    0  0.44401626195E-01 -0.39989057908E+00  0.26671385448E+00  0.10549238171E+01  0.93800000000E+00 0.  1.
         22    1    1    2    0    0 -0.29408381160E+00 -0.30663638082E-01  0.28807944901E+01  0.28959285974E+01  0.00000000000E+00 0.  1.
</event>
<event>
 5    1  0.7095115E+001  0.1596116E+01  0.7818608E-02  0.3357590E+00
         11   -1    0    0    0    0  0.00000000000E+00  0.00000000000E+00  0.39999999674E+01  0.40000000000E+01  0.51100000000E-03 0. -1.
    9000002   -1    0    0    0    0 -0.00000000000E+00 -0.00000000000E+00  0.00000000000E+00  0.93800000000E+00  0.93800000000E+00 0. -1.
         11    1    1    2    0    0  0.10084595236E+00  0.86969526450E-01  0.61113141469E+00  0.62547219904E+00  0.51100000000E-03 0. -1.
    9000002    1    1    2    0    0 -0.37069727541E+00 -0.33574844790E+00  0.17445611506E+00  0.10772290501E+01  0.93800000000E+00 0. -1.
         22    1    1    2    0    0  0.26985132306E+00  0.24877892145E+00  0.32144124376E+01  0.32352987509E+01  0.00000000000E+00 0. -1.
</event>
<event>
 5    1  0.7095115E+001  0.1467324E+01  0.7818608E-02  0.3511282E+00
         11   -1    0    0    0    0  0.00000000000E+00  0.00000000000E+00  0.39999999674E+01  0.40000000000E+01  0.51100000000E-03 0. -1.
    9000002   -1    0    0    0    0 -0.00000000000E+00 -0.00000000000E+00  0.00000000000E+00  0.93800000000E+00  0.93800000000E+00 0. -1.
         11    1    1    2    0    0 -0.15450174464E+00 -0.42251993377E+00  0.11460385845E+01  0.12311777215E+01  0.51100000000E-03 0. -1.
    9000002    1    1    2    0    0  0.25416473585E+00  0.87892336011E-01  0.15818609157E+00  0.98853002749E+00  0.93800000000E+00 0. -1.
         22    1    1    2    0    0 -0.99662991214E-01  0.33462759776E+00  0.26957752913E+01  0.27182922510E+01  0.00000000000E+00 0. -1.
</event>
<event>
 5    1  0.7095115E+001  0.1599600E+01  0.7818608E-02  0.3353797E+00
         11   -1    0    0    0    0  0.00000000000E+00  0.00000000000E+00  0.39999999674E+01  0.40000000000E+01  0.51100000000E-03 0. -1.
    9000002   -1    0    0    0    0 -0.00000000000E+00 -0.00000000000E+00  0.00000000000E+00  0.93800000000E+00  0.93800000000E+00 0.  1.
         11    1    1    2    0    0  0.30816366862E-02  0.97046310366E-01  0.95677747619E+00  0.96169167768E+00  0.51100000000E-03 0. -1.
    9000002    1    1    2    0    0  0.17961411557E-01 -0.37518538248E+00  0.94941451350E-01  0.10148618442E+01  0.93800000000E+00 0.  1.
         22    1    1    2    0    0 -0.21043048243E-01  0.27813907212E+00  0.29482810398E+01  0.29614464782E+01  0.00000000000E+00 0. -1.
</event>
<event>
 5    1  0.7095115E+001  0.1599677E+01  0.7818608E-02  0.3353714E+00
         11   -1    0    0    0    0  0.00000000000E+00  0.00000000000E+00  0.39999999674E+01  0.40000000000E+01  0.51100000000E-03 0. -1.
    9000002   -1    0    0    0    0 -0.00000000000E+00 -0.00000000000E+00  0.00000000000E+00  0.93800000000E+00  0.93800000000E+00 0. -1.
         11    1    1    2    0    0 -0.33200258567E-01  0.55912787372E-01  0.68558243467E+00  0.68865959139E+00  0.51100000000E-03 0. -1.
    9000002    1    1    2    0    0  0.18876639807E+00 -0.31647076037E+00  0.91237931475E-01  0.10119065448E+01  0.93800000000E+00 0. -1.
         22    1    1    2    0    0 -0.15556613950E+00  0.26055797300E+00  0.32231796012E+01  0.32374338638E+01  0.00000000000E+00 0.  1.
</event>
<event>
 5    1  0.7095115E+001  0.1483912E+01  0.7818608E-02  0.3489877E+00
         11   -1    0    0    0    0  0.00000000000E+00  0.00000000000E+00  0.39999999674E+01  0.40000000000E+01  0.51100000000E-03 0.  1.
    9000002   -1    0    0    0    0 -0.00000000000E+00 -0.00000000000E+00  0.00000000000E+00  0.93800000000E+00  0.93800000000E+00 0. -1.
         11    1    1    2    0    0 -0.27984244069E+00 -0.52730990893E-01  0.58313629695E+00  0.64895342741E+00  0.51100000000E-03 0.  1.
    9000002    1    1    2    0    0 -0.89765504658E-01  0.53529454306E-01  0.97117389449E-01  0.94878819324E+00  0.93800000000E+00 0. -1.
         22    1    1    2    0    0  0.36960794535E+00 -0.79846341285E-03  0.33197462810E+01  0.33402583793E+01  0.00000000000E+00 0.  1.
</event>
<event>
 5    1  0.7095115E+001  0.1599676E+01  0.7818608E-02  0.3353715E+00
         11   -1    0    0    0    0  0.00000000000E+00  0.00000000000E+00  0.39999999674E+01  0.40000000000E+01  0.51100000000E-03 0.  1.
    9000002   -1    0    0    0    0 -0.00000000000E+00 -0.00000000000E+00  0.00000000000E+00  0.93800000000E+00  0.93800000000E+00 0.  1.
         11    1    1    2    0    0  0.36006333624E-01 -0.86220324570E-02  0.35907188114E+00  0.36097599983E+00  0.51100000000E-03 0. -1.
    9000002    1    1    2    0    0 -0.39312215699E+00  0.98385556934E-01  0.11084888247E+00  0.10277919161E+01  0.93800000000E+00 0.  1.
         22    1    1    2    0    0  0.35711582337E+00 -0.89763524477E-01  0.35300792037E+01  0.35492320840E+01  0.00000000000E+00 0.  1.
</event>
<event>
 5    1  0.7095115E+001  0.1577551E+01  0.7818608E-02  0.3378095E+00
         11   -1    0    0    0    0  0.00000000000E+00  0.00000000000E+00  0.39999999674E+01  0.40000000000E+01  0.51100000000E-03 0. -1.
    9000002   -1    0    0    0    0 -0.00000000000E+00 -0.00000000000E+00  0.00000000000E+00  0.93800000000E+00  0.93800000000E+00 0. -1.
         11    1    1    2    0    0  0.12795648892E+00 -0.91023817041E-01  0.14777299540E+01  0.14860498903E+01  0.51100000000E-03 0. -1.
    9000002    1    1    2    0    0  0.56703520485E-01  0.46759631563E+00  0.17087053104E+00  0.10634389226E+01  0.93800000000E+00 0. -1.
         22    1    1    2    0    0 -0.18466000941E+00 -0.37657249859E+00  0.23513994823E+01  0.23885111872E+01  0.00000000000E+00 0. -1.
</event>
<event>
 5    1  0.7095115E+001  0.1599656E+01  0.7818608E-02  0.3353736E+00
         11   -1    0    0    0    0  0.00000000000E+00  0.00000000000E+00  0.39999999674E+01  0.40000000000E+01  0.51100000000E-03 0. -1.
    9000002   -1    0    0    0    0 -0.00000000000E+00 -0.00000000000E+00  0.00000000000E+00  0.93800000000E+00  0.93800000000E+00 0.  1.
         11    1    1    2    0    0 -0.41416242057E-01 -0.18276450386E-01  0.50654432962E+00  0.50856342057E+00  0.51100000000E-03 0. -1.
    9000002    1    1    2    0    0  0.34272422711E+00  0.12486523669E+00  0.89377704189E-01  0.10103878449E+01  0.93800000000E+00 0.  1.
         22    1    1    2    0    0 -0.30130798505E+00 -0.10658878631E+00  0.34040779336E+01  0.34190487345E+01  0.00000000000E+00 0. -1.
</event>
<event>
 5    1  0.7095115E+001  0.1599670E+01  0.7818608E-02  0.3353722E+00
         11   -1    0    0    0    0  0.00000000000E+00  0.00000000000E+00  0.39999999674E+01  0.40000000000E+01  0.51100000000E-03 0.  1.
    9000002   -1    0    0    0    0 -0.00000000000E+00 -0.00000000000E+00  0.00000000000E+00  0.93800000000E+00  0.93800000000E+00 0. -1.
         11    1    1    2    0    0 -0.30685482777E-01 -0.55074467566E-02  0.30201134323E+00  0.30361660591E+00  0.51100000000E-03 0.  1.
    9000002    1    1    2    0    0  0.40049342513E+00  0.92077386442E-01  0.11407726450E+00  0.10304032468E+01  0.93800000000E+00 0. -1.
         22    1    1    2    0    0 -0.36980794235E+00 -0.86569939685E-01  0.35839113596E+01  0.36039801473E+01  0.00000000000E+00 0.  1.
</event>
<event>
 5    1  0.7095115E+001  0.1599507E+01  0.7818608E-02  0.3353899E+00
         11   -1    0    0    0    0  0.00000000000E+00  0.00000000000E+00  0.39999999674E+01  0.40000000000E+01  0.51100000000E-03 0.  1.
    9000002   -1    0    0    0    0 -0.00000000000E+00 -0.00000000000E+00  0.00000000000E+00  0.93800000000E+00  0.93800000000E+00 0.  1.
         11    1    1    2    0    0 -0.16673887832E+00 -0.56607175420E-01  0.94285835966E+00  0.95916024383E+00  0.51100000000E-03 0.  1.
    9000002    1    1    2    0    0  0.68263666069E+00  0.25009732943E+00  0.38077442756E+00  0.12463445147E+01  0.93800000000E+00 0.  1.
         22    1    1    2    0    0 -0.51589778237E+00 -0.19349015401E+00  0.26763671801E+01  0.27324952414E+01  0.00000000000E+00 0.  1.
</event>
<event>
 5    1  0.7095115E+001  0.1599537E+01  0.7818608E-02  0.3353866E+00
         11   -1    0    0    0    0  0.00000000000E+00  0.00000000000E+00  0.39999999674E+01  0.40000000000E+01  0.51100000000E-03 0. -1.
    9000002   -1    0    0    0    0 -0.00000000000E+00 -0.00000000000E+00  0.00000000000E+00  0.93800000000E+00  0.93800000000E+00 0.  1.
         11    1    1    2    0    0 -0.55958391912E-01  0.11745560425E+00  0.10435485220E+01  0.10516277571E+01  0.51100000000E-03 0. -1.
    9000002    1    1    2    0    0  0.24406278330E+00 -0.45479464847E+00  0.18300226617E+00  0.10861577436E+01  0.93800000000E+00 0.  1.
         22    1    1    2    0    0 -0.18810439139E+00  0.33733904422E+00  0.27734491792E+01  0.28002144993E+01  0.00000000000E+00 0. -1.
</event>
<event>
 5    1  0.7095115E+001  0.1599558E+01  0.7818608E-02  0.3353844E+00
         11   -1    0    0    0    0  0.00000000000E+00  0.00000000000E+00  0.39999999674E+01  0.40000000000E+01  0.51100000000E-03 0. -1.
    9000002   -1    0    0    0    0 -0.00000000000E+00 -0.00000000000E+00  0.00000000000E+00  0.93800000000E+00  0.93800000000E+00 0. -1.
         11    1    1    2    0    0 -0.96689674763E-01  0.90659494114E-01  0.10723928175E+01  0.10805529387E+01  0.51100000000E-03 0. -1.
    9000002    1    1    2    0    0  0.34838139670E+00 -0.36557161773E+00  0.17482537706E+00  0.10795462555E+01  0.93800000000E+00 0. -1.
         22    1    1    2    0    0 -0.25169172194E+00  0.27491212361E+00  0.27527817728E+01  0.27779008059E+01  0.00000000000E+00 0. -1.
</event>
<event>
 5    1  0.7095115E+001  0.1541210E+01  0.7818608E-02  0.3419753E+00
         11   -1    0    0    0    0  0.00000000000E+00  0.00000000000E+00  0.39999999674E+01  0.40000000000E+01  0.51100000000E-03 0.  1.
    9000002   -1    0    0    0    0 -0.00000000000E+00 -0.00000000000E+00  0.00000000000E+00  0.93800000000E+00  0.93800000000E+00 0. -1.
         11    1    1    2    0    0  0.90760327082E-01  0.87084777003E-03  0.98597101603E-01  0.13401434592E+00  0.51100000000E-03 0.  1.
    9000002    1    1    2    0    0  0.26731012052E+00  0.27177893225E+00  0.14748860233E+00  0.10231888273E+01  0.93800000000E+00 0. -1.
         22    1    1    2    0    0 -0.35807044761E+00 -0.27264978002E+00  0.37539142634E+01  0.37807968267E+01  0.00000000000E+00 0.  1.
</event>
<event>
 5    1  0.7095115E+001  0.1599628E+01  0.7818608E-02  0.3353768E+00
         11   -1    0    0    0    0  0.00000000000E+00  0.00000000000E+00  0.39999999674E+01  0.40000000000E+01  0.51100000000E-03 0.  1.
    9000002   -1    0    0    0    0 -0.00000000000E+00 -0.00000000000E+00  0.00000000000E+00  0.93800000000E+00  0.93800000000E+00 0.  1.
         11    1    1    2    0    0  0.47361399809E-01  0.11180228629E+00  0.11446030384E+01  0.11510252952E+01  0.51100000000E-03 0.  1.
    9000002    1    1    2    0    0 -0.18193630410E+00 -0.36421248419E+00  0.11194741851E+00  0.10286533803E+01  0.93800000000E+00 0.  1.
         22    1    1    2    0    0  0.13457490429E+00  0.25241019790E+00  0.27434495104E+01  0.27583213245E+01  0.00000000000E+00 0.  1.
</event>
<event>
 5    1  0.7095115E+001  0.1599673E+01  0.7818608E-02  0.3353718E+00
         11   -1    0    0    0    0  0.00000000000E+00  0.00000000000E+00  0.39999999674E+01  0.40000000000E+01  0.51100000000E-03 0. -1.
    9000002   -1    0    0    0    0 -0.00000000000E+00 -0.00000000000E+00  0.00000000000E+00  0.93800000000E+00  0.93800000000E+00 0. -1.
         11    1    1    2    0    0  0.10888599412E+00 -0.58854600253E-01  0.81010898377E+00  0.81951012831E+00  0.51100000000E-03 0. -1.
    9000002    1    1    2    0    0 -0.50309832488E+00  0.28186159809E+00  0.23090316726E+00  0.11250396249E+01  0.93800000000E+00 0. -1.
         22    1    1    2    0    0  0.39421233075E+00 -0.22300699783E+00  0.29589878163E+01  0.29934502468E+01  0.00000000000E+00 0. -1.
</event>
<event>
 5    1  0.7095115E+001  0.1598759E+01  0.7818608E-02  0.3354711E+00
         11   -1    0    0    0    0  0.00000000000E+00  0.00000000000E+00  0.39999999674E+01  0.40000000000E+01  0.51100000000E-03 0.  1.
    9000002   -1    0    0    0    0 -0.00000000000E+00 -0.00000000000E+00  0.00000000000E+00  0.93800000000E+00  0.93800000000E+00 0.  1.
         11    1    1    2    0    0  0.10032910727E+00 -0.36414536546E-01  0.83294080402E+00  0.83975150632E+00  0.51100000000E-03 0.  1.
    9000002    1    1    2    0    0 -0.41583083338E+00  0.39845770400E-01  0.11875482013E+00  0.10336583936E+01  0.93800000000E+00 0.  1.
         22    1    1    2    0    0  0.31550172610E+00 -0.34312338532E-02  0.30483043432E+01  0.30645901001E+01  0.00000000000E+00 0.  1.
</event>
<event>
 5    1  0.7095115E+001  0.1599677E+01  0.7818608E-02  0.3353714E+00
         11   -1    0    0    0    0  0.00000000000E+00  0.00000000000E+00  0.39999999674E+01  0.40000000000E+01  0.51100000000E-03 0. -1.
    9000002   -1    0    0    0    0 -0.00000000000E+00 -0.00000000000E+00  0.00000000000E+00  0.93800000000E+00  0.93800000000E+00 0. -1.
         11    1    1    2    0    0 -0.21991341687E+00 -0.53759806465E-02  0.10620385000E+01  0.10845814164E+01  0.51100000000E-03 0. -1.
    9000002    1    1    2    0    0  0.74559334646E+00  0.16134114512E-01  0.40267391557E+00  0.12641835429E+01  0.93800000000E+00 0. -1.
         22    1    1    2    0    0 -0.52567992959E+00 -0.10758133865E-01  0.25352875518E+01  0.25892350407E+01  0.00000000000E+00 0. -1.
</event>
<event>
 5    1  0.7095115E+001  0.1599675E+01  0.7818608E-02  0.3353716E+00
         11   -1    0    0    0    0  0.00000000000E+00  0.00000000000E+00  0.39999999674E+01  0.40000000000E+01  0.51100000000E-03 0.  1.
    9000002   -1    0    0    0    0 -0.00000000000E+00 -0.00000000000E+00  0.00000000000E+00  0.93800000000E+00  0.93800000000E+00 0.  1.
         11    1    1    2    0    0 -0.46725782308E-01 -0.79320052314E-01  0.95135100343E+00  0.95579493736E+00  0.51100000000E-03 0.  1.
    9000002    1    1    2    0    0  0.19258245151E+00  0.31986884207E+00  0.93723780262E-01  0.10139192393E+01  0.93800000000E+00 0.  1.
         22    1    1    2    0    0 -0.14585666920E+00 -0.24054878976E+00  0.29549251837E+01  0.29682858234E+01  0.00000000000E+00 0.  1.
</event>
<event>
 5    1  0.7095115E+001  0.1599597E+01  0.7818608E-02  0.3353801E+00
         11   -1    0    0    0    0  0.00000000000E+00  0.00000000000E+00  0.39999999674E+01  0.40000000000E+01  0.51100000000E-03 0. -1.
    9000002   -1    0    0    0    0 -0.00000000000E+00 -0.00000000000E+00  0.00000000000E+00  0.93800000000E+00  0.93800000000E+00 0. -1.
         11    1    1    2    0    0 -0.10994936737E+00 -0.14082997759E+00  0.13212823660E+01  0.13333076531E+01  0.51100000000E-03 0. -1.
    9000002    1    1    2    0    0  0.28960594765E+00  0.40272490504E+00  0.16840156646E+00  0.10743658789E+01  0.93800000000E+00 0. -1.
         22    1    1    2    0    0 -0.17965658029E+00 -0.26189492745E+00  0.25103160349E+01  0.25303264681E+01  0.00000000000E+00 0. -1.
</event>
<event>
 5    1  0.7095115E+001  0.1599599E+01  0.7818608E-02  0.3353799E+00
         11   -1    0    0    0    0  0.00000000000E+00  0.00000000000E+00  0.39999999674E+01  0.40000000000E+01  0.51100000000E-03 0. -1.
    9000002   -1    0    0    0    0 -0.00000000000E+00 -0.00000000000E+00  0.00000000000E+00  0.93800000000E+00  0.93800000000E+00 0.  1.
         11    1    1    2    0    0 -0.64869709561E-01 -0.46726768048E-01  0.65985655547E+00  0.66468218344E+00  0.51100000000E-03 0. -1.
    9000002    1    1    2    0    0  0.35893342195E+00  0.23271571430E+00  0.12395561479E+00  0.10383635199E+01  0.93800000000E+00 0.  1.
         22    1    1    2    0    0 -0.29406371239E+00 -0.18598894625E+00  0.32161877971E+01  0.32349542966E+01  0.00000000000E+00 0. -1.
</event>
<event>
 5    1  0.7095115E+001  0.1599676E+01  0.7818608E-02  0.3353715E+00
         11   -1    0    0    0    0  0.00000000000E+00  0.00000000000E+00  0.39999999674E+01  0.40000000000E+01  0.51100000000E-03 0.  1.
    9000002   -1    0    0    0    0 -0.00000000000E+00 -0.00000000000E+00  0.00000000000E+00  0.93800000000E+00  0.93800000000E+00 0.  1.
         11    1    1    2    0    0  0.52740834596E-01  0.14539038486E-01  0.40460381248E+00  0.40828603389E+00  0.51100000000E-03 0.  1.
    9000002    1    1    2    0    0 -0.50173633004E+00 -0.14099602182E+00  0.18661949014E+00  0.10891694345E+01  0.93800000000E+00 0.  1.
         22    1    1    2    0    0  0.44899549545E+00  0.12645698333E+00  0.34087766647E+01  0.34405445316E+01  0.00000000000E+00 0.  1.
</event>
<event>
 5    1  0.7095115E+001  0.1584544E+01  0.7818608E-02  0.3370311E+00
         11   -1    0    0    0    0  0.00000000000E+00  0.00000000000E+00  0.39999999674E+01  0.40000000000E+01  0.51100000000E-03 0.  1.
    9000002   -1    0    0    0    0 -0.00000000000E+00 -0.00000000000E+00  0.00000000000E+00  0.93800000000E+00  0.93800000000E+00 0.  1.
         11    1    1    2    0    0 -0.87579339448E-01 -0.25232641931E+00  0.11726432778E+01  0.12026767149E+01  0.51100000000E-03 0.  1.
    9000002    1    1    2    0    0  0.13865778504E-02  0.47676785420E+00  0.16850130807E+00  0.10656201013E+01  0.93800000000E+00 0.  1.
         22    1    1    2    0    0  0.86192761597E-01 -0.22444143489E+00  0.26588553815E+01  0.26697031838E+01  0.00000000000E+00 0.  1.
</event>
<event>
 5    1  0.7095115E+001  0.1596963E+01  0.7818608E-02  0.3356667E+00
         11   -1    0    0    0    0  0.00000000000E+00  0.00000000000E+00  0.39999999674E+01  0.40000000000E+01  0.51100000000E-03 0.  1.
    9000002   -1    0    0    0    0 -0.00000000000E+00 -0.00000000000E+00  0.00000000000E+00  0.93800000000E+00  0.93800000000E+00 0.  1.
         11    1    1    2    0    0  0.49017304220E-01 -0.26857065860E-01  0.90552805738E+00  0.90725152076E+00  0.51100000000E-03 0.  1.
    9000002    1    1    2    0    0 -0.22583437367E+00  0.34261752454E+00  0.11601275726E+00  0.10303838568E+01  0.93800000000E+00 0.  1.
         22    1    1    2    0    0  0.17681706945E+00 -0.31576045868E+00  0.29784591527E+01  0.30003646225E+01  0.00000000000E+00 0.  1.
</event>
<event>
 5    1  0.7095115E+001  0.1599673E+01  0.7818608E-02  0.3353719E+00
         11   -1    0    0    0    0  0.00000000000E+00  0.00000000000E+00  0.39999999674E+01  0.40000000000E+01  0.51100000000E-03 0. -1.
    9000002   -1    0    0    0    0 -0.00000000000E+00 -0.00000000000E+00  0.00000000000E+00  0.93800000000E+00  0.93800000000E+00 0.  1.
         11    1    1    2    0    0  0.25808865275E-01  0.10902881035E+00  0.12367579506E+01  0.12418228008E+01  0.51100000000E-03 0. -1.
    9000002    1    1    2    0    0 -0.74496437400E-01 -0.34698577770E+00  0.84499522768E-01  0.10064457355E+01  0.93800000000E+00 0.  1.
         22    1    1    2    0    0  0.48687572125E-01  0.23795696735E+00  0.26787424940E+01  0.26897314638E+01  0.00000000000E+00 0. -1.
</event>
<event>
 5    1  0.7095115E+001  0.1591596E+01  0.7818608E-02  0.3362535E+00
         11   -1    0    0    0    0  0.00000000000E+00  0.00000000000E+00  0.39999999674E+01  0.40000000000E+01  0.51100000000E-03 0.  1.
    9000002   -1    0    0    0    0 -0.00000000000E+00 -0.00000000000E+00  0.00000000000E+00  0.93800000000E+00  0.93800000000E+00 0. -1.
         11    1    1    2    0    0  0.30375160960E-01  0.19852363729E-01  0.64759798749E+00  0.64861404647E+00  0.51100000000E-03 0.  1.
    9000002    1    1    2    0    0 -0.49191396919E+00 -0.45884757486E+00  0.32990737138E+00  0.12005012802E+01  0.93800000000E+00 0. -1.
         22    1    1    2    0    0  0.46153880823E+00  0.43899521113E+00  0.30224946085E+01  0.30888846733E+01  0.00000000000E+00 0.  1.
</event>
<event>
 5    1  0.7095115E+001  0.1599675E+01  0.7818608E-02  0.3353716E+00
         11   -1    0    0    0    0  0.00000000000E+00  0.00000000000E+00  0.39999999674E+01  0.40000000000E+01  0.51100000000E-03 0. -1.
    9000002   -1    0    0    0    0 -0.00000000000E+00 -0.00000000000E+00  0.00000000000E+00  0.93800000000E+00  0.93800000000E+00 0.  1.
         11    1    1    2    0    0  0.43217612610E-01  0.71143175421E-02  0.40746326459E+00  0.40981086939E+00  0.51100000000E-03 0. -1.
    9000002    1    1    2    0    0 -0.41645182461E+00 -0.75920737795E-01  0.12124780233E+00  0.10362147993E+01  0.93800000000E+00 0.  1.
         22    1    1    2    0    0  0.37323421200E+00  0.68806420252E-01  0.34712889004E+01  0.34919743313E+01  0.00000000000E+00 0. -1.
</event>
<event>
 5    1  0.7095115E+001  0.1599197E+01  0.7818608E-02  0.3354235E+00
         11   -1    0    0    0    0  0.00000000000E+00  0.00000000000E+00  0.39999999674E+01  0.40000000000E+01  0.51100000000E-03 0.  1.
    9000002   -1    0    0    0    0 -0.00000000000E+00 -0.00000000000E+00  0.00000000000E+00  0.93800000000E+00  0.93800000000E+00 0.  1.
         11    1    1    2    0    0  0.25898570224E-03  0.25467668968E-02  0.24942327539E-01  0.25078554968E-01  0.51100000000E-03 0.  1.
    9000002    1    1    2    0    0 -0.39563491293E+00  0.14889989421E+00  0.12130529882E+00  0.10359812442E+01  0.93800000000E+00 0.  1.
         22    1    1    2    0    0  0.39537592723E+00 -0.15144666111E+00  0.38537523410E+01  0.38769402008E+01  0.00000000000E+00 0.  1.
</event>
<event>
 5    1  0.7095115E+001  0.1599674E+01  0.7818608E-02  0.3353718E+00
         11   -1    0    0    0    0  0.00000000000E+00  0.00000000000E+00  0.39999999674E+01  0.40000000000E+01  0.51100000000E-03 0. -1.
    9000002   -1    0    0    0    0 -0.00000000000E+00 -0.00000000000E+00  0.00000000000E+00  0.93800000000E+00  0.93800000000E+00 0. -1.
         11    1    1    2    0    0 -0.33865203946E-01  0.18866645237E-01  0.36715971215E+00  0.36920091777E+00  0.51100000000E-03 0. -1.
    9000002    1    1    2    0    0  0.34707919760E+00 -0.19493467905E+00  0.10686327681E+00  0.10245619837E+01  0.93800000000E+00 0. -1.
         22    1    1    2    0    0 -0.31321399365E+00  0.17606803382E+00  0.35259769784E+01  0.35442370985E+01  0.00000000000E+00 0. -1.
</event>
<event>
 5    1  0.7095115E+001  0.1524106E+01  0.7818608E-02  0.3440093E+00
         11   -1    0    0    0    0  0.00000000000E+00  0.00000000000E+00  0.39999999674E+01  0.40000000000E+01  0.51100000000E-03 0.  1.
    9000002   -1    0    0    0    0 -0.00000000000E+00 -0.00000000000E+00  0.00000000000E+00  0.93800000000E+00  0.93800000000E+00 0.  1.
         11    1    1    2    0    0 -0.37120160678E-01  0.82460566096E-01  0.52437828814E-01  0.10453534475E+00  0.51100000000E-03 0.  1.
    9000002    1    1    2    0    0  0.29367814489E+00  0.27015818084E+00  0.17315865437E+00  0.10339536813E+01  0.93800000000E+00 0.  1.
         22    1    1    2    0    0 -0.25655798421E+00 -0.35261874693E+00  0.37744034842E+01  0.37995109740E+01  0.00000000000E+00 0.  1.
</event>
<event>
 5    1  0.7095115E+001  0.1599314E+01  0.7818608E-02  0.3354108E+00
         11   -1    0    0    0    0  0.00000000000E+00  0.00000000000E+00  0.39999999674E+01  0.40000000000E+01  0.51100000000E-03 0. -1.
    9000002   -1    0    0    0    0 -0.00000000000E+00 -0.00000000000E+00  0.00000000000E+00  0.93800000000E+00  0.93800000000E+00 0.  1.
         11    1    1    2    0    0  0.41918347663E-01  0.14808000223E+00  0.93875900410E+00  0.95129047290E+00  0.51100000000E-03 0. -1.
    9000002    1    1    2    0    0 -0.22512625390E+00 -0.53798836085E+00  0.23681686666E+00  0.11296191991E+01  0.93800000000E+00 0.  1.
         22    1    1    2    0    0  0.18320790623E+00  0.38990835862E+00  0.28244240966E+01  0.28570903280E+01  0.00000000000E+00 0. -1.
</event>
<event>
 5    1  0.7095115E+001  0.1599347E+01  0.7818608E-02  0.3354072E+00
         11   -1    0    0    0    0  0.00000000000E+00  0.00000000000E+00  0.39999999674E+01  0.40000000000E+01  0.51100000000E-03 0. -1.
    9000002   -1    0    0    0    0 -0.00000000000E+00 -0.00000000000E+00  0.00000000000E+00  0.93800000000E+00  0.93800000000E+00 0.  1.
         11    1    1    2    0    0 -0.34248516025E-01 -0.15567336562E+00  0.12575353367E+01  0.12675971528E+01  0.51100000000E-03 0. -1.
    9000002    1    1    2    0    0  0.87568724944E-01  0.41891705594E+00  0.12428758522E+00  0.10384850433E+01  0.93800000000E+00 0.  1.
         22    1    1    2    0    0 -0.53320208919E-01 -0.26324369032E+00  0.26181770455E+01  0.26319178039E+01  0.00000000000E+00 0. -1.
</event>
<event>
 5    1  0.7095115E+001  0.1599677E+01  0.7818608E-02  0.3353714E+00
         11   -1    0    0    0    0  0.00000000000E+00  0.00000000000E+00  0.39999999674E+01  0.40000000000E+01  0.51100000000E-03 0. -1.
    9000002   -1    0    0    0    0 -0.00000000000E+00 -0.00000000000E+00  0.00000000000E+00  0.93800000000E+00  0.93800000000E+00 0.  1.
         11    1    1    2    0    0  0.62361897247E-01  0.41776276493E-01  0.74313076233E+00  0.74691221342E+00  0.51100000000E-03 0. -1.
    9000002    1    1    2    0    0 -0.32739202677E+00 -0.21624561065E+00  0.10374052981E+00  0.10220341486E+01  0.93800000000E+00 0.  1.
         22    1    1    2    0    0  0.26503012952E+00  0.17446933416E+00  0.31531286752E+01  0.31690536380E+01  0.00000000000E+00 0. -1.
</event>
<event>
 5    1  0.7095115E+001  0.1599677E+01  0.7818608E-02  0.3353714E+00
         11   -1    0    0    0    0  0.00000000000E+00  0.00000000000E+00  0.39999999674E+01  0.40000000000E+01  0.51100000000E-03 0.  1.
    9000002   -1    0    0    0    0 -0.00000000000E+00 -0.00000000000E+00  0.00000000000E+00  0.93800000000E+00  0.93800000000E+00 0.  1.
         11    1    1    2    0    0  0.30016532148E-01  0.12937168211E+00  0.12511252723E+01  0.12581544947E+01  0.51100000000E-03 0.  1.
    9000002    1    1    2    0    0 -0.93290448482E-01 -0.40330519595E+00  0.11579615161E+00  0.10317998535E+01  0.93800000000E+00 0.  1.
         22    1    1    2    0    0  0.63273916334E-01  0.27393351384E+00  0.26330785434E+01  0.26480456518E+01  0.00000000000E+00 0.  1.
</event>
<event>
 5    1  0.7095115E+001  0.1557289E+01  0.7818608E-02  0.3401066E+00
         11   -1    0    0    0    0  0.00000000000E+00  0.00000000000E+00  0.39999999674E+01  0.40000000000E+01  0.51100000000E-03 0.  1.
    9000002   -1    0    0    0    0 -0.00000000000E+00 -0.00000000000E+00  0.00000000000E+00  0.93800000000E+00  0.93800000000E+00 0.  1.
         11    1    1    2    0    0  0.77618120646E-01 -0.18055585503E+00  0.58448072415E+00  0.61663844144E+00  0.51100000000E-03 0.  1.
    9000002    1    1    2    0    0  0.24371111340E+00  0.28318667508E+00  0.12934668891E+00  0.10179215911E+01  0.93800000000E+00 0.  1.
         22    1    1    2    0    0 -0.32132923404E+00 -0.10263082005E+00  0.32861725543E+01  0.33034399674E+01  0.00000000000E+00 0.  1.
</event>
<event>
 5    1  0.7095115E+001  0.1574317E+01  0.7818608E-02  0.3381720E+00
         11   -1    0    0    0    0  0.00000000000E+00  0.00000000000E+00  0.39999999674E+01  0.40000000000E+01  0.51100000000E-03 0. -1.
    9000002   -1    0    0    0    0 -0.00000000000E+00 -0.00000000000E+00  0.00000000000E+00  0.93800000000E+00  0.93800000000E+00 0.  1.
         11    1    1    2    0    0 -0.20364810712E-01 -0.92087484414E-01  0.37120789159E+00  0.38300181488E+00  0.51100000000E-03 0. -1.
    9000002    1    1    2    0    0 -0.34957813066E+00 -0.75367436472E-01  0.10662972020E+00  0.10095043423E+01  0.93800000000E+00 0.  1.
         22    1    1    2    0    0  0.36994294137E+00  0.16745492089E+00  0.35221623556E+01  0.35454938428E+01  0.00000000000E+00 0. -1.
</event>
<event>
 5    1  0.7095115E+001  0.1599063E+01  0.7818608E-02  0.3354381E+00
         11   -1    0    0    0    0  0.00000000000E+00  0.00000000000E+00  0.39999999674E+01  0.40000000000E+01  0.51100000000E-03 0. -1.
    9000002   -1    0    0    0    0 -0.00000000000E+00 -0.00000000000E+00  0.00000000000E+00  0.93800000000E+00  0.93800000000E+00 0.  1.
         11    1    1    2    0    0 -0.28858724827E+00  0.28240745385E+00  0.13104112222E+01  0.13712091023E+01  0.51100000000E-03 0. -1.
    9000002    1    1    2    0    0  0.68746711427E+00 -0.64679350227E+00  0.69688310526E+00  0.15021461081E+01  0.93800000000E+00 0.  1.
         22    1    1    2    0    0 -0.39887986599E+00  0.36438604842E+00  0.19927056399E+01  0.20646447896E+01  0.00000000000E+00 0. -1.
</event>
<event>
 5    1  0.7095115E+001  0.1595580E+01  0.7818608E-02  0.3358174E+00
         11   -1    0    0    0    0  0.00000000000E+00  0.00000000000E+00  0.39999999674E+01  0.40000000000E+01  0.51100000000E-03 0.  1.
    9000002   -1    0    0    0    0 -0.00000000000E+00 -0.00000000000E+00  0.00000000000E+00  0.93800000000E+00  0.93800000000E+00 0.  1.
         11    1    1    2    0    0  0.78154510037E-02 -0.18054460466E+00  0.91423807635E+00  0.93192754917E+00  0.51100000000E-03 0.  1.
    9000002    1    1    2    0    0 -0.23693860945E+00  0.56017913519E+00  0.26268616135E+00  0.11483852087E+01  0.93800000000E+00 0.  1.
         22    1    1    2    0    0  0.22912315845E+00 -0.37963453054E+00  0.28230757297E+01  0.28576872421E+01  0.00000000000E+00 0.  1.
</event>
<event>
 5    1  0.7095115E+001  0.1599671E+01  0.7818608E-02  0.3353720E+00
         11   -1    0    0    0    0  0.00000000000E+00  0.00000000000E+00  0.39999999674E+01  0.40000000000E+01  0.51100000000E-03 0. -1.
    9000002   -1    0    0    0    0 -0.00000000000E+00 -0.00000000000E+00  0.00000000000E+00  0.93800000000E+00  0.93800000000E+00 0. -1.
         11    1    1    2    0    0 -0.65731111131E-01  0.94017983566E-01  0.11553386082E+01  0.11610200347E+01  0.51100000000E-03 0. -1.
    9000002    1    1    2    0    0  0.22618159994E+00 -0.32472208643E+00  0.10557897906E+00  0.10235201368E+01  0.93800000000E+00 0. -1.
         22    1    1    2    0    0 -0.16045048881E+00  0.23070410287E+00  0.27390823801E+01  0.27534598285E+01  0.00000000000E+00 0. -1.
</event>
<event>
 5    1  0.7095115E+001  0.1599639E+01  0.7818608E-02  0.3353756E+00
         11   -1    0    0    0    0  0.00000000000E+00  0.00000000000E+00  0.39999999674E+01  0.40000000000E+01  0.51100000000E-03 0.  1.
    9000002   -1    0    0    0    0 -0.00000000000E+00 -0.00000000000E+00  0.00000000000E+00  0.93800000000E+00  0.93800000000E+00 0. -1.
         11    1    1    2    0    0  0.16332963816E+00 -0.23293211947E+00  0.13045995307E+01  0.13352580798E+01  0.51100000000E-03 0.  1.
    9000002    1    1    2    0    0 -0.43190864669E+00  0.62691090869E+00  0.42164266813E+00  0.12795268290E+01  0.93800000000E+00 0. -1.
         22    1    1    2    0    0  0.26857900853E+00 -0.39397878922E+00  0.22737577685E+01  0.23232150912E+01  0.00000000000E+00 0.  1.
</event>
<event>
 5    1  0.7095115E+001  0.1599538E+01  0.7818608E-02  0.3353865E+00
         11   -1    0    0    0    0  0.00000000000E+00  0.00000000000E+00  0.39999999674E+01  0.40000000000E+01  0.51100000000E-03 0. -1.
    9000002   -1    0    0    0    0 -0.00000000000E+00 -0.00000000000E+00  0.00000000000E+00  0.93800000000E+00  0.93800000000E+00 0. -1.
         11    1    1    2    0    0 -0.14228425036E-01 -0.98427445528E-01  0.10220683479E+01  0.10268955054E+01  0.51100000000E-03 0. -1.
    9000002    1    1    2    0    0  0.10021706896E+00  0.38694363680E+00  0.10787900180E+00  0.10253051829E+01  0.93800000000E+00 0. -1.
         22    1    1    2    0    0 -0.85988643929E-01 -0.28851619128E+00  0.28700526177E+01  0.28857993118E+01  0.00000000000E+00 0. -1.
</event>
<event>
 5    1  0.7095115E+001  0.1537325E+01  0.7818608E-02  0.3424331E+00
         11   -1    0    0    0    0  0.00000000000E+00  0.00000000000E+00  0.39999999674E+01  0.40000000000E+01  0.51100000000E-03 0. -1.
    9000002   -1    0    0    0    0 -0.00000000000E+00 -0.00000000000E+00  0.00000000000E+00  0.93800000000E+00  0.93800000000E+00 0.  1.
         11    1    1    2    0    0 -0.14507570321E+00  0.20930070488E+00  0.13659855377E+01  0.13895216785E+01  0.51100000000E-03 0. -1.
    9000002    1    1    2    0    0 -0.84413099086E-01  0.50290531847E-01  0.53331133402E-01  0.94463904148E+00  0.93800000000E+00 0.  1.
         22    1    1    2    0    0  0.22948880229E+00 -0.25959123672E+00  0.25806832962E+01  0.26038392800E+01  0.00000000000E+00 0. -1.
</event>
<event>
 5    1  0.7095115E+001  0.1587851E+01  0.7818608E-02  0.3366655E+00
         11   -1    0    0    0    0  0.00000000000E+00  0.00000000000E+00  0.39999999674E+01  0.40000000000E+01  0.51100000000E-03 0. -1.
    9000002   -1    0    0    0    0 -0.00000000000E+00 -0.00000000000E+00  0.00000000000E+00  0.93800000000E+00  0.93800000000E+00 0. -1.
         11    1    1    2    0    0 -0.13030502628E+00 -0.20347048531E-02  0.60477722934E+00  0.61865927468E+00  0.51100000000E-03 0. -1.
    9000002    1    1    2    0    0  0.47207937925E+00  0.50847538766E+00  0.35675051637E+00  0.12200496265E+01  0.93800000000E+00 0. -1.
         22    1    1    2    0    0 -0.34177435297E+00 -0.50644068280E+00  0.30384722217E+01  0.30992910988E+01  0.00000000000E+00 0. -1.
</event>
<event>
 5    1  0.7095115E+001  0.1599668E+01  0.7818608E-02  0.3353724E+00
         11   -1    0    0    0    0  0.00000000000E+00  0.00000000000E+00  0.39999999674E+01  0.40000000000E+01  0.51100000000E-03 0.  1.
    9000002   -1    0    0    0    0 -0.00000000000E+00 -0.00000000000E+00  0.00000000000E+00  0.93800000000E+00  0.93800000000E+00 0.  1.
         11    1    1    2    0    0  0.91008250859E-01 -0.12244589985E-01  0.68522820753E+00  0.69135402597E+00  0.51100000000E-03 0.  1.
    9000002    1    1    2    0    0 -0.49527062252E+00  0.60297927345E-01  0.17038339874E+00  0.10760127007E+01  0.93800000000E+00 0.  1.
         22    1    1    2    0    0  0.40426237166E+00 -0.48053337361E-01  0.31443883611E+01  0.31706332733E+01  0.00000000000E+00 0.  1.
</event>
<event>
 5    1  0.7095115E+001  0.1599633E+01  0.7818608E-02  0.3353762E+00
         11   -1    0    0    0    0  0.00000000000E+00  0.00000000000E+00  0.39999999674E+01  0.40000000000E+01  0.51100000000E-03 0.  1.
    9000002   -1    0    0    0    0 -0.00000000000E+00 -0.00000000000E+00  0.00000000000E+00  0.93800000000E+00  0.93800000000E+00 0. -1.
         11    1    1    2    0    0  0.25428114343E-02  0.49255252875E-02  0.39531340437E-01  0.39921356278E-01  0.51100000000E-03 0.  1.
    9000002    1    1    2    0    0 -0.17175031751E+00 -0.59621878385E+00  0.26984744943E+00  0.11565624305E+01  0.93800000000E+00 0. -1.
         22    1    1    2    0    0  0.16920750607E+00  0.59129325856E+00  0.36906211775E+01  0.37415162132E+01  0.00000000000E+00 0.  1.
</event>
<event>
 5    1  0.7095115E+001  0.1599677E+01  0.7818608E-02  0.3353714E+00
         11   -1    0    0    0    0  0.00000000000E+00  0.00000000000E+00  0.39999999674E+01  0.40000000000E+01  0.51100000000E-03 0. -1.
    9000002   -1    0    0    0    0 -0.00000000000E+00 -0.00000000000E+00  0.00000000000E+00  0.93800000000E+00  0.93800000000E+00 0. -1.
         11    1    1    2    0    0  0.49444715983E-01 -0.12034772951E+00  0.12979608553E+01  0.13044657907E+01  0.51100000000E-03 0. -1.
    9000002    1    1    2    0    0 -0.14897090736E+00  0.36256512659E+00  0.10353187437E+00  0.10218652804E+01  0.93800000000E+00 0. -1.
         22    1    1    2    0    0  0.99526191379E-01 -0.24221739708E+00  0.25985072377E+01  0.26116689289E+01  0.00000000000E+00 0. -1.
</event>
<event>
 5    1  0.7095115E+001  0.1599674E+01  0.7818608E-02  0.3353717E+00
         11   -1    0    0    0    0  0.00000000000E+00  0.00000000000E+00  0.39999999674E+01  0.40000000000E+01  0.51100000000E-03 0.  1.
    9000002   -1    0    0    0    0 -0.00000000000E+00 -0.00000000000E+00  0.00000000000E+00  0.93800000000E+00  0.93800000000E+00 0.  1.
         11    1    1    2    0    0 -0.48908923653E-02 -0.15331915572E+00  0.13698446998E+01  0.13784068510E+01  0.51100000000E-03 0.  1.
    9000002    1    1    2    0    0  0.85641607924E-02  0.43307604331E+00  0.12712733970E+00  0.10409772162E+01  0.93800000000E+00 0.  1.
         22    1    1    2    0    0 -0.36732684270E-02 -0.27975688759E+00  0.25030279279E+01  0.25186159328E+01  0.00000000000E+00 0.  1.
</event>
<event>
 5    1  0.7095115E+001  0.1591774E+01  0.7818608E-02  0.3362340E+00
         11   -1    0    0    0    0  0.00000000000E+00  0.00000000000E+00  0.39999999674E+01  0.40000000000E+01  0.51100000000E-03 0.  1.
    9000002   -1    0    0    0    0 -0.00000000000E+00 -0.00000000000E+00  0.00000000000E+00  0.93800000000E+00  0.93800000000E+00 0. -1.
         11    1    1    2    0    0  0.79040053778E-01  0.17304297879E+00  0.11685729086E+01  0.11839569699E+01  0.51100000000E-03 0.  1.
    9000002    1    1    2    0    0  0.32861876144E-01 -0.43303241704E+00  0.13457480265E+00  0.10423777409E+01  0.93800000000E+00 0. -1.
         22    1    1    2    0    0 -0.11190192992E+00  0.25998943825E+00  0.26968522561E+01  0.27116652893E+01  0.00000000000E+00 0.  1.
</event>
<event>
 5    1  0.7095115E+001  0.1599610E+01  0.7818608E-02  0.3353787E+00
         11   -1    0    0    0    0  0.00000000000E+00  0.00000000000E+00  0.39999999674E+01  0.40000000000E+01  0.51100000000E-03 0. -1.
    9000002   -1    0    0    0    0 -0.00000000000E+00 -0.00000000000E+00  0.00000000000E+00  0.93800000000E+00  0.93800000000E+00 0.  1.
         11    1    1    2    0    0 -0.20765817074E-01  0.98120429180E-02  0.17481719537E+00  0.17632018677E+00  0.51100000000E-03 0. -1.
    9000002    1    1    2    0    0  0.36974218689E+00 -0.21778175309E+00  0.12474672212E+00  0.10390110305E+01  0.93800000000E+00 0.  1.
         22    1    1    2    0    0 -0.34897636981E+00  0.20796971017E+00  0.37004360499E+01  0.37226687828E+01  0.00000000000E+00 0. -1.
</event>
<event>
 5    1  0.7095115E+001  0.1599671E+01  0.7818608E-02  0.3353720E+00
         11   -1    0    0    0    0  0.00000000000E+00  0.00000000000E+00  0.39999999674E+01  0.40000000000E+01  0.51100000000E-03 0. -1.
    9000002   -1    0    0    0    0 -0.00000000000E+00 -0.00000000000E+00  0.00000000000E+00  0.93800000000E+00  0.93800000000E+00 0. -1.
         11    1    1    2    0    0  0.10899263096E+00  0.32846045902E-01  0.11538162195E+01  0.11594181238E+01  0.51100000000E-03 0. -1.
    9000002    1    1    2    0    0 -0.35997860755E+00 -0.10994068535E+00  0.95285678170E-01  0.10151822066E+01  0.93800000000E+00 0. -1.
         22    1    1    2    0    0  0.25098597659E+00  0.77094639451E-01  0.27508980697E+01  0.27633996696E+01  0.00000000000E+00 0. -1.
</event>
<event>
 5    1  0.7095115E+001  0.1599662E+01  0.7818608E-02  0.3353730E+00
         11   -1    0    0    0    0  0.00000000000E+00  0.00000000000E+00  0.39999999674E+01  0.40000000000E+01  0.51100000000E-03 0. -1.
    9000002   -1    0    0    0    0 -0.00000000000E+00 -0.00000000000E+00  0.00000000000E+00  0.93800000000E+00  0.93800000000E+00 0. -1.
         11    1    1    2    0    0 -0.96747626861E-02  0.99154460569E-01  0.10963915597E+01  0.11009086799E+01  0.51100000000E-03 0. -1.
    9000002    1    1    2    0    0  0.25592884640E-01 -0.36544894271E+00  0.90166432378E-01  0.10110301237E+01  0.93800000000E+00 0. -1.
         22    1    1    2    0    0 -0.15918121954E-01  0.26629448215E+00  0.28134419753E+01  0.28260611964E+01  0.00000000000E+00 0. -1.
</event>
<event>
 5    1  0.7095115E+001  0.1599306E+01  0.7818608E-02  0.3354117E+00
         11   -1    0    0    0    0  0.00000000000E+00  0.00000000000E+00  0.39999999674E+01  0.40000000000E+01  0.51100000000E-03 0.  1.
    9000002   -1    0    0    0    0 -0.00000000000E+00 -0.00000000000E+00  0.00000000000E+00  0.93800000000E+00  0.93800000000E+00 0. -1.
         11    1    1    2    0    0  0.80985404308E-02  0.48864735430E-01  0.40755224342E+00  0.41055138651E+00  0.51100000000E-03 0.  1.
    9000002    1    1    2    0    0 -0.16018705165E+00 -0.35935596874E+00  0.10463379817E+00  0.10225403833E+01  0.93800000000E+00 0. -1.
         22    1    1    2    0    0  0.15208851122E+00  0.31049123331E+00  0.34878139258E+01  0.35049082302E+01  0.00000000000E+00 0.  1.
</event>
<event>
 5    1  0.7095115E+001  0.1597976E+01  0.7818608E-02  0.3355563E+00
         11   -1    0    0    0    0  0.00000000000E+00  0.00000000000E+00  0.39999999674E+01  0.40000000000E+01  0.51100000000E-03 0.  1.
    9000002   -1    0    0    0    0 -0.00000000000E+00 -0.00000000000E+00  0.00000000000E+00  0.93800000000E+00  0.93800000000E+00 0. -1.
         11    1    1    2    0    0  0.63070604987E-01  0.41123236195E-01  0.12538089161E+01  0.12560677056E+01  0.51100000000E-03 0.  1.
    9000002    1    1    2    0    0 -0.31742297278E+00 -0.46775108644E-01  0.70162438957E-01  0.99383701998E+00  0.93800000000E+00 0. -1.
         22    1    1    2    0    0  0.25435236779E+00  0.56518724487E-02  0.26760286123E+01  0.26880952744E+01  0.00000000000E+00 0.  1.
</event>
<event>
 5    1  0.7095115E+001  0.1599664E+01  0.7818608E-02  0.3353728E+00
         11   -1    0    0    0    0  0.00000000000E+00  0.00000000000E+00  0.39999999674E+01  0.40000000000E+01  0.51100000000E-03 0. -1.
    9000002   -1    0    0    0    0 -0.00000000000E+00 -0.00000000000E+00  0.00000000000E+00  0.93800000000E+00  0.93800000000E+00 0. -1.
         11    1    1    2    0    0 -0.14184939187E+00 -0.97689027133E-01  0.13250509296E+01  0.13361978233E+01  0.51100000000E-03 0. -1.
    9000002    1    1    2    0    0  0.40464746330E+00  0.27275086950E+00  0.16270294680E+00  0.10697891639E+01  0.93800000000E+00 0. -1.
         22    1    1    2    0    0 -0.26279807143E+00 -0.17506184236E+00  0.25122460910E+01  0.25320130127E+01  0.00000000000E+00 0.  1.
</event>
<event>
 5    1  0.7095115E+001  0.1599614E+01  0.7818608E-02  0.3353783E+00
         11   -1    0    0    0    0  0.00000000000E+00  0.00000000000E+00  0.39999999674E+01  0.40000000000E+01  0.51100000000E-03 0. -1.
    9000002   -1    0    0    0    0 -0.00000000000E+00 -0.00000000000E+00  0.00000000000E+00  0.93800000000E+00  0.93800000000E+00 0.  1.
         11    1    1    2    0    0  0.36119118923E-02 -0.15863416308E+00  0.13211811129E+01  0.13306756321E+01  0.51100000000E-03 0. -1.
    9000002    1    1    2    0    0  0.15498498644E-01  0.46726396701E+00  0.14890177417E+00  0.10585799718E+01  0.93800000000E+00 0.  1.
         22    1    1    2    0    0 -0.19110410537E-01 -0.30862980393E+00  0.25299170803E+01  0.25487443961E+01  0.00000000000E+00 0. -1.
</event>
<event>
 5    1  0.7095115E+001  0.1594695E+01  0.7818608E-02  0.3359141E+00
         11   -1    0    0    0    0  0.00000000000E+00  0.00000000000E+00  0.39999999674E+01  0.40000000000E+01  0.51100000000E-03 0.  1.
    9000002   -1    0    0    0    0 -0.00000000000E+00 -0.00000000000E+00  0.00000000000E+00  0.93800000000E+00  0.93800000000E+00 0. -1.
         11    1    1    2    0    0 -0.89010476438E-01 -0.68358088737E-01  0.56229216321E+00  0.57338331956E+00  0.51100000000E-03 0.  1.
    9000002    1    1    2    0    0  0.53526292091E+00  0.58081914919E-01  0.20445019122E+00  0.11006924112E+01  0.93800000000E+00 0. -1.
         22    1    1    2    0    0 -0.44625244448E+00  0.10276173818E-01  0.32332576129E+01  0.32639242693E+01  0.00000000000E+00 0.  1.
</event>
<event>
 5    1  0.7095115E+001  0.1599666E+01  0.7818608E-02  0.3353726E+00
         11   -1    0    0    0    0  0.00000000000E+00  0.00000000000E+00  0.39999999674E+01  0.40000000000E+01  0.51100000000E-03 0. -1.
    9000002   -1    0    0    0    0 -0.00000000000E+00 -0.00000000000E+00  0.00000000000E+00  0.93800000000E+00  0.93800000000E+00 0.  1.
         11    1    1    2    0    0 -0.14844718785E-02 -0.80889400504E-02  0.48180110238E-01  0.48879635344E-01  0.51100000000E-03 0. -1.
    9000002    1    1    2    0    0  0.57147859998E-01  0.61924871361E+00  0.27113315531E+00  0.11576234427E+01  0.93800000000E+00 0.  1.
         22    1    1    2    0    0 -0.55663388120E-01 -0.61115977356E+00  0.36806867018E+01  0.37314969219E+01  0.00000000000E+00 0. -1.
</event>
<event>
 5    1  0.7095115E+001  0.1599255E+01  0.7818608E-02  0.3354173E+00
         11   -1    0    0    0    0  0.00000000000E+00  0.00000000000E+00  0.39999999674E+01  0.40000000000E+01  0.51100000000E-03 0. -1.
    9000002   -1    0    0    0    0 -0.00000000000E+00 -0.00000000000E+00  0.00000000000E+00  0.93800000000E+00  0.93800000000E+00 0.  1.
         11    1    1    2    0    0  0.28593780614E-01  0.21548152831E-01  0.44180819446E+00  0.44325688826E+00  0.51100000000E-03 0. -1.
    9000002    1    1    2    0    0 -0.23554590281E+00 -0.32716205066E+00  0.11001752645E+00  0.10268713336E+01  0.93800000000E+00 0.  1.
         22    1    1    2    0    0  0.20695212220E+00  0.30561389783E+00  0.34481742465E+01  0.34678717781E+01  0.00000000000E+00 0. -1.
</event>
<event>
 5    1  0.7095115E+001  0.1590915E+01  0.7818608E-02  0.3363283E+00
         11   -1    0    0    0    0  0.00000000000E+00  0.00000000000E+00  0.39999999674E+01  0.40000000000E+01  0.51100000000E-03 0. -1.
    9000002   -1    0    0    0    0 -0.00000000000E+00 -0.00000000000E+00  0.00000000000E+00  0.93800000000E+00  0.93800000000E+00 0.  1.
         11    1    1    2    0    0 -0.18320421240E+00 -0.83319951170E-01  0.10974152792E+01  0.11157179544E+01  0.51100000000E-03 0. -1.
    9000002    1    1    2    0    0  0.43358872468E+00  0.30998028621E-02  0.13490065081E+00  0.10421376956E+01  0.93800000000E+00 0.  1.
         22    1    1    2    0    0 -0.25038451228E+00  0.80220148308E-01  0.27676840373E+01  0.27801443500E+01  0.00000000000E+00 0. -1.
</event>
<event>
 5    1  0.7095115E+001  0.1517637E+01  0.7818608E-02  0.3447914E+00
         11   -1    0    0    0    0  0.00000000000E+00  0.00000000000E+00  0.39999999674E+01  0.40000000000E+01  0.51100000000E-03 0. -1.
    9000002   -1    0    0    0    0 -0.00000000000E+00 -0.00000000000E+00  0.00000000000E+00  0.93800000000E+00  0.93800000000E+00 0. -1.
         11    1    1    2    0    0 -0.33402235696E+00 -0.18200053663E+00  0.93742624883E+00  0.10116636612E+01  0.51100000000E-03 0. -1.
    9000002    1    1    2    0    0  0.13840672135E+00  0.52350368370E+00  0.28354418018E+00  0.11195775228E+01  0.93800000000E+00 0. -1.
         22    1    1    2    0    0  0.19561563561E+00 -0.34150314706E+00  0.27790295384E+01  0.28067588160E+01  0.00000000000E+00 0. -1.
</event>
<event>
 5    1  0.7095115E+001  0.1599662E+01  0.7818608E-02  0.3353731E+00
         11   -1    0    0    0    0  0.00000000000E+00  0.00000000000E+00  0.39999999674E+01  0.40000000000E+01  0.51100000000E-03 0. -1.
    9000002   -1    0    0    0    0 -0.00000000000E+00 -0.00000000000E+00  0.00000000000E+00  0.93800000000E+00  0.93800000000E+00 0.  1.
         11    1    1    2    0    0 -0.20932281151E-01 -0.26559916924E+00  0.14651274387E+01  0.14891540390E+01  0.51100000000E-03 0. -1.
    9000002    1    1    2    0    0  0.41927875501E-01  0.66386628714E+00  0.31340934817E+00  0.11918665250E+01  0.93800000000E+00 0.  1.
         22    1    1    2    0    0 -0.20995594350E-01 -0.39826711790E+00  0.22214631805E+01  0.22569794360E+01  0.00000000000E+00 0. -1.
</event>
<event>
 5    1  0.7095115E+001  0.1599566E+01  0.7818608E-02  0.3353834E+00
         11   -1    0    0    0    0  0.00000000000E+00  0.00000000000E+00  0.39999999674E+01  0.40000000000E+01  0.51100000000E-03 0.  1.
    9000002   -1    0    0    0    0 -0.00000000000E+00 -0.00000000000E+00  0.00000000000E+00  0.93800000000E+00  0.93800000000E+00 0. -1.
         11    1    1    2    0    0 -0.55312195991E-02 -0.52698591473E-01  0.37544948714E+00  0.37917056115E+00  0.51100000000E-03 0.  1.
    9000002    1    1    2    0    0  0.12930398090E+00  0.51249879721E+00  0.19230260680E+00  0.10937087497E+01  0.93800000000E+00 0. -1.
         22    1    1    2    0    0 -0.12377276130E+00 -0.45980020573E+00  0.34322478734E+01  0.34651206891E+01  0.00000000000E+00 0.  1.
</event>
<event>
 5    1  0.7095115E+001  0.1599624E+01  0.7818608E-02  0.3353772E+00
         11   -1    0    0    0    0  0.00000000000E+00  0.00000000000E+00  0.39999999674E+01  0.40000000000E+01  0.51100000000E-03 0.  1.
    9000002   -1    0    0    0    0 -0.00000000000E+00 -0.00000000000E+00  0.00000000000E+00  0.93800000000E+00  0.93800000000E+00 0.  1.
         11    1    1    2    0    0  0.93562455543E-01  0.88883089162E-01  0.13586155076E+01  0.13647309241E+01  0.51100000000E-03 0.  1.
    9000002    1    1    2    0    0 -0.27579942694E+00 -0.23277832122E+00  0.87484591724E-01  0.10088352812E+01  0.93800000000E+00 0.  1.
         22    1    1    2    0    0  0.18223697140E+00  0.14389523206E+00  0.25538998680E+01  0.25644337947E+01  0.00000000000E+00 0.  1.
</event>
<event>
 5    1  0.7095115E+001  0.1580617E+01  0.7818608E-02  0.3374673E+00
         11   -1    0    0    0    0  0.00000000000E+00  0.00000000000E+00  0.39999999674E+01  0.40000000000E+01  0.51100000000E-03 0. -1.
    9000002   -1    0    0    0    0 -0.00000000000E+00 -0.00000000000E+00  0.00000000000E+00  0.93800000000E+00  0.93800000000E+00 0. -1.
         11    1    1    2    0    0 -0.19772461052E-01 -0.13009883481E+00  0.30186443408E+00  0.32930085746E+00  0.51100000000E-03 0. -1.
    9000002    1    1    2    0    0  0.37789845816E+00  0.46252352255E+00  0.26789348949E+00  0.11438296094E+01  0.93800000000E+00 0. -1.
         22    1    1    2    0    0 -0.35812599711E+00 -0.33242468774E+00  0.34302420438E+01  0.34648695332E+01  0.00000000000E+00 0. -1.
</event>
<event>
 5    1  0.7095115E+001  0.1599445E+01  0.7818608E-02  0.3353966E+00
         11   -1    0    0    0    0  0.00000000000E+00  0.00000000000E+00  0.39999999674E+01  0.40000000000E+01  0.51100000000E-03 0.  1.
    9000002   -1    0    0    0    0 -0.00000000000E+00 -0.00000000000E+00  0.00000000000E+00  0.93800000000E+00  0.93800000000E+00 0. -1.
         11    1    1    2    0    0  0.14622787505E-02 -0.27316438579E-01  0.36332378485E+00  0.36435252138E+00  0.51100000000E-03 0.  1.
    9000002    1    1    2    0    0  0.33773792431E-01  0.39610925888E+00  0.10676278982E+00  0.10243463805E+01  0.93800000000E+00 0. -1.
         22    1    1    2    0    0 -0.35236071181E-01 -0.36879282030E+00  0.35299133927E+01  0.35493010981E+01  0.00000000000E+00 0.  1.
</event>
<event>
 5    1  0.7095115E+001  0.1599677E+01  0.7818608E-02  0.3353714E+00
         11   -1    0    0    0    0  0.00000000000E+00  0.00000000000E+00  0.39999999674E+01  0.40000000000E+01  0.51100000000E-03 0.  1.
    9000002   -1    0    0    0    0 -0.00000000000E+00 -0.00000000000E+00  0.00000000000E+00  0.93800000000E+00  0.93800000000E+00 0.  1.
         11    1    1    2    0    0  0.53649972756E-01 -0.18240217243E+00  0.96313282197E+00  0.98171990199E+00  0.51100000000E-03 0. -1.
    9000002    1    1    2    0    0 -0.20256780140E+00  0.68857602815E+00  0.36997855744E+00  0.12376989915E+01  0.93800000000E+00 0.  1.
         22    1    1    2    0    0  0.14891782865E+00 -0.50617385572E+00  0.26668885880E+01  0.27185811065E+01  0.00000000000E+00 0.  1.
</event>
<event>
 5    1  0.7095115E+001  0.1598522E+01  0.7818608E-02  0.3354969E+00
         11   -1    0    0    0    0  0.00000000000E+00  0.00000000000E+00  0.39999999674E+01  0.40000000000E+01  0.51100000000E-03 0.  1.
    9000002   -1    0    0    0    0 -0.00000000000E+00 -0.00000000000E+00  0.00000000000E+00  0.93800000000E+00  0.93800000000E+00 0.  1.
         11    1    1    2    0    0 -0.23143933026E-01  0.99041525052E-01  0.99075123655E+00  0.99595840233E+00  0.51100000000E-03 0.  1.
    9000002    1    1    2    0    0 -0.48963856630E-01 -0.38559015526E+00  0.10271302343E+00  0.10205249592E+01  0.93800000000E+00 0.  1.
         22    1    1    2    0    0  0.72107789656E-01  0.28654863021E+00  0.29065357074E+01  0.29215166385E+01  0.00000000000E+00 0.  1.
</event>
<event>
 5    1  0.7095115E+001  0.1599652E+01  0.7818608E-02  0.3353741E+00
         11   -1    0    0    0    0  0.00000000000E+00  0.00000000000E+00  0.39999999674E+01  0.40000000000E+01  0.51100000000E-03 0. -1.
    9000002   -1    0    0    0    0 -0.00000000000E+00 -0.00000000000E+00  0.00000000000E+00  0.93800000000E+00  0.93800000000E+00 0.  1.
         11    1    1    2    0    0 -0.40604822557E-02  0.73184811331E-02  0.79947973939E-01  0.80386487298E-01  0.51100000000E-03 0. -1.
    9000002    1    1    2    0    0  0.25168344615E+00 -0.40816650650E+00  0.15690572673E+00  0.10650858469E+01  0.93800000000E+00 0.  1.
         22    1    1    2    0    0 -0.24762296389E+00  0.40084802537E+00  0.37631462667E+01  0.37925276658E+01  0.00000000000E+00 0. -1.
</event>
<event>
 5    1  0.7095115E+001  0.1599675E+01  0.7818608E-02  0.3353716E+00
         11   -1    0    0    0    0  0.00000000000E+00  0.00000000000E+00  0.39999999674E+01  0.40000000000E+01  0.51100000000E-03 0. -1.
    9000002   -1    0    0    0    0 -0.00000000000E+00 -0.00000000000E+00  0.00000000000E+00  0.93800000000E+00  0.93800000000E+00 0.  1.
         11    1    1    2    0    0  0.83532999533E-01 -0.12478760173E+00  0.10162646048E+01  0.10272992338E+01  0.51100000000E-03 0. -1.
    9000002    1    1    2    0    0 -0.31422789270E+00  0.46101432056E+00  0.21532482469E+00  0.11124217512E+01  0.93800000000E+00 0.  1.
         22    1    1    2    0    0  0.23069489317E+00 -0.33622671883E+00  0.27684105379E+01  0.27982790151E+01  0.00000000000E+00 0. -1.
</event>
<event>
 5    1  0.7095115E+001  0.1599624E+01  0.7818608E-02  0.3353772E+00
         11   -1    0    0    0    0  0.00000000000E+00  0.00000000000E+00  0.39999999674E+01  0.40000000000E+01  0.51100000000E-03 0.  1.
    9000002   -1    0    0    0    0 -0.00000000000E+00 -0.00000000000E+00  0.00000000000E+00  0.93800000000E+00  0.93800000000E+00 0. -1.
         11    1    1    2    0    0 -0.40352247473E-03  0.56366689326E-04  0.80440526791E-02  0.80705583509E-02  0.51100000000E-03 0. -1.
    9000002    1    1    2    0    0  0.31014825419E+00  0.24572756029E+00  0.10559828516E+00  0.10235081686E+01  0.93800000000E+00 0. -1.
         22    1    1    2    0    0 -0.30974473171E+00 -0.24578392698E+00  0.38863576295E+01  0.39064212730E+01  0.00000000000E+00 0.  1.
</event>
<event>
 5    1  0.7095115E+001  0.1531818E+01  0.7818608E-02  0.3430861E+00
         11   -1    0    0    0    0  0.00000000000E+00  0.00000000000E+00  0.39999999674E+01  0.40000000000E+01  0.51100000000E-03 0.  1.
    9000002   -1    0    0    0    0 -0.00000000000E+00 -0.00000000000E+00  0.00000000000E+00  0.93800000000E+00  0.93800000000E+00 0.  1.
         11    1    1    2    0    0 -0.25337857490E+00  0.19822305857E+00  0.13318688103E+01  0.13701707456E+01  0.51100000000E-03 0.  1.
    9000002    1    1    2    0    0  0.36909855940E-01 -0.71562185305E-01  0.55389446915E-01  0.94307766099E+00  0.93800000000E+00 0.  1.
         22    1    1    2    0    0  0.21646871896E+00 -0.12666087326E+00  0.26127417102E+01  0.26247515934E+01  0.00000000000E+00 0.  1.
</event>
<event>
 5    1  0.7095115E+001  0.1599673E+01  0.7818608E-02  0.3353718E+00
         11   -1    0    0    0    0  0.00000000000E+00  0.00000000000E+00  0.39999999674E+01  0.40000000000E+01  0.51100000000E-03 0.  1.
    9000002   -1    0    0    0    0 -0.00000000000E+00 -0.00000000000E+00  0.00000000000E+00  0.93800000000E+00  0.93800000000E+00 0. -1.
         11    1    1    2    0    0  0.27739604443E+00  0.53215033859E-01  0.13229084445E+01  0.13527259216E+01  0.51100000000E-03 0.  1.
    9000002    1    1    2    0    0 -0.74487329037E+00 -0.14346299442E+00  0.41823334508E+00  0.12767854089E+01  0.93800000000E+00 0. -1.
         22    1    1    2    0    0  0.46747724594E+00  0.90247960559E-01  0.22588581778E+01  0.23084886695E+01  0.00000000000E+00 0.  1.
</event>
<event>
 5    1  0.7095115E+001  0.1596232E+01  0.7818608E-02  0.3357463E+00
         11   -1    0    0    0    0  0.00000000000E+00  0.00000000000E+00  0.39999999674E+01  0.40000000000E+01  0.51100000000E-03 0.  1.
    9000002   -1    0    0    0    0 -0.00000000000E+00 -0.00000000000E+00  0.00000000000E+00  0.93800000000E+00  0.93800000000E+00 0. -1.
         11    1    1    2    0    0 -0.55010368771E-02  0.53291597614E-01  0.45416555065E+00  0.45731484155E+00  0.51100000000E-03 0.  1.
    9000002    1    1    2    0    0  0.35623743226E+00 -0.22109476681E+00  0.12178610579E+00  0.10346322340E+01  0.93800000000E+00 0. -1.
         22    1    1    2    0    0 -0.35073639539E+00  0.16780316920E+00  0.34240483109E+01  0.34460529245E+01  0.00000000000E+00 0.  1.
</event>
<event>
 5    1  0.7095115E+001  0.1599677E+01  0.7818608E-02  0.3353714E+00
         11   -1    0    0    0    0  0.00000000000E+00  0.00000000000E+00  0.39999999674E+01  0.40000000000E+01  0.51100000000E-03 0. -1.
    9000002   -1    0    0    0    0 -0.00000000000E+00 -0.00000000000E+00  0.00000000000E+00  0.93800000000E+00  0.93800000000E+00 0. -1.
         11    1    1    2    0    0  0.34378660831E-02  0.95905553198E-01  0.87051706262E+00  0.87579102044E+00  0.51100000000E-03 0. -1.
    9000002    1    1    2    0    0 -0.17911455190E-01 -0.42703120078E+00  0.12367093692E+00  0.10381786779E+01  0.93800000000E+00 0. -1.
         22    1    1    2    0    0  0.14473589107E-01  0.33112564758E+00  0.30058119678E+01  0.30240303016E+01  0.00000000000E+00 0. -1.
</event>
<event>
 5    1  0.7095115E+001  0.1599568E+01  0.7818608E-02  0.3353832E+00
         11   -1    0    0    0    0  0.00000000000E+00  0.00000000000E+00  0.39999999674E+01  0.40000000000E+01  0.51100000000E-03 0.  1.
    9000002   -1    0    0    0    0 -0.00000000000E+00 -0.00000000000E+00  0.00000000000E+00  0.93800000000E+00  0.93800000000E+00 0. -1.
         11    1    1    2    0    0 -0.51681897160E-01  0.13057055788E+00  0.12569852852E+01  0.12648051065E+01  0.51100000000E-03 0.  1.
    9000002    1    1    2    0    0  0.19113895415E+00 -0.38526163443E+00  0.12535575256E+00  0.10394800101E+01  0.93800000000E+00 0. -1.
         22    1    1    2    0    0 -0.13945705699E+00  0.25469107655E+00  0.26176589296E+01  0.26337148833E+01  0.00000000000E+00 0.  1.
</event>
<event>
 5    1  0.7095115E+001  0.1598704E+01  0.7818608E-02  0.3354771E+00
         11   -1    0    0    0    0  0.00000000000E+00  0.00000000000E+00  0.39999999674E+01  0.40000000000E+01  0.51100000000E-03 0. -1.
    9000002   -1    0    0    0    0 -0.00000000000E+00 -0.00000000000E+00  0.00000000000E+00  0.93800000000E+00  0.93800000000E+00 0.  1.
         11    1    1    2    0    0  0.44588146031E-01 -0.10213195445E+00  0.83953192073E+00  0.84689618368E+00  0.51100000000E-03 0. -1.
    9000002    1    1    2    0    0 -0.63820732078E-01  0.48984024533E+00  0.16774742092E+00  0.10733125123E+01  0.93800000000E+00 0.  1.
         22    1    1    2    0    0  0.19232586047E-01 -0.38770829088E+00  0.29927206257E+01  0.30177913040E+01  0.00000000000E+00 0. -1.
</event>
<event>
 5    1  0.7095115E+001  0.1599573E+01  0.7818608E-02  0.3353827E+00
         11   -1    0    0    0    0  0.00000000000E+00  0.00000000000E+00  0.39999999674E+01  0.40000000000E+01  0.51100000000E-03 0.  1.
    9000002   -1    0    0    0    0 -0.00000000000E+00 -0.00000000000E+00  0.00000000000E+00  0.93800000000E+00  0.93800000000E+00 0.  1.
         11    1    1    2    0    0 -0.96915078047E-01  0.13298797764E+00  0.92223554664E+00  0.93680147265E+00  0.51100000000E-03 0.  1.
    9000002    1    1    2    0    0  0.41607623837E+00 -0.55593104097E+00  0.34420045254E+00  0.12167566355E+01  0.93800000000E+00 0.  1.
         22    1    1    2    0    0 -0.31916116033E+00  0.42294306333E+00  0.27335639682E+01  0.27844418919E+01  0.00000000000E+00 0.  1.
</event>
<event>
 5    1  0.7095115E+001  0.1599676E+01  0.7818608E-02  0.3353715E+00
         11   -1    0    0    0    0  0.00000000000E+00  0.00000000000E+00  0.39999999674E+01  0.40000000000E+01  0.51100000000E-03 0. -1.
    9000002   -1    0    0    0    0 -0.00000000000E+00 -0.00000000000E+00  0.00000000000E+00  0.93800000000E+00  0.93800000000E+00 0.  1.
         11    1    1    2    0    0  0.27925397657E-01  0.90016140692E-01  0.38407185628E+00  0.39546704708E+00  0.51100000000E-03 0. -1.
    9000002    1    1    2    0    0 -0.25511994284E+00 -0.81098911804E+00  0.54212906800E+00  0.13771483076E+01  0.93800000000E+00 0.  1.
         22    1    1    2    0    0  0.22719454519E+00  0.72097297735E+00  0.30737990431E+01  0.31653846453E+01  0.00000000000E+00 0. -1.
</event>
<event>
 5    1  0.7095115E+001  0.1599513E+01  0.7818608E-02  0.3353893E+00
         11   -1    0    0    0    0  0.00000000000E+00  0.00000000000E+00  0.39999999674E+01  0.40000000000E+01  0.51100000000E-03 0.  1.
    9000002   -1    0    0    0    0 -0.00000000000E+00 -0.00000000000E+00  0.00000000000E+00  0.93800000000E+00  0.93800000000E+00 0.  1.
         11    1    1    2    0    0  0.46597752342E-01 -0.86082909629E-01  0.59581993375E+00  0.60380731399E+00  0.51100000000E-03 0.  1.
    9000002    1    1    2    0    0 -0.24864199463E+00  0.49324548248E+00  0.21099316216E+00  0.11088174160E+01  0.93800000000E+00 0.  1.
         22    1    1    2    0    0  0.20204424228E+00 -0.40716257286E+00  0.31931868715E+01  0.32253752700E+01  0.00000000000E+00 0.  1.
</event>
<event>
 5    1  0.7095115E+001  0.1599555E+01  0.7818608E-02  0.3353847E+00
         11   -1    0    0    0    0  0.00000000000E+00  0.00000000000E+00  0.39999999674E+01  0.40000000000E+01  0.51100000000E-03 0. -1.
    9000002   -1    0    0    0    0 -0.00000000000E+00 -0.00000000000E+00  0.00000000000E+00  0.93800000000E+00  0.93800000000E+00 0. -1.
         11    1    1    2    0    0 -0.93307574011E-03 -0.72460712502E-04  0.25062747797E-02  0.27236767729E-02  0.51100000000E-03 0. -1.
    9000002    1    1    2    0    0  0.64276059384E+00  0.27631751296E+00  0.34993096445E+00  0.12213878290E+01  0.93800000000E+00 0. -1.
         22    1    1    2    0    0 -0.64182751810E+00 -0.27624505224E+00  0.36475627281E+01  0.37138884942E+01  0.00000000000E+00 0. -1.
</event>
<event>
 5    1  0.7095115E+001  0.1599663E+01  0.7818608E-02  0.3353729E+00
         11   -1    0    0    0    0  0.00000000000E+00  0.00000000000E+00  0.39999999674E+01  0.40000000000E+01  0.51100000000E-03 0. -1.
    9000002   -1    0    0    0    0 -0.00000000000E+00 -0.00000000000E+00  0.00000000000E+00  0.93800000000E+00  0.93800000000E+00 0.  1.
         11    1    1    2    0    0  0.91540965325E-02  0.94598098061E-01  0.65689440140E+00  0.66373421891E+00  0.51100000000E-03 0. -1.
    9000002    1    1    2    0    0 -0.35751322503E-01 -0.53755933606E+00  0.20006576044E+00  0.11000538647E+01  0.93800000000E+00 0.  1.
         22    1    1    2    0    0  0.26597225971E-01  0.44296123800E+00  0.31430398055E+01  0.31742119163E+01  0.00000000000E+00 0. -1.
</event>
<event>
 5    1  0.7095115E+001  0.1559070E+01  0.7818608E-02  0.3399021E+00
         11   -1    0    0    0    0  0.00000000000E+00  0.00000000000E+00  0.39999999674E+01  0.40000000000E+01  0.51100000000E-03 0.  1.
    9000002   -1    0    0    0    0 -0.00000000000E+00 -0.00000000000E+00  0.00000000000E+00  0.93800000000E+00  0.93800000000E+00 0.  1.
         11    1    1    2    0    0  0.22881596040E+00 -0.11150870339E+00  0.12821338399E+01  0.13071566009E+01  0.51100000000E-03 0.  1.
    9000002    1    1    2    0    0 -0.24062167358E+00 -0.18379463161E+00  0.93716587538E-01  0.99010406281E+00  0.93800000000E+00 0.  1.
         22    1    1    2    0    0  0.11805713179E-01  0.29530333500E+00  0.26241495399E+01  0.26407393363E+01  0.00000000000E+00 0. -1.
</event>
<event>
 5    1  0.7095115E+001  0.1579959E+01  0.7818608E-02  0.3375406E+00
         11   -1    0    0    0    0  0.00000000000E+00  0.00000000000E+00  0.39999999674E+01  0.40000000000E+01  0.51100000000E-03 0. -1.
    9000002   -1    0    0    0    0 -0.00000000000E+00 -0.00000000000E+00  0.00000000000E+00  0.93800000000E+00  0.93800000000E+00 0. -1.
         11    1    1    2    0    0  0.43614630497E-01  0.60932511498E-01  0.26252988592E+00  0.27301503452E+00  0.51100000000E-03 0. -1.
    9000002    1    1    2    0    0  0.43660895589E+00 -0.24419738081E+00  0.18931051890E+00  0.10797880411E+01  0.93800000000E+00 0. -1.
         22    1    1    2    0    0 -0.48022358639E+00  0.18326486931E+00  0.35481595625E+01  0.35851969244E+01  0.00000000000E+00 0. -1.
</event>
<event>
 5    1  0.7095115E+001  0.1599673E+01  0.7818608E-02  0.3353718E+00
         11   -1    0    0    0    0  0.00000000000E+00  0.00000000000E+00  0.39999999674E+01  0.40000000000E+01  0.51100000000E-03 0.  1.
    9000002   -1    0    0    0    0 -0.00000000000E+00 -0.00000000000E+00  0.00000000000E+00  0.93800000000E+00  0.93800000000E+00 0.  1.
         11    1    1    2    0    0 -0.10953972448E-01 -0.19011598487E-01  0.20771316960E+00  0.20886946243E+00  0.51100000000E-03 0.  1.
    9000002    1    1    2    0    0  0.22117831283E+00  0.34872427976E+00  0.11522300644E+00  0.10313335108E+01  0.93800000000E+00 0.  1.
         22    1    1    2    0    0 -0.21022434038E+00 -0.32971268127E+00  0.36770637913E+01  0.36977970267E+01  0.00000000000E+00 0.  1.
</event>
<event>
 5    1  0.7095115E+001  0.1598648E+01  0.7818608E-02  0.3354832E+00
         11   -1    0    0    0    0  0.00000000000E+00  0.00000000000E+00  0.39999999674E+01  0.40000000000E+01  0.51100000000E-03 0.  1.
    9000002   -1    0    0    0    0 -0.00000000000E+00 -0.00000000000E+00  0.00000000000E+00  0.93800000000E+00  0.93800000000E+00 0. -1.
         11    1    1    2    0    0  0.82471250224E-02 -0.28393941633E-01  0.13283323536E+00  0.13608512237E+00  0.51100000000E-03 0.  1.
    9000002    1    1    2    0    0 -0.16708067395E+00  0.41765774982E+00  0.13832097517E+00  0.10494430141E+01  0.93800000000E+00 0. -1.
         22    1    1    2    0    0  0.15883354893E+00 -0.38926380819E+00  0.37288457568E+01  0.37524718636E+01  0.00000000000E+00 0.  1.
</event>
<event>
 5    1  0.7095115E+001  0.1598366E+01  0.7818608E-02  0.3355139E+00
         11   -1    0    0    0    0  0.00000000000E+00  0.00000000000E+00  0.39999999674E+01  0.40000000000E+01  0.51100000000E-03 0. -1.
    9000002   -1    0    0    0    0 -0.00000000000E+00 -0.00000000000E+00  0.00000000000E+00  0.93800000000E+00  0.93800000000E+00 0.  1.
         11    1    1    2    0    0  0.51134271154E-01  0.48801368258E-02  0.10647251997E+01  0.10659636680E+01  0.51100000000E-03 0. -1.
    9000002    1    1    2    0    0 -0.30791655751E+00 -0.97445366823E-01  0.70780306901E-01  0.99456626614E+00  0.93800000000E+00 0.  1.
         22    1    1    2    0    0  0.25678228636E+00  0.92565229997E-01  0.28644944607E+01  0.28774700659E+01  0.00000000000E+00 0. -1.
</event>
<event>
 5    1  0.7095115E+001  0.1598049E+01  0.7818608E-02  0.3355484E+00
         11   -1    0    0    0    0  0.00000000000E+00  0.00000000000E+00  0.39999999674E+01  0.40000000000E+01  0.51100000000E-03 0.  1.
    9000002   -1    0    0    0    0 -0.00000000000E+00 -0.00000000000E+00  0.00000000000E+00  0.93800000000E+00  0.93800000000E+00 0.  1.
         11    1    1    2    0    0  0.15467713004E-01  0.56332360513E-01  0.26288471099E+00  0.26929763716E+00  0.51100000000E-03 0.  1.
    9000002    1    1    2    0    0 -0.24034480566E+00 -0.45654030951E+00  0.18421264443E+00  0.10862656112E+01  0.93800000000E+00 0.  1.
         22    1    1    2    0    0  0.22487709265E+00  0.40020794900E+00  0.35529026119E+01  0.35824367516E+01  0.00000000000E+00 0.  1.
</event>
<event>
 5    1  0.7095115E+001  0.1537048E+01  0.7818608E-02  0.3424658E+00
         11   -1    0    0    0    0  0.00000000000E+00  0.00000000000E+00  0.39999999674E+01  0.40000000000E+01  0.51100000000E-03 0. -1.
    9000002   -1    0    0    0    0 -0.00000000000E+00 -0.00000000000E+00  0.00000000000E+00  0.93800000000E+00  0.93800000000E+00 0.  1.
         11    1    1    2    0    0  0.10695318757E+00 -0.12231765715E-01  0.14974009460E+00  0.18442059938E+00  0.51100000000E-03 0. -1.
    9000002    1    1    2    0    0  0.30489415947E+00 -0.26012057122E+00  0.16248054605E+00  0.10328925829E+01  0.93800000000E+00 0.  1.
         22    1    1    2    0    0 -0.41184734705E+00  0.27235233694E+00  0.36877793267E+01  0.37206868177E+01  0.00000000000E+00 0. -1.
</event>
<event>
 5    1  0.7095115E+001  0.1599242E+01  0.7818608E-02  0.3354186E+00
         11   -1    0    0    0    0  0.00000000000E+00  0.00000000000E+00  0.39999999674E+01  0.40000000000E+01  0.51100000000E-03 0. -1.
    9000002   -1    0    0    0    0 -0.00000000000E+00 -0.00000000000E+00  0.00000000000E+00  0.93800000000E+00  0.93800000000E+00 0.  1.
         11    1    1    2    0    0  0.33448044905E-01 -0.13222993515E+00  0.13967377150E+01  0.14033816420E+01  0.51100000000E-03 0. -1.
    9000002    1    1    2    0    0 -0.40797803757E-01  0.40985734454E+00  0.11497315146E+00  0.10308784260E+01  0.93800000000E+00 0.  1.
         22    1    1    2    0    0  0.73497588518E-02 -0.27762740938E+00  0.24882891009E+01  0.25037399320E+01  0.00000000000E+00 0. -1.
</event>
<event>
 5    1  0.7095115E+001  0.1598766E+01  0.7818608E-02  0.3354704E+00
         11   -1    0    0    0    0  0.00000000000E+00  0.00000000000E+00  0.39999999674E+01  0.40000000000E+01  0.51100000000E-03 0. -1.
    9000002   -1    0    0    0    0 -0.00000000000E+00 -0.00000000000E+00  0.00000000000E+00  0.93800000000E+00  0.93800000000E+00 0. -1.
         11    1    1    2    0    0  0.59970679458E-03  0.71566053345E-01  0.42333877594E+00  0.42934606086E+00  0.51100000000E-03 0. -1.
    9000002    1    1    2    0    0  0.55455657650E-01 -0.45261102019E+00  0.14214124968E+00  0.10526063844E+01  0.93800000000E+00 0. -1.
         22    1    1    2    0    0 -0.56055364444E-01  0.38104496684E+00  0.34345199417E+01  0.34560475548E+01  0.00000000000E+00 0. -1.
</event>
<event>
 5    1  0.7095115E+001  0.1577281E+01  0.7818608E-02  0.3378397E+00
         11   -1    0    0    0    0  0.00000000000E+00  0.00000000000E+00  0.39999999674E+01  0.40000000000E+01  0.51100000000E-03 0. -1.
    9000002   -1    0    0    0    0 -0.00000000000E+00 -0.00000000000E+00  0.00000000000E+00  0.93800000000E+00  0.93800000000E+00 0. -1.
         11    1    1    2    0    0  0.14333657271E+00 -0.91727687953E-01  0.41678015023E+00  0.45018362538E+00  0.51100000000E-03 0. -1.
    9000002    1    1    2    0    0 -0.43427728317E+00  0.24347394221E+00  0.19004581287E+00  0.10788131118E+01  0.93800000000E+00 0. -1.
         22    1    1    2    0    0  0.29094071047E+00 -0.15174625426E+00  0.33931740043E+01  0.34090032628E+01  0.00000000000E+00 0. -1.
</event>
<event>
 5    1  0.7095115E+001  0.1599676E+01  0.7818608E-02  0.3353715E+00
         11   -1    0    0    0    0  0.00000000000E+00  0.00000000000E+00  0.39999999674E+01  0.40000000000E+01  0.51100000000E-03 0. -1.
    9000002   -1    0    0    0    0 -0.00000000000E+00 -0.00000000000E+00  0.00000000000E+00  0.93800000000E+00  0.93800000000E+00 0.  1.
         11    1    1    2    0    0  0.39847297831E-01  0.10866689658E+00  0.11718276725E+01  0.11775298964E+01  0.51100000000E-03 0. -1.
    9000002    1    1    2    0    0 -0.13361372848E+00 -0.35857947861E+00  0.98557852118E-01  0.10178357044E+01  0.93800000000E+00 0.  1.
         22    1    1    2    0    0  0.93766430648E-01  0.24991258203E+00  0.27296144427E+01  0.27426343993E+01  0.00000000000E+00 0. -1.
</event>
<event>
 5    1  0.7095115E+001  0.1596859E+01  0.7818608E-02  0.3356780E+00
         11   -1    0    0    0    0  0.00000000000E+00  0.00000000000E+00  0.39999999674E+01  0.40000000000E+01  0.51100000000E-03 0. -1.
    9000002   -1    0    0    0    0 -0.00000000000E+00 -0.00000000000E+00  0.00000000000E+00  0.93800000000E+00  0.93800000000E+00 0. -1.
         11    1    1    2    0    0 -0.44453441499E-01  0.30811254392E-01  0.22554765654E+00  0.23194276955E+00  0.51100000000E-03 0. -1.
    9000002    1    1    2    0    0  0.27022357332E+00 -0.35772726501E+00  0.13891002743E+00  0.10488706171E+01  0.93800000000E+00 0. -1.
         22    1    1    2    0    0 -0.22577013182E+00  0.32691601062E+00  0.36355422834E+01  0.36571866133E+01  0.00000000000E+00 0. -1.
</event>
<event>
 5    1  0.7095115E+001  0.1552203E+01  0.7818608E-02  0.3406933E+00
         11   -1    0    0    0    0  0.00000000000E+00  0.00000000000E+00  0.39999999674E+01  0.40000000000E+01  0.51100000000E-03 0. -1.
    9000002   -1    0    0    0    0 -0.00000000000E+00 -0.00000000000E+00  0.00000000000E+00  0.93800000000E+00  0.93800000000E+00 0. -1.
         11    1    1    2    0    0 -0.15620610690E+00 -0.92755415863E-01  0.96733082001E+00  0.98424239467E+00  0.51100000000E-03 0. -1.
    9000002    1    1    2    0    0 -0.22831166909E+00  0.63310702973E-01  0.74245328577E-01  0.97030450487E+00  0.93800000000E+00 0. -1.
         22    1    1    2    0    0  0.38451777599E+00  0.29444712890E-01  0.29584238188E+01  0.29834531005E+01  0.00000000000E+00 0. -1.
</event>
<event>
 5    1  0.7095115E+001  0.1599627E+01  0.7818608E-02  0.3353768E+00
         11   -1    0    0    0    0  0.00000000000E+00  0.00000000000E+00  0.39999999674E+01  0.40000000000E+01  0.51100000000E-03 0.  1.
    9000002   -1    0    0    0    0 -0.00000000000E+00 -0.00000000000E+00  0.00000000000E+00  0.93800000000E+00  0.93800000000E+00 0. -1.
         11    1    1    2    0    0  0.12677173532E+00 -0.13206230980E+00  0.13961610986E+01  0.14081113596E+01  0.51100000000E-03 0.  1.
    9000002    1    1    2    0    0 -0.33195601162E+00  0.37819408910E+00  0.17348622942E+00  0.10785022181E+01  0.93800000000E+00 0. -1.
         22    1    1    2    0    0  0.20518427630E+00 -0.24613177930E+00  0.24303526393E+01  0.24513864223E+01  0.00000000000E+00 0.  1.
</event>
<event>
 5    1  0.7095115E+001  0.1597953E+01  0.7818608E-02  0.3355588E+00
         11   -1    0    0    0    0  0.00000000000E+00  0.00000000000E+00  0.39999999674E+01  0.40000000000E+01  0.51100000000E-03 0.  1.
    9000002   -1    0    0    0    0 -0.00000000000E+00 -0.00000000000E+00  0.00000000000E+00  0.93800000000E+00  0.93800000000E+00 0.  1.
         11    1    1    2    0    0  0.33573043735E-01 -0.87413779862E-01  0.68038687461E+00  0.68680046479E+00  0.51100000000E-03 0.  1.
    9000002    1    1    2    0    0 -0.24755024879E+00  0.29018975323E+00  0.99326982372E-01  0.10174483122E+01  0.93800000000E+00 0.  1.
         22    1    1    2    0    0  0.21397720505E+00 -0.20277597337E+00  0.32202861104E+01  0.32337512230E+01  0.00000000000E+00 0.  1.
</event>
<event>
 5    1  0.7095115E+001  0.1599677E+01  0.7818608E-02  0.3353714E+00
         11   -1    0    0    0    0  0.00000000000E+00  0.00000000000E+00  0.39999999674E+01  0.40000000000E+01  0.51100000000E-03 0.  1.
    9000002   -1    0    0    0    0 -0.00000000000E+00 -0.00000000000E+00  0.00000000000E+00  0.93800000000E+00  0.93800000000E+00 0. -1.
         11    1    1    2    0    0  0.23825038145E+00 -0.98513425681E-01  0.13828878850E+01  0.14067150752E+01  0.51100000000E-03 0.  1.
    9000002    1    1    2    0    0 -0.63176824985E+00  0.26252070424E+00  0.33310383611E+00  0.12078287988E+01  0.93800000000E+00 0. -1.
         22    1    1    2    0    0  0.39351786839E+00 -0.16400727856E+00  0.22840082463E+01  0.23234561260E+01  0.00000000000E+00 0.  1.
</event>
<event>
 5    1  0.7095115E+001  0.1471427E+01  0.7818608E-02  0.3505938E+00
         11   -1    0    0    0    0  0.00000000000E+00  0.00000000000E+00  0.39999999674E+01  0.40000000000E+01  0.51100000000E-03 0.  1.
    9000002   -1    0    0    0    0 -0.00000000000E+00 -0.00000000000E+00  0.00000000000E+00  0.93800000000E+00  0.93800000000E+00 0.  1.
         11    1    1    2    0    0 -0.26625974766E+00 -0.63416785993E-01  0.78779511026E+00  0.83398881218E+00  0.51100000000E-03 0.  1.
    9000002    1    1    2    0    0 -0.40904348491E+00  0.33524042857E+00  0.32257844036E+00  0.11241012266E+01  0.93800000000E+00 0.  1.
         22    1    1    2    0    0  0.67530323257E+00 -0.27182364258E+00  0.28896264167E+01  0.29799099612E+01  0.00000000000E+00 0.  1.
</event>
<event>
 5    1  0.7095115E+001  0.1599677E+01  0.7818608E-02  0.3353714E+00
         11   -1    0    0    0    0  0.00000000000E+00  0.00000000000E+00  0.39999999674E+01  0.40000000000E+01  0.51100000000E-03 0.  1.
    9000002   -1    0    0    0    0 -0.00000000000E+00 -0.00000000000E+00  0.00000000000E+00  0.93800000000E+00  0.93800000000E+00 0. -1.
         11    1    1    2    0    0  0.11775953172E+00  0.47340563465E-01  0.91018577018E+00  0.91899229247E+00  0.51100000000E-03 0. -1.
    9000002    1    1    2    0    0 -0.49291553668E+00 -0.19671913391E+00  0.19385133297E+00  0.10950280742E+01  0.93800000000E+00 0. -1.
         22    1    1    2    0    0  0.37515600496E+00  0.14937857045E+00  0.28959628642E+01  0.29239796334E+01  0.00000000000E+00 0.  1.
</event>
<event>
 5    1  0.7095115E+001  0.1582215E+01  0.7818608E-02  0.3372895E+00
         11   -1    0    0    0    0  0.00000000000E+00  0.00000000000E+00  0.39999999674E+01  0.40000000000E+01  0.51100000000E-03 0. -1.
    9000002   -1    0    0    0    0 -0.00000000000E+00 -0.00000000000E+00  0.00000000000E+00  0.93800000000E+00  0.93800000000E+00 0. -1.
         11    1    1    2    0    0 -0.57107439158E-01  0.42359341812E-01  0.82384444194E+00  0.82690718891E+00  0.51100000000E-03 0. -1.
    9000002    1    1    2    0    0 -0.24043778068E+00  0.14197132358E+00  0.65564841636E-01  0.98087151633E+00  0.93800000000E+00 0. -1.
         22    1    1    2    0    0  0.29754521984E+00 -0.18433066539E+00  0.31105906838E+01  0.31302212948E+01  0.00000000000E+00 0.  1.
</event>
<event>
 5    1  0.7095115E+001  0.1599677E+01  0.7818608E-02  0.3353714E+00
         11   -1    0    0    0    0  0.00000000000E+00  0.00000000000E+00  0.39999999674E+01  0.40000000000E+01  0.51100000000E-03 0. -1.
    9000002   -1    0    0    0    0 -0.00000000000E+00 -0.00000000000E+00  0.00000000000E+00  0.93800000000E+00  0.93800000000E+00 0. -1.
         11    1    1    2    0    0  0.25827408560E+00 -0.46272533045E+00  0.10922969423E+01  0.12140564674E+01  0.51100000000E-03 0. -1.
    9000002    1    1    2    0    0 -0.59663986339E+00  0.10677780633E+01  0.14803538054E+01  0.21371524298E+01  0.93800000000E+00 0. -1.
         22    1    1    2    0    0  0.33836577779E+00 -0.60505273283E+00  0.14273492197E+01  0.15867911028E+01  0.00000000000E+00 0. -1.
</event>
<event>
 5    1  0.7095115E+001  0.1599674E+01  0.7818608E-02  0.3353717E+00
         11   -1    0    0    0    0  0.00000000000E+00  0.00000000000E+00  0.39999999674E+01  0.40000000000E+01  0.51100000000E-03 0.  1.
    9000002   -1    0    0    0    0 -0.00000000000E+00 -0.00000000000E+00  0.00000000000E+00  0.93800000000E+00  0.93800000000E+00 0. -1.
         11    1    1    2    0    0  0.98382090044E-01  0.35786737271E-03  0.10021911778E+01  0.10070087297E+01  0.51100000000E-03 0.  1.
    9000002    1    1    2    0    0 -0.38660535831E+00  0.45172063069E-02  0.10066295205E+00  0.10195396697E+01  0.93800000000E+00 0. -1.
         22    1    1    2    0    0  0.28822326827E+00 -0.48750736796E-02  0.28971458375E+01  0.29114516006E+01  0.00000000000E+00 0.  1.
</event>
<event>
 5    1  0.7095115E+001  0.1599632E+01  0.7818608E-02  0.3353763E+00
         11   -1    0    0    0    0  0.00000000000E+00  0.00000000000E+00  0.39999999674E+01  0.40000000000E+01  0.51100000000E-03 0.  1.
    9000002   -1    0    0    0    0 -0.00000000000E+00 -0.00000000000E+00  0.00000000000E+00  0.93800000000E+00  0.93800000000E+00 0.  1.
         11    1    1    2    0    0  0.82585401801E-01  0.12550163042E+00  0.13888228474E+01  0.13969252559E+01  0.51100000000E-03 0.  1.
    9000002    1    1    2    0    0 -0.23565161110E+00 -0.33021679826E+00  0.11112799755E+00  0.10279923383E+01  0.93800000000E+00 0.  1.
         22    1    1    2    0    0  0.15306620930E+00  0.20471516784E+00  0.25000491224E+01  0.25130824059E+01  0.00000000000E+00 0.  1.
</event>
<event>
 5    1  0.7095115E+001  0.1599650E+01  0.7818608E-02  0.3353744E+00
         11   -1    0    0    0    0  0.00000000000E+00  0.00000000000E+00  0.39999999674E+01  0.40000000000E+01  0.51100000000E-03 0.  1.
    9000002   -1    0    0    0    0 -0.00000000000E+00 -0.00000000000E+00  0.00000000000E+00  0.93800000000E+00  0.93800000000E+00 0.  1.
         11    1    1    2    0    0  0.82354665648E-01  0.46010308725E-02  0.71655344615E+00  0.72128535459E+00  0.51100000000E-03 0.  1.
    9000002    1    1    2    0    0 -0.42047269217E+00 -0.32171071139E-01  0.12031958543E+00  0.10354482437E+01  0.93800000000E+00 0.  1.
         22    1    1    2    0    0  0.33811802652E+00  0.27570040266E-01  0.31631269358E+01  0.31812664017E+01  0.00000000000E+00 0. -1.
</event>
<event>
 5    1  0.7095115E+001  0.1588078E+01  0.7818608E-02  0.3366405E+00
         11   -1    0    0    0    0  0.00000000000E+00  0.00000000000E+00  0.39999999674E+01  0.40000000000E+01  0.51100000000E-03 0.  1.
    9000002   -1    0    0    0    0 -0.00000000000E+00 -0.00000000000E+00  0.00000000000E+00  0.93800000000E+00  0.93800000000E+00 0.  1.
         11    1    1    2    0    0 -0.21227832097E+00 -0.82402409218E-01  0.17239124934E-02  0.22771797380E+00  0.51100000000E-03 0.  1.
    9000002    1    1    2    0    0 -0.56494054100E-01  0.40045672013E+00  0.41445328460E+00  0.11023487143E+01  0.93800000000E+00 0.  1.
         22    1    1    2    0    0  0.26877237507E+00 -0.31805431091E+00  0.35838227703E+01  0.36079333119E+01  0.00000000000E+00 0.  1.
</event>
<event>
 5    1  0.7095115E+001  0.1599665E+01  0.7818608E-02  0.3353727E+00
         11   -1    0    0    0    0  0.00000000000E+00  0.00000000000E+00  0.39999999674E+01  0.40000000000E+01  0.51100000000E-03 0.  1.
    9000002   -1    0    0    0    0 -0.00000000000E+00 -0.00000000000E+00  0.00000000000E+00  0.93800000000E+00  0.93800000000E+00 0. -1.
         11    1    1    2    0    0 -0.39254049875E-01 -0.19844596385E+00  0.92871560042E+00  0.95049177197E+00  0.51100000000E-03 0.  1.
    9000002    1    1    2    0    0  0.15670013556E+00  0.75030639230E+00  0.42808884833E+00  0.12847640549E+01  0.93800000000E+00 0. -1.
         22    1    1    2    0    0 -0.11744608569E+00 -0.55186042845E+00  0.26431955186E+01  0.27027441731E+01  0.00000000000E+00 0.  1.
</event>
<event>
 5    1  0.7095115E+001  0.1599677E+01  0.7818608E-02  0.3353715E+00
         11   -1    0    0    0    0  0.00000000000E+00  0.00000000000E+00  0.39999999674E+01  0.40000000000E+01  0.51100000000E-03 0.  1.
    9000002   -1    0    0    0    0 -0.00000000000E+00 -0.00000000000E+00  0.00000000000E+00  0.93800000000E+00  0.93800000000E+00 0.  1.
         11    1    1    2    0    0 -0.63133689851E-01  0.28127640489E-01  0.73023063881E+00  0.73349442666E+00  0.51100000000E-03 0.  1.
    9000002    1    1    2    0    0  0.34026121413E+00 -0.14884027433E+00  0.92710591320E-01  0.10130993904E+01  0.93800000000E+00 0.  1.
         22    1    1    2    0    0 -0.27712752428E+00  0.12071263384E+00  0.31770587372E+01  0.31914061829E+01  0.00000000000E+00 0.  1.
</event>
<event>
 5    1  0.7095115E+001  0.1599669E+01  0.7818608E-02  0.3353723E+00
         11   -1    0    0    0    0  0.00000000000E+00  0.00000000000E+00  0.39999999674E+01  0.40000000000E+01  0.51100000000E-03 0.  1.
    9000002   -1    0    0    0    0 -0.00000000000E+00 -0.00000000000E+00  0.00000000000E+00  0.93800000000E+00  0.93800000000E+00 0.  1.
         11    1    1    2    0    0  0.18744830768E+00 -0.50531226131E-01  0.11598999479E+01  0.11760350433E+01  0.51100000000E-03 0.  1.
    9000002    1    1    2    0    0 -0.60451445629E+00  0.15254672725E+00  0.27261079752E+00  0.11588221946E+01  0.93800000000E+00 0.  1.
         22    1    1    2    0    0  0.41706614861E+00 -0.10201550112E+00  0.25674892220E+01  0.26031427621E+01  0.00000000000E+00 0.  1.
</event>
<event>
 5    1  0.7095115E+001  0.1594410E+01  0.7818608E-02  0.3359453E+00
         11   -1    0    0    0    0  0.00000000000E+00  0.00000000000E+00  0.39999999674E+01  0.40000000000E+01  0.51100000000E-03 0. -1.
    9000002   -1    0    0    0    0 -0.00000000000E+00 -0.00000000000E+00  0.00000000000E+00  0.93800000000E+00  0.93800000000E+00 0. -1.
         11    1    1    2    0    0  0.41676399075E-01 -0.11479219683E+00  0.10754787849E+01  0.10823904326E+01  0.51100000000E-03 0. -1.
    9000002    1    1    2    0    0 -0.40904380640E+00  0.30897086774E+00  0.18508876412E+00  0.10848417780E+01  0.93800000000E+00 0. -1.
         22    1    1    2    0    0  0.36736740732E+00 -0.19417867091E+00  0.27394324183E+01  0.27707677894E+01  0.00000000000E+00 0. -1.
</event>
<event>
 5    1  0.7095115E+001  0.1599542E+01  0.7818608E-02  0.3353861E+00
         11   -1    0    0    0    0  0.00000000000E+00  0.00000000000E+00  0.39999999674E+01  0.40000000000E+01  0.51100000000E-03 0. -1.
    9000002   -1    0    0    0    0 -0.00000000000E+00 -0.00000000000E+00  0.00000000000E+00  0.93800000000E+00  0.93800000000E+00 0.  1.
         11    1    1    2    0    0  0.11072737988E-02 -0.17340592436E-02  0.26329381571E-01  0.26414588235E-01  0.51100000000E-03 0. -1.
    9000002    1    1    2    0    0 -0.36728872799E+00 -0.49039248594E-02  0.90756630600E-01  0.10114375038E+01  0.93800000000E+00 0.  1.
         22    1    1    2    0    0  0.36618145420E+00  0.66379841030E-02  0.38829139552E+01  0.39001479079E+01  0.00000000000E+00 0. -1.
</event>
<event>
 5    1  0.7095115E+001  0.1565574E+01  0.7818608E-02  0.3391598E+00
         11   -1    0    0    0    0  0.00000000000E+00  0.00000000000E+00  0.39999999674E+01  0.40000000000E+01  0.51100000000E-03 0.  1.
    9000002   -1    0    0    0    0 -0.00000000000E+00 -0.00000000000E+00  0.00000000000E+00  0.93800000000E+00  0.93800000000E+00 0. -1.
         11    1    1    2    0    0  0.14518945470E+00  0.13481148290E-01  0.89137011442E+00  0.90321794774E+00  0.51100000000E-03 0.  1.
    9000002    1    1    2    0    0  0.16275674778E+00  0.10870035750E+00  0.51320239430E-01  0.95957453783E+00  0.93800000000E+00 0. -1.
         22    1    1    2    0    0 -0.30794620248E+00 -0.12218150579E+00  0.30573096135E+01  0.30752075144E+01  0.00000000000E+00 0.  1.
</event>
<event>
 5    1  0.7095115E+001  0.1599399E+01  0.7818608E-02  0.3354016E+00
         11   -1    0    0    0    0  0.00000000000E+00  0.00000000000E+00  0.39999999674E+01  0.40000000000E+01  0.51100000000E-03 0. -1.
    9000002   -1    0    0    0    0 -0.00000000000E+00 -0.00000000000E+00  0.00000000000E+00  0.93800000000E+00  0.93800000000E+00 0.  1.
         11    1    1    2    0    0 -0.54971831600E-02  0.10119434365E+00  0.80763578229E+00  0.81396949093E+00  0.51100000000E-03 0. -1.
    9000002    1    1    2    0    0  0.81069363292E-01 -0.42885022878E+00  0.12935852308E+00  0.10426228407E+01  0.93800000000E+00 0.  1.
         22    1    1    2    0    0 -0.75572180132E-01  0.32765588514E+00  0.30630056620E+01  0.30814076684E+01  0.00000000000E+00 0. -1.
</event>
<event>
 5    1  0.7095115E+001  0.1595534E+01  0.7818608E-02  0.3358225E+00
         11   -1    0    0    0    0  0.00000000000E+00  0.00000000000E+00  0.39999999674E+01  0.40000000000E+01  0.51100000000E-03 0.  1.
    9000002   -1    0    0    0    0 -0.00000000000E+00 -0.00000000000E+00  0.00000000000E+00  0.93800000000E+00  0.93800000000E+00 0. -1.
         11    1    1    2    0    0  0.50806751877E-01  0.19295739625E-01  0.64731629602E+00  0.64959394995E+00  0.51100000000E-03 0.  1.
    9000002    1    1    2    0    0 -0.30149484100E+00  0.23099727084E+00  0.10046858330E+00  0.10169546767E+01  0.93800000000E+00 0. -1.
         22    1    1    2    0    0  0.25068808912E+00 -0.25029301047E+00  0.32522150880E+01  0.32714513733E+01  0.00000000000E+00 0.  1.
</event>
<event>
 5    1  0.7095115E+001  0.1599647E+01  0.7818608E-02  0.3353747E+00
         11   -1    0    0    0    0  0.00000000000E+00  0.00000000000E+00  0.39999999674E+01  0.40000000000E+01  0.51100000000E-03 0. -1.
    9000002   -1    0    0    0    0 -0.00000000000E+00 -0.00000000000E+00  0.00000000000E+00  0.93800000000E+00  0.93800000000E+00 0.  1.
         11    1    1    2    0    0 -0.16014459270E-01 -0.16453381132E-02  0.11929712528E+00  0.12037954671E+00  0.51100000000E-03 0. -1.
    9000002    1    1    2    0    0  0.44587033603E+00  0.55520807323E-01  0.13712771614E+00  0.10490619272E+01  0.93800000000E+00 0.  1.
         22    1    1    2    0    0 -0.42985587676E+00 -0.53875469209E-01  0.37435751259E+01  0.37685585261E+01  0.00000000000E+00 0. -1.
</event>
<event>
 5    1  0.7095115E+001  0.1599677E+01  0.7818608E-02  0.3353714E+00
         11   -1    0    0    0    0  0.00000000000E+00  0.00000000000E+00  0.39999999674E+01  0.40000000000E+01  0.51100000000E-03 0.  1.
    9000002   -1    0    0    0    0 -0.00000000000E+00 -0.00000000000E+00  0.00000000000E+00  0.93800000000E+00  0.93800000000E+00 0.  1.
         11    1    1    2    0    0  0.59651547333E-01 -0.67659475723E-01  0.79540070626E+00  0.80049900461E+00  0.51100000000E-03 0. -1.
    9000002    1    1    2    0    0 -0.29111432290E+00  0.32831048855E+00  0.13055427881E+00  0.10437546386E+01  0.93800000000E+00 0.  1.
         22    1    1    2    0    0  0.23146277557E+00 -0.26065101283E+00  0.30740449823E+01  0.30937463568E+01  0.00000000000E+00 0.  1.
</event>
<event>
 5    1  0.7095115E+001  0.1593516E+01  0.7818608E-02  0.3360432E+00
         11   -1    0    0    0    0  0.00000000000E+00  0.00000000000E+00  0.39999999674E+01  0.40000000000E+01  0.51100000000E-03 0.  1.
    9000002   -1    0    0    0    0 -0.00000000000E+00 -0.00000000000E+00  0.00000000000E+00  0.93800000000E+00  0.93800000000E+00 0.  1.
         11    1    1    2    0    0  0.15343211691E+00 -0.17170063063E+00  0.11556934612E+01  0.11784100128E+01  0.51100000000E-03 0.  1.
    9000002    1    1    2    0    0 -0.21929091488E+00  0.62002455443E+00  0.31234695189E+00  0.11874020262E+01  0.93800000000E+00 0.  1.
         22    1    1    2    0    0  0.65858797973E-01 -0.44832392381E+00  0.25319595543E+01  0.25721879610E+01  0.00000000000E+00 0.  1.
</event>
<event>
 5    1  0.7095115E+001  0.1592676E+01  0.7818608E-02  0.3361351E+00
         11   -1    0    0    0    0  0.00000000000E+00  0.00000000000E+00  0.39999999674E+01  0.40000000000E+01  0.51100000000E-03 0.  1.
    9000002   -1    0    0    0    0 -0.00000000000E+00 -0.00000000000E+00  0.00000000000E+00  0.93800000000E+00  0.93800000000E+00 0. -1.
         11    1    1    2    0    0 -0.16136908679E-01  0.32412168355E-01  0.12579571373E+01  0.12584781956E+01  0.51100000000E-03 0.  1.
    9000002    1    1    2    0    0 -0.24268047011E+00 -0.12869082560E+00  0.55654041823E-01  0.97897727836E+00  0.93800000000E+00 0. -1.
         22    1    1    2    0    0  0.25881737879E+00  0.96278657244E-01  0.26863887883E+01  0.27005445260E+01  0.00000000000E+00 0.  1.
</event>
<event>
 5    1  0.7095115E+001  0.1582055E+01  0.7818608E-02  0.3373074E+00
         11   -1    0    0    0    0  0.00000000000E+00  0.00000000000E+00  0.39999999674E+01  0.40000000000E+01  0.51100000000E-03 0.  1.
    9000002   -1    0    0    0    0 -0.00000000000E+00 -0.00000000000E+00  0.00000000000E+00  0.93800000000E+00  0.93800000000E+00 0. -1.
         11    1    1    2    0    0  0.12112532906E+00  0.11232779517E+00  0.10710577257E+01  0.10837221931E+01  0.51100000000E-03 0.  1.
    9000002    1    1    2    0    0  0.73431175612E-01 -0.33846563622E+00  0.94691584016E-01  0.10043712563E+01  0.93800000000E+00 0. -1.
         22    1    1    2    0    0 -0.19455650467E+00  0.22613784105E+00  0.28342506577E+01  0.28499065506E+01  0.00000000000E+00 0. -1.
</event>
<event>
 5    1  0.7095115E+001  0.1599668E+01  0.7818608E-02  0.3353723E+00
         11   -1    0    0    0    0  0.00000000000E+00  0.00000000000E+00  0.39999999674E+01  0.40000000000E+01  0.51100000000E-03 0. -1.
    9000002   -1    0    0    0    0 -0.00000000000E+00 -0.00000000000E+00  0.00000000000E+00  0.93800000000E+00  0.93800000000E+00 0.  1.
         11    1    1    2    0    0  0.30353718287E-01 -0.82846368873E-01  0.63831850692E+00  0.64438780749E+00  0.51100000000E-03 0. -1.
    9000002    1    1    2    0    0 -0.17999799018E+00  0.50883626954E+00  0.20083173344E+00  0.11006775235E+01  0.93800000000E+00 0.  1.
         22    1    1    2    0    0  0.14964427190E+00 -0.42598990067E+00  0.31608497270E+01  0.31929346690E+01  0.00000000000E+00 0. -1.
</event>
<event>
 5    1  0.7095115E+001  0.1485821E+01  0.7818608E-02  0.3487446E+00
         11   -1    0    0    0    0  0.00000000000E+00  0.00000000000E+00  0.39999999674E+01  0.40000000000E+01  0.51100000000E-03 0.  1.
    9000002   -1    0    0    0    0 -0.00000000000E+00 -0.00000000000E+00  0.00000000000E+00  0.93800000000E+00  0.93800000000E+00 0. -1.
         11    1    1    2    0    0  0.25989785512E+00  0.93136695121E-01  0.14607938283E+01  0.14866540314E+01  0.51100000000E-03 0.  1.
    9000002    1    1    2    0    0  0.33107722557E+00 -0.42037539713E+00  0.31216878390E+00  0.11241089598E+01  0.93800000000E+00 0. -1.
         22    1    1    2    0    0 -0.59097508069E+00  0.32723870201E+00  0.22270373551E+01  0.23272370088E+01  0.00000000000E+00 0. -1.
</event>
<event>
 5    1  0.7095115E+001  0.1599668E+01  0.7818608E-02  0.3353724E+00
         11   -1    0    0    0    0  0.00000000000E+00  0.00000000000E+00  0.39999999674E+01  0.40000000000E+01  0.51100000000E-03 0.  1.
    9000002   -1    0    0    0    0 -0.00000000000E+00 -0.00000000000E+00  0.00000000000E+00  0.93800000000E+00  0.93800000000E+00 0. -1.
         11    1    1    2    0    0 -0.78860160401E-01  0.32239214709E-01  0.86623943344E+00  0.87041904221E+00  0.51100000000E-03 0.  1.
    9000002    1    1    2    0    0  0.34935202710E+00 -0.13362460001E+00  0.94071767176E-01  0.10141971554E+01  0.93800000000E+00 0. -1.
         22    1    1    2    0    0 -0.27049186670E+00  0.10138538530E+00  0.30396887667E+01  0.30533838024E+01  0.00000000000E+00 0.  1.
</event>
<event>
 5    1  0.7095115E+001  0.1556700E+01  0.7818608E-02  0.3401744E+00
         11   -1    0    0    0    0  0.00000000000E+00  0.00000000000E+00  0.39999999674E+01  0.40000000000E+01  0.51100000000E-03 0. -1.
    9000002   -1    0    0    0    0 -0.00000000000E+00 -0.00000000000E+00  0.00000000000E+00  0.93800000000E+00  0.93800000000E+00 0. -1.
         11    1    1    2    0    0  0.14269125711E+00 -0.15657864019E+00  0.12238828819E+01  0.12420818150E+01  0.51100000000E-03 0. -1.
    9000002    1    1    2    0    0 -0.82813403174E-02 -0.86129142902E-01  0.36918929954E-01  0.94270558354E+00  0.93800000000E+00 0. -1.
         22    1    1    2    0    0 -0.13440991679E+00  0.24270778309E+00  0.27391981555E+01  0.27532126015E+01  0.00000000000E+00 0. -1.
</event>
<event>
 5    1  0.7095115E+001  0.1496962E+01  0.7818608E-02  0.3473397E+00
         11   -1    0    0    0    0  0.00000000000E+00  0.00000000000E+00  0.39999999674E+01  0.40000000000E+01  0.51100000000E-03 0.  1.
    9000002   -1    0    0    0    0 -0.00000000000E+00 -0.00000000000E+00  0.00000000000E+00  0.93800000000E+00  0.93800000000E+00 0.  1.
         11    1    1    2    0    0  0.29318797519E+00  0.35045128097E+00  0.98437732544E+00  0.10852530899E+01  0.51100000000E-03 0.  1.
    9000002    1    1    2    0    0  0.31449894001E+00 -0.20249449573E+00  0.28196909801E+00  0.10484579993E+01  0.93800000000E+00 0.  1.
         22    1    1    2    0    0 -0.60768691521E+00 -0.14795678524E+00  0.27336535439E+01  0.28042889108E+01  0.00000000000E+00 0.  1.
</event>
<event>
 5    1  0.7095115E+001  0.1599676E+01  0.7818608E-02  0.3353715E+00
         11   -1    0    0    0    0  0.00000000000E+00  0.00000000000E+00  0.39999999674E+01  0.40000000000E+01  0.51100000000E-03 0. -1.
    9000002   -1    0    0    0    0 -0.00000000000E+00 -0.00000000000E+00  0.00000000000E+00  0.93800000000E+00  0.93800000000E+00 0. -1.
         11    1    1    2    0    0  0.27259424834E-01  0.17185129448E+00  0.90021729651E+00  0.91687915546E+00  0.51100000000E-03 0. -1.
    9000002    1    1    2    0    0 -0.10808212888E+00 -0.69377734841E+00  0.35254564536E+00  0.12235772096E+01  0.93800000000E+00 0. -1.
         22    1    1    2    0    0  0.80822704049E-01  0.52192605393E+00  0.27472370255E+01  0.27975436350E+01  0.00000000000E+00 0. -1.
</event>
<event>
 5    1  0.7095115E+001  0.1599669E+01  0.7818608E-02  0.3353722E+00
         11   -1    0    0    0    0  0.00000000000E+00  0.00000000000E+00  0.39999999674E+01  0.40000000000E+01  0.51100000000E-03 0.  1.
    9000002   -1    0    0    0    0 -0.00000000000E+00 -0.00000000000E+00  0.00000000000E+00  0.93800000000E+00  0.93800000000E+00 0.  1.
         11    1    1    2    0    0 -0.29744452881E-01 -0.11672988074E+00  0.94638685804E+00  0.95402250692E+00  0.51100000000E-03 0.  1.
    9000002    1    1    2    0    0  0.13217186012E+00  0.47407226585E+00  0.16559983507E+00  0.10721386194E+01  0.93800000000E+00 0.  1.
         22    1    1    2    0    0 -0.10242740724E+00 -0.35734238511E+00  0.28880132743E+01  0.29118388737E+01  0.00000000000E+00 0.  1.
</event>
<event>
 5    1  0.7095115E+001  0.1599677E+01  0.7818608E-02  0.3353714E+00
         11   -1    0    0    0    0  0.00000000000E+00  0.00000000000E+00  0.39999999674E+01  0.40000000000E+01  0.51100000000E-03 0.  1.
    9000002   -1    0    0    0    0 -0.00000000000E+00 -0.00000000000E+00  0.00000000000E+00  0.93800000000E+00  0.93800000000E+00 0.  1.
         11    1    1    2    0    0  0.49037592245E-01 -0.98063330105E-01  0.10875419425E+01  0.10930548202E+01  0.51100000000E-03 0. -1.
    9000002    1    1    2    0    0 -0.17570465739E+00  0.35119925821E+00  0.10392341764E+00  0.10221825289E+01  0.93800000000E+00 0.  1.
         22    1    1    2    0    0  0.12666706514E+00 -0.25313592810E+00  0.28085346072E+01  0.28227626509E+01  0.00000000000E+00 0.  1.
</event>
<event>
 5    1  0.7095115E+001  0.1592951E+01  0.7818608E-02  0.3361050E+00
         11   -1    0    0    0    0  0.00000000000E+00  0.00000000000E+00  0.39999999674E+01  0.40000000000E+01  0.51100000000E-03 0. -1.
    9000002   -1    0    0    0    0 -0.00000000000E+00 -0.00000000000E+00  0.00000000000E+00  0.93800000000E+00  0.93800000000E+00 0. -1.
         11    1    1    2    0    0 -0.51324303538E-01  0.88595582259E-02  0.10632246715E+01  0.10644997130E+01  0.51100000000E-03 0. -1.
    9000002    1    1    2    0    0  0.42550474035E+00  0.18091625187E+00  0.15135949626E+00  0.10566639349E+01  0.93800000000E+00 0. -1.
         22    1    1    2    0    0 -0.37418043681E+00 -0.18977581009E+00  0.27854157996E+01  0.28168363520E+01  0.00000000000E+00 0. -1.
</event>
<event>
 5    1  0.7095115E+001  0.1599676E+01  0.7818608E-02  0.3353715E+00
         11   -1    0    0    0    0  0.00000000000E+00  0.00000000000E+00  0.39999999674E+01  0.40000000000E+01  0.51100000000E-03 0. -1.
    9000002   -1    0    0    0    0 -0.00000000000E+00 -0.00000000000E+00  0.00000000000E+00  0.93800000000E+00  0.93800000000E+00 0. -1.
         11    1    1    2    0    0  0.76432810610E-01 -0.10757626823E+00  0.13004368706E+01  0.13071155051E+01  0.51100000000E-03 0. -1.
    9000002    1    1    2    0    0 -0.23059667545E+00  0.31910576380E+00  0.10447006362E+00  0.10226247158E+01  0.93800000000E+00 0. -1.
         22    1    1    2    0    0  0.15416386484E+00 -0.21152949556E+00  0.25950930331E+01  0.26082597791E+01  0.00000000000E+00 0. -1.
</event>
<event>
 5    1  0.7095115E+001  0.1588909E+01  0.7818608E-02  0.3365489E+00
         11   -1    0    0    0    0  0.00000000000E+00  0.00000000000E+00  0.39999999674E+01  0.40000000000E+01  0.51100000000E-03 0. -1.
    9000002   -1    0    0    0    0 -0.00000000000E+00 -0.00000000000E+00  0.00000000000E+00  0.93800000000E+00  0.93800000000E+00 0.  1.
         11    1    1    2    0    0  0.23642583387E-01 -0.35515957934E-01  0.81854633722E+00  0.81965768606E+00  0.51100000000E-03 0. -1.
    9000002    1    1    2    0    0 -0.52109439001E-01 -0.31250759122E+00  0.75623795903E-01  0.99294478533E+00  0.93800000000E+00 0.  1.
         22    1    1    2    0    0  0.28466855614E-01  0.34802354915E+00  0.31058298342E+01  0.31253975286E+01  0.00000000000E+00 0. -1.
</event>
<event>
 5    1  0.7095115E+001  0.1599661E+01  0.7818608E-02  0.3353731E+00
         11   -1    0    0    0    0  0.00000000000E+00  0.00000000000E+00  0.39999999674E+01  0.40000000000E+01  0.51100000000E-03 0. -1.
    9000002   -1    0    0    0    0 -0.00000000000E+00 -0.00000000000E+00  0.00000000000E+00  0.93800000000E+00  0.93800000000E+00 0.  1.
         11    1    1    2    0    0  0.10581224879E+00 -0.17070816551E-01  0.11128600643E+01  0.11180095834E+01  0.51100000000E-03 0. -1.
    9000002    1    1    2    0    0 -0.36696687562E+00  0.74499475346E-01  0.94292498943E-01  0.10143716947E+01  0.93800000000E+00 0.  1.
         22    1    1    2    0    0  0.26115462683E+00 -0.57428658795E-01  0.27928474041E+01  0.28056187219E+01  0.00000000000E+00 0. -1.
</event>
<event>
 5    1  0.7095115E+001  0.1599649E+01  0.7818608E-02  0.3353744E+00
         11   -1    0    0    0    0  0.00000000000E+00  0.00000000000E+00  0.39999999674E+01  0.40000000000E+01  0.51100000000E-03 0.  1.
    9000002   -1    0    0    0    0 -0.00000000000E+00 -0.00000000000E+00  0.00000000000E+00  0.93800000000E+00  0.93800000000E+00 0. -1.
         11    1    1    2    0    0 -0.11353123987E+00  0.91103027731E-01  0.14422231976E+01  0.14495506604E+01  0.51100000000E-03 0.  1.
    9000002    1    1    2    0    0  0.32257740105E+00 -0.24793801935E+00  0.11177559285E+00  0.10285267251E+01  0.93800000000E+00 0. -1.
         22    1    1    2    0    0 -0.20904616118E+00  0.15683499162E+00  0.24460011769E+01  0.24599226145E+01  0.00000000000E+00 0.  1.
</event>
<event>
 5    1  0.7095115E+001  0.1599140E+01  0.7818608E-02  0.3354297E+00
         11   -1    0    0    0    0  0.00000000000E+00  0.00000000000E+00  0.39999999674E+01  0.40000000000E+01  0.51100000000E-03 0.  1.
    9000002   -1    0    0    0    0 -0.00000000000E+00 -0.00000000000E+00  0.00000000000E+00  0.93800000000E+00  0.93800000000E+00 0. -1.
         11    1    1    2    0    0  0.18607069601E-01  0.65396606660E-01  0.56074677360E+00  0.56485409127E+00  0.51100000000E-03 0.  1.
    9000002    1    1    2    0    0  0.56051583194E-02 -0.43205096336E+00  0.12693413775E+00  0.10405074378E+01  0.93800000000E+00 0. -1.
         22    1    1    2    0    0 -0.24212227920E-01  0.36665435670E+00  0.33123190560E+01  0.33326384710E+01  0.00000000000E+00 0.  1.
</event>
<event>
 5    1  0.7095115E+001  0.1599659E+01  0.7818608E-02  0.3353734E+00
         11   -1    0    0    0    0  0.00000000000E+00  0.00000000000E+00  0.39999999674E+01  0.40000000000E+01  0.51100000000E-03 0.  1.
    9000002   -1    0    0    0    0 -0.00000000000E+00 -0.00000000000E+00  0.00000000000E+00  0.93800000000E+00  0.93800000000E+00 0.  1.
         11    1    1    2    0    0  0.64847276640E-01 -0.82085021146E-01  0.48291459735E+00  0.49411525926E+00  0.51100000000E-03 0.  1.
    9000002    1    1    2    0    0 -0.48514991696E+00  0.58320489500E+00  0.41831603849E+00  0.12768440388E+01  0.93800000000E+00 0.  1.
         22    1    1    2    0    0  0.42030264032E+00 -0.50111987385E+00  0.30987693315E+01  0.31670407019E+01  0.00000000000E+00 0.  1.
</event>
<event>
 5    1  0.7095115E+001  0.1590793E+01  0.7818608E-02  0.3363417E+00
         11   -1    0    0    0    0  0.00000000000E+00  0.00000000000E+00  0.39999999674E+01  0.40000000000E+01  0.51100000000E-03 0. -1.
    9000002   -1    0    0    0    0 -0.00000000000E+00 -0.00000000000E+00  0.00000000000E+00  0.93800000000E+00  0.93800000000E+00 0. -1.
         11    1    1    2    0    0  0.57029927700E-01 -0.14175618303E-01  0.32303762036E+00  0.32833965051E+00  0.51100000000E-03 0. -1.
    9000002    1    1    2    0    0 -0.18138250579E+00 -0.39081587758E+00  0.13333378900E+00  0.10407970805E+01  0.93800000000E+00 0. -1.
         22    1    1    2    0    0  0.12435257809E+00  0.40499149588E+00  0.35436285580E+01  0.35688632689E+01  0.00000000000E+00 0. -1.
</event>
<event>
 5    1  0.7095115E+001  0.1599590E+01  0.7818608E-02  0.3353808E+00
         11   -1    0    0    0    0  0.00000000000E+00  0.00000000000E+00  0.39999999674E+01  0.40000000000E+01  0.51100000000E-03 0. -1.
    9000002   -1    0    0    0    0 -0.00000000000E+00 -0.00000000000E+00  0.00000000000E+00  0.93800000000E+00  0.93800000000E+00 0.  1.
         11    1    1    2    0    0  0.78561647398E-01  0.11655177855E+00  0.10601451319E+01  0.10694223728E+01  0.51100000000E-03 0. -1.
    9000002    1    1    2    0    0 -0.26834442344E+00 -0.39041939595E+00  0.15306156025E+00  0.10619359093E+01  0.93800000000E+00 0.  1.
         22    1    1    2    0    0  0.18978277604E+00  0.27386761741E+00  0.27867932752E+01  0.28066417179E+01  0.00000000000E+00 0. -1.
</event>
<event>
 5    1  0.7095115E+001  0.1599632E+01  0.7818608E-02  0.3353763E+00
         11   -1    0    0    0    0  0.00000000000E+00  0.00000000000E+00  0.39999999674E+01  0.40000000000E+01  0.51100000000E-03 0. -1.
    9000002   -1    0    0    0    0 -0.00000000000E+00 -0.00000000000E+00  0.00000000000E+00  0.93800000000E+00  0.93800000000E+00 0.  1.
         11    1    1    2    0    0 -0.40481002966E-01 -0.21415788138E-01  0.40396664701E+00  0.40655462191E+00  0.51100000000E-03 0. -1.
    9000002    1    1    2    0    0  0.38625013847E+00  0.25134123419E+00  0.14450542157E+00  0.10550295742E+01  0.93800000000E+00 0.  1.
         22    1    1    2    0    0 -0.34576913550E+00 -0.22992544605E+00  0.34515278988E+01  0.34764158039E+01  0.00000000000E+00 0. -1.
</event>
<event>
 5    1  0.7095115E+001  0.1599674E+01  0.7818608E-02  0.3353717E+00
         11   -1    0    0    0    0  0.00000000000E+00  0.00000000000E+00  0.39999999674E+01  0.40000000000E+01  0.51100000000E-03 0. -1.
    9000002   -1    0    0    0    0 -0.00000000000E+00 -0.00000000000E+00  0.00000000000E+00  0.93800000000E+00  0.93800000000E+00 0. -1.
         11    1    1    2    0    0 -0.25370101776E+00 -0.48800594894E+00  0.13525793560E+01  0.14601319078E+01  0.51100000000E-03 0. -1.
    9000002    1    1    2    0    0  0.53217522827E+00  0.10171284482E+01  0.11847177944E+01  0.18976725234E+01  0.93800000000E+00 0. -1.
         22    1    1    2    0    0 -0.27847421051E+00 -0.52912249922E+00  0.14627028170E+01  0.15801955689E+01  0.00000000000E+00 0. -1.
</event>
<event>
 5    1  0.7095115E+001  0.1599676E+01  0.7818608E-02  0.3353715E+00
         11   -1    0    0    0    0  0.00000000000E+00  0.00000000000E+00  0.39999999674E+01  0.40000000000E+01  0.51100000000E-03 0. -1.
    9000002   -1    0    0    0    0 -0.00000000000E+00 -0.00000000000E+00  0.00000000000E+00  0.93800000000E+00  0.93800000000E+00 0.  1.
         11    1    1    2    0    0  0.12521891199E+00  0.21982168947E-01  0.10879632431E+01  0.10953662726E+01  0.51100000000E-03 0. -1.
    9000002    1    1    2    0    0 -0.44303906539E+00 -0.81268002749E-01  0.13780793333E+00  0.10496299959E+01  0.93800000000E+00 0.  1.
         22    1    1    2    0    0  0.31782015340E+00  0.59285833801E-01  0.27742287909E+01  0.27930037316E+01  0.00000000000E+00 0. -1.
</event>
<event>
 5    1  0.7095115E+001  0.1597010E+01  0.7818608E-02  0.3356615E+00
         11   -1    0    0    0    0  0.00000000000E+00  0.00000000000E+00  0.39999999674E+01  0.40000000000E+01  0.51100000000E-03 0. -1.
    9000002   -1    0    0    0    0 -0.00000000000E+00 -0.00000000000E+00  0.00000000000E+00  0.93800000000E+00  0.93800000000E+00 0. -1.
         11    1    1    2    0    0  0.39631070098E-01 -0.88764964883E-02  0.77770654251E+00  0.77876642280E+00  0.51100000000E-03 0. -1.
    9000002    1    1    2    0    0 -0.28327604863E+00 -0.19095903051E+00  0.80324242616E-01  0.10015021992E+01  0.93800000000E+00 0. -1.
         22    1    1    2    0    0  0.24364497854E+00  0.19983552700E+00  0.31419691822E+01  0.31577313780E+01  0.00000000000E+00 0. -1.
</event>
<event>
 5    1  0.7095115E+001  0.1599677E+01  0.7818608E-02  0.3353714E+00
         11   -1    0    0    0    0  0.00000000000E+00  0.00000000000E+00  0.39999999674E+01  0.40000000000E+01  0.51100000000E-03 0. -1.
    9000002   -1    0    0    0    0 -0.00000000000E+00 -0.00000000000E+00  0.00000000000E+00  0.93800000000E+00  0.93800000000E+00 0. -1.
         11    1    1    2    0    0  0.70809320392E-01  0.21312283447E+00  0.13702378371E+01  0.13885198212E+01  0.51100000000E-03 0. -1.
    9000002    1    1    2    0    0 -0.19368210304E+00 -0.58091543291E+00  0.26232162084E+00  0.11504921251E+01  0.93800000000E+00 0. -1.
         22    1    1    2    0    0  0.12287278265E+00  0.36779259844E+00  0.23674405094E+01  0.23989880537E+01  0.00000000000E+00 0. -1.
</event>
<event>
 5    1  0.7095115E+001  0.1595541E+01  0.7818608E-02  0.3358218E+00
         11   -1    0    0    0    0  0.00000000000E+00  0.00000000000E+00  0.39999999674E+01  0.40000000000E+01  0.51100000000E-03 0.  1.
    9000002   -1    0    0    0    0 -0.00000000000E+00 -0.00000000000E+00  0.00000000000E+00  0.93800000000E+00  0.93800000000E+00 0.  1.
         11    1    1    2    0    0 -0.36146581497E-01 -0.37969436719E-01  0.11237965890E+01  0.11250187945E+01  0.51100000000E-03 0.  1.
    9000002    1    1    2    0    0  0.32875905977E+00 -0.46411871210E-02  0.75617524438E-01  0.99682800422E+00  0.93800000000E+00 0.  1.
         22    1    1    2    0    0 -0.29261247828E+00  0.42610623840E-01  0.28005858540E+01  0.28161532013E+01  0.00000000000E+00 0.  1.
</event>
<event>
 5    1  0.7095115E+001  0.1599656E+01  0.7818608E-02  0.3353736E+00
         11   -1    0    0    0    0  0.00000000000E+00  0.00000000000E+00  0.39999999674E+01  0.40000000000E+01  0.51100000000E-03 0.  1.
    9000002   -1    0    0    0    0 -0.00000000000E+00 -0.00000000000E+00  0.00000000000E+00  0.93800000000E+00  0.93800000000E+00 0.  1.
         11    1    1    2    0    0 -0.82413903942E-01 -0.29073999906E-01  0.55401995184E+00  0.56087049948E+00  0.51100000000E-03 0.  1.
    9000002    1    1    2    0    0  0.53971395346E+00  0.18306528204E+00  0.22523274606E+00  0.11204364502E+01  0.93800000000E+00 0.  1.
         22    1    1    2    0    0 -0.45730004951E+00 -0.15399128213E+00  0.32207472695E+01  0.32566930503E+01  0.00000000000E+00 0.  1.
</event>
<event>
 5    1  0.7095115E+001  0.1599665E+01  0.7818608E-02  0.3353727E+00
         11   -1    0    0    0    0  0.00000000000E+00  0.00000000000E+00  0.39999999674E+01  0.40000000000E+01  0.51100000000E-03 0. -1.
    9000002   -1    0    0    0    0 -0.00000000000E+00 -0.00000000000E+00  0.00000000000E+00  0.93800000000E+00  0.93800000000E+00 0. -1.
         11    1    1    2    0    0  0.12267542253E+00  0.16481009786E-01  0.12704859206E+01  0.12765013194E+01  0.51100000000E-03 0. -1.
    9000002    1    1    2    0    0 -0.37304633873E+00 -0.39378491929E-01  0.94632481413E-01  0.10146494680E+01  0.93800000000E+00 0. -1.
         22    1    1    2    0    0  0.25037091620E+00  0.22897482143E-01  0.26348815654E+01  0.26468492125E+01  0.00000000000E+00 0. -1.
</event>
<event>
 5    1  0.7095115E+001  0.1595848E+01  0.7818608E-02  0.3357882E+00
         11   -1    0    0    0    0  0.00000000000E+00  0.00000000000E+00  0.39999999674E+01  0.40000000000E+01  0.51100000000E-03 0. -1.
    9000002   -1    0    0    0    0 -0.00000000000E+00 -0.00000000000E+00  0.00000000000E+00  0.93800000000E+00  0.93800000000E+00 0.  1.
         11    1    1    2    0    0 -0.18615629075E+00 -0.13977809561E+00  0.13732775166E+01  0.13928687948E+01  0.51100000000E-03 0. -1.
    9000002    1    1    2    0    0  0.67493352788E+00  0.36074215481E+00  0.43128544658E+00  0.12851152889E+01  0.93800000000E+00 0.  1.
         22    1    1    2    0    0 -0.48877723712E+00 -0.22096405920E+00  0.21954370041E+01  0.22600159163E+01  0.00000000000E+00 0. -1.
</event>
<event>
 5    1  0.7095115E+001  0.1599674E+01  0.7818608E-02  0.3353717E+00
         11   -1    0    0    0    0  0.00000000000E+00  0.00000000000E+00  0.39999999674E+01  0.40000000000E+01  0.51100000000E-03 0.  1.
    9000002   -1    0    0    0    0 -0.00000000000E+00 -0.00000000000E+00  0.00000000000E+00  0.93800000000E+00  0.93800000000E+00 0. -1.
         11    1    1    2    0    0  0.84700396384E-01 -0.50369841867E-01  0.10734942988E+01  0.10780081395E+01  0.51100000000E-03 0.  1.
    9000002    1    1    2    0    0 -0.30997779009E+00  0.17735261291E+00  0.85587234211E-01  0.10073278286E+01  0.93800000000E+00 0. -1.
         22    1    1    2    0    0  0.22527739370E+00 -0.12698277104E+00  0.28409184343E+01  0.28526640319E+01  0.00000000000E+00 0.  1.
</event>
<event>
 5    1  0.7095115E+001  0.1546845E+01  0.7818608E-02  0.3413157E+00
         11   -1    0    0    0    0  0.00000000000E+00  0.00000000000E+00  0.39999999674E+01  0.40000000000E+01  0.51100000000E-03 0. -1.
    9000002   -1    0    0    0    0 -0.00000000000E+00 -0.00000000000E+00  0.00000000000E+00  0.93800000000E+00  0.93800000000E+00 0. -1.
         11    1    1    2    0    0  0.89620291137E-01  0.20411352306E+00  0.66563617315E+00  0.70197286486E+00  0.51100000000E-03 0. -1.
    9000002    1    1    2    0    0  0.28448362529E+00 -0.26358683502E+00  0.14625917756E+00  0.10254972938E+01  0.93800000000E+00 0. -1.
         22    1    1    2    0    0 -0.37410391643E+00  0.59473311957E-01  0.31881046167E+01  0.32105298413E+01  0.00000000000E+00 0. -1.
</event>
<event>
 5    1  0.7095115E+001  0.1599558E+01  0.7818608E-02  0.3353844E+00
         11   -1    0    0    0    0  0.00000000000E+00  0.00000000000E+00  0.39999999674E+01  0.40000000000E+01  0.51100000000E-03 0. -1.
    9000002   -1    0    0    0    0 -0.00000000000E+00 -0.00000000000E+00  0.00000000000E+00  0.93800000000E+00  0.93800000000E+00 0. -1.
         11    1    1    2    0    0  0.23274337753E-01  0.92349935472E-02  0.27455011678E+00  0.27569005721E+00  0.51100000000E-03 0. -1.
    9000002    1    1    2    0    0 -0.31546691774E+00 -0.22533312158E+00  0.10131771978E+00  0.10200018001E+01  0.93800000000E+00 0. -1.
         22    1    1    2    0    0  0.29219257998E+00  0.21609812803E+00  0.36241321308E+01  0.36423081427E+01  0.00000000000E+00 0. -1.
</event>
<event>
 5    1  0.7095115E+001  0.1599673E+01  0.7818608E-02  0.3353718E+00
         11   -1    0    0    0    0  0.00000000000E+00  0.00000000000E+00  0.39999999674E+01  0.40000000000E+01  0.51100000000E-03 0.  1.
    9000002   -1    0    0    0    0 -0.00000000000E+00 -0.00000000000E+00  0.00000000000E+00  0.93800000000E+00  0.93800000000E+00 0. -1.
         11    1    1    2    0    0  0.15420251626E+00  0.39853614541E-01  0.11716017035E+01  0.11823779173E+01  0.51100000000E-03 0.  1.
    9000002    1    1    2    0    0 -0.49883934482E+00 -0.13615829285E+00  0.18357739595E+00  0.10867034706E+01  0.93800000000E+00 0. -1.
         22    1    1    2    0    0  0.34463682856E+00  0.96304678306E-01  0.26448208679E+01  0.26689186121E+01  0.00000000000E+00 0.  1.
</event>
<event>
 5    1  0.7095115E+001  0.1598516E+01  0.7818608E-02  0.3354975E+00
         11   -1    0    0    0    0  0.00000000000E+00  0.00000000000E+00  0.39999999674E+01  0.40000000000E+01  0.51100000000E-03 0. -1.
    9000002   -1    0    0    0    0 -0.00000000000E+00 -0.00000000000E+00  0.00000000000E+00  0.93800000000E+00  0.93800000000E+00 0.  1.
         11    1    1    2    0    0 -0.19092344662E+00 -0.95563720182E-02  0.14819430733E+01  0.14942217440E+01  0.51100000000E-03 0. -1.
    9000002    1    1    2    0    0  0.41460429280E+00 -0.35414368412E-01  0.11801877546E+00  0.10329198074E+01  0.93800000000E+00 0.  1.
         22    1    1    2    0    0 -0.22368084618E+00  0.44970740430E-01  0.24000381186E+01  0.24108584486E+01  0.00000000000E+00 0. -1.
</event>
<event>
 5    1  0.7095115E+001  0.1599536E+01  0.7818608E-02  0.3353867E+00
         11   -1    0    0    0    0  0.00000000000E+00  0.00000000000E+00  0.39999999674E+01  0.40000000000E+01  0.51100000000E-03 0. -1.
    9000002   -1    0    0    0    0 -0.00000000000E+00 -0.00000000000E+00  0.00000000000E+00  0.93800000000E+00  0.93800000000E+00 0.  1.
         11    1    1    2    0    0 -0.59720563838E-01  0.59365988790E-01  0.81351773734E+00  0.81786443648E+00  0.51100000000E-03 0. -1.
    9000002    1    1    2    0    0  0.26529427003E+00 -0.33493438850E+00  0.12371058041E+00  0.10381283167E+01  0.93800000000E+00 0.  1.
         22    1    1    2    0    0 -0.20557370619E+00  0.27556839971E+00  0.30627716496E+01  0.30820072468E+01  0.00000000000E+00 0. -1.
</event>
<event>
 5    1  0.7095115E+001  0.1599672E+01  0.7818608E-02  0.3353719E+00
         11   -1    0    0    0    0  0.00000000000E+00  0.00000000000E+00  0.39999999674E+01  0.40000000000E+01  0.51100000000E-03 0. -1.
    9000002   -1    0    0    0    0 -0.00000000000E+00 -0.00000000000E+00  0.00000000000E+00  0.93800000000E+00  0.93800000000E+00 0.  1.
         11    1    1    2    0    0 -0.32310188154E-01 -0.76449107208E-03  0.28231810496E+00  0.28416246447E+00  0.51100000000E-03 0. -1.
    9000002    1    1    2    0    0  0.43627622239E+00 -0.65104164938E-02  0.12905114716E+00  0.10425341847E+01  0.93800000000E+00 0.  1.
         22    1    1    2    0    0 -0.40396603424E+00  0.72749075659E-02  0.35886307152E+01  0.36113033508E+01  0.00000000000E+00 0. -1.
</event>
<event>
 5    1  0.7095115E+001  0.1519452E+01  0.7818608E-02  0.3445712E+00
         11   -1    0    0    0    0  0.00000000000E+00  0.00000000000E+00  0.39999999674E+01  0.40000000000E+01  0.51100000000E-03 0.  1.
    9000002   -1    0    0    0    0 -0.00000000000E+00 -0.00000000000E+00  0.00000000000E+00  0.93800000000E+00  0.93800000000E+00 0. -1.
         11    1    1    2    0    0  0.29568657538E+00 -0.12538580701E+00  0.83472854234E+00  0.89438478966E+00  0.51100000000E-03 0.  1.
    9000002    1    1    2    0    0 -0.54528110292E-01  0.43630139959E+00  0.20339982054E+00  0.10557214183E+01  0.93800000000E+00 0. -1.
         22    1    1    2    0    0 -0.24115846509E+00 -0.31091559257E+00  0.29618716045E+01  0.29878937920E+01  0.00000000000E+00 0.  1.
</event>
<event>
 5    1  0.7095115E+001  0.1599662E+01  0.7818608E-02  0.3353730E+00
         11   -1    0    0    0    0  0.00000000000E+00  0.00000000000E+00  0.39999999674E+01  0.40000000000E+01  0.51100000000E-03 0.  1.
    9000002   -1    0    0    0    0 -0.00000000000E+00 -0.00000000000E+00  0.00000000000E+00  0.93800000000E+00  0.93800000000E+00 0. -1.
         11    1    1    2    0    0 -0.96593681437E-01 -0.99599272079E-01  0.12061386900E+01  0.12140927291E+01  0.51100000000E-03 0.  1.
    9000002    1    1    2    0    0  0.31325262149E+00  0.30625348582E+00  0.13013529553E+00  0.10434067268E+01  0.93800000000E+00 0. -1.
         22    1    1    2    0    0 -0.21665894005E+00 -0.20665421374E+00  0.26637259819E+01  0.26805005441E+01  0.00000000000E+00 0.  1.
</event>
<event>
 5    1  0.7095115E+001  0.1599631E+01  0.7818608E-02  0.3353764E+00
         11   -1    0    0    0    0  0.00000000000E+00  0.00000000000E+00  0.39999999674E+01  0.40000000000E+01  0.51100000000E-03 0. -1.
    9000002   -1    0    0    0    0 -0.00000000000E+00 -0.00000000000E+00  0.00000000000E+00  0.93800000000E+00  0.93800000000E+00 0. -1.
         11    1    1    2    0    0  0.19881457021E-01 -0.34943169558E-01  0.31284229474E+00  0.31541537681E+00  0.51100000000E-03 0. -1.
    9000002    1    1    2    0    0 -0.25013168461E+00  0.47826409821E+00  0.20085839851E+00  0.11006772931E+01  0.93800000000E+00 0. -1.
         22    1    1    2    0    0  0.23025022759E+00 -0.44332092865E+00  0.34862992741E+01  0.35219073301E+01  0.00000000000E+00 0. -1.
</event>
<event>
 5    1  0.7095115E+001  0.1599439E+01  0.7818608E-02  0.3353973E+00
         11   -1    0    0    0    0  0.00000000000E+00  0.00000000000E+00  0.39999999674E+01  0.40000000000E+01  0.51100000000E-03 0.  1.
    9000002   -1    0    0    0    0 -0.00000000000E+00 -0.00000000000E+00  0.00000000000E+00  0.93800000000E+00  0.93800000000E+00 0.  1.
         11    1    1    2    0    0  0.25572626111E-01  0.95474075494E-01  0.11420120740E+01  0.11462814212E+01  0.51100000000E-03 0.  1.
    9000002    1    1    2    0    0 -0.14513488082E+00 -0.33336487783E+00  0.88968457321E-01  0.10099285429E+01  0.93800000000E+00 0.  1.
         22    1    1    2    0    0  0.11956225471E+00  0.23789080234E+00  0.27690194360E+01  0.27817900359E+01  0.00000000000E+00 0.  1.
</event>
<event>
 5    1  0.7095115E+001  0.1599146E+01  0.7818608E-02  0.3354291E+00
         11   -1    0    0    0    0  0.00000000000E+00  0.00000000000E+00  0.39999999674E+01  0.40000000000E+01  0.51100000000E-03 0. -1.
    9000002   -1    0    0    0    0 -0.00000000000E+00 -0.00000000000E+00  0.00000000000E+00  0.93800000000E+00  0.93800000000E+00 0. -1.
         11    1    1    2    0    0  0.26745334684E+00 -0.78457420084E-01  0.13722614683E+01  0.14002816353E+01  0.51100000000E-03 0. -1.
    9000002    1    1    2    0    0 -0.76081681881E+00  0.21250845703E+00  0.45878346522E+00  0.13093236208E+01  0.93800000000E+00 0. -1.
         22    1    1    2    0    0  0.49336347197E+00 -0.13405103694E+00  0.21689550338E+01  0.22283947439E+01  0.00000000000E+00 0. -1.
</event>
<event>
 5    1  0.7095115E+001  0.1536420E+01  0.7818608E-02  0.3425400E+00
         11   -1    0    0    0    0  0.00000000000E+00  0.00000000000E+00  0.39999999674E+01  0.40000000000E+01  0.51100000000E-03 0. -1.
    9000002   -1    0    0    0    0 -0.00000000000E+00 -0.00000000000E+00  0.00000000000E+00  0.93800000000E+00  0.93800000000E+00 0. -1.
         11    1    1    2    0    0 -0.10996246231E+00  0.10722747971E+00 -0.24011474565E-01  0.15545509819E+00  0.51100000000E-03 0. -1.
    9000002    1    1    2    0    0 -0.24174405308E+00 -0.23052914609E+00  0.29998113128E+00  0.10399118008E+01  0.93800000000E+00 0. -1.
         22    1    1    2    0    0  0.35170651539E+00  0.12330166638E+00  0.37240303106E+01  0.37426331010E+01  0.00000000000E+00 0. -1.
</event>
<event>
 5    1  0.7095115E+001  0.1598691E+01  0.7818608E-02  0.3354785E+00
         11   -1    0    0    0    0  0.00000000000E+00  0.00000000000E+00  0.39999999674E+01  0.40000000000E+01  0.51100000000E-03 0. -1.
    9000002   -1    0    0    0    0 -0.00000000000E+00 -0.00000000000E+00  0.00000000000E+00  0.93800000000E+00  0.93800000000E+00 0. -1.
         11    1    1    2    0    0 -0.16292473386E-01  0.14534031522E-01  0.10470393523E+00  0.10695727153E+00  0.51100000000E-03 0. -1.
    9000002    1    1    2    0    0  0.36382306859E+00 -0.15113346300E+00  0.10542826652E+00  0.10228233808E+01  0.93800000000E+00 0. -1.
         22    1    1    2    0    0 -0.34753059520E+00  0.13659943148E+00  0.37898677656E+01  0.38082193477E+01  0.00000000000E+00 0. -1.
</event>
<event>
 5    1  0.7095115E+001  0.1599666E+01  0.7818608E-02  0.3353726E+00
         11   -1    0    0    0    0  0.00000000000E+00  0.00000000000E+00  0.39999999674E+01  0.40000000000E+01  0.51100000000E-03 0. -1.
    9000002   -1    0    0    0    0 -0.00000000000E+00 -0.00000000000E+00  0.00000000000E+00  0.93800000000E+00  0.93800000000E+00 0. -1.
         11    1    1    2    0    0  0.91611546855E-01 -0.13193996659E-01  0.99258348147E+00  0.99688965582E+00  0.51100000000E-03 0. -1.
    9000002    1    1    2    0    0 -0.37323807751E+00  0.47253912000E-01  0.95199164482E-01  0.10151090954E+01  0.93800000000E+00 0. -1.
         22    1    1    2    0    0  0.28162653066E+00 -0.34059915341E-01  0.29122173214E+01  0.29260012487E+01  0.00000000000E+00 0. -1.
</event>
<event>
 5    1  0.7095115E+001  0.1599604E+01  0.7818608E-02  0.3353794E+00
         11   -1    0    0    0    0  0.00000000000E+00  0.00000000000E+00  0.39999999674E+01  0.40000000000E+01  0.51100000000E-03 0. -1.
    9000002   -1    0    0    0    0 -0.00000000000E+00 -0.00000000000E+00  0.00000000000E+00  0.93800000000E+00  0.93800000000E+00 0. -1.
         11    1    1    2    0    0 -0.56326421561E-01 -0.75252732919E-02  0.47790688438E+00  0.48127387916E+00  0.51100000000E-03 0. -1.
    9000002    1    1    2    0    0  0.48915415059E+00  0.99883741307E-01  0.17066908436E+00  0.10762065235E+01  0.93800000000E+00 0. -1.
         22    1    1    2    0    0 -0.43282772903E+00 -0.92358468016E-01  0.33514239986E+01  0.33805195974E+01  0.00000000000E+00 0. -1.
</event>
<event>
 5    1  0.7095115E+001  0.1598295E+01  0.7818608E-02  0.3355216E+00
         11   -1    0    0    0    0  0.00000000000E+00  0.00000000000E+00  0.39999999674E+01  0.40000000000E+01  0.51100000000E-03 0. -1.
    9000002   -1    0    0    0    0 -0.00000000000E+00 -0.00000000000E+00  0.00000000000E+00  0.93800000000E+00  0.93800000000E+00 0.  1.
         11    1    1    2    0    0  0.10102225257E+00 -0.10494598693E+00  0.14077552509E+01  0.14152717983E+01  0.51100000000E-03 0. -1.
    9000002    1    1    2    0    0 -0.17201856254E+00  0.34112882727E+00  0.99368480411E-01  0.10176823461E+01  0.93800000000E+00 0.  1.
         22    1    1    2    0    0  0.70996309970E-01 -0.23618284034E+00  0.24928762361E+01  0.25050458556E+01  0.00000000000E+00 0. -1.
</event>
<event>
 5    1  0.7095115E+001  0.1599666E+01  0.7818608E-02  0.3353726E+00
         11   -1    0    0    0    0  0.00000000000E+00  0.00000000000E+00  0.39999999674E+01  0.40000000000E+01  0.51100000000E-03 0.  1.
    9000002   -1    0    0    0    0 -0.00000000000E+00 -0.00000000000E+00  0.00000000000E+00  0.93800000000E+00  0.93800000000E+00 0.  1.
         11    1    1    2    0    0  0.66399466342E-01  0.97695899741E-01  0.81700336266E+00  0.82549871816E+00  0.51100000000E-03 0.  1.
    9000002    1    1    2    0    0 -0.29916408419E+00 -0.44339948527E+00  0.19706490006E+00  0.10976250852E+01  0.93800000000E+00 0.  1.
         22    1    1    2    0    0  0.23276461785E+00  0.34570358553E+00  0.29859317046E+01  0.30148761967E+01  0.00000000000E+00 0.  1.
</event>
<event>
 5    1  0.7095115E+001  0.1595234E+01  0.7818608E-02  0.3358553E+00
         11   -1    0    0    0    0  0.00000000000E+00  0.00000000000E+00  0.39999999674E+01  0.40000000000E+01  0.51100000000E-03 0.  1.
    9000002   -1    0    0    0    0 -0.00000000000E+00 -0.00000000000E+00  0.00000000000E+00  0.93800000000E+00  0.93800000000E+00 0.  1.
         11    1    1    2    0    0 -0.58158019372E-01  0.61284580727E-01  0.65150577894E+00  0.65696133536E+00  0.51100000000E-03 0.  1.
    9000002    1    1    2    0    0  0.36225979530E+00 -0.90221868977E-02  0.91783696797E-01  0.10097434358E+01  0.93800000000E+00 0.  1.
         22    1    1    2    0    0 -0.30410177593E+00 -0.52262393829E-01  0.32567104916E+01  0.32712952288E+01  0.00000000000E+00 0.  1.
</event>
<event>
 5    1  0.7095115E+001  0.1599534E+01  0.7818608E-02  0.3353869E+00
         11   -1    0    0    0    0  0.00000000000E+00  0.00000000000E+00  0.39999999674E+01  0.40000000000E+01  0.51100000000E-03 0. -1.
    9000002   -1    0    0    0    0 -0.00000000000E+00 -0.00000000000E+00  0.00000000000E+00  0.93800000000E+00  0.93800000000E+00 0.  1.
         11    1    1    2    0    0  0.15960744722E+00  0.15117477729E+00  0.14277926909E+01  0.14446177971E+01  0.51100000000E-03 0. -1.
    9000002    1    1    2    0    0 -0.41809584884E+00 -0.36419432733E+00  0.21266690533E+00  0.11101859572E+01  0.93800000000E+00 0.  1.
         22    1    1    2    0    0  0.25848840162E+00  0.21301955004E+00  0.23595403711E+01  0.23831962457E+01  0.00000000000E+00 0. -1.
</event>
<event>
 5    1  0.7095115E+001  0.1599665E+01  0.7818608E-02  0.3353727E+00
         11   -1    0    0    0    0  0.00000000000E+00  0.00000000000E+00  0.39999999674E+01  0.40000000000E+01  0.51100000000E-03 0. -1.
    9000002   -1    0    0    0    0 -0.00000000000E+00 -0.00000000000E+00  0.00000000000E+00  0.93800000000E+00  0.93800000000E+00 0.  1.
         11    1    1    2    0    0  0.10830425409E+00  0.36855025644E-01  0.11319428701E+01  0.11377095528E+01  0.51100000000E-03 0. -1.
    9000002    1    1    2    0    0 -0.36459409065E+00 -0.11717388378E+00  0.98723255529E-01  0.10179630893E+01  0.93800000000E+00 0.  1.
         22    1    1    2    0    0  0.25628983656E+00  0.80318858135E-01  0.27693338418E+01  0.27823273579E+01  0.00000000000E+00 0. -1.
</event>
<event>
 5    1  0.7095115E+001  0.1558273E+01  0.7818608E-02  0.3399937E+00
         11   -1    0    0    0    0  0.00000000000E+00  0.00000000000E+00  0.39999999674E+01  0.40000000000E+01  0.51100000000E-03 0.  1.
    9000002   -1    0    0    0    0 -0.00000000000E+00 -0.00000000000E+00  0.00000000000E+00  0.93800000000E+00  0.93800000000E+00 0.  1.
         11    1    1    2    0    0  0.18785543883E+00  0.88040810752E-01  0.13997873197E+01  0.14150779667E+01  0.51100000000E-03 0.  1.
    9000002    1    1    2    0    0  0.80840730323E-01  0.32865123410E-02  0.35077636015E-01  0.94213611829E+00  0.93800000000E+00 0.  1.
         22    1    1    2    0    0 -0.26869616916E+00 -0.91327323093E-01  0.25651350116E+01  0.25807859150E+01  0.00000000000E+00 0.  1.
</event>
<event>
 5    1  0.7095115E+001  0.1599677E+01  0.7818608E-02  0.3353714E+00
         11   -1    0    0    0    0  0.00000000000E+00  0.00000000000E+00  0.39999999674E+01  0.40000000000E+01  0.51100000000E-03 0. -1.
    9000002   -1    0    0    0    0 -0.00000000000E+00 -0.00000000000E+00  0.00000000000E+00  0.93800000000E+00  0.93800000000E+00 0. -1.
         11    1    1    2    0    0 -0.12698645326E+00  0.13129507298E+00  0.14377233534E+01  0.14492800480E+01  0.51100000000E-03 0. -1.
    9000002    1    1    2    0    0  0.33849665113E+00 -0.34920022422E+00  0.16154721432E+00  0.10688602724E+01  0.93800000000E+00 0. -1.
         22    1    1    2    0    0 -0.21151019787E+00  0.21790515124E+00  0.24007293996E+01  0.24198596796E+01  0.00000000000E+00 0.  1.
</event>
<event>
 5    1  0.7095115E+001  0.1599673E+01  0.7818608E-02  0.3353718E+00
         11   -1    0    0    0    0  0.00000000000E+00  0.00000000000E+00  0.39999999674E+01  0.40000000000E+01  0.51100000000E-03 0. -1.
    9000002   -1    0    0    0    0 -0.00000000000E+00 -0.00000000000E+00  0.00000000000E+00  0.93800000000E+00  0.93800000000E+00 0.  1.
         11    1    1    2    0    0  0.30291680465E-01  0.49543542094E-01  0.56820846986E+00  0.57116834192E+00  0.51100000000E-03 0. -1.
    9000002    1    1    2    0    0 -0.21644574702E+00 -0.33341190675E+00  0.10655145286E+00  0.10243092663E+01  0.93800000000E+00 0.  1.
         22    1    1    2    0    0  0.18615406655E+00  0.28386836466E+00  0.33252400446E+01  0.33425223918E+01  0.00000000000E+00 0. -1.
</event>
<event>
 5    1  0.7095115E+001  0.1599677E+01  0.7818608E-02  0.3353714E+00
         11   -1    0    0    0    0  0.00000000000E+00  0.00000000000E+00  0.39999999674E+01  0.40000000000E+01  0.51100000000E-03 0. -1.
    9000002   -1    0    0    0    0 -0.00000000000E+00 -0.00000000000E+00  0.00000000000E+00  0.93800000000E+00  0.93800000000E+00 0. -1.
         11    1    1    2    0    0  0.17845265067E-01  0.16457237703E+00  0.12551343572E+01  0.12660035689E+01  0.51100000000E-03 0. -1.
    9000002    1    1    2    0    0 -0.53399633196E-01 -0.50346100753E+00  0.17565561432E+00  0.10802885734E+01  0.93800000000E+00 0. -1.
         22    1    1    2    0    0  0.35554368130E-01  0.33888863049E+00  0.25692099959E+01  0.25917078577E+01  0.00000000000E+00 0. -1.
</event>
<event>
 5    1  0.7095115E+001  0.1599674E+01  0.7818608E-02  0.3353717E+00
         11   -1    0    0    0    0  0.00000000000E+00  0.00000000000E+00  0.39999999674E+01  0.40000000000E+01  0.51100000000E-03 0.  1.
    9000002   -1    0    0    0    0 -0.00000000000E+00 -0.00000000000E+00  0.00000000000E+00  0.93800000000E+00  0.93800000000E+00 0. -1.
         11    1    1    2    0    0 -0.59131958566E-01 -0.15539757278E-01  0.64091254629E+00  0.64382235569E+00  0.51100000000E-03 0.  1.
    9000002    1    1    2    0    0  0.35203047227E+00  0.92731386340E-01  0.89002245692E-01  0.10100940368E+01  0.93800000000E+00 0. -1.
         22    1    1    2    0    0 -0.29289851370E+00 -0.77191629062E-01  0.32700851754E+01  0.32840836075E+01  0.00000000000E+00 0.  1.
</event>
<event>
 5    1  0.7095115E+001  0.1499841E+01  0.7818608E-02  0.3469803E+00
         11   -1    0    0    0    0  0.00000000000E+00  0.00000000000E+00  0.39999999674E+01  0.40000000000E+01  0.51100000000E-03 0.  1.
    9000002   -1    0    0    0    0 -0.00000000000E+00 -0.00000000000E+00  0.00000000000E+00  0.93800000000E+00  0.93800000000E+00 0. -1.
         11    1    1    2    0    0  0.27268089905E+00  0.21578833823E+00  0.44355177969E+00  0.56361149918E+00  0.51100000000E-03 0.  1.
    9000002    1    1    2    0    0  0.20822972493E+00 -0.51097580575E-01  0.20394865810E+00  0.98356984309E+00  0.93800000000E+00 0. -1.
         22    1    1    2    0    0 -0.48091062398E+00 -0.16469075765E+00  0.33524995296E+01  0.33908186577E+01  0.00000000000E+00 0.  1.
</event>
<event>
 5    1  0.7095115E+001  0.1589583E+01  0.7818608E-02  0.3364748E+00
         11   -1    0    0    0    0  0.00000000000E+00  0.00000000000E+00  0.39999999674E+01  0.40000000000E+01  0.51100000000E-03 0.  1.
    9000002   -1    0    0    0    0 -0.00000000000E+00 -0.00000000000E+00  0.00000000000E+00  0.93800000000E+00  0.93800000000E+00 0. -1.
         11    1    1    2    0    0  0.72869621542E-02  0.17450691770E-01  0.10631167512E+00  0.10798175701E+00  0.51100000000E-03 0.  1.
    9000002    1    1    2    0    0 -0.44387917448E+00  0.77175708292E+00  0.61966826500E+00  0.14340399141E+01  0.93800000000E+00 0. -1.
         22    1    1    2    0    0  0.43659221233E+00 -0.78920777469E+00  0.32740200272E+01  0.33959783289E+01  0.00000000000E+00 0.  1.
</event>
<event>
 5    1  0.7095115E+001  0.1587984E+01  0.7818608E-02  0.3366509E+00
         11   -1    0    0    0    0  0.00000000000E+00  0.00000000000E+00  0.39999999674E+01  0.40000000000E+01  0.51100000000E-03 0.  1.
    9000002   -1    0    0    0    0 -0.00000000000E+00 -0.00000000000E+00  0.00000000000E+00  0.93800000000E+00  0.93800000000E+00 0. -1.
         11    1    1    2    0    0 -0.33198033725E-01  0.15689149877E+00  0.13658416952E+01  0.13752239269E+01  0.51100000000E-03 0.  1.
    9000002    1    1    2    0    0 -0.20996126149E+00 -0.26720781976E+00  0.86764835211E-01  0.10014269254E+01  0.93800000000E+00 0. -1.
         22    1    1    2    0    0  0.24315929521E+00  0.11031632099E+00  0.25473934370E+01  0.25613491477E+01  0.00000000000E+00 0.  1.
</event>
<event>
 5    1  0.7095115E+001  0.1474298E+01  0.7818608E-02  0.3502219E+00
         11   -1    0    0    0    0  0.00000000000E+00  0.00000000000E+00  0.39999999674E+01  0.40000000000E+01  0.51100000000E-03 0. -1.
    9000002   -1    0    0    0    0 -0.00000000000E+00 -0.00000000000E+00  0.00000000000E+00  0.93800000000E+00  0.93800000000E+00 0. -1.
         11    1    1    2    0    0  0.30406465966E+00 -0.27324374046E+00  0.67465875213E+00  0.78884862419E+00  0.51100000000E-03 0. -1.
    9000002    1    1    2    0    0 -0.10073083265E+00 -0.10047553065E-01  0.15068895511E+00  0.95540505293E+00  0.93800000000E+00 0. -1.
         22    1    1    2    0    0 -0.20333382701E+00  0.28329129353E+00  0.31746522601E+01  0.31937463229E+01  0.00000000000E+00 0. -1.
</event>
<event>
 5    1  0.7095115E+001  0.1599654E+01  0.7818608E-02  0.3353739E+00
         11   -1    0    0    0    0  0.00000000000E+00  0.00000000000E+00  0.39999999674E+01  0.40000000000E+01  0.51100000000E-03 0.  1.
    9000002   -1    0    0    0    0 -0.00000000000E+00 -0.00000000000E+00  0.00000000000E+00  0.93800000000E+00  0.93800000000E+00 0.  1.
         11    1    1    2    0    0  0.75060601331E-01  0.67512768721E-01  0.10786135402E+01  0.10833279734E+01  0.51100000000E-03 0.  1.
    9000002    1    1    2    0    0 -0.25477486243E+00 -0.25128456117E+00  0.85955488132E-01  0.10076142651E+01  0.93800000000E+00 0.  1.
         22    1    1    2    0    0  0.17971426110E+00  0.18377179245E+00  0.28354309390E+01  0.28470577615E+01  0.00000000000E+00 0.  1.
</event>
<event>
 5    1  0.7095115E+001  0.1573815E+01  0.7818608E-02  0.3382284E+00
         11   -1    0    0    0    0  0.00000000000E+00  0.00000000000E+00  0.39999999674E+01  0.40000000000E+01  0.51100000000E-03 0. -1.
    9000002   -1    0    0    0    0 -0.00000000000E+00 -0.00000000000E+00  0.00000000000E+00  0.93800000000E+00  0.93800000000E+00 0. -1.
         11    1    1    2    0    0 -0.74182115673E-02 -0.12135395644E+00  0.12757624277E+01  0.12815427600E+01  0.51100000000E-03 0. -1.
    9000002    1    1    2    0    0 -0.10756403002E+00 -0.16922816051E+00  0.46260763826E-01  0.96030841355E+00  0.93800000000E+00 0. -1.
         22    1    1    2    0    0  0.11498224159E+00  0.29058211695E+00  0.26779767758E+01  0.26961488264E+01  0.00000000000E+00 0. -1.
</event>
<event>
 5    1  0.7095115E+001  0.1574520E+01  0.7818608E-02  0.3381491E+00
         11   -1    0    0    0    0  0.00000000000E+00  0.00000000000E+00  0.39999999674E+01  0.40000000000E+01  0.51100000000E-03 0. -1.
    9000002   -1    0    0    0    0 -0.00000000000E+00 -0.00000000000E+00  0.00000000000E+00  0.93800000000E+00  0.93800000000E+00 0. -1.
         11    1    1    2    0    0  0.11240044299E+00 -0.56212934079E-01  0.76764579706E+00  0.77786508111E+00  0.51100000000E-03 0. -1.
    9000002    1    1    2    0    0 -0.23346693918E+00 -0.40804906769E+00  0.17299473725E+00  0.10633823548E+01  0.93800000000E+00 0. -1.
         22    1    1    2    0    0  0.12106649619E+00  0.46426200177E+00  0.30593594330E+01  0.30967525641E+01  0.00000000000E+00 0. -1.
</event>
<event>
 5    1  0.8434786E+001  0.1539165E+01  0.7818608E-02  0.3422159E+00
         11   -1    0    0    0    0  0.00000000000E+00  0.00000000000E+00  0.39999999674E+01  0.40000000000E+01  0.51100000000E-03 0. -1.
    9000002   -1    0    0    0    0 -0.00000000000E+00 -0.00000000000E+00  0.00000000000E+00  0.93800000000E+00  0.93800000000E+00 0. -1.
         11    1    1    2    0    0 -0.21088257190E+00  0.33342366418E-02  0.69080797837E+00  0.72228699308E+00  0.51100000000E-03 0. -1.
    9000002    1    1    2    0    0 -0.87051637493E-01 -0.36010149844E-01  0.51353532302E-01  0.94411646727E+00  0.93800000000E+00 0. -1.
         22    1    1    2    0    0  0.29793420940E+00  0.32675913202E-01  0.32578384567E+01  0.32715965397E+01  0.00000000000E+00 0. -1.
</event>
<event>
 5    1  0.7095115E+001  0.1599676E+01  0.7818608E-02  0.3353715E+00
         11   -1    0    0    0    0  0.00000000000E+00  0.00000000000E+00  0.39999999674E+01  0.40000000000E+01  0.51100000000E-03 0. -1.
    9000002   -1    0    0    0    0 -0.00000000000E+00 -0.00000000000E+00  0.00000000000E+00  0.93800000000E+00  0.93800000000E+00 0.  1.
         11    1    1    2    0    0  0.82060757136E-01 -0.38664903877E-01  0.98771857368E+00  0.99187558926E+00  0.51100000000E-03 0. -1.
    9000002    1    1    2    0    0 -0.32468400183E+00  0.15677606120E+00  0.87269189899E-01  0.10086914027E+01  0.93800000000E+00 0.  1.
         22    1    1    2    0    0  0.24262324470E+00 -0.11811115733E+00  0.29250122038E+01  0.29374330080E+01  0.00000000000E+00 0. -1.
</event>
<event>
 5    1  0.7095115E+001  0.1599673E+01  0.7818608E-02  0.3353718E+00
         11   -1    0    0    0    0  0.00000000000E+00  0.00000000000E+00  0.39999999674E+01  0.40000000000E+01  0.51100000000E-03 0. -1.
    9000002   -1    0    0    0    0 -0.00000000000E+00 -0.00000000000E+00  0.00000000000E+00  0.93800000000E+00  0.93800000000E+00 0. -1.
         11    1    1    2    0    0 -0.10046279150E+00 -0.93646393709E-01  0.14356968139E+01  0.14422510261E+01  0.51100000000E-03 0. -1.
    9000002    1    1    2    0    0  0.26718667176E+00  0.25418665211E+00  0.91387202713E-01  0.10120252924E+01  0.93800000000E+00 0. -1.
         22    1    1    2    0    0 -0.16672388025E+00 -0.16054025840E+00  0.24729159507E+01  0.24837236815E+01  0.00000000000E+00 0. -1.
</event>
<event>
 5    1  0.7138719E+001  0.1599634E+01  0.7818608E-02  0.3353760E+00
         11   -1    0    0    0    0  0.00000000000E+00  0.00000000000E+00  0.39999999674E+01  0.40000000000E+01  0.51100000000E-03 0.  1.
    9000002   -1    0    0    0    0 -0.00000000000E+00 -0.00000000000E+00  0.00000000000E+00  0.93800000000E+00  0.93800000000E+00 0.  1.
         11    1    1    2    0    0 -0.53021108968E-01 -0.89580331181E-01  0.11977411939E+01  0.12022562549E+01  0.51100000000E-03 0.  1.
    9000002    1    1    2    0    0  0.17850644775E+00  0.31572179996E+00  0.88362930280E-01  0.10095527794E+01  0.93800000000E+00 0.  1.
         22    1    1    2    0    0 -0.12548533878E+00 -0.22614146878E+00  0.27138958432E+01  0.27261909658E+01  0.00000000000E+00 0.  1.
</event>
<event>
 5    1  0.7095115E+001  0.1539227E+01  0.7818608E-02  0.3422086E+00
         11   -1    0    0    0    0  0.00000000000E+00  0.00000000000E+00  0.39999999674E+01  0.40000000000E+01  0.51100000000E-03 0. -1.
    9000002   -1    0    0    0    0 -0.00000000000E+00 -0.00000000000E+00  0.00000000000E+00  0.93800000000E+00  0.93800000000E+00 0. -1.
         11    1    1    2    0    0  0.40195958853E+00  0.90705279640E-01  0.14279795421E+01  0.14862451993E+01  0.51100000000E-03 0. -1.
    9000002    1    1    2    0    0 -0.33151113733E+00 -0.47047779699E+00  0.29107900005E+00  0.11383408874E+01  0.93800000000E+00 0. -1.
         22    1    1    2    0    0 -0.70448451199E-01  0.37977251735E+00  0.22809414252E+01  0.23134139133E+01  0.00000000000E+00 0.  1.
</event>
<event>
 5    1  0.7095115E+001  0.1596937E+01  0.7818608E-02  0.3356695E+00
         11   -1    0    0    0    0  0.00000000000E+00  0.00000000000E+00  0.39999999674E+01  0.40000000000E+01  0.51100000000E-03 0.  1.
    9000002   -1    0    0    0    0 -0.00000000000E+00 -0.00000000000E+00  0.00000000000E+00  0.93800000000E+00  0.93800000000E+00 0.  1.
         11    1    1    2    0    0  0.68494614832E-01 -0.85801912563E-01  0.73092146765E+00  0.73912105467E+00  0.51100000000E-03 0.  1.
    9000002    1    1    2    0    0 -0.39805110740E+00  0.19479813654E+00  0.13561019591E+00  0.10462433385E+01  0.93800000000E+00 0.  1.
         22    1    1    2    0    0  0.32955649256E+00 -0.10899622397E+00  0.31334683038E+01  0.31526356068E+01  0.00000000000E+00 0.  1.
</event>
<event>
 5    1  0.7095115E+001  0.1599669E+01  0.7818608E-02  0.3353722E+00
         11   -1    0    0    0    0  0.00000000000E+00  0.00000000000E+00  0.39999999674E+01  0.40000000000E+01  0.51100000000E-03 0.  1.
    9000002   -1    0    0    0    0 -0.00000000000E+00 -0.00000000000E+00  0.00000000000E+00  0.93800000000E+00  0.93800000000E+00 0. -1.
         11    1    1    2    0    0 -0.28976929824E-02 -0.36387197656E-01  0.38710012072E+00  0.38881768139E+00  0.51100000000E-03 0.  1.
    9000002    1    1    2    0    0  0.48417708025E-01  0.37194029392E+00  0.94608161604E-01  0.10146322294E+01  0.93800000000E+00 0. -1.
         22    1    1    2    0    0 -0.45520015042E-01 -0.33555309626E+00  0.35182916850E+01  0.35345500892E+01  0.00000000000E+00 0.  1.
</event>
<event>
 5    1  0.7095115E+001  0.1533302E+01  0.7818608E-02  0.3429097E+00
         11   -1    0    0    0    0  0.00000000000E+00  0.00000000000E+00  0.39999999674E+01  0.40000000000E+01  0.51100000000E-03 0.  1.
    9000002   -1    0    0    0    0 -0.00000000000E+00 -0.00000000000E+00  0.00000000000E+00  0.93800000000E+00  0.93800000000E+00 0.  1.
         11    1    1    2    0    0  0.36419627533E+00  0.24778892329E+00  0.65624307366E+00  0.79037555017E+00  0.51100000000E-03 0.  1.
    9000002    1    1    2    0    0  0.63861063867E-01  0.58682207447E-01  0.20374228109E+00  0.96378252425E+00  0.93800000000E+00 0.  1.
         22    1    1    2    0    0 -0.42805733920E+00 -0.30647113073E+00  0.31400146126E+01  0.31838419256E+01  0.00000000000E+00 0.  1.
</event>
<event>
 5    1  0.7095115E+001  0.1599148E+01  0.7818608E-02  0.3354289E+00
         11   -1    0    0    0    0  0.00000000000E+00  0.00000000000E+00  0.39999999674E+01  0.40000000000E+01  0.51100000000E-03 0. -1.
    9000002   -1    0    0    0    0 -0.00000000000E+00 -0.00000000000E+00  0.00000000000E+00  0.93800000000E+00  0.93800000000E+00 0. -1.
         11    1    1    2    0    0 -0.15001759924E+00  0.56481607588E-01  0.11212925911E+01  0.11326927156E+01  0.51100000000E-03 0. -1.
    9000002    1    1    2    0    0  0.45812315035E+00 -0.12769568038E+00  0.15468749920E+00  0.10629935231E+01  0.93800000000E+00 0. -1.
         22    1    1    2    0    0 -0.30810555110E+00  0.71214072793E-01  0.27240198771E+01  0.27423137613E+01  0.00000000000E+00 0. -1.
</event>
<event>
 5    1  0.7095115E+001  0.1592062E+01  0.7818608E-02  0.3362025E+00
         11   -1    0    0    0    0  0.00000000000E+00  0.00000000000E+00  0.39999999674E+01  0.40000000000E+01  0.51100000000E-03 0.  1.
    9000002   -1    0    0    0    0 -0.00000000000E+00 -0.00000000000E+00  0.00000000000E+00  0.93800000000E+00  0.93800000000E+00 0. -1.
         11    1    1    2    0    0 -0.17511146517E+00  0.46500176379E-01  0.81109936562E+00  0.83108888433E+00  0.51100000000E-03 0.  1.
    9000002    1    1    2    0    0  0.58437321075E+00  0.11824303173E+00  0.25539178816E+00  0.11404132713E+01  0.93800000000E+00 0. -1.
         22    1    1    2    0    0 -0.40926174559E+00 -0.16474320811E+00  0.29335088136E+01  0.29664978443E+01  0.00000000000E+00 0.  1.
</event>
<event>
 5    1  0.7095115E+001  0.1587254E+01  0.7818608E-02  0.3367314E+00
         11   -1    0    0    0    0  0.00000000000E+00  0.00000000000E+00  0.39999999674E+01  0.40000000000E+01  0.51100000000E-03 0.  1.
    9000002   -1    0    0    0    0 -0.00000000000E+00 -0.00000000000E+00  0.00000000000E+00  0.93800000000E+00  0.93800000000E+00 0. -1.
         11    1    1    2    0    0 -0.19271043285E-01 -0.77464339587E-01  0.85237550288E+00  0.85610534167E+00  0.51100000000E-03 0.  1.
    9000002    1    1    2    0    0  0.23116147058E+00 -0.13224566354E+00  0.56800483704E-01  0.97672659222E+00  0.93800000000E+00 0. -1.
         22    1    1    2    0    0 -0.21189042730E+00  0.20971000313E+00  0.30908239808E+01  0.31051680661E+01  0.00000000000E+00 0.  1.
</event>
<event>
 5    1  0.7095115E+001  0.1599677E+01  0.7818608E-02  0.3353715E+00
         11   -1    0    0    0    0  0.00000000000E+00  0.00000000000E+00  0.39999999674E+01  0.40000000000E+01  0.51100000000E-03 0.  1.
    9000002   -1    0    0    0    0 -0.00000000000E+00 -0.00000000000E+00  0.00000000000E+00  0.93800000000E+00  0.93800000000E+00 0.  1.
         11    1    1    2    0    0  0.12375250821E+00  0.58592285645E-02  0.13203929292E+01  0.13261925812E+01  0.51100000000E-03 0.  1.
    9000002    1    1    2    0    0 -0.36463834512E+00 -0.15997173622E-01  0.89475131109E-01  0.10104785160E+01  0.93800000000E+00 0.  1.
         22    1    1    2    0    0  0.24088583691E+00  0.10137945057E-01  0.25901319070E+01  0.26013289027E+01  0.00000000000E+00 0.  1.
</event>
<event>
 5    1  0.7095115E+001  0.1599664E+01  0.7818608E-02  0.3353728E+00
         11   -1    0    0    0    0  0.00000000000E+00  0.00000000000E+00  0.39999999674E+01  0.40000000000E+01  0.51100000000E-03 0.  1.
    9000002   -1    0    0    0    0 -0.00000000000E+00 -0.00000000000E+00  0.00000000000E+00  0.93800000000E+00  0.93800000000E+00 0. -1.
         11    1    1    2    0    0 -0.13581249613E+00 -0.11586376911E+00  0.14144064674E+01  0.14256280592E+01  0.51100000000E-03 0.  1.
    9000002    1    1    2    0    0  0.35793880425E+00  0.31313797935E+00  0.15422717334E+00  0.10629231405E+01  0.93800000000E+00 0. -1.
         22    1    1    2    0    0 -0.22212630812E+00 -0.19727421024E+00  0.24313663266E+01  0.24494488002E+01  0.00000000000E+00 0.  1.
</event>
<event>
 5    1  0.7095115E+001  0.1599659E+01  0.7818608E-02  0.3353733E+00
         11   -1    0    0    0    0  0.00000000000E+00  0.00000000000E+00  0.39999999674E+01  0.40000000000E+01  0.51100000000E-03 0. -1.
    9000002   -1    0    0    0    0 -0.00000000000E+00 -0.00000000000E+00  0.00000000000E+00  0.93800000000E+00  0.93800000000E+00 0.  1.
         11    1    1    2    0    0  0.21607863133E-01 -0.14345228600E-02  0.25360329544E+00  0.25452671802E+00  0.51100000000E-03 0. -1.
    9000002    1    1    2    0    0 -0.36329412395E+00 -0.13113714272E-02  0.88644015143E-01  0.10097950790E+01  0.93800000000E+00 0.  1.
         22    1    1    2    0    0  0.34168626082E+00  0.27458942872E-02  0.36577526568E+01  0.36736782030E+01  0.00000000000E+00 0. -1.
</event>
<event>
 5    1  0.7095115E+001  0.1599629E+01  0.7818608E-02  0.3353766E+00
         11   -1    0    0    0    0  0.00000000000E+00  0.00000000000E+00  0.39999999674E+01  0.40000000000E+01  0.51100000000E-03 0.  1.
    9000002   -1    0    0    0    0 -0.00000000000E+00 -0.00000000000E+00  0.00000000000E+00  0.93800000000E+00  0.93800000000E+00 0.  1.
         11    1    1    2    0    0  0.14015568692E+00  0.66389598708E-01  0.93682351362E+00  0.94957345802E+00  0.51100000000E-03 0.  1.
    9000002    1    1    2    0    0 -0.53224846630E+00 -0.26827896424E+00  0.24770477346E+00  0.11386235933E+01  0.93800000000E+00 0.  1.
         22    1    1    2    0    0  0.39209277938E+00  0.20188936553E+00  0.28154716803E+01  0.28498029486E+01  0.00000000000E+00 0.  1.
</event>
<event>
 5    1  0.7095115E+001  0.1471431E+01  0.7818608E-02  0.3505934E+00
         11   -1    0    0    0    0  0.00000000000E+00  0.00000000000E+00  0.39999999674E+01  0.40000000000E+01  0.51100000000E-03 0.  1.
    9000002   -1    0    0    0    0 -0.00000000000E+00 -0.00000000000E+00  0.00000000000E+00  0.93800000000E+00  0.93800000000E+00 0.  1.
         11    1    1    2    0    0  0.14344601955E+00  0.43670345834E-01  0.95646911848E-01  0.17785514470E+00  0.51100000000E-03 0.  1.
    9000002    1    1    2    0    0  0.18176546701E+00  0.27062579302E+00  0.18096590569E+00  0.10093907389E+01  0.93800000000E+00 0.  1.
         22    1    1    2    0    0 -0.32521148656E+00 -0.31429613885E+00  0.37233871498E+01  0.37507541164E+01  0.00000000000E+00 0.  1.
</event>
<event>
 5    1  0.7095115E+001  0.1599325E+01  0.7818608E-02  0.3354097E+00
         11   -1    0    0    0    0  0.00000000000E+00  0.00000000000E+00  0.39999999674E+01  0.40000000000E+01  0.51100000000E-03 0. -1.
    9000002   -1    0    0    0    0 -0.00000000000E+00 -0.00000000000E+00  0.00000000000E+00  0.93800000000E+00  0.93800000000E+00 0. -1.
         11    1    1    2    0    0  0.99036176579E-01 -0.27443966427E-01  0.10242332724E+01  0.10293762155E+01  0.51100000000E-03 0. -1.
    9000002    1    1    2    0    0 -0.33978881888E+00  0.17030133928E+00  0.97487851380E-01  0.10167629364E+01  0.93800000000E+00 0. -1.
         22    1    1    2    0    0  0.24075264230E+00 -0.14285737285E+00  0.28782788435E+01  0.28918608481E+01  0.00000000000E+00 0. -1.
</event>
<event>
 5    1  0.7095115E+001  0.1599655E+01  0.7818608E-02  0.3353738E+00
         11   -1    0    0    0    0  0.00000000000E+00  0.00000000000E+00  0.39999999674E+01  0.40000000000E+01  0.51100000000E-03 0.  1.
    9000002   -1    0    0    0    0 -0.00000000000E+00 -0.00000000000E+00  0.00000000000E+00  0.93800000000E+00  0.93800000000E+00 0. -1.
         11    1    1    2    0    0  0.61855697944E-01  0.53047616751E-02  0.65374352930E+00  0.65668495574E+00  0.51100000000E-03 0.  1.
    9000002    1    1    2    0    0 -0.36162566289E+00 -0.55426706526E-01  0.89923525879E-01  0.10108291054E+01  0.93800000000E+00 0. -1.
         22    1    1    2    0    0  0.29976996495E+00  0.50121944851E-01  0.32563329122E+01  0.32704859388E+01  0.00000000000E+00 0.  1.
</event>
<event>
 5    1  0.7095115E+001  0.1596077E+01  0.7818608E-02  0.3357632E+00
         11   -1    0    0    0    0  0.00000000000E+00  0.00000000000E+00  0.39999999674E+01  0.40000000000E+01  0.51100000000E-03 0.  1.
    9000002   -1    0    0    0    0 -0.00000000000E+00 -0.00000000000E+00  0.00000000000E+00  0.93800000000E+00  0.93800000000E+00 0. -1.
         11    1    1    2    0    0 -0.51542137904E-01  0.12643291512E-01  0.39685888753E+00  0.40039191117E+00  0.51100000000E-03 0.  1.
    9000002    1    1    2    0    0  0.33359402305E+00  0.26900050790E+00  0.12741106501E+00  0.10390976013E+01  0.93800000000E+00 0. -1.
         22    1    1    2    0    0 -0.28205188514E+00 -0.28164379941E+00  0.34757300148E+01  0.34985104876E+01  0.00000000000E+00 0.  1.
</event>
<event>
 5    1  0.7095115E+001  0.1557722E+01  0.7818608E-02  0.3400569E+00
         11   -1    0    0    0    0  0.00000000000E+00  0.00000000000E+00  0.39999999674E+01  0.40000000000E+01  0.51100000000E-03 0. -1.
    9000002   -1    0    0    0    0 -0.00000000000E+00 -0.00000000000E+00  0.00000000000E+00  0.93800000000E+00  0.93800000000E+00 0. -1.
         11    1    1    2    0    0 -0.37149013921E-01  0.75538970834E-01  0.14418716371E+00  0.16696222522E+00  0.51100000000E-03 0. -1.
    9000002    1    1    2    0    0 -0.30262864800E+00  0.18489883689E+00  0.11906640354E+00  0.10098477543E+01  0.93800000000E+00 0. -1.
         22    1    1    2    0    0  0.33977766192E+00 -0.26043780773E+00  0.37367464001E+01  0.37611900205E+01  0.00000000000E+00 0. -1.
</event>
<event>
 5    1  0.7095115E+001  0.1599662E+01  0.7818608E-02  0.3353730E+00
         11   -1    0    0    0    0  0.00000000000E+00  0.00000000000E+00  0.39999999674E+01  0.40000000000E+01  0.51100000000E-03 0.  1.
    9000002   -1    0    0    0    0 -0.00000000000E+00 -0.00000000000E+00  0.00000000000E+00  0.93800000000E+00  0.93800000000E+00 0.  1.
         11    1    1    2    0    0 -0.21507722597E+00  0.76843459509E-01  0.81823830767E+00  0.84951593256E+00  0.51100000000E-03 0.  1.
    9000002    1    1    2    0    0  0.86451237027E+00 -0.32311674666E+00  0.65870480398E+00  0.14715712994E+01  0.93800000000E+00 0.  1.
         22    1    1    2    0    0 -0.64943514430E+00  0.24627328715E+00  0.25230568557E+01  0.26169127681E+01  0.00000000000E+00 0.  1.
</event>
<event>
 5    1  0.7095115E+001  0.1599620E+01  0.7818608E-02  0.3353776E+00
         11   -1    0    0    0    0  0.00000000000E+00  0.00000000000E+00  0.39999999674E+01  0.40000000000E+01  0.51100000000E-03 0. -1.
    9000002   -1    0    0    0    0 -0.00000000000E+00 -0.00000000000E+00  0.00000000000E+00  0.93800000000E+00  0.93800000000E+00 0.  1.
         11    1    1    2    0    0  0.27574691633E-03 -0.72804343916E-01  0.61945150480E+00  0.62371546113E+00  0.51100000000E-03 0. -1.
    9000002    1    1    2    0    0  0.19266534700E-01  0.41989993188E+00  0.11954798889E+00  0.10348057179E+01  0.93800000000E+00 0.  1.
         22    1    1    2    0    0 -0.19542281616E-01 -0.34709558796E+00  0.32610004737E+01  0.32794788210E+01  0.00000000000E+00 0. -1.
</event>
<event>
 5    1  0.7095115E+001  0.1599403E+01  0.7818608E-02  0.3354012E+00
         11   -1    0    0    0    0  0.00000000000E+00  0.00000000000E+00  0.39999999674E+01  0.40000000000E+01  0.51100000000E-03 0.  1.
    9000002   -1    0    0    0    0 -0.00000000000E+00 -0.00000000000E+00  0.00000000000E+00  0.93800000000E+00  0.93800000000E+00 0. -1.
         11    1    1    2    0    0 -0.10234986199E+00 -0.17112999140E-01  0.12487014828E+01  0.12530059870E+01  0.51100000000E-03 0.  1.
    9000002    1    1    2    0    0  0.36018025013E+00  0.95947404441E-01  0.93624266515E-01  0.10136790519E+01  0.93800000000E+00 0. -1.
         22    1    1    2    0    0 -0.25783038814E+00 -0.78834405301E-01  0.26576742180E+01  0.26713149611E+01  0.00000000000E+00 0.  1.
</event>
<event>
 5    1  0.7095115E+001  0.1596953E+01  0.7818608E-02  0.3356678E+00
         11   -1    0    0    0    0  0.00000000000E+00  0.00000000000E+00  0.39999999674E+01  0.40000000000E+01  0.51100000000E-03 0. -1.
    9000002   -1    0    0    0    0 -0.00000000000E+00 -0.00000000000E+00  0.00000000000E+00  0.93800000000E+00  0.93800000000E+00 0. -1.
         11    1    1    2    0    0  0.67620694847E-01 -0.22830562957E+00  0.13676425845E+01  0.13882155881E+01  0.51100000000E-03 0. -1.
    9000002    1    1    2    0    0 -0.85952609644E-01  0.50278504122E+00  0.18089390021E+00  0.10829345557E+01  0.93800000000E+00 0. -1.
         22    1    1    2    0    0  0.18331914797E-01 -0.27447941165E+00  0.24514634826E+01  0.24668498562E+01  0.00000000000E+00 0. -1.
</event>
<event>
 5    1  0.7095115E+001  0.1599669E+01  0.7818608E-02  0.3353723E+00
         11   -1    0    0    0    0  0.00000000000E+00  0.00000000000E+00  0.39999999674E+01  0.40000000000E+01  0.51100000000E-03 0.  1.
    9000002   -1    0    0    0    0 -0.00000000000E+00 -0.00000000000E+00  0.00000000000E+00  0.93800000000E+00  0.93800000000E+00 0. -1.
         11    1    1    2    0    0  0.40632267256E-01  0.36619838722E-01  0.56709058484E+00  0.56972272753E+00  0.51100000000E-03 0.  1.
    9000002    1    1    2    0    0 -0.26688684412E+00 -0.26224823397E+00  0.94140197492E-01  0.10142529766E+01  0.93800000000E+00 0. -1.
         22    1    1    2    0    0  0.22625457686E+00  0.22562839525E+00  0.33387691850E+01  0.33540242959E+01  0.00000000000E+00 0.  1.
</event>
<event>
 5    1  0.7095115E+001  0.1599638E+01  0.7818608E-02  0.3353756E+00
         11   -1    0    0    0    0  0.00000000000E+00  0.00000000000E+00  0.39999999674E+01  0.40000000000E+01  0.51100000000E-03 0.  1.
    9000002   -1    0    0    0    0 -0.00000000000E+00 -0.00000000000E+00  0.00000000000E+00  0.93800000000E+00  0.93800000000E+00 0.  1.
         11    1    1    2    0    0  0.36630952059E-01 -0.12535944799E-01  0.31061749165E+00  0.31302150693E+00  0.51100000000E-03 0.  1.
    9000002    1    1    2    0    0 -0.40640188207E+00  0.16523150182E+00  0.13053746251E+00  0.10437183375E+01  0.93800000000E+00 0.  1.
         22    1    1    2    0    0  0.36977093001E+00 -0.15269555702E+00  0.35588450132E+01  0.35812601556E+01  0.00000000000E+00 0.  1.
</event>
<event>
 5    1  0.7095115E+001  0.1599473E+01  0.7818608E-02  0.3353936E+00
         11   -1    0    0    0    0  0.00000000000E+00  0.00000000000E+00  0.39999999674E+01  0.40000000000E+01  0.51100000000E-03 0.  1.
    9000002   -1    0    0    0    0 -0.00000000000E+00 -0.00000000000E+00  0.00000000000E+00  0.93800000000E+00  0.93800000000E+00 0. -1.
         11    1    1    2    0    0  0.62509406850E-01 -0.23027528267E-03  0.57593349751E+00  0.57931609130E+00  0.51100000000E-03 0.  1.
    9000002    1    1    2    0    0 -0.49801609903E+00  0.37097894874E-02  0.16992083497E+00  0.10755235412E+01  0.93800000000E+00 0. -1.
         22    1    1    2    0    0  0.43550669218E+00 -0.34795142047E-02  0.32541456349E+01  0.32831603675E+01  0.00000000000E+00 0.  1.
</event>
<event>
 5    1  0.7095115E+001  0.1599671E+01  0.7818608E-02  0.3353720E+00
         11   -1    0    0    0    0  0.00000000000E+00  0.00000000000E+00  0.39999999674E+01  0.40000000000E+01  0.51100000000E-03 0.  1.
    9000002   -1    0    0    0    0 -0.00000000000E+00 -0.00000000000E+00  0.00000000000E+00  0.93800000000E+00  0.93800000000E+00 0.  1.
         11    1    1    2    0    0 -0.16308652534E-01 -0.15851964823E+00  0.10311336216E+01  0.10433749364E+01  0.51100000000E-03 0.  1.
    9000002    1    1    2    0    0  0.60793445404E-01  0.58684882122E+00  0.24235253888E+00  0.11343130675E+01  0.93800000000E+00 0.  1.
         22    1    1    2    0    0 -0.44484792871E-01 -0.42832917298E+00  0.27265138068E+01  0.27603119962E+01  0.00000000000E+00 0.  1.
</event>
<event>
 5    1  0.7095115E+001  0.1599676E+01  0.7818608E-02  0.3353715E+00
         11   -1    0    0    0    0  0.00000000000E+00  0.00000000000E+00  0.39999999674E+01  0.40000000000E+01  0.51100000000E-03 0.  1.
    9000002   -1    0    0    0    0 -0.00000000000E+00 -0.00000000000E+00  0.00000000000E+00  0.93800000000E+00  0.93800000000E+00 0.  1.
         11    1    1    2    0    0  0.13630265785E+00 -0.10867614915E+00  0.10506683885E+01  0.10650320387E+01  0.51100000000E-03 0.  1.
    9000002    1    1    2    0    0 -0.48674242535E+00  0.38262490150E+00  0.26856356380E+00  0.11555476588E+01  0.93800000000E+00 0. -1.
         22    1    1    2    0    0  0.35043976750E+00 -0.27394875235E+00  0.26807680151E+01  0.27174203025E+01  0.00000000000E+00 0.  1.
</event>
<event>
 5    1  0.7095115E+001  0.1585889E+01  0.7818608E-02  0.3368823E+00
         11   -1    0    0    0    0  0.00000000000E+00  0.00000000000E+00  0.39999999674E+01  0.40000000000E+01  0.51100000000E-03 0.  1.
    9000002   -1    0    0    0    0 -0.00000000000E+00 -0.00000000000E+00  0.00000000000E+00  0.93800000000E+00  0.93800000000E+00 0. -1.
         11    1    1    2    0    0 -0.78020346613E-01  0.11146714430E-02  0.82062491997E+00  0.82432635369E+00  0.51100000000E-03 0.  1.
    9000002    1    1    2    0    0 -0.30972987214E-01 -0.37699455977E+00  0.10764375898E+00  0.10171113031E+01  0.93800000000E+00 0. -1.
         22    1    1    2    0    0  0.10899333383E+00  0.37587988833E+00  0.30717312884E+01  0.30965623432E+01  0.00000000000E+00 0.  1.
</event>
<event>
 5    1  0.7095115E+001  0.1599677E+01  0.7818608E-02  0.3353714E+00
         11   -1    0    0    0    0  0.00000000000E+00  0.00000000000E+00  0.39999999674E+01  0.40000000000E+01  0.51100000000E-03 0. -1.
    9000002   -1    0    0    0    0 -0.00000000000E+00 -0.00000000000E+00  0.00000000000E+00  0.93800000000E+00  0.93800000000E+00 0.  1.
         11    1    1    2    0    0 -0.48382411542E-01  0.85584968992E-01  0.97069904514E+00  0.97566517926E+00  0.51100000000E-03 0.  1.
    9000002    1    1    2    0    0  0.19432308365E+00 -0.34352501860E+00  0.10499944219E+00  0.10230541443E+01  0.93800000000E+00 0.  1.
         22    1    1    2    0    0 -0.14594067211E+00  0.25794004961E+00  0.29243014800E+01  0.29392806765E+01  0.00000000000E+00 0. -1.
</event>
<event>
 5    1  0.7095115E+001  0.1595872E+01  0.7818608E-02  0.3357857E+00
         11   -1    0    0    0    0  0.00000000000E+00  0.00000000000E+00  0.39999999674E+01  0.40000000000E+01  0.51100000000E-03 0. -1.
    9000002   -1    0    0    0    0 -0.00000000000E+00 -0.00000000000E+00  0.00000000000E+00  0.93800000000E+00  0.93800000000E+00 0.  1.
         11    1    1    2    0    0 -0.24418951073E+00  0.11612158452E+00  0.12610595840E+01  0.12897225574E+01  0.51100000000E-03 0. -1.
    9000002    1    1    2    0    0  0.51872457518E+00 -0.40844009981E+00  0.31242147149E+00  0.11888438400E+01  0.93800000000E+00 0.  1.
         22    1    1    2    0    0 -0.27453506446E+00  0.29231851529E+00  0.24265189119E+01  0.24594336026E+01  0.00000000000E+00 0. -1.
</event>
<event>
 5    1  0.7095115E+001  0.1586619E+01  0.7818608E-02  0.3368016E+00
         11   -1    0    0    0    0  0.00000000000E+00  0.00000000000E+00  0.39999999674E+01  0.40000000000E+01  0.51100000000E-03 0.  1.
    9000002   -1    0    0    0    0 -0.00000000000E+00 -0.00000000000E+00  0.00000000000E+00  0.93800000000E+00  0.93800000000E+00 0.  1.
         11    1    1    2    0    0 -0.21834702351E+00  0.29788230349E+00  0.89673608669E+00  0.96981707538E+00  0.51100000000E-03 0.  1.
    9000002    1    1    2    0    0  0.61950060438E+00 -0.67421195992E+00  0.66727164315E+00  0.14708630839E+01  0.93800000000E+00 0.  1.
         22    1    1    2    0    0 -0.40115358087E+00  0.37632965643E+00  0.24359922375E+01  0.24973198408E+01  0.00000000000E+00 0.  1.
</event>
<event>
 5    1  0.7095115E+001  0.1597741E+01  0.7818608E-02  0.3355819E+00
         11   -1    0    0    0    0  0.00000000000E+00  0.00000000000E+00  0.39999999674E+01  0.40000000000E+01  0.51100000000E-03 0.  1.
    9000002   -1    0    0    0    0 -0.00000000000E+00 -0.00000000000E+00  0.00000000000E+00  0.93800000000E+00  0.93800000000E+00 0. -1.
         11    1    1    2    0    0  0.10014681673E+00 -0.69370490797E-01  0.12235461176E+01  0.12295962805E+01  0.51100000000E-03 0.  1.
    9000002    1    1    2    0    0 -0.18984491803E+00  0.30923162662E+00  0.89983550729E-01  0.10097555799E+01  0.93800000000E+00 0. -1.
         22    1    1    2    0    0  0.89698101299E-01 -0.23986113582E+00  0.26864702990E+01  0.26986481396E+01  0.00000000000E+00 0.  1.
</event>
<event>
 5    1  0.7095115E+001  0.1495360E+01  0.7818608E-02  0.3475404E+00
         11   -1    0    0    0    0  0.00000000000E+00  0.00000000000E+00  0.39999999674E+01  0.40000000000E+01  0.51100000000E-03 0. -1.
    9000002   -1    0    0    0    0 -0.00000000000E+00 -0.00000000000E+00  0.00000000000E+00  0.93800000000E+00  0.93800000000E+00 0.  1.
         11    1    1    2    0    0  0.46242380661E+00  0.29301307226E+00  0.13942387997E+01  0.14978633212E+01  0.51100000000E-03 0. -1.
    9000002    1    1    2    0    0 -0.25750334251E+00 -0.48327514753E+00  0.31293954172E+00  0.11303264999E+01  0.93800000000E+00 0.  1.
         22    1    1    2    0    0 -0.20492046409E+00  0.19026207528E+00  0.22928216260E+01  0.23098101789E+01  0.00000000000E+00 0.  1.
</event>
<event>
 5    1  0.7095115E+001  0.1530364E+01  0.7818608E-02  0.3432594E+00
         11   -1    0    0    0    0  0.00000000000E+00  0.00000000000E+00  0.39999999674E+01  0.40000000000E+01  0.51100000000E-03 0. -1.
    9000002   -1    0    0    0    0 -0.00000000000E+00 -0.00000000000E+00  0.00000000000E+00  0.93800000000E+00  0.93800000000E+00 0.  1.
         11    1    1    2    0    0  0.19159932783E+00  0.97250729700E-01  0.67994776096E+00  0.71308991411E+00  0.51100000000E-03 0. -1.
    9000002    1    1    2    0    0  0.19865101192E+00 -0.77514712607E-01  0.84266594250E-01  0.96561670145E+00  0.93800000000E+00 0.  1.
         22    1    1    2    0    0 -0.39025033976E+00 -0.19736017092E-01  0.32357856122E+01  0.32592933844E+01  0.00000000000E+00 0. -1.
</event>
<event>
 5    1  0.7095115E+001  0.1599669E+01  0.7818608E-02  0.3353722E+00
         11   -1    0    0    0    0  0.00000000000E+00  0.00000000000E+00  0.39999999674E+01  0.40000000000E+01  0.51100000000E-03 0.  1.
    9000002   -1    0    0    0    0 -0.00000000000E+00 -0.00000000000E+00  0.00000000000E+00  0.93800000000E+00  0.93800000000E+00 0.  1.
         11    1    1    2    0    0  0.38476641378E-01  0.51532489494E-01  0.66228823811E+00  0.66540365258E+00  0.51100000000E-03 0.  1.
    9000002    1    1    2    0    0 -0.24088763723E+00 -0.30147431565E+00  0.10027337665E+00  0.10192214513E+01  0.93800000000E+00 0.  1.
         22    1    1    2    0    0  0.20241099585E+00  0.24994182616E+00  0.32374383526E+01  0.32533748961E+01  0.00000000000E+00 0.  1.
</event>
<event>
 5    1  0.7095115E+001  0.1599495E+01  0.7818608E-02  0.3353912E+00
         11   -1    0    0    0    0  0.00000000000E+00  0.00000000000E+00  0.39999999674E+01  0.40000000000E+01  0.51100000000E-03 0. -1.
    9000002   -1    0    0    0    0 -0.00000000000E+00 -0.00000000000E+00  0.00000000000E+00  0.93800000000E+00  0.93800000000E+00 0.  1.
         11    1    1    2    0    0 -0.11267730988E+00  0.57975204414E-02  0.10960719796E+01  0.11018637996E+01  0.51100000000E-03 0. -1.
    9000002    1    1    2    0    0  0.44401383968E+00 -0.43016654744E-01  0.13523610376E+00  0.10474404643E+01  0.93800000000E+00 0.  1.
         22    1    1    2    0    0 -0.33133652980E+00  0.37219134302E-01  0.27686918840E+01  0.27886957361E+01  0.00000000000E+00 0. -1.
</event>
<event>
 5    1  0.7095115E+001  0.1598851E+01  0.7818608E-02  0.3354612E+00
         11   -1    0    0    0    0  0.00000000000E+00  0.00000000000E+00  0.39999999674E+01  0.40000000000E+01  0.51100000000E-03 0. -1.
    9000002   -1    0    0    0    0 -0.00000000000E+00 -0.00000000000E+00  0.00000000000E+00  0.93800000000E+00  0.93800000000E+00 0.  1.
         11    1    1    2    0    0  0.10723083243E+00 -0.22539894197E-01  0.78126713861E+00  0.78891387442E+00  0.51100000000E-03 0. -1.
    9000002    1    1    2    0    0 -0.39940546448E+00  0.15149914043E+00  0.12423290993E+00  0.10381495704E+01  0.93800000000E+00 0.  1.
         22    1    1    2    0    0  0.29217463205E+00 -0.12895924623E+00  0.30944999188E+01  0.31109365552E+01  0.00000000000E+00 0. -1.
</event>
<event>
 5    1  0.7095115E+001  0.1592924E+01  0.7818608E-02  0.3361079E+00
         11   -1    0    0    0    0  0.00000000000E+00  0.00000000000E+00  0.39999999674E+01  0.40000000000E+01  0.51100000000E-03 0.  1.
    9000002   -1    0    0    0    0 -0.00000000000E+00 -0.00000000000E+00  0.00000000000E+00  0.93800000000E+00  0.93800000000E+00 0.  1.
         11    1    1    2    0    0  0.11716181753E+00  0.66559197192E-01  0.60409646497E+00  0.61894250002E+00  0.51100000000E-03 0.  1.
    9000002    1    1    2    0    0 -0.43957858114E+00 -0.79584339114E-01  0.14131484918E+00  0.10485117465E+01  0.93800000000E+00 0.  1.
         22    1    1    2    0    0  0.32241676361E+00  0.13025141922E-01  0.32545886532E+01  0.32705457534E+01  0.00000000000E+00 0.  1.
</event>
<event>
 5    1  0.7095115E+001  0.1599674E+01  0.7818608E-02  0.3353718E+00
         11   -1    0    0    0    0  0.00000000000E+00  0.00000000000E+00  0.39999999674E+01  0.40000000000E+01  0.51100000000E-03 0.  1.
    9000002   -1    0    0    0    0 -0.00000000000E+00 -0.00000000000E+00  0.00000000000E+00  0.93800000000E+00  0.93800000000E+00 0. -1.
         11    1    1    2    0    0  0.26989711856E-01 -0.13911664759E-01  0.32508690102E+00  0.32650227151E+00  0.51100000000E-03 0. -1.
    9000002    1    1    2    0    0 -0.32494905275E+00  0.15377957300E+00  0.86751718149E-01  0.10082707496E+01  0.93800000000E+00 0. -1.
         22    1    1    2    0    0  0.29795934089E+00 -0.13986790824E+00  0.35881613482E+01  0.36032269789E+01  0.00000000000E+00 0.  1.
</event>
<event>
 5    1  0.7095115E+001  0.1592138E+01  0.7818608E-02  0.3361941E+00
         11   -1    0    0    0    0  0.00000000000E+00  0.00000000000E+00  0.39999999674E+01  0.40000000000E+01  0.51100000000E-03 0. -1.
    9000002   -1    0    0    0    0 -0.00000000000E+00 -0.00000000000E+00  0.00000000000E+00  0.93800000000E+00  0.93800000000E+00 0. -1.
         11    1    1    2    0    0 -0.36940671664E-01 -0.31124790978E+00  0.92951816035E+00  0.98094043964E+00  0.51100000000E-03 0. -1.
    9000002    1    1    2    0    0  0.25758898007E+00  0.81957653769E+00  0.56636826034E+00  0.13923630238E+01  0.93800000000E+00 0. -1.
         22    1    1    2    0    0 -0.22064830841E+00 -0.50832862791E+00  0.25041135467E+01  0.25646965365E+01  0.00000000000E+00 0. -1.
</event>
<event>
 5    1  0.7095115E+001  0.1593049E+01  0.7818608E-02  0.3360942E+00
         11   -1    0    0    0    0  0.00000000000E+00  0.00000000000E+00  0.39999999674E+01  0.40000000000E+01  0.51100000000E-03 0. -1.
    9000002   -1    0    0    0    0 -0.00000000000E+00 -0.00000000000E+00  0.00000000000E+00  0.93800000000E+00  0.93800000000E+00 0.  1.
         11    1    1    2    0    0 -0.11678668021E-01  0.79736528985E-01  0.27966438509E+00  0.29104421443E+00  0.51100000000E-03 0. -1.
    9000002    1    1    2    0    0  0.12543548841E+00 -0.39211835868E+00  0.12008123748E+00  0.10313846870E+01  0.93800000000E+00 0.  1.
         22    1    1    2    0    0 -0.11375682038E+00  0.31238182970E+00  0.36002543448E+01  0.36155710986E+01  0.00000000000E+00 0. -1.
</event>
<event>
 5    1  0.7095115E+001  0.1599475E+01  0.7818608E-02  0.3353933E+00
         11   -1    0    0    0    0  0.00000000000E+00  0.00000000000E+00  0.39999999674E+01  0.40000000000E+01  0.51100000000E-03 0. -1.
    9000002   -1    0    0    0    0 -0.00000000000E+00 -0.00000000000E+00  0.00000000000E+00  0.93800000000E+00  0.93800000000E+00 0. -1.
         11    1    1    2    0    0  0.46053745233E-02 -0.25708168419E-02  0.42375260332E-01  0.42705296895E-01  0.51100000000E-03 0. -1.
    9000002    1    1    2    0    0 -0.18129121413E+00  0.44942866536E+00  0.16054224285E+00  0.10679281068E+01  0.93800000000E+00 0. -1.
         22    1    1    2    0    0  0.17668583961E+00 -0.44685784852E+00  0.37970824642E+01  0.38273665963E+01  0.00000000000E+00 0. -1.
</event>
<event>
 5    1  0.7095115E+001  0.1599674E+01  0.7818608E-02  0.3353717E+00
         11   -1    0    0    0    0  0.00000000000E+00  0.00000000000E+00  0.39999999674E+01  0.40000000000E+01  0.51100000000E-03 0.  1.
    9000002   -1    0    0    0    0 -0.00000000000E+00 -0.00000000000E+00  0.00000000000E+00  0.93800000000E+00  0.93800000000E+00 0.  1.
         11    1    1    2    0    0  0.32871644166E-01 -0.11988058827E+00  0.10222126594E+01  0.10297431148E+01  0.51100000000E-03 0.  1.
    9000002    1    1    2    0    0 -0.12104648143E+00  0.45749954953E+00  0.15265010364E+00  0.10616516108E+01  0.93800000000E+00 0.  1.
         22    1    1    2    0    0  0.88174837262E-01 -0.33761896126E+00  0.28251372044E+01  0.28466052744E+01  0.00000000000E+00 0.  1.
</event>
<event>
 5    1  0.7095115E+001  0.1599675E+01  0.7818608E-02  0.3353716E+00
         11   -1    0    0    0    0  0.00000000000E+00  0.00000000000E+00  0.39999999674E+01  0.40000000000E+01  0.51100000000E-03 0. -1.
    9000002   -1    0    0    0    0 -0.00000000000E+00 -0.00000000000E+00  0.00000000000E+00  0.93800000000E+00  0.93800000000E+00 0. -1.
         11    1    1    2    0    0 -0.29892064920E-01  0.23892428140E-01  0.24212267985E+00  0.24512861295E+00  0.51100000000E-03 0. -1.
    9000002    1    1    2    0    0  0.46242504161E+00 -0.38179427721E+00  0.25087962377E+00  0.11412223161E+01  0.93800000000E+00 0. -1.
         22    1    1    2    0    0 -0.43253297669E+00  0.35790184907E+00  0.35069976637E+01  0.35516490709E+01  0.00000000000E+00 0. -1.
</event>
<event>
 5    1  0.7095115E+001  0.1599608E+01  0.7818608E-02  0.3353789E+00
         11   -1    0    0    0    0  0.00000000000E+00  0.00000000000E+00  0.39999999674E+01  0.40000000000E+01  0.51100000000E-03 0.  1.
    9000002   -1    0    0    0    0 -0.00000000000E+00 -0.00000000000E+00  0.00000000000E+00  0.93800000000E+00  0.93800000000E+00 0.  1.
         11    1    1    2    0    0 -0.41062695504E-01 -0.10303361917E+00  0.11909042457E+01  0.11960582156E+01  0.51100000000E-03 0.  1.
    9000002    1    1    2    0    0  0.11097976103E+00  0.35653315577E+00  0.93797750053E-01  0.10139400458E+01  0.93800000000E+00 0.  1.
         22    1    1    2    0    0 -0.69917065523E-01 -0.25349953660E+00  0.27152979716E+01  0.27280017386E+01  0.00000000000E+00 0.  1.
</event>
<event>
 5    1  0.7095115E+001  0.1599662E+01  0.7818608E-02  0.3353730E+00
         11   -1    0    0    0    0  0.00000000000E+00  0.00000000000E+00  0.39999999674E+01  0.40000000000E+01  0.51100000000E-03 0.  1.
    9000002   -1    0    0    0    0 -0.00000000000E+00 -0.00000000000E+00  0.00000000000E+00  0.93800000000E+00  0.93800000000E+00 0.  1.
         11    1    1    2    0    0 -0.17712054608E+00 -0.58162146650E-01  0.13981848109E+01  0.14105585949E+01  0.51100000000E-03 0.  1.
    9000002    1    1    2    0    0  0.49534695481E+00  0.16005759874E+00  0.18617781926E+00  0.10888035732E+01  0.93800000000E+00 0.  1.
         22    1    1    2    0    0 -0.31822640873E+00 -0.10189545209E+00  0.24156373373E+01  0.24386378320E+01  0.00000000000E+00 0. -1.
</event>
<event>
 5    1  0.7095115E+001  0.1534149E+01  0.7818608E-02  0.3428091E+00
         11   -1    0    0    0    0  0.00000000000E+00  0.00000000000E+00  0.39999999674E+01  0.40000000000E+01  0.51100000000E-03 0. -1.
    9000002   -1    0    0    0    0 -0.00000000000E+00 -0.00000000000E+00  0.00000000000E+00  0.93800000000E+00  0.93800000000E+00 0.  1.
         11    1    1    2    0    0  0.78943625278E-01 -0.19634282601E+00  0.11031621246E+01  0.11232762508E+01  0.51100000000E-03 0. -1.
    9000002    1    1    2    0    0  0.16085806204E+00 -0.18249786914E+00  0.91008162175E-01  0.97329711494E+00  0.93800000000E+00 0.  1.
         22    1    1    2    0    0 -0.23980168732E+00  0.37884069515E+00  0.28058296806E+01  0.28414266343E+01  0.00000000000E+00 0. -1.
</event>
<event>
 5    1  0.7095115E+001  0.1599655E+01  0.7818608E-02  0.3353738E+00
         11   -1    0    0    0    0  0.00000000000E+00  0.00000000000E+00  0.39999999674E+01  0.40000000000E+01  0.51100000000E-03 0. -1.
    9000002   -1    0    0    0    0 -0.00000000000E+00 -0.00000000000E+00  0.00000000000E+00  0.93800000000E+00  0.93800000000E+00 0. -1.
         11    1    1    2    0    0 -0.96053499976E-01 -0.11948366441E+00  0.14914296496E+01  0.14992882584E+01  0.51100000000E-03 0. -1.
    9000002    1    1    2    0    0  0.24147131320E+00  0.30162442420E+00  0.10054196888E+00  0.10194304174E+01  0.93800000000E+00 0. -1.
         22    1    1    2    0    0 -0.14541781323E+00 -0.18214075979E+00  0.24080283489E+01  0.24192813242E+01  0.00000000000E+00 0. -1.
</event>
<event>
 5    1  0.7095115E+001  0.1599677E+01  0.7818608E-02  0.3353714E+00
         11   -1    0    0    0    0  0.00000000000E+00  0.00000000000E+00  0.39999999674E+01  0.40000000000E+01  0.51100000000E-03 0.  1.
    9000002   -1    0    0    0    0 -0.00000000000E+00 -0.00000000000E+00  0.00000000000E+00  0.93800000000E+00  0.93800000000E+00 0. -1.
         11    1    1    2    0    0  0.92277983518E-01  0.10591519344E+00  0.14608851204E+01  0.14676235384E+01  0.51100000000E-03 0. -1.
    9000002    1    1    2    0    0 -0.24572191197E+00 -0.28323412159E+00  0.94544810029E-01  0.10145854063E+01  0.93800000000E+00 0. -1.
         22    1    1    2    0    0  0.15344392845E+00  0.17731892815E+00  0.24445700370E+01  0.24557910553E+01  0.00000000000E+00 0.  1.
</event>
<event>
 5    1  0.7095115E+001  0.1599588E+01  0.7818608E-02  0.3353811E+00
         11   -1    0    0    0    0  0.00000000000E+00  0.00000000000E+00  0.39999999674E+01  0.40000000000E+01  0.51100000000E-03 0.  1.
    9000002   -1    0    0    0    0 -0.00000000000E+00 -0.00000000000E+00  0.00000000000E+00  0.93800000000E+00  0.93800000000E+00 0. -1.
         11    1    1    2    0    0  0.82083733919E-01 -0.66495571541E-01  0.73606442219E+00  0.74360641145E+00  0.51100000000E-03 0.  1.
    9000002    1    1    2    0    0 -0.38073187678E+00  0.33525796450E+00  0.17647236256E+00  0.10808983114E+01  0.93800000000E+00 0. -1.
         22    1    1    2    0    0  0.29864814286E+00 -0.26876239296E+00  0.30874631826E+01  0.31134952772E+01  0.00000000000E+00 0.  1.
</event>
<event>
 5    1  0.7095115E+001  0.1598972E+01  0.7818608E-02  0.3354480E+00
         11   -1    0    0    0    0  0.00000000000E+00  0.00000000000E+00  0.39999999674E+01  0.40000000000E+01  0.51100000000E-03 0. -1.
    9000002   -1    0    0    0    0 -0.00000000000E+00 -0.00000000000E+00  0.00000000000E+00  0.93800000000E+00  0.93800000000E+00 0. -1.
         11    1    1    2    0    0  0.34155024130E-01 -0.22985336567E-01  0.42445543129E+00  0.42644761184E+00  0.51100000000E-03 0. -1.
    9000002    1    1    2    0    0 -0.46636645914E+00  0.28828221037E+00  0.20822457197E+00  0.11062575556E+01  0.93800000000E+00 0. -1.
         22    1    1    2    0    0  0.43221143501E+00 -0.26529687380E+00  0.33673199641E+01  0.34052948325E+01  0.00000000000E+00 0. -1.
</event>
<event>
 5    1  0.7095115E+001  0.1596593E+01  0.7818608E-02  0.3357069E+00
         11   -1    0    0    0    0  0.00000000000E+00  0.00000000000E+00  0.39999999674E+01  0.40000000000E+01  0.51100000000E-03 0.  1.
    9000002   -1    0    0    0    0 -0.00000000000E+00 -0.00000000000E+00  0.00000000000E+00  0.93800000000E+00  0.93800000000E+00 0. -1.
         11    1    1    2    0    0 -0.94216690303E-02 -0.47172227064E-01  0.64510514322E+00  0.64689635475E+00  0.51100000000E-03 0.  1.
    9000002    1    1    2    0    0  0.33271149556E+00  0.16588847978E+00  0.95427495436E-01  0.10134921479E+01  0.93800000000E+00 0. -1.
         22    1    1    2    0    0 -0.32328982653E+00 -0.11871625272E+00  0.32594673287E+01  0.32776114973E+01  0.00000000000E+00 0.  1.
</event>
<event>
 5    1  0.7095115E+001  0.1599676E+01  0.7818608E-02  0.3353715E+00
         11   -1    0    0    0    0  0.00000000000E+00  0.00000000000E+00  0.39999999674E+01  0.40000000000E+01  0.51100000000E-03 0.  1.
    9000002   -1    0    0    0    0 -0.00000000000E+00 -0.00000000000E+00  0.00000000000E+00  0.93800000000E+00  0.93800000000E+00 0.  1.
         11    1    1    2    0    0  0.19144138204E-01  0.95595276437E-02  0.17302619406E+00  0.17434508180E+00  0.51100000000E-03 0. -1.
    9000002    1    1    2    0    0 -0.42030978184E+00 -0.21345737989E+00  0.15142334066E+00  0.10606589432E+01  0.93800000000E+00 0.  1.
         22    1    1    2    0    0  0.40116564364E+00  0.20389785225E+00  0.36755504326E+01  0.37029959750E+01  0.00000000000E+00 0.  1.
</event>
<event>
 5    1  0.7095115E+001  0.1541670E+01  0.7818608E-02  0.3419212E+00
         11   -1    0    0    0    0  0.00000000000E+00  0.00000000000E+00  0.39999999674E+01  0.40000000000E+01  0.51100000000E-03 0. -1.
    9000002   -1    0    0    0    0 -0.00000000000E+00 -0.00000000000E+00  0.00000000000E+00  0.93800000000E+00  0.93800000000E+00 0.  1.
         11    1    1    2    0    0 -0.21089881729E+00  0.45739211103E-01  0.78446040858E+00  0.81360234778E+00  0.51100000000E-03 0. -1.
    9000002    1    1    2    0    0 -0.69281329461E-01  0.63640918536E-01  0.49395018606E-01  0.94399890730E+00  0.93800000000E+00 0.  1.
         22    1    1    2    0    0  0.28018014675E+00 -0.10938012964E+00  0.31661445402E+01  0.31803987449E+01  0.00000000000E+00 0. -1.
</event>
<event>
 5    1  0.7095115E+001  0.1599573E+01  0.7818608E-02  0.3353827E+00
         11   -1    0    0    0    0  0.00000000000E+00  0.00000000000E+00  0.39999999674E+01  0.40000000000E+01  0.51100000000E-03 0. -1.
    9000002   -1    0    0    0    0 -0.00000000000E+00 -0.00000000000E+00  0.00000000000E+00  0.93800000000E+00  0.93800000000E+00 0.  1.
         11    1    1    2    0    0 -0.40704851389E-01  0.12924822046E-01  0.54875069644E+00  0.55041032323E+00  0.51100000000E-03 0. -1.
    9000002    1    1    2    0    0  0.34210427381E+00 -0.59577715849E-01  0.80912783639E-01  0.10034817970E+01  0.93800000000E+00 0.  1.
         22    1    1    2    0    0 -0.30139942242E+00  0.46652893804E-01  0.33703364873E+01  0.33841078798E+01  0.00000000000E+00 0. -1.
</event>
<event>
 5    1  0.7095115E+001  0.1599674E+01  0.7818608E-02  0.3353718E+00
         11   -1    0    0    0    0  0.00000000000E+00  0.00000000000E+00  0.39999999674E+01  0.40000000000E+01  0.51100000000E-03 0.  1.
    9000002   -1    0    0    0    0 -0.00000000000E+00 -0.00000000000E+00  0.00000000000E+00  0.93800000000E+00  0.93800000000E+00 0. -1.
         11    1    1    2    0    0 -0.61273210453E-01 -0.36315945001E-01  0.78224061049E+00  0.78547685389E+00  0.51100000000E-03 0.  1.
    9000002    1    1    2    0    0  0.30054690989E+00  0.18779052682E+00  0.84255644125E-01  0.10062488462E+01  0.93800000000E+00 0. -1.
         22    1    1    2    0    0 -0.23927369944E+00 -0.15147458182E+00  0.31335037127E+01  0.31462742999E+01  0.00000000000E+00 0.  1.
</event>
<event>
 5    1  0.7095115E+001  0.1598917E+01  0.7818608E-02  0.3354540E+00
         11   -1    0    0    0    0  0.00000000000E+00  0.00000000000E+00  0.39999999674E+01  0.40000000000E+01  0.51100000000E-03 0. -1.
    9000002   -1    0    0    0    0 -0.00000000000E+00 -0.00000000000E+00  0.00000000000E+00  0.93800000000E+00  0.93800000000E+00 0. -1.
         11    1    1    2    0    0  0.13377536063E+00 -0.14502800926E-01  0.12678773659E+01  0.12749978253E+01  0.51100000000E-03 0. -1.
    9000002    1    1    2    0    0 -0.47225131085E+00 -0.23904379379E-01  0.15305817790E+00  0.10615382828E+01  0.93800000000E+00 0. -1.
         22    1    1    2    0    0  0.33847595022E+00  0.38407180305E-01  0.25790644236E+01  0.26014638920E+01  0.00000000000E+00 0. -1.
</event>
<event>
 5    1  0.7095115E+001  0.1599677E+01  0.7818608E-02  0.3353715E+00
         11   -1    0    0    0    0  0.00000000000E+00  0.00000000000E+00  0.39999999674E+01  0.40000000000E+01  0.51100000000E-03 0. -1.
    9000002   -1    0    0    0    0 -0.00000000000E+00 -0.00000000000E+00  0.00000000000E+00  0.93800000000E+00  0.93800000000E+00 0. -1.
         11    1    1    2    0    0  0.48332908450E-01 -0.36819007634E-01  0.66236006336E+00  0.66514120607E+00  0.51100000000E-03 0. -1.
    9000002    1    1    2    0    0 -0.28843400445E+00  0.21753170201E+00  0.87622278451E-01  0.10089776410E+01  0.93800000000E+00 0. -1.
         22    1    1    2    0    0  0.24010109600E+00 -0.18071269438E+00  0.32500176256E+01  0.32638811530E+01  0.00000000000E+00 0. -1.
</event>
<event>
 5    1  0.7095115E+001  0.1598166E+01  0.7818608E-02  0.3355356E+00
         11   -1    0    0    0    0  0.00000000000E+00  0.00000000000E+00  0.39999999674E+01  0.40000000000E+01  0.51100000000E-03 0. -1.
    9000002   -1    0    0    0    0 -0.00000000000E+00 -0.00000000000E+00  0.00000000000E+00  0.93800000000E+00  0.93800000000E+00 0.  1.
         11    1    1    2    0    0 -0.17748612159E-02 -0.40144463899E-01  0.39737928743E+00  0.39940616834E+00  0.51100000000E-03 0. -1.
    9000002    1    1    2    0    0 -0.25311846998E+00  0.33253542391E+00  0.11935651493E+00  0.10337982132E+01  0.93800000000E+00 0.  1.
         22    1    1    2    0    0  0.25489333119E+00 -0.29239096002E+00  0.34832641650E+01  0.35047956184E+01  0.00000000000E+00 0. -1.
</event>
<event>
 5    1  0.7095115E+001  0.1552467E+01  0.7818608E-02  0.3406627E+00
         11   -1    0    0    0    0  0.00000000000E+00  0.00000000000E+00  0.39999999674E+01  0.40000000000E+01  0.51100000000E-03 0. -1.
    9000002   -1    0    0    0    0 -0.00000000000E+00 -0.00000000000E+00  0.00000000000E+00  0.93800000000E+00  0.93800000000E+00 0.  1.
         11    1    1    2    0    0  0.11143432531E+00 -0.25003674103E+00  0.13777601238E+01  0.14046918525E+01  0.51100000000E-03 0. -1.
    9000002    1    1    2    0    0 -0.23243326975E+00  0.57013994847E-02  0.72576076121E-01  0.96910733031E+00  0.93800000000E+00 0.  1.
         22    1    1    2    0    0  0.12099894445E+00  0.24433534154E+00  0.25496637675E+01  0.25642008172E+01  0.00000000000E+00 0. -1.
</event>
<event>
 5    1  0.7095115E+001  0.1597770E+01  0.7818608E-02  0.3355787E+00
         11   -1    0    0    0    0  0.00000000000E+00  0.00000000000E+00  0.39999999674E+01  0.40000000000E+01  0.51100000000E-03 0.  1.
    9000002   -1    0    0    0    0 -0.00000000000E+00 -0.00000000000E+00  0.00000000000E+00  0.93800000000E+00  0.93800000000E+00 0. -1.
         11    1    1    2    0    0 -0.19133768338E-01  0.65992429082E-01  0.32585012541E+00  0.33301601634E+00  0.51100000000E-03 0.  1.
    9000002    1    1    2    0    0  0.34443503692E+00 -0.44357319840E+00  0.22015178641E+00  0.11152145471E+01  0.93800000000E+00 0. -1.
         22    1    1    2    0    0 -0.32530126858E+00  0.37758076932E+00  0.34539980555E+01  0.34897694366E+01  0.00000000000E+00 0.  1.
</event>
<event>
 5    1  0.7095115E+001  0.1189397E+01  0.7818608E-02  0.4018173E+00
         11   -1    0    0    0    0  0.00000000000E+00  0.00000000000E+00  0.39999999674E+01  0.40000000000E+01  0.51100000000E-03 0.  1.
    9000002   -1    0    0    0    0 -0.00000000000E+00 -0.00000000000E+00  0.00000000000E+00  0.93800000000E+00  0.93800000000E+00 0. -1.
         11    1    1    2    0    0 -0.39120958120E-01  0.39828537359E+00  0.73998025721E-01  0.40698606501E+00  0.51100000000E-03 0.  1.
    9000002    1    1    2    0    0 -0.31413217148E+00 -0.25181188322E+00  0.60191874460E+00  0.11850056628E+01  0.93800000000E+00 0. -1.
         22    1    1    2    0    0  0.35325312960E+00 -0.14647349037E+00  0.33240831970E+01  0.33460082722E+01  0.00000000000E+00 0.  1.
</event>
<event>
 5    1  0.7095115E+001  0.1599674E+01  0.7818608E-02  0.3353718E+00
         11   -1    0    0    0    0  0.00000000000E+00  0.00000000000E+00  0.39999999674E+01  0.40000000000E+01  0.51100000000E-03 0. -1.
    9000002   -1    0    0    0    0 -0.00000000000E+00 -0.00000000000E+00  0.00000000000E+00  0.93800000000E+00  0.93800000000E+00 0.  1.
         11    1    1    2    0    0 -0.73337609002E-03  0.17024159844E-01  0.17188435059E+00  0.17272767861E+00  0.51100000000E-03 0. -1.
    9000002    1    1    2    0    0  0.41607348209E-02 -0.37472938509E+00  0.94436472903E-01  0.10144957719E+01  0.93800000000E+00 0.  1.
         22    1    1    2    0    0 -0.34273587309E-02  0.35770522525E+00  0.37336791439E+01  0.37507765495E+01  0.00000000000E+00 0. -1.
</event>
<event>
 5    1  0.7095115E+001  0.1599284E+01  0.7818608E-02  0.3354140E+00
         11   -1    0    0    0    0  0.00000000000E+00  0.00000000000E+00  0.39999999674E+01  0.40000000000E+01  0.51100000000E-03 0. -1.
    9000002   -1    0    0    0    0 -0.00000000000E+00 -0.00000000000E+00  0.00000000000E+00  0.93800000000E+00  0.93800000000E+00 0.  1.
         11    1    1    2    0    0 -0.14899057224E-01 -0.24957169401E-01  0.20552557002E+00  0.20757134500E+00  0.51100000000E-03 0. -1.
    9000002    1    1    2    0    0  0.78115874368E-01  0.47087727446E+00  0.15573125445E+00  0.10639190388E+01  0.93800000000E+00 0.  1.
         22    1    1    2    0    0 -0.63216817144E-01 -0.44592010506E+00  0.36387431429E+01  0.36665096162E+01  0.00000000000E+00 0. -1.
</event>
<event>
 5    1  0.7095115E+001  0.1520054E+01  0.7818608E-02  0.3444983E+00
         11   -1    0    0    0    0  0.00000000000E+00  0.00000000000E+00  0.39999999674E+01  0.40000000000E+01  0.51100000000E-03 0.  1.
    9000002   -1    0    0    0    0 -0.00000000000E+00 -0.00000000000E+00  0.00000000000E+00  0.93800000000E+00  0.93800000000E+00 0. -1.
         11    1    1    2    0    0 -0.24798059041E+00  0.59671933133E-01  0.10724965435E+01  0.11024083680E+01  0.51100000000E-03 0.  1.
    9000002    1    1    2    0    0 -0.14502423862E+00  0.13056965885E+00  0.87333966155E-01  0.96205596887E+00  0.93800000000E+00 0. -1.
         22    1    1    2    0    0  0.39300482904E+00 -0.19024159198E+00  0.28401694577E+01  0.28735356632E+01  0.00000000000E+00 0.  1.
</event>
<event>
 5    1  0.7095115E+001  0.1599525E+01  0.7818608E-02  0.3353879E+00
         11   -1    0    0    0    0  0.00000000000E+00  0.00000000000E+00  0.39999999674E+01  0.40000000000E+01  0.51100000000E-03 0.  1.
    9000002   -1    0    0    0    0 -0.00000000000E+00 -0.00000000000E+00  0.00000000000E+00  0.93800000000E+00  0.93800000000E+00 0. -1.
         11    1    1    2    0    0  0.88217453174E-01  0.10269543263E+00  0.96857716220E+00  0.97799317542E+00  0.51100000000E-03 0.  1.
    9000002    1    1    2    0    0 -0.32187967690E+00 -0.36361155433E+00  0.16118486860E+00  0.10684776323E+01  0.93800000000E+00 0. -1.
         22    1    1    2    0    0  0.23366222373E+00  0.26091612170E+00  0.28702379366E+01  0.28915291923E+01  0.00000000000E+00 0.  1.
</event>
<event>
 5    1  0.7095115E+001  0.1599665E+01  0.7818608E-02  0.3353727E+00
         11   -1    0    0    0    0  0.00000000000E+00  0.00000000000E+00  0.39999999674E+01  0.40000000000E+01  0.51100000000E-03 0.  1.
    9000002   -1    0    0    0    0 -0.00000000000E+00 -0.00000000000E+00  0.00000000000E+00  0.93800000000E+00  0.93800000000E+00 0.  1.
         11    1    1    2    0    0  0.13284544404E+00  0.50298377872E-02  0.12057815084E+01  0.12130880094E+01  0.51100000000E-03 0.  1.
    9000002    1    1    2    0    0 -0.42159664148E+00 -0.26915078989E-01  0.12074899691E+00  0.10358052278E+01  0.93800000000E+00 0.  1.
         22    1    1    2    0    0  0.28875119744E+00  0.21885241202E-01  0.26734694620E+01  0.26891067629E+01  0.00000000000E+00 0.  1.
</event>
<event>
 5    1  0.7095115E+001  0.1599665E+01  0.7818608E-02  0.3353727E+00
         11   -1    0    0    0    0  0.00000000000E+00  0.00000000000E+00  0.39999999674E+01  0.40000000000E+01  0.51100000000E-03 0. -1.
    9000002   -1    0    0    0    0 -0.00000000000E+00 -0.00000000000E+00  0.00000000000E+00  0.93800000000E+00  0.93800000000E+00 0.  1.
         11    1    1    2    0    0 -0.24762029668E-01 -0.72195536848E-01  0.67755198392E+00  0.68183744814E+00  0.51100000000E-03 0. -1.
    9000002    1    1    2    0    0  0.12554080239E+00  0.40473384215E+00  0.12151672635E+00  0.10364266934E+01  0.93800000000E+00 0.  1.
         22    1    1    2    0    0 -0.10077877272E+00 -0.33253830530E+00  0.32009312571E+01  0.32197358584E+01  0.00000000000E+00 0. -1.
</event>
<event>
 5    1  0.7095115E+001  0.1520179E+01  0.7818608E-02  0.3444831E+00
         11   -1    0    0    0    0  0.00000000000E+00  0.00000000000E+00  0.39999999674E+01  0.40000000000E+01  0.51100000000E-03 0. -1.
    9000002   -1    0    0    0    0 -0.00000000000E+00 -0.00000000000E+00  0.00000000000E+00  0.93800000000E+00  0.93800000000E+00 0. -1.
         11    1    1    2    0    0  0.25602216330E+00  0.55411301367E-01  0.75845629563E+00  0.80241758076E+00  0.51100000000E-03 0. -1.
    9000002    1    1    2    0    0  0.42355997679E-01 -0.99842400468E-02  0.61255425518E-01  0.94100475171E+00  0.93800000000E+00 0. -1.
         22    1    1    2    0    0 -0.29837816097E+00 -0.45427061320E-01  0.31802882462E+01  0.31945776675E+01  0.00000000000E+00 0. -1.
</event>
<event>
 5    1  0.7095115E+001  0.1597600E+01  0.7818608E-02  0.3355973E+00
         11   -1    0    0    0    0  0.00000000000E+00  0.00000000000E+00  0.39999999674E+01  0.40000000000E+01  0.51100000000E-03 0. -1.
    9000002   -1    0    0    0    0 -0.00000000000E+00 -0.00000000000E+00  0.00000000000E+00  0.93800000000E+00  0.93800000000E+00 0. -1.
         11    1    1    2    0    0  0.55570015362E-01  0.53606822830E-01  0.72981784889E+00  0.73389104895E+00  0.51100000000E-03 0. -1.
    9000002    1    1    2    0    0 -0.22191775552E+00 -0.49416933120E+00  0.20431832515E+00  0.11022888896E+01  0.93800000000E+00 0. -1.
         22    1    1    2    0    0  0.16634774016E+00  0.44056250837E+00  0.30658637933E+01  0.31018200615E+01  0.00000000000E+00 0. -1.
</event>
<event>
 5    1  0.7150368E+001  0.1583866E+01  0.7818608E-02  0.3371063E+00
         11   -1    0    0    0    0  0.00000000000E+00  0.00000000000E+00  0.39999999674E+01  0.40000000000E+01  0.51100000000E-03 0.  1.
    9000002   -1    0    0    0    0 -0.00000000000E+00 -0.00000000000E+00  0.00000000000E+00  0.93800000000E+00  0.93800000000E+00 0. -1.
         11    1    1    2    0    0 -0.29506855740E-02  0.90165207097E-01  0.11536667180E+01  0.11571886745E+01  0.51100000000E-03 0.  1.
    9000002    1    1    2    0    0  0.17241565938E+00  0.13365216719E+00  0.43565283241E-01  0.96401866958E+00  0.93800000000E+00 0. -1.
         22    1    1    2    0    0 -0.16946497380E+00 -0.22381737429E+00  0.28027679662E+01  0.28167926559E+01  0.00000000000E+00 0.  1.
</event>
<event>
 5    1  0.7095115E+001  0.1599639E+01  0.7818608E-02  0.3353755E+00
         11   -1    0    0    0    0  0.00000000000E+00  0.00000000000E+00  0.39999999674E+01  0.40000000000E+01  0.51100000000E-03 0. -1.
    9000002   -1    0    0    0    0 -0.00000000000E+00 -0.00000000000E+00  0.00000000000E+00  0.93800000000E+00  0.93800000000E+00 0.  1.
         11    1    1    2    0    0 -0.15451624828E+00  0.13652012742E-02  0.14645242475E+01  0.14726536142E+01  0.51100000000E-03 0. -1.
    9000002    1    1    2    0    0  0.39197856198E+00 -0.27571903191E-02  0.10356912785E+00  0.10218734557E+01  0.93800000000E+00 0.  1.
         22    1    1    2    0    0 -0.23746231370E+00  0.13919890450E-02  0.24319065920E+01  0.24434729301E+01  0.00000000000E+00 0. -1.
</event>
<event>
 5    1  0.7095115E+001  0.1599049E+01  0.7818608E-02  0.3354396E+00
         11   -1    0    0    0    0  0.00000000000E+00  0.00000000000E+00  0.39999999674E+01  0.40000000000E+01  0.51100000000E-03 0.  1.
    9000002   -1    0    0    0    0 -0.00000000000E+00 -0.00000000000E+00  0.00000000000E+00  0.93800000000E+00  0.93800000000E+00 0.  1.
         11    1    1    2    0    0  0.37056895018E+00  0.86716971840E-02  0.12639235401E+01  0.13171558456E+01  0.51100000000E-03 0.  1.
    9000002    1    1    2    0    0 -0.92068533038E+00  0.28829564739E-01  0.65660837777E+00  0.14695139275E+01  0.93800000000E+00 0.  1.
         22    1    1    2    0    0  0.55011638020E+00 -0.37501261923E-01  0.20794680495E+01  0.21513302269E+01  0.00000000000E+00 0.  1.
</event>
<event>
 5    1  0.7095115E+001  0.1597123E+01  0.7818608E-02  0.3356492E+00
         11   -1    0    0    0    0  0.00000000000E+00  0.00000000000E+00  0.39999999674E+01  0.40000000000E+01  0.51100000000E-03 0.  1.
    9000002   -1    0    0    0    0 -0.00000000000E+00 -0.00000000000E+00  0.00000000000E+00  0.93800000000E+00  0.93800000000E+00 0.  1.
         11    1    1    2    0    0 -0.13116528234E+00  0.29552861302E-01  0.14297411090E+01  0.14360493038E+01  0.51100000000E-03 0.  1.
    9000002    1    1    2    0    0  0.47205072177E+00 -0.18080338300E+00  0.17739666681E+00  0.10802015204E+01  0.93800000000E+00 0.  1.
         22    1    1    2    0    0 -0.34088543943E+00  0.15125052170E+00  0.23928621915E+01  0.24217491758E+01  0.00000000000E+00 0.  1.
</event>
<event>
 5    1  0.7095115E+001  0.1598216E+01  0.7818608E-02  0.3355302E+00
         11   -1    0    0    0    0  0.00000000000E+00  0.00000000000E+00  0.39999999674E+01  0.40000000000E+01  0.51100000000E-03 0.  1.
    9000002   -1    0    0    0    0 -0.00000000000E+00 -0.00000000000E+00  0.00000000000E+00  0.93800000000E+00  0.93800000000E+00 0. -1.
         11    1    1    2    0    0 -0.96222930499E-02 -0.21740997784E+00  0.11882663114E+01  0.12080301217E+01  0.51100000000E-03 0.  1.
    9000002    1    1    2    0    0 -0.32442476997E-01  0.76960296259E+00  0.43464571750E+00  0.12892254008E+01  0.93800000000E+00 0. -1.
         22    1    1    2    0    0  0.42064770047E-01 -0.55219298475E+00  0.23770879384E+01  0.24407444775E+01  0.00000000000E+00 0.  1.
</event>
<event>
 5    1  0.7095115E+001  0.1599677E+01  0.7818608E-02  0.3353714E+00
         11   -1    0    0    0    0  0.00000000000E+00  0.00000000000E+00  0.39999999674E+01  0.40000000000E+01  0.51100000000E-03 0. -1.
    9000002   -1    0    0    0    0 -0.00000000000E+00 -0.00000000000E+00  0.00000000000E+00  0.93800000000E+00  0.93800000000E+00 0.  1.
         11    1    1    2    0    0 -0.11817295279E+00 -0.10063206817E+00  0.12931935300E+01  0.13024751157E+01  0.51100000000E-03 0.  1.
    9000002    1    1    2    0    0  0.35196681209E+00  0.30133295817E+00  0.14610118188E+00  0.10563483061E+01  0.93800000000E+00 0.  1.
         22    1    1    2    0    0 -0.23379385931E+00 -0.20070089000E+00  0.25607052555E+01  0.25791765781E+01  0.00000000000E+00 0. -1.
</event>
<event>
 5    1  0.7095115E+001  0.1595900E+01  0.7818608E-02  0.3357825E+00
         11   -1    0    0    0    0  0.00000000000E+00  0.00000000000E+00  0.39999999674E+01  0.40000000000E+01  0.51100000000E-03 0.  1.
    9000002   -1    0    0    0    0 -0.00000000000E+00 -0.00000000000E+00  0.00000000000E+00  0.93800000000E+00  0.93800000000E+00 0.  1.
         11    1    1    2    0    0  0.92913225627E-01 -0.12978175639E-02  0.74778457186E+00  0.75353605014E+00  0.51100000000E-03 0.  1.
    9000002    1    1    2    0    0 -0.63527952662E+00 -0.22775657836E+00  0.32747836846E+00  0.12010575414E+01  0.93800000000E+00 0.  1.
         22    1    1    2    0    0  0.54236630099E+00  0.22905439593E+00  0.29247370270E+01  0.29834064085E+01  0.00000000000E+00 0.  1.
</event>
<event>
 5    1  0.7095115E+001  0.1572692E+01  0.7818608E-02  0.3383546E+00
         11   -1    0    0    0    0  0.00000000000E+00  0.00000000000E+00  0.39999999674E+01  0.40000000000E+01  0.51100000000E-03 0. -1.
    9000002   -1    0    0    0    0 -0.00000000000E+00 -0.00000000000E+00  0.00000000000E+00  0.93800000000E+00  0.93800000000E+00 0. -1.
         11    1    1    2    0    0 -0.30160802916E+00  0.19487659939E+00  0.97299291326E+00  0.10371401847E+01  0.51100000000E-03 0. -1.
    9000002    1    1    2    0    0  0.55781657567E+00 -0.37580572832E+00  0.35082895092E+00  0.12063640538E+01  0.93800000000E+00 0. -1.
         22    1    1    2    0    0 -0.25620854651E+00  0.18092912892E+00  0.26761781032E+01  0.26944957615E+01  0.00000000000E+00 0.  1.
</event>
<event>
 5    1  0.7095115E+001  0.1596231E+01  0.7818608E-02  0.3357464E+00
         11   -1    0    0    0    0  0.00000000000E+00  0.00000000000E+00  0.39999999674E+01  0.40000000000E+01  0.51100000000E-03 0. -1.
    9000002   -1    0    0    0    0 -0.00000000000E+00 -0.00000000000E+00  0.00000000000E+00  0.93800000000E+00  0.93800000000E+00 0.  1.
         11    1    1    2    0    0  0.16520289103E-01 -0.87812941528E-02  0.65087803781E-01  0.67725286275E-01  0.51100000000E-03 0. -1.
    9000002    1    1    2    0    0 -0.69363089180E+00 -0.53783463113E+00  0.58928375595E+00  0.14133255993E+01  0.93800000000E+00 0.  1.
         22    1    1    2    0    0  0.67711060269E+00  0.54661592528E+00  0.33456284076E+01  0.34569491145E+01  0.00000000000E+00 0. -1.
</event>
<event>
 5    1  0.7095115E+001  0.1588548E+01  0.7818608E-02  0.3365888E+00
         11   -1    0    0    0    0  0.00000000000E+00  0.00000000000E+00  0.39999999674E+01  0.40000000000E+01  0.51100000000E-03 0.  1.
    9000002   -1    0    0    0    0 -0.00000000000E+00 -0.00000000000E+00  0.00000000000E+00  0.93800000000E+00  0.93800000000E+00 0. -1.
         11    1    1    2    0    0  0.30427337885E+00 -0.20712655449E+00  0.13854968050E+01  0.14335568898E+01  0.51100000000E-03 0.  1.
    9000002    1    1    2    0    0 -0.64504852039E+00  0.25547212953E+00  0.35592077439E+00  0.12197857190E+01  0.93800000000E+00 0. -1.
         22    1    1    2    0    0  0.34077514154E+00 -0.48345575039E-01  0.22585823880E+01  0.22846573912E+01  0.00000000000E+00 0.  1.
</event>
<event>
 5    1  0.7095115E+001  0.1598646E+01  0.7818608E-02  0.3354834E+00
         11   -1    0    0    0    0  0.00000000000E+00  0.00000000000E+00  0.39999999674E+01  0.40000000000E+01  0.51100000000E-03 0. -1.
    9000002   -1    0    0    0    0 -0.00000000000E+00 -0.00000000000E+00  0.00000000000E+00  0.93800000000E+00  0.93800000000E+00 0. -1.
         11    1    1    2    0    0  0.13747211980E+00 -0.97900073308E-01  0.90583152646E+00  0.92141956975E+00  0.51100000000E-03 0. -1.
    9000002    1    1    2    0    0 -0.46902676243E+00  0.31583471308E+00  0.22249279775E+00  0.11176245859E+01  0.93800000000E+00 0. -1.
         22    1    1    2    0    0  0.33155464263E+00 -0.21793463977E+00  0.28716756431E+01  0.28989558444E+01  0.00000000000E+00 0. -1.
</event>
<event>
 5    1  0.7095115E+001  0.1599677E+01  0.7818608E-02  0.3353714E+00
         11   -1    0    0    0    0  0.00000000000E+00  0.00000000000E+00  0.39999999674E+01  0.40000000000E+01  0.51100000000E-03 0.  1.
    9000002   -1    0    0    0    0 -0.00000000000E+00 -0.00000000000E+00  0.00000000000E+00  0.93800000000E+00  0.93800000000E+00 0.  1.
         11    1    1    2    0    0  0.98911689265E-01 -0.48010831651E+00  0.11654326405E+01  0.12643263102E+01  0.51100000000E-03 0.  1.
    9000002    1    1    2    0    0 -0.23525494419E+00  0.11394525044E+01  0.12370196598E+01  0.19400408597E+01  0.93800000000E+00 0.  1.
         22    1    1    2    0    0  0.13634325492E+00 -0.65934418791E+00  0.15975476670E+01  0.17336328301E+01  0.00000000000E+00 0.  1.
</event>
<event>
 5    1  0.7095115E+001  0.1599586E+01  0.7818608E-02  0.3353813E+00
         11   -1    0    0    0    0  0.00000000000E+00  0.00000000000E+00  0.39999999674E+01  0.40000000000E+01  0.51100000000E-03 0. -1.
    9000002   -1    0    0    0    0 -0.00000000000E+00 -0.00000000000E+00  0.00000000000E+00  0.93800000000E+00  0.93800000000E+00 0. -1.
         11    1    1    2    0    0 -0.69016149633E-01  0.57843742662E-01  0.80851436318E+00  0.81351389912E+00  0.51100000000E-03 0. -1.
    9000002    1    1    2    0    0  0.29536607441E+00 -0.25366847734E+00  0.10218713317E+00  0.10207227951E+01  0.93800000000E+00 0. -1.
         22    1    1    2    0    0 -0.22634992478E+00  0.19582473468E+00  0.30892984710E+01  0.31037633057E+01  0.00000000000E+00 0. -1.
</event>
<event>
 5    1  0.7095115E+001  0.1599664E+01  0.7818608E-02  0.3353728E+00
         11   -1    0    0    0    0  0.00000000000E+00  0.00000000000E+00  0.39999999674E+01  0.40000000000E+01  0.51100000000E-03 0.  1.
    9000002   -1    0    0    0    0 -0.00000000000E+00 -0.00000000000E+00  0.00000000000E+00  0.93800000000E+00  0.93800000000E+00 0. -1.
         11    1    1    2    0    0 -0.13719284189E+00  0.54139783868E-01  0.14336383268E+01  0.14412050879E+01  0.51100000000E-03 0.  1.
    9000002    1    1    2    0    0  0.36605108349E+00 -0.15630624122E+00  0.10684461378E+00  0.10245412672E+01  0.93800000000E+00 0. -1.
         22    1    1    2    0    0 -0.22885824161E+00  0.10216645735E+00  0.24595170267E+01  0.24722536449E+01  0.00000000000E+00 0. -1.
</event>
<event>
 5    1  0.7095115E+001  0.1599527E+01  0.7818608E-02  0.3353877E+00
         11   -1    0    0    0    0  0.00000000000E+00  0.00000000000E+00  0.39999999674E+01  0.40000000000E+01  0.51100000000E-03 0. -1.
    9000002   -1    0    0    0    0 -0.00000000000E+00 -0.00000000000E+00  0.00000000000E+00  0.93800000000E+00  0.93800000000E+00 0. -1.
         11    1    1    2    0    0  0.18852428239E+00  0.15149335780E+00  0.10094729221E+01  0.10380402131E+01  0.51100000000E-03 0. -1.
    9000002    1    1    2    0    0 -0.68952803685E+00 -0.51046274465E+00  0.55391998355E+00  0.13866118691E+01  0.93800000000E+00 0. -1.
         22    1    1    2    0    0  0.50100375446E+00  0.35896938685E+00  0.24366070617E+01  0.25133479178E+01  0.00000000000E+00 0. -1.
</event>
<event>
 5    1  0.7095115E+001  0.1585241E+01  0.7818608E-02  0.3369540E+00
         11   -1    0    0    0    0  0.00000000000E+00  0.00000000000E+00  0.39999999674E+01  0.40000000000E+01  0.51100000000E-03 0. -1.
    9000002   -1    0    0    0    0 -0.00000000000E+00 -0.00000000000E+00  0.00000000000E+00  0.93800000000E+00  0.93800000000E+00 0.  1.
         11    1    1    2    0    0 -0.93413792975E-01  0.30910021206E-01  0.30220338323E+00  0.31781867800E+00  0.51100000000E-03 0. -1.
    9000002    1    1    2    0    0  0.19139948654E+00 -0.34972829659E+00  0.11929211066E+00  0.10261667762E+01  0.93800000000E+00 0.  1.
         22    1    1    2    0    0 -0.97985693568E-01  0.31881827538E+00  0.35785044735E+01  0.35940145458E+01  0.00000000000E+00 0. -1.
</event>
<event>
 5    1  0.7095115E+001  0.1593647E+01  0.7818608E-02  0.3360287E+00
         11   -1    0    0    0    0  0.00000000000E+00  0.00000000000E+00  0.39999999674E+01  0.40000000000E+01  0.51100000000E-03 0.  1.
    9000002   -1    0    0    0    0 -0.00000000000E+00 -0.00000000000E+00  0.00000000000E+00  0.93800000000E+00  0.93800000000E+00 0. -1.
         11    1    1    2    0    0 -0.43832044687E-01  0.62616253430E-01  0.40147185556E+00  0.40868319670E+00  0.51100000000E-03 0.  1.
    9000002    1    1    2    0    0  0.48721033572E+00 -0.54686692206E-01  0.16968228014E+00  0.10719144657E+01  0.93800000000E+00 0. -1.
         22    1    1    2    0    0 -0.44337829104E+00 -0.79295612235E-02  0.34288458317E+01  0.34574023376E+01  0.00000000000E+00 0.  1.
</event>
<event>
 5    1  0.7095115E+001  0.1597217E+01  0.7818608E-02  0.3356390E+00
         11   -1    0    0    0    0  0.00000000000E+00  0.00000000000E+00  0.39999999674E+01  0.40000000000E+01  0.51100000000E-03 0.  1.
    9000002   -1    0    0    0    0 -0.00000000000E+00 -0.00000000000E+00  0.00000000000E+00  0.93800000000E+00  0.93800000000E+00 0.  1.
         11    1    1    2    0    0 -0.11756422935E+00 -0.74559557276E-01  0.84787500488E+00  0.85922800270E+00  0.51100000000E-03 0.  1.
    9000002    1    1    2    0    0  0.33083645592E+00  0.24797615870E+00  0.11757837475E+00  0.10318011485E+01  0.93800000000E+00 0.  1.
         22    1    1    2    0    0 -0.21327222657E+00 -0.17341660142E+00  0.30345465877E+01  0.30469708488E+01  0.00000000000E+00 0.  1.
</event>
<event>
 5    1  0.7095115E+001  0.1599675E+01  0.7818608E-02  0.3353716E+00
         11   -1    0    0    0    0  0.00000000000E+00  0.00000000000E+00  0.39999999674E+01  0.40000000000E+01  0.51100000000E-03 0.  1.
    9000002   -1    0    0    0    0 -0.00000000000E+00 -0.00000000000E+00  0.00000000000E+00  0.93800000000E+00  0.93800000000E+00 0.  1.
         11    1    1    2    0    0 -0.20217131447E-01 -0.58453950185E-01  0.68591404961E+00  0.68869727840E+00  0.51100000000E-03 0.  1.
    9000002    1    1    2    0    0  0.12135042897E+00  0.33675004507E+00  0.85987923162E-01  0.10076529375E+01  0.93800000000E+00 0.  1.
         22    1    1    2    0    0 -0.10113329752E+00 -0.27829609489E+00  0.32280979946E+01  0.32416497841E+01  0.00000000000E+00 0.  1.
</event>
<event>
 5    1  0.7095115E+001  0.1599665E+01  0.7818608E-02  0.3353727E+00
         11   -1    0    0    0    0  0.00000000000E+00  0.00000000000E+00  0.39999999674E+01  0.40000000000E+01  0.51100000000E-03 0.  1.
    9000002   -1    0    0    0    0 -0.00000000000E+00 -0.00000000000E+00  0.00000000000E+00  0.93800000000E+00  0.93800000000E+00 0. -1.
         11    1    1    2    0    0 -0.16813590330E-01  0.37436349245E-01  0.43222220838E+00  0.43416641465E+00  0.51100000000E-03 0.  1.
    9000002    1    1    2    0    0  0.13494527197E+00 -0.35423992623E+00  0.96683578556E-01  0.10163109102E+01  0.93800000000E+00 0. -1.
         22    1    1    2    0    0 -0.11813168164E+00  0.31680357699E+00  0.34710941804E+01  0.34875226752E+01  0.00000000000E+00 0.  1.
</event>
<event>
 5    1  0.7095115E+001  0.1599675E+01  0.7818608E-02  0.3353716E+00
         11   -1    0    0    0    0  0.00000000000E+00  0.00000000000E+00  0.39999999674E+01  0.40000000000E+01  0.51100000000E-03 0.  1.
    9000002   -1    0    0    0    0 -0.00000000000E+00 -0.00000000000E+00  0.00000000000E+00  0.93800000000E+00  0.93800000000E+00 0.  1.
         11    1    1    2    0    0  0.12038532503E-01 -0.59779038204E-01  0.46427458214E+00  0.46826232863E+00  0.51100000000E-03 0.  1.
    9000002    1    1    2    0    0 -0.10663318141E+00  0.48994682518E+00  0.17215267361E+00  0.10774502633E+01  0.93800000000E+00 0.  1.
         22    1    1    2    0    0  0.94594648910E-01 -0.43016778698E+00  0.33635727116E+01  0.33922874081E+01  0.00000000000E+00 0.  1.
</event>
<event>
 5    1  0.7095115E+001  0.1599664E+01  0.7818608E-02  0.3353728E+00
         11   -1    0    0    0    0  0.00000000000E+00  0.00000000000E+00  0.39999999674E+01  0.40000000000E+01  0.51100000000E-03 0. -1.
    9000002   -1    0    0    0    0 -0.00000000000E+00 -0.00000000000E+00  0.00000000000E+00  0.93800000000E+00  0.93800000000E+00 0.  1.
         11    1    1    2    0    0  0.45845251863E-01  0.12661340100E-02  0.39942973240E+00  0.40205442723E+00  0.51100000000E-03 0. -1.
    9000002    1    1    2    0    0 -0.42562680996E+00 -0.28082608544E-01  0.12317272048E+00  0.10377679574E+01  0.93800000000E+00 0.  1.
         22    1    1    2    0    0  0.37978155809E+00  0.26816474534E-01  0.34773975145E+01  0.34981776154E+01  0.00000000000E+00 0. -1.
</event>
<event>
 5    1  0.7095115E+001  0.1599676E+01  0.7818608E-02  0.3353715E+00
         11   -1    0    0    0    0  0.00000000000E+00  0.00000000000E+00  0.39999999674E+01  0.40000000000E+01  0.51100000000E-03 0.  1.
    9000002   -1    0    0    0    0 -0.00000000000E+00 -0.00000000000E+00  0.00000000000E+00  0.93800000000E+00  0.93800000000E+00 0. -1.
         11    1    1    2    0    0 -0.46690095320E-01 -0.80093992406E-01  0.35638829257E+00  0.36824976418E+00  0.51100000000E-03 0.  1.
    9000002    1    1    2    0    0  0.44941837981E+00  0.76216813900E+00  0.59537303406E+00  0.14202782129E+01  0.93800000000E+00 0. -1.
         22    1    1    2    0    0 -0.40272828449E+00 -0.68207414660E+00  0.30482386407E+01  0.31494720230E+01  0.00000000000E+00 0.  1.
</event>
<event>
 5    1  0.7095115E+001  0.1534956E+01  0.7818608E-02  0.3427134E+00
         11   -1    0    0    0    0  0.00000000000E+00  0.00000000000E+00  0.39999999674E+01  0.40000000000E+01  0.51100000000E-03 0. -1.
    9000002   -1    0    0    0    0 -0.00000000000E+00 -0.00000000000E+00  0.00000000000E+00  0.93800000000E+00  0.93800000000E+00 0.  1.
         11    1    1    2    0    0 -0.69246141241E-01 -0.34612844631E+00  0.12717707768E+01  0.13198488926E+01  0.51100000000E-03 0. -1.
    9000002    1    1    2    0    0 -0.27007946199E+00  0.31388926525E+00  0.17244238870E+00  0.10397354298E+01  0.93800000000E+00 0.  1.
         22    1    1    2    0    0  0.33932560323E+00  0.32239181067E-01  0.25557868019E+01  0.25784156776E+01  0.00000000000E+00 0. -1.
</event>
<event>
 5    1  0.7095115E+001  0.1599674E+01  0.7818608E-02  0.3353717E+00
         11   -1    0    0    0    0  0.00000000000E+00  0.00000000000E+00  0.39999999674E+01  0.40000000000E+01  0.51100000000E-03 0. -1.
    9000002   -1    0    0    0    0 -0.00000000000E+00 -0.00000000000E+00  0.00000000000E+00  0.93800000000E+00  0.93800000000E+00 0. -1.
         11    1    1    2    0    0 -0.64089923840E-01 -0.58566438921E-01  0.82481898652E+00  0.82937576993E+00  0.51100000000E-03 0. -1.
    9000002    1    1    2    0    0  0.30684165647E+00  0.26992480537E+00  0.11278182753E+00  0.10293565676E+01  0.93800000000E+00 0. -1.
         22    1    1    2    0    0 -0.24275173263E+00 -0.21135836645E+00  0.30623991533E+01  0.30792676624E+01  0.00000000000E+00 0. -1.
</event>
<event>
 5    1  0.7095115E+001  0.1598817E+01  0.7818608E-02  0.3354649E+00
         11   -1    0    0    0    0  0.00000000000E+00  0.00000000000E+00  0.39999999674E+01  0.40000000000E+01  0.51100000000E-03 0.  1.
    9000002   -1    0    0    0    0 -0.00000000000E+00 -0.00000000000E+00  0.00000000000E+00  0.93800000000E+00  0.93800000000E+00 0.  1.
         11    1    1    2    0    0  0.83219105935E-01  0.23115125356E-01  0.83693872223E+00  0.84138363099E+00  0.51100000000E-03 0.  1.
    9000002    1    1    2    0    0 -0.47754593396E+00 -0.19673106741E+00  0.18391113311E+00  0.10864715996E+01  0.93800000000E+00 0.  1.
         22    1    1    2    0    0  0.39432682803E+00  0.17361594206E+00  0.29791501120E+01  0.30101447694E+01  0.00000000000E+00 0.  1.
</event>
<event>
 5    1  0.7095115E+001  0.1574534E+01  0.7818608E-02  0.3381476E+00
         11   -1    0    0    0    0  0.00000000000E+00  0.00000000000E+00  0.39999999674E+01  0.40000000000E+01  0.51100000000E-03 0. -1.
    9000002   -1    0    0    0    0 -0.00000000000E+00 -0.00000000000E+00  0.00000000000E+00  0.93800000000E+00  0.93800000000E+00 0.  1.
         11    1    1    2    0    0  0.35719073346E-01 -0.98199461014E-01  0.81682013436E+00  0.82347700597E+00  0.51100000000E-03 0. -1.
    9000002    1    1    2    0    0  0.25178129439E+00 -0.14032044783E+00  0.75191608688E-01  0.98416534500E+00  0.93800000000E+00 0.  1.
         22    1    1    2    0    0 -0.28750036774E+00  0.23851990885E+00  0.31079882243E+01  0.31303576490E+01  0.00000000000E+00 0. -1.
</event>
<event>
 5    1  0.7095115E+001  0.1596014E+01  0.7818608E-02  0.3357701E+00
         11   -1    0    0    0    0  0.00000000000E+00  0.00000000000E+00  0.39999999674E+01  0.40000000000E+01  0.51100000000E-03 0.  1.
    9000002   -1    0    0    0    0 -0.00000000000E+00 -0.00000000000E+00  0.00000000000E+00  0.93800000000E+00  0.93800000000E+00 0. -1.
         11    1    1    2    0    0 -0.48515647467E-01  0.14009067463E-01  0.50778400299E+00  0.51028901305E+00  0.51100000000E-03 0.  1.
    9000002    1    1    2    0    0  0.23497203211E+00  0.24264692726E+00  0.79330487876E-01  0.10001133503E+01  0.93800000000E+00 0. -1.
         22    1    1    2    0    0 -0.18645638464E+00 -0.25665599473E+00  0.34128854765E+01  0.34275976366E+01  0.00000000000E+00 0.  1.
</event>
